Gaussian '09 started on node012 at Mon Feb 29 14:22:26 EST 2016.
 Entering Gaussian System, Link 0=/usr/local/gaussian/g09/g09
 Initial command:
 /usr/local/gaussian/g09/l1.exe /home/srmcgrat/thesis/gaussian/cellobiose/310/10000/2/gdp/gaussian13165/Gau-13201.inp -scrdir=/home/srmcgrat/thesis/gaussian/cellobiose/310/10000/2/gdp/gaussian13165/
 Entering Link 1 = /usr/local/gaussian/g09/l1.exe PID=     13203.
  
 Copyright (c) 1988,1990,1992,1993,1995,1998,2003,2009,2010,
            Gaussian, Inc.  All Rights Reserved.
  
 This is part of the Gaussian(R) 09 program.  It is based on
 the Gaussian(R) 03 system (copyright 2003, Gaussian, Inc.),
 the Gaussian(R) 98 system (copyright 1998, Gaussian, Inc.),
 the Gaussian(R) 94 system (copyright 1995, Gaussian, Inc.),
 the Gaussian 92(TM) system (copyright 1992, Gaussian, Inc.),
 the Gaussian 90(TM) system (copyright 1990, Gaussian, Inc.),
 the Gaussian 88(TM) system (copyright 1988, Gaussian, Inc.),
 the Gaussian 86(TM) system (copyright 1986, Carnegie Mellon
 University), and the Gaussian 82(TM) system (copyright 1983,
 Carnegie Mellon University). Gaussian is a federally registered
 trademark of Gaussian, Inc.
  
 This software contains proprietary and confidential information,
 including trade secrets, belonging to Gaussian, Inc.
  
 This software is provided under written license and may be
 used, copied, transmitted, or stored only in accord with that
 written license.
  
 The following legend is applicable only to US Government
 contracts under FAR:
  
                    RESTRICTED RIGHTS LEGEND
  
 Use, reproduction and disclosure by the US Government is
 subject to restrictions as set forth in subparagraphs (a)
 and (c) of the Commercial Computer Software - Restricted
 Rights clause in FAR 52.227-19.
  
 Gaussian, Inc.
 340 Quinnipiac St., Bldg. 40, Wallingford CT 06492
  
  
 ---------------------------------------------------------------
 Warning -- This program may not be used in any manner that
 competes with the business of Gaussian, Inc. or will provide
 assistance to any competitor of Gaussian, Inc.  The licensee
 of this program is prohibited from giving any competitor of
 Gaussian, Inc. access to this program.  By using this program,
 the user acknowledges that Gaussian, Inc. is engaged in the
 business of creating and licensing software in the field of
 computational chemistry and represents and warrants to the
 licensee that it is not a competitor of Gaussian, Inc. and that
 it will not use this program in any manner prohibited above.
 ---------------------------------------------------------------
  

 Cite this work as:
 Gaussian 09, Revision B.01,
 M. J. Frisch, G. W. Trucks, H. B. Schlegel, G. E. Scuseria, 
 M. A. Robb, J. R. Cheeseman, G. Scalmani, V. Barone, B. Mennucci, 
 G. A. Petersson, H. Nakatsuji, M. Caricato, X. Li, H. P. Hratchian, 
 A. F. Izmaylov, J. Bloino, G. Zheng, J. L. Sonnenberg, M. Hada, 
 M. Ehara, K. Toyota, R. Fukuda, J. Hasegawa, M. Ishida, T. Nakajima, 
 Y. Honda, O. Kitao, H. Nakai, T. Vreven, J. A. Montgomery, Jr., 
 J. E. Peralta, F. Ogliaro, M. Bearpark, J. J. Heyd, E. Brothers, 
 K. N. Kudin, V. N. Staroverov, T. Keith, R. Kobayashi, J. Normand, 
 K. Raghavachari, A. Rendell, J. C. Burant, S. S. Iyengar, J. Tomasi, 
 M. Cossi, N. Rega, J. M. Millam, M. Klene, J. E. Knox, J. B. Cross, 
 V. Bakken, C. Adamo, J. Jaramillo, R. Gomperts, R. E. Stratmann, 
 O. Yazyev, A. J. Austin, R. Cammi, C. Pomelli, J. W. Ochterski, 
 R. L. Martin, K. Morokuma, V. G. Zakrzewski, G. A. Voth, 
 P. Salvador, J. J. Dannenberg, S. Dapprich, A. D. Daniels, 
 O. Farkas, J. B. Foresman, J. V. Ortiz, J. Cioslowski, 
 and D. J. Fox, Gaussian, Inc., Wallingford CT, 2010.
 
 ******************************************
 Gaussian 09:  EM64L-G09RevB.01 12-Aug-2010
                29-Feb-2016 
 ******************************************
 ------------------------------------------------
 # freq=raman b3lyp/6-31+g(d,p) geom=connectivity
 ------------------------------------------------
 1/10=4,30=1,38=1,57=2/1,3;
 2/12=2,17=6,18=5,40=1/2;
 3/5=1,6=6,7=111,11=2,16=1,25=1,30=1,71=2,74=-5/1,2,3;
 4//1;
 5/5=2,38=5,98=1/2;
 8/6=4,10=90,11=11/1;
 10/13=10,15=4/2;
 11/6=3,8=1,9=11,15=111,16=1/1,2,10;
 10/6=1/2;
 6/7=2,8=2,9=2,10=2,18=1,28=1/1;
 7/8=1,10=1,25=1/1,2,3,16;
 1/10=4,30=1/3;
 99//99;
 -------------
 310 10000.com
 -------------
 Symbolic Z-matrix:
 Charge =  0 Multiplicity = 1
 O                     7.829     7.56      22.807 
 C                     8.452     8.037     24.009 
 C                     8.161     9.427     24.55 
 O                     8.36      10.533    23.657 
 H                     8.357     10.052    22.78 
 C                     8.496     9.879     25.962 
 O                     7.623     10.92     26.423 
 H                     8.034     11.306    27.249 
 C                     8.519     5.609     24.875 
 O                     7.762     4.816     23.949 
 H                     7.969     3.859     24.152 
 C                     8.106     7.052     25.114 
 O                     8.768     7.446     26.325 
 C                     8.216     8.668     26.836 
 O                     9.074     8.832     27.975 
 C                     8.456     8.343     29.174 
 C                     8.934     6.998     29.695 
 O                     8.883     5.912     28.758 
 H                     9.018     6.396     27.893 
 C                     8.217     6.525     30.949 
 O                     8.648     5.272     31.501 
 H                     8.276     5.133     32.419 
 C                     8.119     10.758    30.101 
 O                     8.545     11.563    28.992 
 H                     8.538     12.538    29.213 
 C                     8.707     9.366     30.27 
 O                     8.068     8.887     31.462 
 C                     8.471     7.611     31.981 
 O                     7.752     7.444     33.212 
 H                     8.37506   7.34582   33.93571 
 H                     9.51869   7.64178   32.19617 
 H                     7.16702   6.4731    30.74962 
 H                     9.96291   7.12553   29.95953 
 H                     7.40116   8.28107   29.00555 
 H                     9.75999   9.44674   30.442 
 H                     8.33134   11.30618   30.99504 
 H                     7.0568    10.65059   30.02957 
 H                     8.50552   7.30877   22.17391 
 H                     8.49602   5.10793   25.82014 
 H                     9.53363   5.61769   24.53536 
 H                     7.04888   7.08128   25.27691 
 H                     9.50905   7.98072   23.85289 
 H                     7.09306   9.38635   24.60237 
 H                     9.52134   10.17549   26.03732 
 H                     7.18589   8.57695   27.11073 
 

 GradGradGradGradGradGradGradGradGradGradGradGradGradGradGradGradGradGrad
 Berny optimization.
 Initialization pass.
 Trust Radius=3.00D-01 FncErr=1.00D-07 GrdErr=1.00D-07
 Number of steps in this run=      2 maximum allowed number of steps=      2.
 GradGradGradGradGradGradGradGradGradGradGradGradGradGradGradGradGradGrad

                          Input orientation:                          
 ---------------------------------------------------------------------
 Center     Atomic      Atomic             Coordinates (Angstroms)
 Number     Number       Type             X           Y           Z
 ---------------------------------------------------------------------
      1          8           0        7.829000    7.560000   22.807000
      2          6           0        8.452000    8.037000   24.009000
      3          6           0        8.161000    9.427000   24.550000
      4          8           0        8.360000   10.533000   23.657000
      5          1           0        8.357000   10.052000   22.780000
      6          6           0        8.496000    9.879000   25.962000
      7          8           0        7.623000   10.920000   26.423000
      8          1           0        8.034000   11.306000   27.249000
      9          6           0        8.519000    5.609000   24.875000
     10          8           0        7.762000    4.816000   23.949000
     11          1           0        7.969000    3.859000   24.152000
     12          6           0        8.106000    7.052000   25.114000
     13          8           0        8.768000    7.446000   26.325000
     14          6           0        8.216000    8.668000   26.836000
     15          8           0        9.074000    8.832000   27.975000
     16          6           0        8.456000    8.343000   29.174000
     17          6           0        8.934000    6.998000   29.695000
     18          8           0        8.883000    5.912000   28.758000
     19          1           0        9.018000    6.396000   27.893000
     20          6           0        8.217000    6.525000   30.949000
     21          8           0        8.648000    5.272000   31.501000
     22          1           0        8.276000    5.133000   32.419000
     23          6           0        8.119000   10.758000   30.101000
     24          8           0        8.545000   11.563000   28.992000
     25          1           0        8.538000   12.538000   29.213000
     26          6           0        8.707000    9.366000   30.270000
     27          8           0        8.068000    8.887000   31.462000
     28          6           0        8.471000    7.611000   31.981000
     29          8           0        7.752000    7.444000   33.212000
     30          1           0        8.375056    7.345820   33.935714
     31          1           0        9.518690    7.641779   32.196170
     32          1           0        7.167023    6.473097   30.749616
     33          1           0        9.962913    7.125535   29.959525
     34          1           0        7.401159    8.281068   29.005553
     35          1           0        9.759994    9.446742   30.441999
     36          1           0        8.331338   11.306184   30.995040
     37          1           0        7.056804   10.650588   30.029569
     38          1           0        8.505521    7.308766   22.173912
     39          1           0        8.496025    5.107927   25.820145
     40          1           0        9.533628    5.617694   24.535360
     41          1           0        7.048879    7.081281   25.276905
     42          1           0        9.509053    7.980724   23.852885
     43          1           0        7.093056    9.386354   24.602371
     44          1           0        9.521339   10.175490   26.037323
     45          1           0        7.185887    8.576945   27.110728
 ---------------------------------------------------------------------
                    Distance matrix (angstroms):
                    1          2          3          4          5
     1  O    0.000000
     2  C    1.435431   0.000000
     3  C    2.575648   1.519691   0.000000
     4  O    3.137386   2.522377   1.435370   0.000000
     5  H    2.547465   2.362137   1.887311   1.000249   0.000000
     6  C    3.971986   2.684978   1.519958   2.399841   3.189729
     7  O    4.940394   3.850497   2.454918   2.888545   3.816232
     8  H    5.814285   4.621546   3.291105   3.688668   4.652828
     9  C    2.925598   2.578687   3.848495   5.074897   4.914826
    10  O    2.972909   3.294623   4.667089   5.755602   5.397803
    11  H    3.940308   4.208256   5.585507   6.703744   6.355012
    12  C    2.378454   1.520186   2.441669   3.782159   3.809273
    13  O    3.642944   2.411015   2.728266   4.100519   4.418957
    14  C    4.196460   2.906163   2.409336   3.688496   4.287945
    15  O    5.465916   4.092440   3.594192   4.695564   5.384284
    16  C    6.445534   5.174058   4.758514   5.936548   6.619193
    17  C    6.998672   5.800210   5.741829   7.020196   7.581363
    18  O    6.264281   5.220573   5.530260   6.902708   7.290594
    19  H    5.351263   4.254256   4.593153   5.957468   6.320287
    20  C    8.216686   7.106685   7.026517   8.322126   8.898983
    21  O    9.027255   7.988348   8.112804   9.449307   9.949318
    22  H    9.923743   8.899005   8.965089  10.292701  10.821896
    23  C    7.969551   6.680359   5.708496   6.452429   7.358812
    24  O    7.402087   6.105048   4.943816   5.436667   6.395890
    25  H    8.143709   6.880989   5.618186   5.909386   6.899018
    26  C    7.728447   6.405575   5.746324   6.724141   7.529488
    27  O    8.759399   7.511136   6.933685   7.982018   8.764580
    28  C    9.196578   7.983397   7.655960   8.822663   9.519973
    29  O   10.405931   9.248614   8.895494  10.060299  10.770066
    30  H   11.144161   9.951045   9.616067  10.761519  11.479272
    31  H    9.540349   8.265820   7.968328   9.089508   9.788920
    32  H    8.043925   7.037959   6.938932   8.259008   8.816993
    33  H    7.476695   6.206640   6.148707   7.341796   7.917622
    34  H    6.255002   5.111691   4.662883   5.881972   6.542732
    35  H    8.098255   6.714290   6.105147   7.012571   7.812871
    36  H    9.018328   7.714070   6.715570   7.378717   8.310265
    37  H    7.893892   6.710042   5.722071   6.505520   7.389525
    38  H    0.960000   1.975029   3.201781   3.551959   2.813314
    39  H    3.941652   3.444075   4.514410   5.842013   5.805658
    40  H    3.108944   2.701854   4.049090   5.129244   4.912108
    41  H    2.634045   2.118898   2.695849   4.032058   4.095227
    42  H    2.023231   1.070000   2.096409   2.805852   2.601633
    43  H    2.664684   2.004888   1.070000   1.952862   2.315529
    44  H    4.487737   3.135398   2.150091   2.672538   3.461371
    45  H    4.468763   3.393420   2.868931   4.139194   4.722552
                    6          7          8          9         10
     6  C    0.000000
     7  O    1.434688   0.000000
     8  H    1.976396   1.000096   0.000000
     9  C    4.406245   5.604091   6.190873   0.000000
    10  O    5.497717   6.587778   7.285883   1.435052   0.000000
    11  H    6.308267   7.425286   8.065571   1.971732   0.999953
    12  C    2.977101   4.111957   4.760244   1.519848   2.544653
    13  O    2.474923   3.659140   4.036351   2.353523   3.684333
    14  C    1.519473   2.365105   2.676329   3.646205   4.835162
    15  O    2.341466   2.978901   2.780171   4.506191   5.835947
    16  C    3.560595   3.860417   3.558522   5.095108   6.342081
    17  C    4.735746   5.273214   5.035055   5.033284   6.257094
    18  O    4.868724   5.667441   5.665079   3.911776   5.058096
    19  H    4.016533   4.957167   5.048870   3.158591   4.430471
    20  C    6.016421   6.336682   6.048260   6.150100   7.219952
    21  O    7.206114   7.663982   7.407135   6.635818   7.617456
    22  H    8.016593   8.358696   8.055644   7.562907   8.491501
    23  C    4.248069   3.714828   2.905414   7.347331   8.560486
    24  O    3.466866   2.804157   1.834453   7.238818   8.459725
    25  H    4.200125   3.352499   2.372580   8.174940   9.377695
    26  C    4.343565   4.288284   3.652803   6.576961   7.845417
    27  O    5.605109   5.451847   4.858198   7.371381   8.550547
    28  C    6.432170   6.523799   6.019619   7.382787   8.533916
    29  O    7.684091   7.628220   7.109989   8.570944   9.628585
    30  H    8.367302   8.353515   7.778913   9.226797  10.320381
    31  H    6.701935   6.904337   6.332876   7.663622   8.893076
    32  H    6.023921   6.221131   6.030167   6.089796   7.024838
    33  H    5.070859   5.690358   5.342653   5.498833   6.804732
    34  H    3.607670   3.699021   3.554740   5.044897   6.140492
    35  H    4.674924   4.784306   4.078129   6.874577   8.221605
    36  H    5.234067   4.642675   3.757822   8.363493   9.596526
    37  H    4.383121   3.660670   3.019279   7.356984   8.456538
    38  H    4.577751   5.645760   6.477402   3.191436   3.149229
    39  H    4.773181   5.908113   6.377397   1.070000   2.031058
    40  H    4.612017   5.943747   6.478391   1.070000   2.031058
    41  H    3.223468   4.047087   4.765277   2.119055   2.720914
    42  H    3.012987   4.336131   4.976629   2.765863   3.616201
    43  H    2.014831   2.438771   3.402215   4.046733   4.665031
    44  H    1.070000   2.075267   2.226745   4.817521   6.015023
    45  H    2.175160   2.480714   2.861146   3.947704   4.947033
                   11         12         13         14         15
    11  H    0.000000
    12  C    3.337583   0.000000
    13  O    4.269297   1.435270   0.000000
    14  C    5.512835   2.364073   1.434960   0.000000
    15  O    6.369229   3.505816   2.176495   1.435403   0.000000
    16  C    6.750104   4.274667   3.003124   2.372650   1.434798
    17  C    6.442779   4.655541   3.403698   3.387965   2.518245
    18  O    5.124982   3.896417   2.878519   3.425567   3.029186
    19  H    4.640243   2.997486   1.903582   2.631052   2.438023
    20  C    7.305359   5.859802   4.746917   4.637803   3.860230
    21  O    7.514347   6.652513   5.615305   5.786334   5.028693
    22  H    8.370222   7.554766   6.536732   6.608306   5.836826
    23  C    9.110944   6.213274   5.064457   3.877852   3.023471
    24  O    9.116413   5.964958   4.910428   3.624583   2.961839
    25  H   10.062928   6.861823   5.858490   4.553099   3.943904
    26  C    8.264479   5.683321   4.387841   3.538452   2.384716
    27  O    8.872806   6.608008   5.381008   4.633545   3.629632
    28  C    8.696134   6.899376   5.666195   5.258640   4.231133
    29  O    9.745918   8.115207   6.961539   6.508982   5.576773
    30  H   10.394414   8.830705   7.621509   7.223530   6.182828
    31  H    9.023283   7.245735   5.922204   5.610843   4.408248
    32  H    7.141793   5.742558   4.804882   4.608074   4.110898
    33  H    6.955091   5.189667   3.839308   3.897090   2.764151
    34  H    6.590456   4.141449   3.122653   2.349605   2.040579
    35  H    8.602012   6.071084   4.683663   3.999198   2.633359
    36  H   10.120229   7.261920   6.074616   4.926553   3.974138
    37  H    9.027934   6.181704   5.188584   3.933608   3.405524
    38  H    4.012677   2.978198   4.161642   4.864813   6.024619
    39  H    2.149484   2.104799   2.407371   3.712747   4.341218
    40  H    2.384959   2.104799   2.670524   4.041467   4.730131
    41  H    3.534845   1.070000   2.046191   2.512095   3.800769
    42  H    4.410198   2.102736   2.635610   3.323147   4.231521
    43  H    5.614424   2.595579   3.088343   2.601180   3.950453
    44  H    6.772167   3.551324   2.846119   2.148097   2.399931
    45  H    5.623730   2.675628   2.097496   1.070000   2.092126
                   16         17         18         19         20
    16  C    0.000000
    17  C    1.519523   0.000000
    18  O    2.503027   1.435258   0.000000
    19  H    2.397418   1.901753   1.000353   0.000000
    20  C    2.552033   1.519978   2.370613   3.161863   0.000000
    21  O    3.857828   2.514460   2.826460   3.797096   1.435435
    22  H    4.567989   3.366209   3.791861   4.757143   2.025351
    23  C    2.608663   3.868677   5.086360   4.970967   4.318217
    24  O    3.226367   4.635165   5.665933   5.303717   5.414691
    25  H    4.195983   5.575010   6.650558   6.300553   6.266810
    26  C    1.520114   2.447361   3.774551   3.816772   2.961827
    27  O    2.383574   2.727740   4.102008   4.454811   2.421655
    28  C    2.900913   2.411625   3.666616   4.299672   1.519518
    29  O    4.196339   3.737021   4.843996   5.567120   2.486354
    30  H    4.865679   4.291509   5.396532   6.150603   3.101481
    31  H    3.279411   2.648050   3.900930   4.507763   2.120619
    32  H    2.764157   2.123663   2.688111   3.404749   1.070000
    33  H    2.090468   1.070000   2.020530   2.386547   2.094735
    34  H    1.070000   2.114522   2.805285   2.721293   2.743421
    35  H    2.127550   2.690095   4.012402   4.044129   3.342822
    36  H    3.480257   4.540237   5.865654   5.848424   4.782773
    37  H    2.831026   4.120340   5.235083   5.149052   4.383136
    38  H    7.076251   7.539691   6.741192   5.814099   8.814744
    39  H    4.660005   4.333440   3.070387   2.495660   5.328331
    40  H    5.486853   5.374633   4.282595   3.485022   6.609954
    41  H    4.331197   4.804183   4.104782   3.345295   5.817784
    42  H    5.436398   5.952037   5.360197   4.367495   7.358219
    43  H    4.883237   5.918461   5.704760   4.845190   7.051971
    44  H    3.785724   4.880575   5.097735   4.240452   6.257152
    45  H    2.434135   3.496774   3.563093   2.953830   4.472808
                   21         22         23         24         25
    21  O    0.000000
    22  H    1.000214   0.000000
    23  C    5.686478   6.085918   0.000000
    24  O    6.773653   7.291199   1.435055   0.000000
    25  H    7.618517   8.073482   2.032856   0.999757   0.000000
    26  C    4.275474   4.766786   1.520516   2.546829   3.347745
    27  O    3.661440   3.879643   2.314209   3.672793   4.313780
    28  C    2.394295   2.523956   3.682650   4.955593   5.651694
    29  O    2.906531   2.498829   4.560220   5.950076   6.523698
    30  H    3.209837   2.684549   5.139413   6.500292   7.020635
    31  H    2.618629   2.808541   4.007456   5.156622   5.816703
    32  H    2.049514   2.410920   4.437044   5.558340   6.404983
    33  H    2.746039   3.586765   4.076130   4.757907   5.646455
    34  H    4.103213   4.725177   2.801873   3.475577   4.410999
    35  H    4.448201   4.971835   2.128037   2.838530   3.543950
    36  H    6.063633   6.335529   1.070000   2.030708   2.176177
    37  H    5.798812   6.135111   1.070000   2.030708   2.534374
    38  H    9.547947  10.476090   8.653632   8.036566   8.768963
    39  H    5.685256   6.602570   7.098675   7.192428   8.168183
    40  H    7.030219   7.998021   7.707157   7.495711   8.412028
    41  H    6.676080   7.504075   6.159165   6.010500   6.891016
    42  H    8.159183   9.110888   6.977424   6.338186   7.102291
    43  H    8.181494   8.977197   5.759245   5.110262   5.768764
    44  H    7.393152   8.228206   4.338127   3.407130   4.078398
    45  H    5.686381   6.420815   3.816992   3.781917   4.683772
                   26         27         28         29         30
    26  C    0.000000
    27  O    1.434791   0.000000
    28  C    2.462365   1.435251   0.000000
    29  O    3.641631   2.290110   1.435344   0.000000
    30  H    4.198663   2.930662   1.974951   0.960000   0.000000
    31  H    2.709596   2.047946   1.070000   2.047491   2.102736
    32  H    3.312167   2.673233   2.124026   2.710754   3.517415
    33  H    2.587160   2.991803   2.558875   3.945649   4.287177
    34  H    2.116866   2.616479   3.232156   4.303251   5.111716
    35  H    1.070000   2.053426   2.720291   3.964332   4.305575
    36  H    2.105022   2.477872   3.827010   4.490770   4.932947
    37  H    2.105022   2.486889   3.879062   4.570926   5.283677
    38  H    8.355803   9.431375   9.811805  11.064605  11.762584
    39  H    6.162541   6.804052   6.649973   7.787832   8.419338
    40  H    6.900667   7.798382   7.780745   9.043985   9.627842
    41  H    5.735878   6.523390   6.873712   7.974439   8.763771
    42  H    6.613746   7.797217   8.202469   9.537732  10.166242
    43  H    5.892983   6.946538   7.713286   8.850574   9.639429
    44  H    4.385656   5.761902   6.557981   7.878298   8.467914
    45  H    3.594078   4.450599   5.128754   6.231338   7.036350
                   31         32         33         34         35
    31  H    0.000000
    32  H    2.998112   0.000000
    33  H    2.338038   2.977737   0.000000
    34  H    3.882353   2.522961   2.967811   0.000000
    35  H    2.528485   3.957360   2.379487   2.997712   0.000000
    36  H    4.034896   4.977408   4.605666   3.738263   2.409240
    37  H    4.450615   4.240524   4.569067   2.604191   2.987738
    38  H   10.078843   8.719669   7.922963   6.988299   8.631680
    39  H    6.936855   5.284849   4.832905   4.627568   6.464091
    40  H    7.923709   6.704440   5.646188   5.623488   7.042814
    41  H    7.368199   5.507668   5.515476   3.932735   6.294739
    42  H    8.350173   7.437940   6.182911   5.575250   6.754894
    43  H    8.160456   6.803026   6.484326   4.550231   6.420083
    44  H    6.659662   6.438651   4.988074   4.110278   4.470928
    45  H    5.672586   4.203337   4.234869   1.929832   4.298831
                   36         37         38         39         40
    36  H    0.000000
    37  H    1.728113   0.000000
    38  H    9.686175   8.658978   0.000000
    39  H    8.076202   7.107158   4.258966   0.000000
    40  H    8.690908   7.851816   3.081098   1.728338   0.000000
    41  H    7.224373   5.943722   3.435422   2.506684   2.977575
    42  H    7.965932   7.161922   2.068225   3.626196   2.459733
    43  H    6.788616   5.572619   3.494115   4.664357   4.490398
    44  H    5.222406   4.715685   4.916903   5.174807   4.798911
    45  H    4.883511   3.582777   5.265156   3.926341   4.571824
                   41         42         43         44         45
    41  H    0.000000
    42  H    2.981491   0.000000
    43  H    2.402147   2.893884   0.000000
    44  H    4.033041   3.096597   2.928888   0.000000
    45  H    2.370377   4.045506   2.637350   3.026860   0.000000
 Stoichiometry    C12H22O11
 Framework group  C1[X(C12H22O11)]
 Deg. of freedom   129
 Full point group                 C1      NOp   1
 Largest Abelian subgroup         C1      NOp   1
 Largest concise Abelian subgroup C1      NOp   1
                         Standard orientation:                         
 ---------------------------------------------------------------------
 Center     Atomic      Atomic             Coordinates (Angstroms)
 Number     Number       Type             X           Y           Z
 ---------------------------------------------------------------------
      1          8           0        4.949373   -0.671309   -0.427124
      2          6           0        3.743301   -0.183563    0.179469
      3          6           0        3.236659    1.223093   -0.092738
      4          8           0        4.146679    2.306180    0.150310
      5          1           0        5.013820    1.807650    0.156130
      6          6           0        1.826689    1.696331    0.220795
      7          8           0        1.406237    2.765080   -0.639046
      8          1           0        0.578979    3.158808   -0.238030
      9          6           0        2.828067   -2.594360    0.173757
     10          8           0        3.755028   -3.389471   -0.579845
     11          1           0        3.528482   -4.346398   -0.398529
     12          6           0        2.627094   -1.138226   -0.212535
     13          8           0        1.409500   -0.734102    0.431011
     14          6           0        0.935409    0.509653   -0.105106
     15          8           0       -0.219200    0.678184    0.730870
     16          6           0       -1.413395    0.227084    0.075848
     17          6           0       -1.971604   -1.117066    0.512440
     18          8           0       -1.055395   -2.220512    0.458280
     19          1           0       -0.184243   -1.757202    0.623032
     20          6           0       -3.218222   -1.548919   -0.242399
     21          8           0       -3.804533   -2.799466    0.148557
     22          1           0       -4.716474   -2.911736   -0.246651
     23          6           0       -2.284512    2.667120   -0.228296
     24          8           0       -1.169680    3.440053    0.239791
     25          1           0       -1.371102    4.419263    0.249386
     26          6           0       -2.494296    1.266469    0.325001
     27          8           0       -3.680821    0.825675   -0.350635
     28          6           0       -4.233971   -0.447926    0.012558
     29          8           0       -5.451490   -0.574338   -0.737027
     30          1           0       -6.190891   -0.671232   -0.132463
     31          1           0       -4.472091   -0.435409    1.055651
     32          1           0       -2.996248   -1.582181   -1.288593
     33          1           0       -2.256715   -1.006428    1.537804
     34          1           0       -1.222434    0.184531   -0.976114
     35          1           0       -2.688393    1.327936    1.375452
     36          1           0       -3.172080    3.228631   -0.023777
     37          1           0       -2.191259    2.581234   -1.290758
     38          1           0        5.561922   -0.949891    0.257548
     39          1           0        1.873938   -3.075527    0.118824
     40          1           0        3.144816   -2.614469    1.195601
     41          1           0        2.488711   -1.082829   -1.272102
     42          1           0        3.874363   -0.265803    1.238222
     43          1           0        3.207621    1.206582   -1.162216
     44          1           0        1.734124    1.972085    1.250500
     45          1           0        0.682261    0.446453   -1.142806
 ---------------------------------------------------------------------
 Rotational constants (GHZ):      0.3863671      0.1531872      0.1131011
 Standard basis: 6-31+G(d,p) (6D, 7F)
 There are   547 symmetry adapted basis functions of A   symmetry.
 Integral buffers will be    131072 words long.
 Raffenetti 2 integral format.
 Two-electron integral symmetry is turned on.
   547 basis functions,   890 primitive gaussians,   547 cartesian basis functions
    91 alpha electrons       91 beta electrons
       nuclear repulsion energy      2292.9724906260 Hartrees.
 NAtoms=   45 NActive=   45 NUniq=   45 SFac= 1.00D+00 NAtFMM=   50 NAOKFM=F Big=F
 One-electron integrals computed using PRISM.
 NBasis=   547 RedAO= T  NBF=   547
 NBsUse=   547 1.00D-06 NBFU=   547
 Harris functional with IExCor=  402 diagonalized for initial guess.
 ExpMin= 4.38D-02 ExpMax= 5.48D+03 ExpMxC= 8.25D+02 IAcc=2 IRadAn=         0 AccDes= 0.00D+00
 HarFok:  IExCor=  402 AccDes= 0.00D+00 IRadAn=         0 IDoV= 1
 ScaDFX=  1.000000  1.000000  1.000000  1.000000
 FoFCou: FMM=F IPFlag=           0 FMFlag=      100000 FMFlg1=           0
         NFxFlg=           0 DoJE=T BraDBF=F KetDBF=T FulRan=T
         Omega=  0.000000  0.000000  1.000000  0.000000  0.000000 ICntrl=     500 IOpCl=  0
         NMat0=    1 NMatS0=    1 NMatT0=    0 NMatD0=    1 NMtDS0=    0 NMtDT0=    0
         I1Cent=           4 NGrid=           0.
 Petite list used in FoFCou.
 Initial guess orbital symmetries:
       Occupied  (A) (A) (A) (A) (A) (A) (A) (A) (A) (A) (A) (A)
                 (A) (A) (A) (A) (A) (A) (A) (A) (A) (A) (A) (A)
                 (A) (A) (A) (A) (A) (A) (A) (A) (A) (A) (A) (A)
                 (A) (A) (A) (A) (A) (A) (A) (A) (A) (A) (A) (A)
                 (A) (A) (A) (A) (A) (A) (A) (A) (A) (A) (A) (A)
                 (A) (A) (A) (A) (A) (A) (A) (A) (A) (A) (A) (A)
                 (A) (A) (A) (A) (A) (A) (A) (A) (A) (A) (A) (A)
                 (A) (A) (A) (A) (A) (A) (A)
       Virtual   (A) (A) (A) (A) (A) (A) (A) (A) (A) (A) (A) (A)
                 (A) (A) (A) (A) (A) (A) (A) (A) (A) (A) (A) (A)
                 (A) (A) (A) (A) (A) (A) (A) (A) (A) (A) (A) (A)
                 (A) (A) (A) (A) (A) (A) (A) (A) (A) (A) (A) (A)
                 (A) (A) (A) (A) (A) (A) (A) (A) (A) (A) (A) (A)
                 (A) (A) (A) (A) (A) (A) (A) (A) (A) (A) (A) (A)
                 (A) (A) (A) (A) (A) (A) (A) (A) (A) (A) (A) (A)
                 (A) (A) (A) (A) (A) (A) (A) (A) (A) (A) (A) (A)
                 (A) (A) (A) (A) (A) (A) (A) (A) (A) (A) (A) (A)
                 (A) (A) (A) (A) (A) (A) (A) (A) (A) (A) (A) (A)
                 (A) (A) (A) (A) (A) (A) (A) (A) (A) (A) (A) (A)
                 (A) (A) (A) (A) (A) (A) (A) (A) (A) (A) (A) (A)
                 (A) (A) (A) (A) (A) (A) (A) (A) (A) (A) (A) (A)
                 (A) (A) (A) (A) (A) (A) (A) (A) (A) (A) (A) (A)
                 (A) (A) (A) (A) (A) (A) (A) (A) (A) (A) (A) (A)
                 (A) (A) (A) (A) (A) (A) (A) (A) (A) (A) (A) (A)
                 (A) (A) (A) (A) (A) (A) (A) (A) (A) (A) (A) (A)
                 (A) (A) (A) (A) (A) (A) (A) (A) (A) (A) (A) (A)
                 (A) (A) (A) (A) (A) (A) (A) (A) (A) (A) (A) (A)
                 (A) (A) (A) (A) (A) (A) (A) (A) (A) (A) (A) (A)
                 (A) (A) (A) (A) (A) (A) (A) (A) (A) (A) (A) (A)
                 (A) (A) (A) (A) (A) (A) (A) (A) (A) (A) (A) (A)
                 (A) (A) (A) (A) (A) (A) (A) (A) (A) (A) (A) (A)
                 (A) (A) (A) (A) (A) (A) (A) (A) (A) (A) (A) (A)
                 (A) (A) (A) (A) (A) (A) (A) (A) (A) (A) (A) (A)
                 (A) (A) (A) (A) (A) (A) (A) (A) (A) (A) (A) (A)
                 (A) (A) (A) (A) (A) (A) (A) (A) (A) (A) (A) (A)
                 (A) (A) (A) (A) (A) (A) (A) (A) (A) (A) (A) (A)
                 (A) (A) (A) (A) (A) (A) (A) (A) (A) (A) (A) (A)
                 (A) (A) (A) (A) (A) (A) (A) (A) (A) (A) (A) (A)
                 (A) (A) (A) (A) (A) (A) (A) (A) (A) (A) (A) (A)
                 (A) (A) (A) (A) (A) (A) (A) (A) (A) (A) (A) (A)
                 (A) (A) (A) (A) (A) (A) (A) (A) (A) (A) (A) (A)
                 (A) (A) (A) (A) (A) (A) (A) (A) (A) (A) (A) (A)
                 (A) (A) (A) (A) (A) (A) (A) (A) (A) (A) (A) (A)
                 (A) (A) (A) (A) (A) (A) (A) (A) (A) (A) (A) (A)
                 (A) (A) (A) (A) (A) (A) (A) (A) (A) (A) (A) (A)
                 (A) (A) (A) (A) (A) (A) (A) (A) (A) (A) (A) (A)
 The electronic state of the initial guess is 1-A.
 Requested convergence on RMS density matrix=1.00D-08 within 128 cycles.
 Requested convergence on MAX density matrix=1.00D-06.
 Requested convergence on             energy=1.00D-06.
 No special actions if energy rises.
 SCF Done:  E(RB3LYP) =  -1297.92309812     A.U. after   14 cycles
             Convg  =    0.2783D-08             -V/T =  2.0086
 Range of M.O.s used for correlation:     1   547
 NBasis=   547 NAE=    91 NBE=    91 NFC=     0 NFV=     0
 NROrb=    547 NOA=    91 NOB=    91 NVA=   456 NVB=   456

 **** Warning!!: The largest alpha MO coefficient is  0.83002201D+02

          Differentiating once with respect to electric field.
                with respect to dipole field.
          Electric field/nuclear overlap derivatives assumed to be zero.
          There are     3 degrees of freedom in the 1st order CPHF.  IDoFFX=0.
      3 vectors produced by pass  0 Test12= 1.38D-12 3.33D-08 XBig12= 1.18D+02 1.30D+00.
 AX will form     3 AO Fock derivatives at one time.
      3 vectors produced by pass  1 Test12= 1.38D-12 3.33D-08 XBig12= 2.36D+01 4.10D-01.
      3 vectors produced by pass  2 Test12= 1.38D-12 3.33D-08 XBig12= 1.03D+01 2.43D-01.
      3 vectors produced by pass  3 Test12= 1.38D-12 3.33D-08 XBig12= 9.75D-01 9.51D-02.
      3 vectors produced by pass  4 Test12= 1.38D-12 3.33D-08 XBig12= 3.35D-01 5.24D-02.
      3 vectors produced by pass  5 Test12= 1.38D-12 3.33D-08 XBig12= 5.80D-02 2.06D-02.
      3 vectors produced by pass  6 Test12= 1.38D-12 3.33D-08 XBig12= 1.95D-02 1.56D-02.
      3 vectors produced by pass  7 Test12= 1.38D-12 3.33D-08 XBig12= 2.88D-03 7.51D-03.
      3 vectors produced by pass  8 Test12= 1.38D-12 3.33D-08 XBig12= 5.34D-04 2.59D-03.
      3 vectors produced by pass  9 Test12= 1.38D-12 3.33D-08 XBig12= 1.60D-04 1.25D-03.
      3 vectors produced by pass 10 Test12= 1.38D-12 3.33D-08 XBig12= 3.59D-05 4.67D-04.
      3 vectors produced by pass 11 Test12= 1.38D-12 3.33D-08 XBig12= 9.18D-06 3.57D-04.
      3 vectors produced by pass 12 Test12= 1.38D-12 3.33D-08 XBig12= 9.04D-07 9.31D-05.
      3 vectors produced by pass 13 Test12= 1.38D-12 3.33D-08 XBig12= 3.59D-07 6.11D-05.
      3 vectors produced by pass 14 Test12= 1.38D-12 3.33D-08 XBig12= 3.08D-08 1.52D-05.
      3 vectors produced by pass 15 Test12= 1.38D-12 3.33D-08 XBig12= 4.94D-09 7.36D-06.
      3 vectors produced by pass 16 Test12= 1.38D-12 3.33D-08 XBig12= 8.30D-10 3.40D-06.
      3 vectors produced by pass 17 Test12= 1.38D-12 3.33D-08 XBig12= 1.14D-10 1.02D-06.
      3 vectors produced by pass 18 Test12= 1.38D-12 3.33D-08 XBig12= 4.71D-11 5.76D-07.
      3 vectors produced by pass 19 Test12= 1.38D-12 3.33D-08 XBig12= 1.39D-11 2.48D-07.
      3 vectors produced by pass 20 Test12= 1.38D-12 3.33D-08 XBig12= 5.54D-12 1.64D-07.
      1 vectors produced by pass 21 Test12= 1.38D-12 3.33D-08 XBig12= 7.06D-12 2.45D-07.
      1 vectors produced by pass 22 Test12= 1.38D-12 3.33D-08 XBig12= 6.09D-13 4.24D-08.
 Inverted reduced A of dimension    65 with in-core refinement.
 End of Minotr Frequency-dependent properties file   721 does not exist.
 End of Minotr Frequency-dependent properties file   722 does not exist.
 Symmetrizing basis deriv contribution to polar:
 IMax=3 JMax=2 DiffMx= 0.00D+00
 G2DrvN: will do    23 centers at a time, making    2 passes doing MaxLOS=2.
 Calling FoFCou, ICntrl=  3107 FMM=F I1Cent=   0 AccDes= 0.00D+00.
 Calling FoFCou, ICntrl=  3107 FMM=F I1Cent=   0 AccDes= 0.00D+00.
 FoFDir/FoFCou used for L=0 through L=2.
 End of G2Drv Frequency-dependent properties file   721 does not exist.
 End of G2Drv Frequency-dependent properties file   722 does not exist.
          IDoAtm=111111111111111111111111111111111111111111111
          Differentiating once with respect to electric field.
                with respect to dipole field.
          Differentiating once with respect to nuclear coordinates.
          There are   138 degrees of freedom in the 1st order CPHF.  IDoFFX=5.
 Will reuse    3 saved solutions.
    135 vectors produced by pass  0 Test12= 4.15D-14 1.00D-09 XBig12= 2.55D-01 1.03D-01.
 AX will form    68 AO Fock derivatives at one time.
    135 vectors produced by pass  1 Test12= 4.15D-14 1.00D-09 XBig12= 3.09D-02 1.74D-02.
    132 vectors produced by pass  2 Test12= 4.15D-14 1.00D-09 XBig12= 1.92D-04 1.51D-03.
    132 vectors produced by pass  3 Test12= 4.15D-14 1.00D-09 XBig12= 6.85D-07 7.38D-05.
    132 vectors produced by pass  4 Test12= 4.15D-14 1.00D-09 XBig12= 1.25D-09 2.05D-06.
    132 vectors produced by pass  5 Test12= 4.15D-14 1.00D-09 XBig12= 4.83D-12 1.54D-07.
     79 vectors produced by pass  6 Test12= 4.15D-14 1.00D-09 XBig12= 1.51D-13 2.35D-08.
      1 vectors produced by pass  7 Test12= 4.15D-14 1.00D-09 XBig12= 2.35D-16 1.17D-09.
 Inverted reduced A of dimension   878 with in-core refinement.
 Isotropic polarizability for W=    0.000000      187.20 Bohr**3.
 End of Minotr Frequency-dependent properties file   721 does not exist.
 End of Minotr Frequency-dependent properties file   722 does not exist.

 **********************************************************************

            Population analysis using the SCF density.

 **********************************************************************

 Orbital symmetries:
       Occupied  (A) (A) (A) (A) (A) (A) (A) (A) (A) (A) (A) (A)
                 (A) (A) (A) (A) (A) (A) (A) (A) (A) (A) (A) (A)
                 (A) (A) (A) (A) (A) (A) (A) (A) (A) (A) (A) (A)
                 (A) (A) (A) (A) (A) (A) (A) (A) (A) (A) (A) (A)
                 (A) (A) (A) (A) (A) (A) (A) (A) (A) (A) (A) (A)
                 (A) (A) (A) (A) (A) (A) (A) (A) (A) (A) (A) (A)
                 (A) (A) (A) (A) (A) (A) (A) (A) (A) (A) (A) (A)
                 (A) (A) (A) (A) (A) (A) (A)
       Virtual   (A) (A) (A) (A) (A) (A) (A) (A) (A) (A) (A) (A)
                 (A) (A) (A) (A) (A) (A) (A) (A) (A) (A) (A) (A)
                 (A) (A) (A) (A) (A) (A) (A) (A) (A) (A) (A) (A)
                 (A) (A) (A) (A) (A) (A) (A) (A) (A) (A) (A) (A)
                 (A) (A) (A) (A) (A) (A) (A) (A) (A) (A) (A) (A)
                 (A) (A) (A) (A) (A) (A) (A) (A) (A) (A) (A) (A)
                 (A) (A) (A) (A) (A) (A) (A) (A) (A) (A) (A) (A)
                 (A) (A) (A) (A) (A) (A) (A) (A) (A) (A) (A) (A)
                 (A) (A) (A) (A) (A) (A) (A) (A) (A) (A) (A) (A)
                 (A) (A) (A) (A) (A) (A) (A) (A) (A) (A) (A) (A)
                 (A) (A) (A) (A) (A) (A) (A) (A) (A) (A) (A) (A)
                 (A) (A) (A) (A) (A) (A) (A) (A) (A) (A) (A) (A)
                 (A) (A) (A) (A) (A) (A) (A) (A) (A) (A) (A) (A)
                 (A) (A) (A) (A) (A) (A) (A) (A) (A) (A) (A) (A)
                 (A) (A) (A) (A) (A) (A) (A) (A) (A) (A) (A) (A)
                 (A) (A) (A) (A) (A) (A) (A) (A) (A) (A) (A) (A)
                 (A) (A) (A) (A) (A) (A) (A) (A) (A) (A) (A) (A)
                 (A) (A) (A) (A) (A) (A) (A) (A) (A) (A) (A) (A)
                 (A) (A) (A) (A) (A) (A) (A) (A) (A) (A) (A) (A)
                 (A) (A) (A) (A) (A) (A) (A) (A) (A) (A) (A) (A)
                 (A) (A) (A) (A) (A) (A) (A) (A) (A) (A) (A) (A)
                 (A) (A) (A) (A) (A) (A) (A) (A) (A) (A) (A) (A)
                 (A) (A) (A) (A) (A) (A) (A) (A) (A) (A) (A) (A)
                 (A) (A) (A) (A) (A) (A) (A) (A) (A) (A) (A) (A)
                 (A) (A) (A) (A) (A) (A) (A) (A) (A) (A) (A) (A)
                 (A) (A) (A) (A) (A) (A) (A) (A) (A) (A) (A) (A)
                 (A) (A) (A) (A) (A) (A) (A) (A) (A) (A) (A) (A)
                 (A) (A) (A) (A) (A) (A) (A) (A) (A) (A) (A) (A)
                 (A) (A) (A) (A) (A) (A) (A) (A) (A) (A) (A) (A)
                 (A) (A) (A) (A) (A) (A) (A) (A) (A) (A) (A) (A)
                 (A) (A) (A) (A) (A) (A) (A) (A) (A) (A) (A) (A)
                 (A) (A) (A) (A) (A) (A) (A) (A) (A) (A) (A) (A)
                 (A) (A) (A) (A) (A) (A) (A) (A) (A) (A) (A) (A)
                 (A) (A) (A) (A) (A) (A) (A) (A) (A) (A) (A) (A)
                 (A) (A) (A) (A) (A) (A) (A) (A) (A) (A) (A) (A)
                 (A) (A) (A) (A) (A) (A) (A) (A) (A) (A) (A) (A)
                 (A) (A) (A) (A) (A) (A) (A) (A) (A) (A) (A) (A)
                 (A) (A) (A) (A) (A) (A) (A) (A) (A) (A) (A) (A)
 The electronic state is 1-A.
 Alpha  occ. eigenvalues --  -19.19681 -19.19477 -19.19119 -19.18909 -19.18561
 Alpha  occ. eigenvalues --  -19.18179 -19.16909 -19.16869 -19.16254 -19.15287
 Alpha  occ. eigenvalues --  -19.15120 -10.30989 -10.30663 -10.26631 -10.26469
 Alpha  occ. eigenvalues --  -10.26118 -10.25872 -10.25835 -10.25226 -10.25224
 Alpha  occ. eigenvalues --  -10.24930 -10.24474 -10.24409  -1.10683  -1.08937
 Alpha  occ. eigenvalues --   -1.05796  -1.05316  -1.04111  -1.03428  -1.03056
 Alpha  occ. eigenvalues --   -1.02739  -1.02502  -1.01156  -1.00879  -0.82200
 Alpha  occ. eigenvalues --   -0.80615  -0.80011  -0.78390  -0.72177  -0.70618
 Alpha  occ. eigenvalues --   -0.67413  -0.65028  -0.63322  -0.62699  -0.61843
 Alpha  occ. eigenvalues --   -0.60324  -0.56621  -0.56258  -0.55591  -0.54945
 Alpha  occ. eigenvalues --   -0.54076  -0.53496  -0.52945  -0.51684  -0.51312
 Alpha  occ. eigenvalues --   -0.50338  -0.50210  -0.49921  -0.48948  -0.46853
 Alpha  occ. eigenvalues --   -0.46313  -0.45351  -0.44330  -0.43840  -0.43376
 Alpha  occ. eigenvalues --   -0.42493  -0.41992  -0.41207  -0.40261  -0.39156
 Alpha  occ. eigenvalues --   -0.38806  -0.37871  -0.37581  -0.37184  -0.36254
 Alpha  occ. eigenvalues --   -0.35514  -0.35324  -0.34900  -0.34287  -0.34087
 Alpha  occ. eigenvalues --   -0.33205  -0.32237  -0.31060  -0.30700  -0.29954
 Alpha  occ. eigenvalues --   -0.29584  -0.28568  -0.27970  -0.27825  -0.26721
 Alpha  occ. eigenvalues --   -0.26448
 Alpha virt. eigenvalues --   -0.02317  -0.02220  -0.02031  -0.00383   0.00238
 Alpha virt. eigenvalues --    0.00954   0.01650   0.02266   0.03297   0.03413
 Alpha virt. eigenvalues --    0.03730   0.04000   0.04846   0.05353   0.05516
 Alpha virt. eigenvalues --    0.05924   0.06544   0.07434   0.07617   0.07966
 Alpha virt. eigenvalues --    0.08388   0.08900   0.09226   0.09700   0.10176
 Alpha virt. eigenvalues --    0.10535   0.11058   0.11361   0.11485   0.11893
 Alpha virt. eigenvalues --    0.12092   0.13035   0.13143   0.13267   0.13906
 Alpha virt. eigenvalues --    0.14060   0.14271   0.14601   0.14869   0.15126
 Alpha virt. eigenvalues --    0.15567   0.16442   0.16597   0.16915   0.17023
 Alpha virt. eigenvalues --    0.17293   0.17486   0.17694   0.17939   0.18463
 Alpha virt. eigenvalues --    0.18856   0.18919   0.19221   0.19715   0.20110
 Alpha virt. eigenvalues --    0.20427   0.20917   0.21057   0.21478   0.21656
 Alpha virt. eigenvalues --    0.21901   0.22444   0.22725   0.23120   0.23469
 Alpha virt. eigenvalues --    0.23870   0.24129   0.24203   0.24290   0.24732
 Alpha virt. eigenvalues --    0.25011   0.25197   0.25575   0.25707   0.25947
 Alpha virt. eigenvalues --    0.26152   0.26217   0.26745   0.26762   0.27214
 Alpha virt. eigenvalues --    0.27610   0.27758   0.27939   0.28229   0.28600
 Alpha virt. eigenvalues --    0.29475   0.29525   0.29788   0.30177   0.30740
 Alpha virt. eigenvalues --    0.30949   0.31402   0.31875   0.32015   0.32280
 Alpha virt. eigenvalues --    0.32567   0.33120   0.33439   0.33647   0.34018
 Alpha virt. eigenvalues --    0.34481   0.34818   0.35369   0.35759   0.36184
 Alpha virt. eigenvalues --    0.36361   0.36777   0.37271   0.37346   0.37956
 Alpha virt. eigenvalues --    0.38213   0.38504   0.39401   0.39654   0.39960
 Alpha virt. eigenvalues --    0.40106   0.40617   0.40849   0.41146   0.41573
 Alpha virt. eigenvalues --    0.42160   0.42978   0.43152   0.43670   0.44247
 Alpha virt. eigenvalues --    0.44446   0.45032   0.45347   0.46216   0.46897
 Alpha virt. eigenvalues --    0.47873   0.48427   0.49289   0.49476   0.50254
 Alpha virt. eigenvalues --    0.51480   0.52569   0.54623   0.62818   0.64012
 Alpha virt. eigenvalues --    0.65489   0.65611   0.67933   0.68435   0.69244
 Alpha virt. eigenvalues --    0.70818   0.71899   0.72869   0.73387   0.73810
 Alpha virt. eigenvalues --    0.75607   0.76192   0.77024   0.78540   0.78943
 Alpha virt. eigenvalues --    0.79386   0.79880   0.81332   0.82101   0.83702
 Alpha virt. eigenvalues --    0.85242   0.86246   0.87303   0.88125   0.89296
 Alpha virt. eigenvalues --    0.90783   0.92018   0.92633   0.93704   0.94346
 Alpha virt. eigenvalues --    0.96597   0.97126   0.98277   1.00266   1.01092
 Alpha virt. eigenvalues --    1.01546   1.02140   1.02542   1.03262   1.04340
 Alpha virt. eigenvalues --    1.04630   1.05297   1.06039   1.06762   1.07010
 Alpha virt. eigenvalues --    1.08184   1.08604   1.09637   1.09970   1.10401
 Alpha virt. eigenvalues --    1.10520   1.11797   1.12780   1.14443   1.14999
 Alpha virt. eigenvalues --    1.16332   1.17074   1.17828   1.20491   1.20972
 Alpha virt. eigenvalues --    1.22322   1.23161   1.23327   1.24143   1.25254
 Alpha virt. eigenvalues --    1.25669   1.26103   1.26724   1.27095   1.28303
 Alpha virt. eigenvalues --    1.28968   1.29571   1.30055   1.31018   1.31673
 Alpha virt. eigenvalues --    1.31876   1.32484   1.33161   1.33492   1.34710
 Alpha virt. eigenvalues --    1.35283   1.35646   1.36225   1.37161   1.37853
 Alpha virt. eigenvalues --    1.38304   1.39928   1.40988   1.42535   1.43113
 Alpha virt. eigenvalues --    1.45305   1.45823   1.46056   1.46973   1.48338
 Alpha virt. eigenvalues --    1.49103   1.49733   1.50256   1.52145   1.52514
 Alpha virt. eigenvalues --    1.53984   1.54711   1.56708   1.56919   1.57691
 Alpha virt. eigenvalues --    1.58547   1.59187   1.59483   1.60251   1.60820
 Alpha virt. eigenvalues --    1.62168   1.63137   1.63648   1.65149   1.65777
 Alpha virt. eigenvalues --    1.66519   1.66832   1.67093   1.67707   1.68279
 Alpha virt. eigenvalues --    1.69452   1.70593   1.71292   1.73472   1.73539
 Alpha virt. eigenvalues --    1.73914   1.74774   1.75936   1.76181   1.77033
 Alpha virt. eigenvalues --    1.78731   1.79652   1.80063   1.80955   1.81695
 Alpha virt. eigenvalues --    1.82496   1.83018   1.84253   1.84780   1.85668
 Alpha virt. eigenvalues --    1.86280   1.87777   1.88323   1.89296   1.90645
 Alpha virt. eigenvalues --    1.91423   1.92110   1.93061   1.94694   1.95115
 Alpha virt. eigenvalues --    1.95947   1.96352   1.96992   1.97932   1.98862
 Alpha virt. eigenvalues --    1.99117   1.99867   2.00941   2.01435   2.03204
 Alpha virt. eigenvalues --    2.05016   2.05418   2.06121   2.07136   2.07424
 Alpha virt. eigenvalues --    2.08575   2.09498   2.10504   2.10691   2.11364
 Alpha virt. eigenvalues --    2.12754   2.13834   2.14598   2.14921   2.17069
 Alpha virt. eigenvalues --    2.17799   2.17879   2.19038   2.19195   2.21403
 Alpha virt. eigenvalues --    2.22066   2.24125   2.24755   2.26021   2.27222
 Alpha virt. eigenvalues --    2.28385   2.29833   2.30979   2.33189   2.34336
 Alpha virt. eigenvalues --    2.35892   2.37124   2.38061   2.38627   2.40182
 Alpha virt. eigenvalues --    2.40755   2.41858   2.42190   2.43620   2.44550
 Alpha virt. eigenvalues --    2.45283   2.46267   2.46968   2.48909   2.49275
 Alpha virt. eigenvalues --    2.50070   2.51564   2.52295   2.53747   2.54989
 Alpha virt. eigenvalues --    2.56294   2.57480   2.57852   2.59476   2.60330
 Alpha virt. eigenvalues --    2.61342   2.62183   2.62567   2.63044   2.64682
 Alpha virt. eigenvalues --    2.65258   2.65997   2.67795   2.69682   2.70405
 Alpha virt. eigenvalues --    2.70807   2.71764   2.72560   2.73568   2.74482
 Alpha virt. eigenvalues --    2.75171   2.76271   2.77436   2.79089   2.79522
 Alpha virt. eigenvalues --    2.81254   2.82300   2.83422   2.83737   2.86240
 Alpha virt. eigenvalues --    2.86440   2.87088   2.88331   2.88980   2.89426
 Alpha virt. eigenvalues --    2.90684   2.91424   2.91474   2.93196   2.94642
 Alpha virt. eigenvalues --    2.95854   2.96696   2.97486   2.98434   2.99942
 Alpha virt. eigenvalues --    3.00263   3.02139   3.02750   3.04403   3.06054
 Alpha virt. eigenvalues --    3.07323   3.08168   3.09003   3.12623   3.13134
 Alpha virt. eigenvalues --    3.15000   3.16893   3.22653   3.24658   3.29580
 Alpha virt. eigenvalues --    3.32178   3.36122   3.37560   3.38574   3.41724
 Alpha virt. eigenvalues --    3.42618   3.45311   3.46187   3.46884   3.48625
 Alpha virt. eigenvalues --    3.49255   3.50595   3.52599   3.52962   3.54246
 Alpha virt. eigenvalues --    3.55654   3.56461   3.60790   3.61911   3.62791
 Alpha virt. eigenvalues --    3.64764   3.67323   3.70872   4.29500   4.32545
 Alpha virt. eigenvalues --    4.34699   4.38545   4.39781   4.43005   4.43557
 Alpha virt. eigenvalues --    4.46961   4.50216   4.50940   4.51643   4.55005
 Alpha virt. eigenvalues --    4.56651   4.57317   4.61254   4.64771   4.71562
 Alpha virt. eigenvalues --    4.76792   4.80804   4.85148   4.88822   4.91984
 Alpha virt. eigenvalues --    4.95043
          Condensed to atoms (all electrons):
              1          2          3          4          5          6
     1  O    8.253553   0.266473  -0.071958  -0.007620   0.017277   0.165966
     2  C    0.266473   9.792198  -1.676653   0.060892  -0.116996  -3.273760
     3  C   -0.071958  -1.676653   9.334387   0.131963   0.075557  -0.808131
     4  O   -0.007620   0.060892   0.131963   8.292522   0.184274  -0.169718
     5  H    0.017277  -0.116996   0.075557   0.184274   0.453704   0.032002
     6  C    0.165966  -3.273760  -0.808131  -0.169718   0.032002  15.754236
     7  O   -0.001185   0.058385  -0.071124   0.006984  -0.000587   0.117825
     8  H    0.000015  -0.016510  -0.005180  -0.001127   0.000018   0.117222
     9  C    0.051643   0.205888  -0.160644   0.003118  -0.003241   0.420305
    10  O   -0.009257  -0.047723   0.015801   0.000060  -0.000023  -0.001688
    11  H    0.000329  -0.003015  -0.003251   0.000001   0.000000   0.001147
    12  C   -0.322781  -1.592141  -0.541020   0.031399   0.013072   0.578391
    13  O    0.008023  -0.107665   0.053835  -0.003816   0.000151   0.043469
    14  C   -0.035241   1.572092   0.262160   0.009005   0.007613  -5.672810
    15  O    0.000049  -0.025790  -0.021926   0.000118   0.000063   0.193925
    16  C   -0.001004   0.130482  -0.274681  -0.001203   0.001832  -0.786950
    17  C    0.000597   0.009985  -0.012592   0.000229   0.000105   0.120444
    18  O    0.000027   0.013482  -0.006470  -0.000017   0.000000   0.010509
    19  H   -0.000021  -0.008090   0.008456  -0.000005   0.000000   0.003601
    20  C    0.000130  -0.002627  -0.012915  -0.000121   0.000004   0.164973
    21  O    0.000000   0.000024   0.000011   0.000000   0.000000  -0.000738
    22  H    0.000000   0.000002   0.000000   0.000000   0.000000  -0.000076
    23  C    0.000148   0.010103  -0.040830   0.000780   0.000000  -0.195642
    24  O   -0.000001   0.001795  -0.007805   0.000077  -0.000006  -0.047194
    25  H    0.000000  -0.000016   0.001147   0.000002   0.000000   0.000735
    26  C   -0.000654   0.019195  -0.060337   0.000610   0.000041  -0.592464
    27  O    0.000000  -0.000453   0.001072   0.000000   0.000000   0.007202
    28  C    0.000001  -0.000935   0.001508   0.000001   0.000000  -0.006043
    29  O    0.000000  -0.000007   0.000056   0.000000   0.000000  -0.000617
    30  H    0.000000   0.000000   0.000001   0.000000   0.000000   0.000007
    31  H    0.000000  -0.000002   0.000028   0.000000   0.000000   0.000263
    32  H    0.000000   0.000100   0.000104   0.000000   0.000000   0.000309
    33  H    0.000000   0.000538   0.000053   0.000000   0.000000   0.000584
    34  H   -0.000003   0.002410   0.002173   0.000003   0.000000   0.009050
    35  H    0.000000  -0.000138   0.001419   0.000000   0.000000   0.002663
    36  H    0.000000   0.000014  -0.000206   0.000000   0.000000  -0.000080
    37  H    0.000000   0.000092   0.000410   0.000000   0.000000   0.001233
    38  H    0.234257   0.066322  -0.025376   0.001846  -0.001696  -0.015909
    39  H   -0.000110  -0.015667  -0.000617   0.000023   0.000000  -0.009518
    40  H    0.003717  -0.009413  -0.003026  -0.000039   0.000002   0.019982
    41  H    0.007814   0.047352  -0.080659  -0.000087  -0.000008   0.006154
    42  H   -0.054697   0.518350  -0.186354   0.003933  -0.000845  -0.018397
    43  H   -0.012533   0.172686   0.249855  -0.061190  -0.001629  -0.422252
    44  H   -0.000583   0.059901  -0.099459   0.005432   0.000017   0.221333
    45  H    0.000172   0.020942  -0.042290  -0.000802   0.000008   0.001135
              7          8          9         10         11         12
     1  O   -0.001185   0.000015   0.051643  -0.009257   0.000329  -0.322781
     2  C    0.058385  -0.016510   0.205888  -0.047723  -0.003015  -1.592141
     3  C   -0.071124  -0.005180  -0.160644   0.015801  -0.003251  -0.541020
     4  O    0.006984  -0.001127   0.003118   0.000060   0.000001   0.031399
     5  H   -0.000587   0.000018  -0.003241  -0.000023   0.000000   0.013072
     6  C    0.117825   0.117222   0.420305  -0.001688   0.001147   0.578391
     7  O    8.224285   0.217970   0.001027   0.000021   0.000000  -0.009275
     8  H    0.217970   0.348583   0.000950   0.000000   0.000000   0.006702
     9  C    0.001027   0.000950   7.970887  -0.049029   0.040300  -2.434375
    10  O    0.000021   0.000000  -0.049029   8.312913   0.191639   0.197877
    11  H    0.000000   0.000000   0.040300   0.191639   0.447137  -0.006660
    12  C   -0.009275   0.006702  -2.434375   0.197877  -0.006660  12.122541
    13  O    0.007798  -0.000848  -0.000538  -0.000974  -0.000443  -0.159953
    14  C   -0.019593  -0.072923  -0.793048   0.020760  -0.006955  -1.537558
    15  O   -0.003430   0.006564   0.001673   0.000115   0.000010   0.018894
    16  C    0.064501  -0.009225  -0.219822  -0.005132  -0.000125   0.008161
    17  C   -0.007748   0.002174  -0.119944  -0.000111  -0.000073  -0.228799
    18  O    0.000054   0.000005   0.001508  -0.000184   0.000031  -0.017016
    19  H   -0.000043   0.000000  -0.002802  -0.000044  -0.000007   0.008971
    20  C    0.004254   0.000380   0.018635   0.000441   0.000041  -0.044224
    21  O   -0.000006   0.000000  -0.000205  -0.000001   0.000000   0.000063
    22  H    0.000000   0.000000  -0.000006   0.000000   0.000000   0.000063
    23  C    0.049218   0.000022  -0.000031  -0.000028  -0.000001  -0.027511
    24  O   -0.031062   0.007207  -0.000082  -0.000001   0.000000   0.005284
    25  H    0.002205  -0.001785  -0.000016   0.000000   0.000000  -0.000452
    26  C   -0.045814  -0.014068  -0.001151  -0.000198   0.000015   0.173917
    27  O    0.000332   0.000039  -0.000072   0.000000   0.000000   0.000152
    28  C   -0.000216  -0.000089  -0.005684  -0.000017  -0.000003   0.006512
    29  O   -0.000004   0.000000  -0.000017   0.000000   0.000000   0.000086
    30  H    0.000000   0.000000   0.000000   0.000000   0.000000  -0.000001
    31  H    0.000001   0.000000  -0.000007   0.000000   0.000000   0.000039
    32  H    0.000004   0.000000  -0.000159   0.000000   0.000000   0.001044
    33  H    0.000006   0.000000  -0.000067   0.000000   0.000000   0.002795
    34  H   -0.000510   0.000006  -0.000802   0.000005   0.000000   0.005544
    35  H    0.000190  -0.000011   0.000065   0.000000   0.000000   0.001061
    36  H   -0.000626   0.000268   0.000000   0.000000   0.000000   0.000037
    37  H    0.002058   0.000136   0.000060   0.000000   0.000000   0.000593
    38  H   -0.000016   0.000000  -0.025391   0.000840  -0.000016   0.007985
    39  H   -0.000014   0.000000   0.404344  -0.041943  -0.011866  -0.014830
    40  H    0.000000   0.000000   0.612993  -0.069369  -0.001907  -0.275030
    41  H   -0.000157   0.000003   0.065169   0.004189  -0.000121   0.114983
    42  H   -0.000060   0.000004   0.021863  -0.000080  -0.000010  -0.152457
    43  H   -0.000409  -0.000024   0.020258   0.000010   0.000000  -0.038676
    44  H   -0.036171  -0.010032   0.003552   0.000000   0.000000   0.003652
    45  H   -0.002720  -0.000514   0.001456   0.000031   0.000000  -0.017189
             13         14         15         16         17         18
     1  O    0.008023  -0.035241   0.000049  -0.001004   0.000597   0.000027
     2  C   -0.107665   1.572092  -0.025790   0.130482   0.009985   0.013482
     3  C    0.053835   0.262160  -0.021926  -0.274681  -0.012592  -0.006470
     4  O   -0.003816   0.009005   0.000118  -0.001203   0.000229  -0.000017
     5  H    0.000151   0.007613   0.000063   0.001832   0.000105   0.000000
     6  C    0.043469  -5.672810   0.193925  -0.786950   0.120444   0.010509
     7  O    0.007798  -0.019593  -0.003430   0.064501  -0.007748   0.000054
     8  H   -0.000848  -0.072923   0.006564  -0.009225   0.002174   0.000005
     9  C   -0.000538  -0.793048   0.001673  -0.219822  -0.119944   0.001508
    10  O   -0.000974   0.020760   0.000115  -0.005132  -0.000111  -0.000184
    11  H   -0.000443  -0.006955   0.000010  -0.000125  -0.000073   0.000031
    12  C   -0.159953  -1.537558   0.018894   0.008161  -0.228799  -0.017016
    13  O    8.499440   0.155253  -0.044365   0.143502  -0.135375   0.022649
    14  C    0.155253  13.545409   0.045386  -0.909244  -0.633687  -0.049974
    15  O   -0.044365   0.045386   8.266860  -0.103807   0.152353  -0.008310
    16  C    0.143502  -0.909244  -0.103807  17.237374  -4.166990  -0.041376
    17  C   -0.135375  -0.633687   0.152353  -4.166990  10.580057   0.309918
    18  O    0.022649  -0.049974  -0.008310  -0.041376   0.309918   8.230263
    19  H    0.017889  -0.012686   0.019674  -0.135750   0.088197   0.170348
    20  C   -0.026377  -0.220348   0.051202  -1.886488   0.354020  -0.143748
    21  O    0.000128   0.000594  -0.000457  -0.005401  -0.171686   0.017286
    22  H   -0.000002  -0.000838   0.000030  -0.018893   0.032146  -0.001139
    23  C    0.012938  -0.243918  -0.032056   0.374668  -0.362445   0.011804
    24  O    0.000868   0.137945  -0.016438  -0.005982  -0.006591   0.000162
    25  H    0.000024  -0.012768   0.002157  -0.003469  -0.000330   0.000001
    26  C    0.007018  -0.592113  -0.105832  -5.248623   0.844656   0.007375
    27  O    0.000025  -0.010925   0.010068  -0.037236  -0.061434   0.002560
    28  C    0.005476  -0.024466   0.003853   1.031770  -0.418517   0.004733
    29  O    0.000022  -0.000882   0.000152  -0.039088   0.027205  -0.000759
    30  H    0.000000   0.000352  -0.000002   0.003283   0.007275   0.000007
    31  H    0.000019   0.004376  -0.000036   0.133462  -0.045915  -0.000441
    32  H    0.000533   0.002071  -0.001505   0.154009  -0.273603   0.007834
    33  H    0.002643   0.040426  -0.012526   0.148389   0.153536  -0.045243
    34  H    0.000065   0.007504  -0.070150   0.375035  -0.082030   0.002805
    35  H   -0.000286   0.058872   0.004001   0.103115  -0.067514  -0.000003
    36  H    0.000006   0.005764   0.000547   0.018667  -0.003756   0.000020
    37  H   -0.000078   0.000930   0.001517   0.043256  -0.002222   0.000027
    38  H   -0.000782   0.010320  -0.000008   0.000555  -0.000039   0.000000
    39  H   -0.000626   0.002853  -0.000651   0.009416   0.003287  -0.001387
    40  H    0.005762   0.002936  -0.000071  -0.002658  -0.001109   0.000198
    41  H   -0.037445   0.113035   0.001092  -0.003386   0.008377   0.000104
    42  H    0.007657   0.081123   0.000031   0.000228   0.000988   0.000033
    43  H   -0.000833   0.249010   0.000384   0.019550   0.000927   0.000030
    44  H    0.005743   0.051901  -0.012121   0.046386   0.000661   0.000053
    45  H   -0.064392   0.315250  -0.051792   0.019434   0.039379  -0.000096
             19         20         21         22         23         24
     1  O   -0.000021   0.000130   0.000000   0.000000   0.000148  -0.000001
     2  C   -0.008090  -0.002627   0.000024   0.000002   0.010103   0.001795
     3  C    0.008456  -0.012915   0.000011   0.000000  -0.040830  -0.007805
     4  O   -0.000005  -0.000121   0.000000   0.000000   0.000780   0.000077
     5  H    0.000000   0.000004   0.000000   0.000000   0.000000  -0.000006
     6  C    0.003601   0.164973  -0.000738  -0.000076  -0.195642  -0.047194
     7  O   -0.000043   0.004254  -0.000006   0.000000   0.049218  -0.031062
     8  H    0.000000   0.000380   0.000000   0.000000   0.000022   0.007207
     9  C   -0.002802   0.018635  -0.000205  -0.000006  -0.000031  -0.000082
    10  O   -0.000044   0.000441  -0.000001   0.000000  -0.000028  -0.000001
    11  H   -0.000007   0.000041   0.000000   0.000000  -0.000001   0.000000
    12  C    0.008971  -0.044224   0.000063   0.000063  -0.027511   0.005284
    13  O    0.017889  -0.026377   0.000128  -0.000002   0.012938   0.000868
    14  C   -0.012686  -0.220348   0.000594  -0.000838  -0.243918   0.137945
    15  O    0.019674   0.051202  -0.000457   0.000030  -0.032056  -0.016438
    16  C   -0.135750  -1.886488  -0.005401  -0.018893   0.374668  -0.005982
    17  C    0.088197   0.354020  -0.171686   0.032146  -0.362445  -0.006591
    18  O    0.170348  -0.143748   0.017286  -0.001139   0.011804   0.000162
    19  H    0.392309   0.034423  -0.001123   0.000009  -0.006137  -0.000048
    20  C    0.034423   8.660394   0.271921   0.001887   0.093250  -0.005749
    21  O   -0.001123   0.271921   8.218513   0.200612   0.000099   0.000023
    22  H    0.000009   0.001887   0.200612   0.427010  -0.000178   0.000000
    23  C   -0.006137   0.093250   0.000099  -0.000178   6.958578  -0.046238
    24  O   -0.000048  -0.005749   0.000023   0.000000  -0.046238   8.539015
    25  H    0.000000   0.000450   0.000000   0.000000   0.011815   0.203631
    26  C    0.024591   0.022179   0.027632   0.008298  -1.555803   0.010528
    27  O    0.000085  -0.191575   0.007377   0.000860  -0.069208   0.002341
    28  C   -0.002739  -1.153973  -0.026108  -0.019531  -0.049794   0.004909
    29  O    0.000017  -0.143092  -0.003384   0.021817   0.003790  -0.000013
    30  H    0.000000  -0.002651  -0.001079  -0.002519  -0.000453  -0.000001
    31  H   -0.000004  -0.167386   0.006748  -0.000872  -0.004816   0.000078
    32  H   -0.000146   0.348788  -0.041731  -0.004562   0.011866   0.000018
    33  H   -0.003885  -0.117963   0.005103  -0.000198   0.025046   0.000116
    34  H   -0.000460   0.028269  -0.000398   0.000004   0.036890   0.000877
    35  H    0.000028  -0.022151   0.000178   0.000002   0.009014   0.008825
    36  H    0.000000   0.000010  -0.000006   0.000000   0.412480  -0.039178
    37  H    0.000001   0.002452  -0.000008   0.000000   0.616135  -0.071573
    38  H    0.000000  -0.000001   0.000000   0.000000   0.000003   0.000000
    39  H    0.001036  -0.002138  -0.000010   0.000000   0.000069   0.000000
    40  H    0.000064   0.000232   0.000000   0.000000   0.000013   0.000000
    41  H    0.000255   0.000763   0.000000   0.000000   0.000381   0.000011
    42  H    0.000000  -0.000026   0.000000   0.000000   0.000098   0.000006
    43  H   -0.000003  -0.000108   0.000000   0.000000   0.001008   0.000144
    44  H   -0.000013   0.000182   0.000000   0.000000   0.008292   0.003166
    45  H    0.000209   0.010226  -0.000001   0.000000   0.007715   0.000960
             25         26         27         28         29         30
     1  O    0.000000  -0.000654   0.000000   0.000001   0.000000   0.000000
     2  C   -0.000016   0.019195  -0.000453  -0.000935  -0.000007   0.000000
     3  C    0.001147  -0.060337   0.001072   0.001508   0.000056   0.000001
     4  O    0.000002   0.000610   0.000000   0.000001   0.000000   0.000000
     5  H    0.000000   0.000041   0.000000   0.000000   0.000000   0.000000
     6  C    0.000735  -0.592464   0.007202  -0.006043  -0.000617   0.000007
     7  O    0.002205  -0.045814   0.000332  -0.000216  -0.000004   0.000000
     8  H   -0.001785  -0.014068   0.000039  -0.000089   0.000000   0.000000
     9  C   -0.000016  -0.001151  -0.000072  -0.005684  -0.000017   0.000000
    10  O    0.000000  -0.000198   0.000000  -0.000017   0.000000   0.000000
    11  H    0.000000   0.000015   0.000000  -0.000003   0.000000   0.000000
    12  C   -0.000452   0.173917   0.000152   0.006512   0.000086  -0.000001
    13  O    0.000024   0.007018   0.000025   0.005476   0.000022   0.000000
    14  C   -0.012768  -0.592113  -0.010925  -0.024466  -0.000882   0.000352
    15  O    0.002157  -0.105832   0.010068   0.003853   0.000152  -0.000002
    16  C   -0.003469  -5.248623  -0.037236   1.031770  -0.039088   0.003283
    17  C   -0.000330   0.844656  -0.061434  -0.418517   0.027205   0.007275
    18  O    0.000001   0.007375   0.002560   0.004733  -0.000759   0.000007
    19  H    0.000000   0.024591   0.000085  -0.002739   0.000017   0.000000
    20  C    0.000450   0.022179  -0.191575  -1.153973  -0.143092  -0.002651
    21  O    0.000000   0.027632   0.007377  -0.026108  -0.003384  -0.001079
    22  H    0.000000   0.008298   0.000860  -0.019531   0.021817  -0.002519
    23  C    0.011815  -1.555803  -0.069208  -0.049794   0.003790  -0.000453
    24  O    0.203631   0.010528   0.002341   0.004909  -0.000013  -0.000001
    25  H    0.397975   0.014009  -0.000062  -0.000933   0.000001   0.000000
    26  C    0.014009  14.025889   0.238807  -0.738719  -0.030207   0.002943
    27  O   -0.000062   0.238807   8.424005   0.137188  -0.063009  -0.001431
    28  C   -0.000933  -0.738719   0.137188   6.136261   0.377993  -0.003970
    29  O    0.000001  -0.030207  -0.063009   0.377993   8.226836   0.237344
    30  H    0.000000   0.002943  -0.001431  -0.003970   0.237344   0.406983
    31  H    0.000000  -0.072459  -0.065237   0.491276  -0.055721  -0.008376
    32  H    0.000000  -0.005338   0.005906   0.028591  -0.002545   0.000009
    33  H    0.000001  -0.014613   0.003681   0.002498  -0.000093   0.000006
    34  H    0.000000  -0.110092   0.005547   0.001109  -0.000564   0.000001
    35  H   -0.000167   0.139946  -0.041840   0.036504  -0.001132   0.000013
    36  H   -0.011874  -0.052343  -0.005262   0.001221  -0.000157  -0.000002
    37  H    0.000234  -0.317397   0.011615   0.005541  -0.000137  -0.000001
    38  H    0.000000  -0.000003   0.000000   0.000000   0.000000   0.000000
    39  H    0.000000   0.000482   0.000001   0.000217   0.000000   0.000000
    40  H    0.000000  -0.000237   0.000000  -0.000017   0.000000   0.000000
    41  H    0.000000  -0.001208  -0.000002  -0.000145   0.000000   0.000000
    42  H    0.000000   0.000120   0.000000  -0.000007   0.000000   0.000000
    43  H    0.000000   0.001591   0.000000  -0.000031   0.000000   0.000000
    44  H    0.000013  -0.000602  -0.000001  -0.000104   0.000000   0.000000
    45  H    0.000010   0.000063  -0.000049  -0.001509  -0.000004   0.000000
             31         32         33         34         35         36
     1  O    0.000000   0.000000   0.000000  -0.000003   0.000000   0.000000
     2  C   -0.000002   0.000100   0.000538   0.002410  -0.000138   0.000014
     3  C    0.000028   0.000104   0.000053   0.002173   0.001419  -0.000206
     4  O    0.000000   0.000000   0.000000   0.000003   0.000000   0.000000
     5  H    0.000000   0.000000   0.000000   0.000000   0.000000   0.000000
     6  C    0.000263   0.000309   0.000584   0.009050   0.002663  -0.000080
     7  O    0.000001   0.000004   0.000006  -0.000510   0.000190  -0.000626
     8  H    0.000000   0.000000   0.000000   0.000006  -0.000011   0.000268
     9  C   -0.000007  -0.000159  -0.000067  -0.000802   0.000065   0.000000
    10  O    0.000000   0.000000   0.000000   0.000005   0.000000   0.000000
    11  H    0.000000   0.000000   0.000000   0.000000   0.000000   0.000000
    12  C    0.000039   0.001044   0.002795   0.005544   0.001061   0.000037
    13  O    0.000019   0.000533   0.002643   0.000065  -0.000286   0.000006
    14  C    0.004376   0.002071   0.040426   0.007504   0.058872   0.005764
    15  O   -0.000036  -0.001505  -0.012526  -0.070150   0.004001   0.000547
    16  C    0.133462   0.154009   0.148389   0.375035   0.103115   0.018667
    17  C   -0.045915  -0.273603   0.153536  -0.082030  -0.067514  -0.003756
    18  O   -0.000441   0.007834  -0.045243   0.002805  -0.000003   0.000020
    19  H   -0.000004  -0.000146  -0.003885  -0.000460   0.000028   0.000000
    20  C   -0.167386   0.348788  -0.117963   0.028269  -0.022151   0.000010
    21  O    0.006748  -0.041731   0.005103  -0.000398   0.000178  -0.000006
    22  H   -0.000872  -0.004562  -0.000198   0.000004   0.000002   0.000000
    23  C   -0.004816   0.011866   0.025046   0.036890   0.009014   0.412480
    24  O    0.000078   0.000018   0.000116   0.000877   0.008825  -0.039178
    25  H    0.000000   0.000000   0.000001   0.000000  -0.000167  -0.011874
    26  C   -0.072459  -0.005338  -0.014613  -0.110092   0.139946  -0.052343
    27  O   -0.065237   0.005906   0.003681   0.005547  -0.041840  -0.005262
    28  C    0.491276   0.028591   0.002498   0.001109   0.036504   0.001221
    29  O   -0.055721  -0.002545  -0.000093  -0.000564  -0.001132  -0.000157
    30  H   -0.008376   0.000009   0.000006   0.000001   0.000013  -0.000002
    31  H    0.648941   0.005845   0.005540   0.000049   0.006393  -0.000027
    32  H    0.005845   0.609058   0.007436   0.004295   0.000004   0.000002
    33  H    0.005540   0.007436   0.658636   0.007898   0.004463   0.000002
    34  H    0.000049   0.004295   0.007898   0.638169   0.006297   0.000019
    35  H    0.006393   0.000004   0.004463   0.006297   0.612978  -0.007697
    36  H   -0.000027   0.000002   0.000002   0.000019  -0.007697   0.583639
    37  H   -0.000002  -0.000018   0.000002   0.004255   0.006452  -0.040906
    38  H    0.000000   0.000000   0.000000   0.000000   0.000000   0.000000
    39  H    0.000000   0.000000   0.000001   0.000000   0.000000   0.000000
    40  H    0.000000   0.000000   0.000000   0.000000   0.000000   0.000000
    41  H    0.000000   0.000000  -0.000001  -0.000045   0.000000   0.000000
    42  H    0.000000   0.000000   0.000000   0.000000   0.000000   0.000000
    43  H    0.000000   0.000000   0.000000  -0.000009   0.000000   0.000000
    44  H    0.000000   0.000000  -0.000003   0.000001  -0.000012   0.000002
    45  H    0.000000  -0.000030  -0.000037   0.013722  -0.000024   0.000002
             37         38         39         40         41         42
     1  O    0.000000   0.234257  -0.000110   0.003717   0.007814  -0.054697
     2  C    0.000092   0.066322  -0.015667  -0.009413   0.047352   0.518350
     3  C    0.000410  -0.025376  -0.000617  -0.003026  -0.080659  -0.186354
     4  O    0.000000   0.001846   0.000023  -0.000039  -0.000087   0.003933
     5  H    0.000000  -0.001696   0.000000   0.000002  -0.000008  -0.000845
     6  C    0.001233  -0.015909  -0.009518   0.019982   0.006154  -0.018397
     7  O    0.002058  -0.000016  -0.000014   0.000000  -0.000157  -0.000060
     8  H    0.000136   0.000000   0.000000   0.000000   0.000003   0.000004
     9  C    0.000060  -0.025391   0.404344   0.612993   0.065169   0.021863
    10  O    0.000000   0.000840  -0.041943  -0.069369   0.004189  -0.000080
    11  H    0.000000  -0.000016  -0.011866  -0.001907  -0.000121  -0.000010
    12  C    0.000593   0.007985  -0.014830  -0.275030   0.114983  -0.152457
    13  O   -0.000078  -0.000782  -0.000626   0.005762  -0.037445   0.007657
    14  C    0.000930   0.010320   0.002853   0.002936   0.113035   0.081123
    15  O    0.001517  -0.000008  -0.000651  -0.000071   0.001092   0.000031
    16  C    0.043256   0.000555   0.009416  -0.002658  -0.003386   0.000228
    17  C   -0.002222  -0.000039   0.003287  -0.001109   0.008377   0.000988
    18  O    0.000027   0.000000  -0.001387   0.000198   0.000104   0.000033
    19  H    0.000001   0.000000   0.001036   0.000064   0.000255   0.000000
    20  C    0.002452  -0.000001  -0.002138   0.000232   0.000763  -0.000026
    21  O   -0.000008   0.000000  -0.000010   0.000000   0.000000   0.000000
    22  H    0.000000   0.000000   0.000000   0.000000   0.000000   0.000000
    23  C    0.616135   0.000003   0.000069   0.000013   0.000381   0.000098
    24  O   -0.071573   0.000000   0.000000   0.000000   0.000011   0.000006
    25  H    0.000234   0.000000   0.000000   0.000000   0.000000   0.000000
    26  C   -0.317397  -0.000003   0.000482  -0.000237  -0.001208   0.000120
    27  O    0.011615   0.000000   0.000001   0.000000  -0.000002   0.000000
    28  C    0.005541   0.000000   0.000217  -0.000017  -0.000145  -0.000007
    29  O   -0.000137   0.000000   0.000000   0.000000   0.000000   0.000000
    30  H   -0.000001   0.000000   0.000000   0.000000   0.000000   0.000000
    31  H   -0.000002   0.000000   0.000000   0.000000   0.000000   0.000000
    32  H   -0.000018   0.000000   0.000000   0.000000   0.000000   0.000000
    33  H    0.000002   0.000000   0.000001   0.000000  -0.000001   0.000000
    34  H    0.004255   0.000000   0.000000   0.000000  -0.000045   0.000000
    35  H    0.006452   0.000000   0.000000   0.000000   0.000000   0.000000
    36  H   -0.040906   0.000000   0.000000   0.000000   0.000000   0.000000
    37  H    0.583842   0.000000   0.000000   0.000000   0.000000   0.000000
    38  H    0.000000   0.393583   0.000004  -0.000232  -0.000058  -0.012845
    39  H    0.000000   0.000004   0.591185  -0.051780  -0.006027   0.000157
    40  H    0.000000  -0.000232  -0.051780   0.629770   0.006582   0.004879
    41  H    0.000000  -0.000058  -0.006027   0.006582   0.596156   0.006406
    42  H    0.000000  -0.012845   0.000157   0.004879   0.006406   0.636211
    43  H   -0.000001   0.000101   0.000002   0.000004   0.005301   0.009694
    44  H   -0.000010   0.000006   0.000001  -0.000006   0.000008   0.001904
    45  H   -0.000040   0.000002  -0.000002  -0.000021   0.005431  -0.000026
             43         44         45
     1  O   -0.012533  -0.000583   0.000172
     2  C    0.172686   0.059901   0.020942
     3  C    0.249855  -0.099459  -0.042290
     4  O   -0.061190   0.005432  -0.000802
     5  H   -0.001629   0.000017   0.000008
     6  C   -0.422252   0.221333   0.001135
     7  O   -0.000409  -0.036171  -0.002720
     8  H   -0.000024  -0.010032  -0.000514
     9  C    0.020258   0.003552   0.001456
    10  O    0.000010   0.000000   0.000031
    11  H    0.000000   0.000000   0.000000
    12  C   -0.038676   0.003652  -0.017189
    13  O   -0.000833   0.005743  -0.064392
    14  C    0.249010   0.051901   0.315250
    15  O    0.000384  -0.012121  -0.051792
    16  C    0.019550   0.046386   0.019434
    17  C    0.000927   0.000661   0.039379
    18  O    0.000030   0.000053  -0.000096
    19  H   -0.000003  -0.000013   0.000209
    20  C   -0.000108   0.000182   0.010226
    21  O    0.000000   0.000000  -0.000001
    22  H    0.000000   0.000000   0.000000
    23  C    0.001008   0.008292   0.007715
    24  O    0.000144   0.003166   0.000960
    25  H    0.000000   0.000013   0.000010
    26  C    0.001591  -0.000602   0.000063
    27  O    0.000000  -0.000001  -0.000049
    28  C   -0.000031  -0.000104  -0.001509
    29  O    0.000000   0.000000  -0.000004
    30  H    0.000000   0.000000   0.000000
    31  H    0.000000   0.000000   0.000000
    32  H    0.000000   0.000000  -0.000030
    33  H    0.000000  -0.000003  -0.000037
    34  H   -0.000009   0.000001   0.013722
    35  H    0.000000  -0.000012  -0.000024
    36  H    0.000000   0.000002   0.000002
    37  H   -0.000001  -0.000010  -0.000040
    38  H    0.000101   0.000006   0.000002
    39  H    0.000002   0.000001  -0.000002
    40  H    0.000004  -0.000006  -0.000021
    41  H    0.005301   0.000008   0.005431
    42  H    0.009694   0.001904  -0.000026
    43  H    0.661754   0.008195   0.001858
    44  H    0.008195   0.577479   0.003918
    45  H    0.001858   0.003918   0.602290
 Mulliken atomic charges:
              1
     1  O   -0.492542
     2  C   -0.132102
     3  C    0.073511
     4  O   -0.487525
     5  H    0.339292
     6  C    0.027318
     7  O   -0.526349
     8  H    0.424067
     9  C   -0.028559
    10  O   -0.518899
    11  H    0.353800
    12  C    0.110130
    13  O   -0.416133
    14  C    0.147034
    15  O   -0.269446
    16  C   -0.160541
    17  C    0.065997
    18  O   -0.497662
    19  H    0.403844
    20  C    0.074156
    21  O   -0.503970
    22  H    0.356073
    23  C   -0.021134
    24  O   -0.650024
    25  H    0.397463
    26  C   -0.009630
    27  O   -0.311064
    28  C    0.176388
    29  O   -0.553888
    30  H    0.362263
    31  H    0.118246
    32  H    0.141813
    33  H    0.125229
    34  H    0.113065
    35  H    0.138492
    36  H    0.139421
    37  H    0.151552
    38  H    0.366547
    39  H    0.144107
    40  H    0.127781
    41  H    0.139779
    42  H    0.132119
    43  H    0.135334
    44  H    0.157320
    45  H    0.137326
 Sum of Mulliken atomic charges =   0.00000
 Mulliken charges with hydrogens summed into heavy atoms:
              1
     1  O   -0.125995
     2  C    0.000017
     3  C    0.208845
     4  O   -0.148234
     6  C    0.184638
     7  O   -0.102282
     9  C    0.243329
    10  O   -0.165098
    12  C    0.249909
    13  O   -0.416133
    14  C    0.284360
    15  O   -0.269446
    16  C   -0.047476
    17  C    0.191226
    18  O   -0.093818
    20  C    0.215969
    21  O   -0.147897
    23  C    0.269838
    24  O   -0.252561
    26  C    0.128862
    27  O   -0.311064
    28  C    0.294634
    29  O   -0.191625
 Sum of Mulliken charges with hydrogens summed into heavy atoms =   0.00000
 APT atomic charges:
              1
     1  O   -0.632501
     2  C    0.439516
     3  C    0.342132
     4  O   -0.606915
     5  H    0.241879
     6  C    0.410652
     7  O   -0.708140
     8  H    0.432145
     9  C    0.479186
    10  O   -0.608629
    11  H    0.247909
    12  C    0.421393
    13  O   -0.823471
    14  C    0.857465
    15  O   -0.812831
    16  C    0.417015
    17  C    0.364836
    18  O   -0.670596
    19  H    0.368944
    20  C    0.379697
    21  O   -0.629245
    22  H    0.271615
    23  C    0.464491
    24  O   -0.669782
    25  H    0.255784
    26  C    0.469226
    27  O   -0.828739
    28  C    0.948678
    29  O   -0.682741
    30  H    0.265793
    31  H   -0.084037
    32  H   -0.043877
    33  H   -0.066340
    34  H   -0.034205
    35  H   -0.059502
    36  H   -0.035988
    37  H   -0.027773
    38  H    0.269633
    39  H   -0.036422
    40  H   -0.063167
    41  H   -0.042476
    42  H   -0.065972
    43  H   -0.054014
    44  H   -0.021162
    45  H   -0.039465
[...]
 3135,-0.00051503,0.00035525,0.00015731,0.00012809,0.00002272,-0.000055
 72,0.00004281,-0.01048553,0.00007536,0.00270391,0.00208787,0.00034522,
 0.00017398,-0.00020899,0.00019302,-0.00018820,0.00014303,-0.00004196,0
 .00023062,0.00001743,0.00003066,-0.00005392,-0.00003737,0.00003342,0.0
 0002864,0.00005268,-0.00006034,-0.00001260,-0.00005676,0.00006143,-0.0
 0000372,-0.00000614,0.00000620,-0.00001205,0.00001226,-0.00002059,0.00
 001452,-0.00000273,0.00000131,-0.00000309,0.00000184,0.00003118,-0.000
 02956,0.00004635,-0.00001090,0.00010186,-0.00001877,-0.00000483,0.0000
 0021,-0.00001851,-0.00000299,-0.00001768,0.00001593,-0.00002993,0.0000
 3635,-0.00001815,0.00003441,-0.00002765,0.00000177,-0.00000830,0.00001
 360,-0.00000249,0.00000079,-0.00000311,0.00000679,-0.00000118,0.000003
 43,0.00000750,0.00000048,-0.00000187,0.00000813,-0.00000216,0.00000893
 ,0.00001500,0.00000213,-0.00000560,0.00000841,0.00000052,0.00000897,-0
 .00000071,-0.00000392,0.00001089,0.00000281,-0.00000331,-0.00000511,0.
 00113915,-0.00002467,-0.00061752,0.00044973,0.00005900,-0.00011780,0.0
 0076875,-0.00083649,-0.00019920,0.00037627,-0.00074382,0.00085892,0.37
 259815,-0.01201094,-0.00024667,-0.00647995,0.02281863,-0.04473777,-0.0
 0130102,0.03706438,-0.00568103,-0.01021739,-0.00274616,0.00319880,0.00
 035228,0.00047416,-0.00007275,0.00077781,0.00055418,0.00124932,0.00150
 250,-0.00032069,-0.00056519,-0.00044783,-0.00002960,-0.00005229,0.0000
 8878,-0.00217979,0.00154375,-0.00036239,0.00050567,0.00002289,0.000092
 06,-0.00004240,-0.00006931,0.00003037,-0.02540683,-0.00005060,0.007342
 39,0.00100781,0.00060809,-0.00178532,0.00035623,-0.00067429,-0.0000141
 7,-0.00001137,0.00014747,-0.00007568,-0.00006708,0.00002334,0.00000300
 ,0.00001787,-0.00000388,-0.00001787,0.00002011,0.00000355,-0.00002218,
 -0.00001053,0.00000254,0.00002233,-0.00001446,-0.00000416,0.00000384,0
 .00000350,0.00001212,-0.00000748,-0.00000130,-0.00000170,-0.00000016,-
 0.00001542,-0.00004187,0.00002998,-0.00003630,0.00002011,-0.00012526,0
 .00001398,0.00000497,-0.00000288,0.00001667,-0.00001184,0.00001586,-0.
 00000466,0.00002495,-0.00002409,0.00000757,-0.00002108,0.00002064,0.00
 000371,0.00000462,-0.00001449,0.00000061,-0.00000020,0.00000243,-0.000
 00149,0.00000210,-0.00000098,0.00000107,-0.00000096,-0.00000040,-0.000
 00044,0.00000218,-0.00000152,0.00000027,-0.00000897,0.00000763,-0.0000
 0278,0.00000167,-0.00000293,0.00000181,0.00000679,-0.00001336,0.000001
 04,0.00000176,0.00000362,-0.00153399,0.00142275,-0.00012068,0.00024929
 ,0.00024337,-0.00013417,0.00087493,-0.00027008,-0.00028555,-0.00097649
 ,-0.00259274,0.00343947,-0.02024961,0.05289031,-0.04314016,-0.00700546
 ,-0.01366453,0.05610709,-0.00058202,-0.05086412,0.01392538,-0.00176141
 ,-0.00098704,-0.00140023,-0.00088299,0.00105602,-0.00022653,-0.0002131
 8,-0.00010923,0.00012608,0.00075948,0.00086507,-0.00016886,-0.00014360
 ,-0.00008710,-0.00002607,0.00003300,0.00006396,0.00032635,-0.00170146,
 0.00069973,-0.00022642,0.00002272,0.00014123,0.00004244,-0.00000602,0.
 00005239,0.02634346,-0.00005202,-0.00554462,-0.00101114,-0.00010189,0.
 00252199,0.00061988,-0.00053802,-0.00022750,-0.00011571,0.00008871,-0.
 00024040,0.00000109,-0.00004370,0.00002022,0.00002577,-0.00002185,-0.0
 0001359,-0.00006598,0.00001466,0.00003283,0.00006556,0.00000414,-0.000
 03718,0.00001008,-0.00001060,0.00001667,-0.00001186,0.00002146,-0.0000
 1891,0.00000289,-0.00000213,0.00000370,0.00000444,-0.00001215,0.000016
 59,-0.00002392,0.00000240,-0.00005509,0.00001104,0.00000388,-0.0000002
 4,0.00000846,0.00001015,0.00001823,-0.00001031,0.00002064,-0.00003804,
 0.00001000,-0.00002504,0.00003424,0.00000211,0.00000560,-0.00002035,0.
 00000144,-0.00000036,0.00000401,-0.00000458,0.00000069,-0.00000353,-0.
 00000769,-0.00000005,0.00000255,-0.00000936,0.00000017,-0.00001255,-0.
 00001677,-0.00000009,0.00001302,-0.00000692,-0.00000212,-0.00000905,-0
 .00000136,-0.00000032,-0.00000753,-0.00000306,0.00000239,0.00000457,-0
 .00311828,0.00124655,0.00323624,-0.00014368,-0.00024368,0.00002916,-0.
 00072088,0.00027066,0.00035521,0.00073952,0.00265673,-0.00370220,-0.04
 782112,0.01096144,0.06720635,0.00201316,0.00000487,0.00035877,-0.01872
 645,0.00682320,0.00238922,-0.34225283,-0.00055530,0.00504657,-0.002552
 78,-0.01344799,0.01240292,-0.00078121,-0.00075923,-0.00026643,-0.01826
 979,-0.00159511,-0.00535120,0.00245579,0.00121937,0.00175351,0.0002431
 6,0.00026803,0.00022172,0.00065820,0.00032272,-0.00023246,0.00001865,0
 .00001258,-0.00000981,0.00000338,0.00001395,0.00000962,-0.00043508,-0.
 00182008,0.00081587,0.00029986,0.00070672,-0.00043260,-0.00126749,-0.0
 0109480,0.00075158,0.00061120,0.00013905,-0.00018983,-0.00007022,0.000
 13300,-0.00013892,0.00002427,-0.00000028,-0.00004603,0.00004734,0.0000
 0521,0.00000684,-0.00002735,-0.00001399,0.00003197,-0.00003263,0.00001
 630,-0.00000764,0.00002014,-0.00000444,0.00000591,-0.00000657,0.000001
 43,-0.00000520,-0.00003100,-0.00000741,0.00004226,0.00008636,0.0000237
 0,0.00013170,-0.00002534,-0.00000532,0.00001805,-0.00001283,0.00000360
 ,-0.00000300,0.00002209,-0.00000179,-0.00000154,-0.00000924,-0.0000002
 2,-0.00001332,0.00000368,0.00000151,0.00000710,-0.00000126,-0.00000104
 ,-0.00000233,0.00000514,0.00000061,0.00000326,0.00000929,0.00000062,-0
 .00000126,0.00001155,-0.00000440,0.00001181,0.00002391,0.00001421,-0.0
 0006333,0.00001155,-0.00000187,0.00001305,0.00000247,-0.00000461,0.000
 00812,0.00001402,0.00000119,-0.00001513,0.00028048,-0.00042513,-0.0002
 3204,0.00001301,0.00009894,-0.00000227,0.00013708,-0.00039888,-0.00000
 033,0.00115255,0.00073160,-0.00076178,0.00064569,0.00213499,0.00037985
 ,0.37455407,-0.00243143,0.00221737,0.00147328,0.03861783,-0.00990234,-
 0.00550371,0.00058840,-0.03179564,-0.00645524,-0.03456346,-0.01976234,
 0.02222387,-0.00083726,-0.00079376,-0.00025278,-0.01086198,0.00135301,
 -0.00333290,-0.00057893,0.00020265,0.00076650,0.00007049,-0.00019028,-
 0.00007959,0.00029221,-0.00005682,-0.00025065,-0.00014266,-0.00001991,
 -0.00002992,0.00000994,0.00001691,-0.00001044,0.00216984,0.00134507,-0
 .00089118,-0.00041477,-0.00027190,0.00021263,0.00052676,0.00009197,0.0
 0051790,0.00010192,-0.00000705,-0.00019710,0.00000801,0.00006057,-0.00
 003450,0.00001418,-0.00001038,-0.00002685,-0.00001468,-0.00000372,0.00
 001570,0.00001015,0.00000390,-0.00001516,-0.00000541,0.00000558,0.0000
 0319,0.00000246,-0.00000208,-0.00000592,-0.00000053,0.00000235,-0.0000
 0007,-0.00000969,0.00002683,-0.00002527,0.00008295,-0.00001107,0.00011
 374,-0.00002646,-0.00000245,0.00000103,-0.00001609,0.00002945,0.000009
 94,0.00000941,-0.00002076,-0.00000217,-0.00000351,0.00001113,-0.000002
 38,0.00000059,-0.00000295,0.00000090,-0.00000005,0.00000016,-0.0000005
 3,0.00000108,-0.00000106,0.00000050,0.00000065,0.00000116,0.00000037,-
 0.00000154,-0.00000004,0.00000015,-0.00000157,0.00000927,-0.00001240,0
 .00000460,-0.00000647,0.00000232,0.00000127,-0.00000658,0.00000805,0.0
 0000435,0.00000529,-0.00000890,0.00014865,0.00046700,0.00044960,-0.000
 12543,0.00006340,0.00003356,-0.00032151,0.00001312,0.00012278,-0.00051
 255,-0.00049702,0.00044870,0.00168029,-0.00601693,-0.00266860,0.006932
 43,0.06351480,-0.00060522,0.00184292,0.00129028,0.01653233,-0.00558899
 ,0.00141808,0.00531910,-0.00727974,-0.03865346,0.03019924,0.02135126,-
 0.01259880,0.00177130,0.00061537,-0.00052889,-0.03937223,-0.00535952,-
 0.00734783,0.00126933,0.00176999,0.00297324,-0.00040700,0.00025509,0.0
 0000800,-0.00003136,-0.00015646,-0.00001586,-0.00002877,0.00000250,-0.
 00001303,-0.00000452,0.00000723,-0.00001053,-0.00066081,0.00112122,0.0
 0007573,0.00031980,0.00022785,-0.00045120,-0.00122876,0.00007534,0.000
 33981,0.00038461,-0.00007807,0.00027930,0.00011612,0.00008670,0.000035
 37,0.00000991,-0.00000854,-0.00001056,0.00001349,0.00001265,-0.0000010
 2,-0.00000917,-0.00001645,0.00000679,-0.00001009,0.00000433,0.00000089
 ,0.00000284,0.00000441,-0.00000633,-0.00000127,0.00000096,-0.00000013,
 -0.00001091,0.00000803,0.00001396,0.00013857,-0.00002350,0.00015651,-0
 .00001499,0.00000794,-0.00001200,-0.00002686,0.00000502,0.00002553,0.0
 0001250,-0.00000027,-0.00001624,-0.00000241,-0.00000677,0.00000697,0.0
 0000387,0.00000041,-0.00000597,-0.00000071,0.00000096,0.00000109,0.000
 00099,0.00000006,0.00000057,0.00000049,0.00000033,0.00000129,0.0000031
 7,-0.00000157,0.00000242,0.00002824,0.00002049,-0.00005248,0.00000871,
 -0.00000461,0.00000834,0.00000050,-0.00000499,0.00000694,0.00000874,0.
 00000443,-0.00001927,0.00003986,0.00033506,0.00007681,-0.00006331,-0.0
 0002779,0.00001078,-0.00010339,0.00010142,0.00000324,-0.00027487,0.000
 23629,0.00024579,0.00115550,-0.00272834,-0.00065091,-0.01410622,-0.004
 87242,0.05974902,0.00010220,-0.00010569,-0.00002747,-0.00028181,0.0004
 6186,-0.00039547,-0.00493884,-0.00430408,-0.00141025,0.00100239,0.0008
 5760,-0.00008261,0.00013863,0.00009465,0.00006869,-0.33291299,-0.09166
 313,-0.02339237,-0.02231245,0.00639427,0.00517689,-0.00010407,-0.00000
 980,-0.00176421,0.00000358,-0.00002464,0.00000196,0.00002658,0.0000199
 4,0.00000470,-0.00000508,-0.00000113,0.00000377,0.00003855,0.00013789,
 0.00008636,0.00084795,-0.00119095,0.00010450,-0.00405321,-0.00127881,-
 0.00093512,0.00099684,0.00091913,-0.00158036,0.00027869,0.00029105,0.0
 0016537,0.00012029,-0.00001830,-0.00011290,0.00002231,0.00001745,0.000
 02901,-0.00002956,-0.00003574,-0.00006477,-0.00005186,0.00002665,0.000
 03701,0.00001759,0.00002289,-0.00004752,-0.00000638,0.00000600,-0.0000
 0002,-0.00003621,0.00011628,-0.00003275,0.00035812,-0.00013275,0.00050
 502,-0.00006193,-0.00000016,-0.00003870,-0.00005374,0.00010573,0.00008
 961,0.00002737,-0.00005758,-0.00007313,-0.00000699,0.00000304,0.000046
 31,0.00001362,-0.00000467,-0.00003306,-0.00000014,0.00000211,0.0000046
 0,0.00000307,-0.00000127,0.00000022,0.00000325,0.00000050,0.00000114,-
 0.00000166,-0.00000664,0.00000860,0.00003098,0.00008664,-0.00031564,0.
 00001488,-0.00002217,0.00000163,0.00001181,-0.00003515,0.00003073,0.00
 002965,0.00001689,-0.00005504,-0.00004591,-0.00006090,0.00000474,-0.00
 000177,-0.00000096,-0.00000973,0.00001601,-0.00001108,-0.00001005,0.00
 003060,0.00006884,-0.00000061,0.00011641,-0.00039454,-0.00023727,0.000
 51389,-0.00049267,-0.00055085,0.36005336,0.00016040,-0.00007326,-0.000
 11167,-0.00050703,0.00080059,0.00065108,-0.01039245,-0.00200150,-0.000
 21088,0.00151701,0.00091301,-0.00030771,-0.00004378,-0.00003883,0.0000
 8312,-0.09433500,-0.07271753,-0.00654565,0.03637635,-0.00090381,-0.003
 52258,0.00070395,0.00199110,0.00179099,-0.00003157,0.00006600,0.000080
 20,0.00001641,-0.00004235,-0.00001444,-0.00000335,0.00000787,0.0000031
 1,-0.00004348,0.00009652,0.00001804,0.00152939,0.00066701,0.00000351,-
 0.02615637,-0.00651694,-0.00244027,0.00035319,0.00119221,-0.00176064,-
 0.00020199,0.00033229,0.00014577,0.00012222,-0.00005211,-0.00018113,0.
 00007928,0.00001497,0.00008851,-0.00009779,0.00001304,-0.00012555,-0.0
 0004755,0.00004268,0.00002042,0.00001832,0.00002382,-0.00002129,-0.000
 00437,0.00000241,-0.00000392,-0.00002314,-0.00003378,0.00008995,-0.000
 28942,-0.00013271,-0.00025395,0.00009895,0.00001640,-0.00006485,0.0000
 7845,-0.00002538,0.00004151,0.00000282,0.00005128,-0.00006950,0.000002
 12,-0.00005831,0.00002977,0.00000694,0.00001515,-0.00001359,0.00000019
 ,-0.00000036,0.00000270,-0.00000123,0.00000534,0.00000059,0.00001045,0
 .00000302,-0.00000768,0.00002459,-0.00002219,0.00003124,0.00030879,0.0
 0002792,-0.00006699,0.00000503,0.00002784,0.00003666,-0.00000543,0.000
 00646,-0.00001647,-0.00001309,-0.00001759,0.00003685,0.00000034,-0.000
 01770,-0.00000211,0.00000061,-0.00003739,-0.00001225,0.00003206,-0.000
 03590,-0.00002642,0.00013992,0.00010439,0.00001995,0.00027176,-0.00020
 621,-0.00016360,0.00003533,-0.00025054,-0.00230766,0.09013046,0.079559
 60,0.00046540,-0.00026801,-0.00060213,-0.00131481,0.00214837,0.0011147
 6,-0.03263324,-0.01262648,-0.00404496,0.00239468,0.00042666,0.00345495
 ,0.00006650,-0.00024549,0.00048812,-0.02809115,-0.00724186,-0.04444895
 ,0.01307550,-0.00327766,0.00049366,0.00151024,0.00012492,0.00130098,-0
 .00003451,-0.00000791,0.00006740,0.00001046,-0.00000263,0.00003333,0.0
 0000692,-0.00000060,0.00000571,-0.00036336,-0.00017960,-0.00066535,-0.
 00097131,0.00025659,0.00029173,0.02150036,0.00877015,0.00005802,0.0006
 5234,-0.00031994,0.00134939,0.00059605,-0.00002334,-0.00019333,-0.0000
 9605,0.00003336,0.00017620,-0.00005908,-0.00002800,-0.00008144,0.00007
 405,-0.00000440,0.00012876,0.00004329,-0.00003674,-0.00002142,-0.00001
 443,-0.00002940,0.00002259,0.00000374,-0.00000104,0.00000387,0.0001414
 0,0.00015530,-0.00014097,-0.00029216,-0.00006081,-0.00000712,0.0000386
 4,-0.00002918,0.00006580,-0.00007526,-0.00000082,-0.00004343,-0.000044
 60,-0.00007093,0.00013819,-0.00000448,0.00008261,-0.00005052,-0.000013
 94,-0.00001814,0.00002655,0.00000065,-0.00000036,-0.00000448,0.0000009
 6,-0.00000578,-0.00000096,-0.00001031,-0.00000479,0.00000855,-0.000034
 73,0.00003102,-0.00003024,-0.00037255,-0.00004882,-0.00006272,-0.00003
 821,-0.00001238,-0.00007711,-0.00002031,-0.00002340,0.00002735,-0.0000
 4883,-0.00001862,0.00004667,-0.00001031,-0.00019135,-0.00005852,0.0000
 1038,-0.00005369,0.00001391,0.00000109,-0.00001172,-0.00000748,0.00011
 628,-0.00000178,-0.00008963,0.00057351,-0.00045231,-0.00021226,-0.0020
 5521,-0.00177863,-0.00591040,0.02496186,0.01261776,0.04965901,0.000074
 49,-0.00007060,0.00020113,0.00008933,0.00037903,0.00000208,-0.00057696
 ,-0.00042559,-0.00000642,0.00023716,0.00016753,-0.00007487,-0.00003302
 ,-0.00000756,0.00005320,-0.00370608,0.00153299,0.00093172,0.00199439,0
 .00085193,-0.00139965,-0.00019659,-0.00020487,0.00000961,0.00052488,-0
 .00002969,0.00003943,-0.00000006,0.00016475,0.00007503,-0.00000134,0.0
 0000822,0.00002169,0.00013454,-0.00073321,-0.00073405,-0.00789214,0.00
 787115,0.00508976,-0.33728317,-0.03617686,0.08018914,-0.02037103,-0.00
 347918,-0.00534888,-0.00046778,-0.00144499,0.00474439,0.00043643,0.000
 36827,-0.00006690,0.00031665,-0.00003967,-0.00032563,-0.00028442,-0.00
 033813,0.00049362,-0.00009037,0.00010947,-0.00000341,0.00004229,-0.000
 01625,-0.00001905,-0.00000735,0.00000960,-0.00000979,-0.00022446,0.000
 00306,0.00003328,0.00013522,-0.00002008,0.00003367,0.00000198,-0.00002
 003,-0.00001078,0.00070366,0.00006117,-0.00002387,0.00005906,-0.000084
 18,-0.00027652,-0.00000598,-0.00001458,-0.00001291,0.00000285,0.000003
 11,-0.00000311,-0.00000057,0.00000274,-0.00000240,0.00000686,0.0000053
 9,0.00000531,0.00004355,0.00001666,-0.00002752,0.00011303,-0.00027311,
 0.00017050,0.00206658,0.00035372,-0.00071832,0.00011308,0.00018078,0.0
 0033108,0.00004545,0.00001678,0.00000223,0.00008974,-0.00000799,-0.000
 02231,0.00000559,-0.00000292,0.00000560,-0.00001244,-0.00003604,0.0000
 1537,0.00005305,-0.00021959,-0.00009993,0.00057753,0.00040823,0.000957
 75,0.00005448,-0.00007161,-0.00023476,0.00062009,0.00008370,0.00017450
 ,0.00008599,0.00017174,0.00035453,0.36252579,-0.00006739,0.00033298,-0
 .00037530,-0.00033894,-0.00068856,-0.00011553,-0.00095072,-0.00065501,
 -0.00113338,0.00043999,0.00006920,0.00066336,0.00015480,-0.00009815,0.
 00012272,-0.02271713,-0.00194144,0.00682538,-0.00009335,0.00284282,-0.
 00084241,-0.00032449,-0.00022199,-0.00005670,0.00003906,0.00022229,0.0
 0002777,-0.00018376,-0.00026170,-0.00010702,0.00000032,0.00002837,-0.0
 0003016,0.00435981,0.00168555,0.00428536,0.03303432,-0.01052708,-0.016
 60389,-0.03800408,-0.04648421,0.01178125,-0.00657146,0.00268081,-0.000
 74450,0.00099553,-0.00017494,0.00162882,0.00023880,-0.00014481,-0.0001
 1367,-0.00030535,0.00006741,0.00032264,0.00009219,0.00030023,-0.000928
 96,0.00001159,0.00002263,0.00010273,-0.00001492,0.00006886,-0.00008983
 ,-0.00000171,0.00000527,0.00000810,-0.00015525,0.00003560,-0.00009813,
 0.00007563,-0.00005945,0.00005824,-0.00000452,-0.00000301,0.00000473,-
 0.00000837,0.00017086,0.00011710,0.00000457,-0.00005124,-0.00015278,0.
 00000176,-0.00003050,0.00010761,0.00001773,0.00000444,-0.00005910,0.00
 000123,0.00000161,0.00001024,-0.00000441,-0.00000142,-0.00000673,-0.00
 002495,-0.00000326,0.00001229,-0.00000957,-0.00002011,0.00001892,0.000
 26976,0.00049521,0.00050765,0.00000670,-0.00002418,0.00003242,0.000043
 53,-0.00002042,0.00000638,0.00004941,-0.00001786,-0.00007483,-0.000005
 21,0.00001959,0.00000799,0.00005494,0.00002512,-0.00000922,-0.00016885
 ,0.00005412,0.00005150,-0.00136342,0.00023352,0.00000311,-0.00009020,-
 0.00010693,0.00005693,0.00049674,0.00019107,0.00036741,0.00007293,-0.0
 0279653,0.00242987,0.03094671,0.05477524,-0.00006550,-0.00004263,-0.00
 030742,-0.00012661,0.00024731,-0.00009599,0.00099759,-0.00012501,0.001
 20485,-0.00050252,0.00004458,-0.00023581,-0.00005946,-0.00002348,-0.00
 000799,0.02064805,0.00232934,-0.00030599,-0.00177442,-0.00233331,0.001
 24517,-0.00015767,0.00003795,-0.00001816,-0.00003038,-0.00001720,0.000
 00535,-0.00011184,-0.00014344,-0.00006830,0.00000454,0.00001297,-0.000
 01532,0.00317781,0.00051884,0.00284664,0.01208142,-0.00661924,-0.00326
 484,0.08966627,0.01581780,-0.06861636,-0.02994324,-0.00228185,-0.00758
 610,-0.00835127,-0.00225654,0.00206278,0.00036540,0.00011686,-0.000464
 64,0.00004672,0.00003064,0.00029691,-0.00005437,-0.00005741,-0.0004246
 2,-0.00005756,0.00008814,0.00005128,0.00002991,0.00003441,-0.00003696,
 -0.00000356,0.00000860,-0.00000435,-0.00009716,0.00007317,0.00007129,0
 .00002345,-0.00011387,0.00001323,0.00004049,-0.00000590,-0.00003399,-0
 .00053568,-0.00011205,-0.00008012,0.00018657,0.00012688,-0.00012569,0.
 00000071,-0.00010226,0.00006395,0.00001405,0.00002349,-0.00003268,0.00
 000080,0.00000073,0.00000536,-0.00000477,0.00000088,0.00000772,0.00003
 718,0.00001879,-0.00004055,0.00021407,-0.00007387,0.00006514,0.0004316
 0,0.00035395,-0.00205828,0.00021113,0.00000796,-0.00003135,0.00002896,
 -0.00000110,0.00000246,0.00004318,-0.00006835,-0.00003263,-0.00003266,
 -0.00000222,0.00000644,0.00001159,0.00003590,-0.00000789,-0.00013296,0
 .00007807,0.00001539,-0.00092128,-0.00006277,-0.00018560,-0.00015037,-
 0.00005803,0.00011200,-0.00047183,0.00005259,-0.00043185,-0.00016283,0
 .00245908,-0.00222209,-0.08451354,-0.00801836,0.07865962\\0.01456274,-
 0.02918064,-0.00697428,-0.03439940,0.02040913,-0.01392349,0.05513048,-
 0.03862807,0.02032212,-0.02065135,0.03092664,0.03546844,0.00141802,-0.
 02589468,-0.01602797,0.01587457,0.02032998,0.00037131,-0.01449826,-0.0
 0211100,0.00065939,0.00828998,0.01125305,0.01413392,-0.00328827,0.0131
 1548,0.00667471,0.00244537,0.01588766,-0.00363957,0.00685717,-0.030410
 91,0.00590180,0.00093749,0.01194580,0.00349606,0.01573277,-0.00121697,
 0.01633349,-0.07599962,0.00346200,-0.01969656,0.02598757,0.00617488,-0
 .01238073,0.00029128,-0.01397065,-0.00811442,-0.01494457,0.04436816,0.
 00764540,0.00286058,-0.03204026,0.02547775,0.00180713,0.02176569,-0.01
 049950,0.00620728,-0.00809849,-0.03136874,-0.00429848,0.00237032,-0.00
 574620,-0.00494144,-0.01213590,0.02963063,0.00808889,-0.01267707,0.004
 38466,-0.01312280,-0.02129914,0.00504789,0.00112050,0.03309377,0.00068
 629,0.00568295,0.00745834,-0.00372602,0.00665051,-0.00352178,-0.010215
 17,0.01808668,-0.01937510,-0.01068085,-0.00034817,0.00622503,0.0241709
 3,-0.00399818,-0.00337414,-0.00267984,-0.02087860,0.00042480,-0.004284
 84,0.02002670,0.00080530,0.00414640,-0.02386484,-0.00265092,-0.0049151
 9,0.01930792,0.00001923,0.00116884,-0.02200515,-0.00117687,-0.00107759
 ,-0.00295598,-0.00425889,-0.01705358,0.01952880,0.00292155,-0.00065385
 ,-0.00283579,0.00110850,0.00098883,-0.00053533,0.00346107,-0.01864942,
 -0.02185182,-0.00110867,0.00367705,0.02213829,0.00018004,-0.00157958,-
 0.02281850,0.00410494,0.00209472,0.02940271,0.00147560,-0.00456204,-0.
 01712786,-0.00234315,-0.00318888,0.01692803,0.00218633,-0.00084234\\\@


 ABALONE: AN EXPRESSION OF DISBELIEF.
 Job cpu time:  0 days 12 hours 53 minutes 57.7 seconds.
 File lengths (MBytes):  RWF=   1326 Int=      0 D2E=      0 Chk=     19 Scr=      1
 Normal termination of Gaussian 09 at Tue Mar  1 03:17:27 2016.
Gaussian '09 finished on node012 at Tue Mar  1 03:17:27 EST 2016.
