Gaussian '09 started on node018 at Sun Mar 27 04:12:04 EDT 2016.
 Entering Gaussian System, Link 0=/usr/local/gaussian/g09/g09
 Initial command:
 /usr/local/gaussian/g09/l1.exe /home/srmcgrat/thesis/gaussian/cellobiose/450K/7275ps/1/2dp/gaussian23782/Gau-23818.inp -scrdir=/home/srmcgrat/thesis/gaussian/cellobiose/450K/7275ps/1/2dp/gaussian23782/
 Entering Link 1 = /usr/local/gaussian/g09/l1.exe PID=     23820.
  
 Copyright (c) 1988,1990,1992,1993,1995,1998,2003,2009,2010,
            Gaussian, Inc.  All Rights Reserved.
  
 This is part of the Gaussian(R) 09 program.  It is based on
 the Gaussian(R) 03 system (copyright 2003, Gaussian, Inc.),
 the Gaussian(R) 98 system (copyright 1998, Gaussian, Inc.),
 the Gaussian(R) 94 system (copyright 1995, Gaussian, Inc.),
 the Gaussian 92(TM) system (copyright 1992, Gaussian, Inc.),
 the Gaussian 90(TM) system (copyright 1990, Gaussian, Inc.),
 the Gaussian 88(TM) system (copyright 1988, Gaussian, Inc.),
 the Gaussian 86(TM) system (copyright 1986, Carnegie Mellon
 University), and the Gaussian 82(TM) system (copyright 1983,
 Carnegie Mellon University). Gaussian is a federally registered
 trademark of Gaussian, Inc.
  
 This software contains proprietary and confidential information,
 including trade secrets, belonging to Gaussian, Inc.
  
 This software is provided under written license and may be
 used, copied, transmitted, or stored only in accord with that
 written license.
  
 The following legend is applicable only to US Government
 contracts under FAR:
  
                    RESTRICTED RIGHTS LEGEND
  
 Use, reproduction and disclosure by the US Government is
 subject to restrictions as set forth in subparagraphs (a)
 and (c) of the Commercial Computer Software - Restricted
 Rights clause in FAR 52.227-19.
  
 Gaussian, Inc.
 340 Quinnipiac St., Bldg. 40, Wallingford CT 06492
  
  
 ---------------------------------------------------------------
 Warning -- This program may not be used in any manner that
 competes with the business of Gaussian, Inc. or will provide
 assistance to any competitor of Gaussian, Inc.  The licensee
 of this program is prohibited from giving any competitor of
 Gaussian, Inc. access to this program.  By using this program,
 the user acknowledges that Gaussian, Inc. is engaged in the
 business of creating and licensing software in the field of
 computational chemistry and represents and warrants to the
 licensee that it is not a competitor of Gaussian, Inc. and that
 it will not use this program in any manner prohibited above.
 ---------------------------------------------------------------
  

 Cite this work as:
 Gaussian 09, Revision B.01,
 M. J. Frisch, G. W. Trucks, H. B. Schlegel, G. E. Scuseria, 
 M. A. Robb, J. R. Cheeseman, G. Scalmani, V. Barone, B. Mennucci, 
 G. A. Petersson, H. Nakatsuji, M. Caricato, X. Li, H. P. Hratchian, 
 A. F. Izmaylov, J. Bloino, G. Zheng, J. L. Sonnenberg, M. Hada, 
 M. Ehara, K. Toyota, R. Fukuda, J. Hasegawa, M. Ishida, T. Nakajima, 
 Y. Honda, O. Kitao, H. Nakai, T. Vreven, J. A. Montgomery, Jr., 
 J. E. Peralta, F. Ogliaro, M. Bearpark, J. J. Heyd, E. Brothers, 
 K. N. Kudin, V. N. Staroverov, T. Keith, R. Kobayashi, J. Normand, 
 K. Raghavachari, A. Rendell, J. C. Burant, S. S. Iyengar, J. Tomasi, 
 M. Cossi, N. Rega, J. M. Millam, M. Klene, J. E. Knox, J. B. Cross, 
 V. Bakken, C. Adamo, J. Jaramillo, R. Gomperts, R. E. Stratmann, 
 O. Yazyev, A. J. Austin, R. Cammi, C. Pomelli, J. W. Ochterski, 
 R. L. Martin, K. Morokuma, V. G. Zakrzewski, G. A. Voth, 
 P. Salvador, J. J. Dannenberg, S. Dapprich, A. D. Daniels, 
 O. Farkas, J. B. Foresman, J. V. Ortiz, J. Cioslowski, 
 and D. J. Fox, Gaussian, Inc., Wallingford CT, 2010.
 
 ******************************************
 Gaussian 09:  EM64L-G09RevB.01 12-Aug-2010
                27-Mar-2016 
 ******************************************
 -------------------------------------------------
 # freq=raman b3lyp/6-31+g(2d,p) geom=connectivity
 -------------------------------------------------
 1/10=4,30=1,38=1,57=2/1,3;
 2/12=2,17=6,18=5,40=1/2;
 3/5=1,6=6,7=112,11=2,16=1,25=1,30=1,71=2,74=-5/1,2,3;
 4//1;
 5/5=2,38=5,98=1/2;
 8/6=4,10=90,11=11/1;
 10/13=10,15=4/2;
 11/6=3,8=1,9=11,15=111,16=1/1,2,10;
 10/6=1/2;
 6/7=2,8=2,9=2,10=2,18=1,28=1/1;
 7/8=1,10=1,25=1/1,2,3,16;
 1/10=4,30=1/3;
 99//99;
 -----------------
 450 7275/7275.com
 -----------------
 Symbolic Z-matrix:
 Charge =  0 Multiplicity = 1
 O                     10.327    7.81      11.903 
 C                     11.281    7.8       12.975 
 C                     11.642    9.195     13.46 
 O                     12.676    9.667     12.583 
 H                     12.461    9.54      11.615 
 C                     12.108    9.298     14.903 
 O                     12.418    10.634    15.327 
 H                     12.545    11.294    14.587 
 C                     10.351    5.699     13.607 
 O                     9.398     4.964     14.388 
 H                     9.384     4.017     14.068 
 C                     10.436    7.149     14.057 
 O                     10.872    7.376     15.406 
 C                     11.087    8.717     15.868 
 O                     11.721    8.315     17.09 
 C                     10.97     8.422     18.308 
 C                     10.256    7.107     18.578 
 O                     9.283     6.785     17.573 
 H                     9.633     7.015     16.665 
 C                     9.635     7.197     19.962 
 O                     8.955     5.949     20.159 
 H                     8.496     5.717     19.301 
 C                     12.793    9.885     19.074 
 O                     12.007    11.084    19.003 
 H                     11.714    11.25     18.061 
 C                     11.962    8.664     19.434 
 O                     11.237    8.815     20.664 
 C                     10.709    7.521     20.988 
 O                     10.117    7.678     22.285 
 H                     10.79041   7.81784   11.06229 
 H                     11.3137   5.24359   13.71047 
 H                     10.05812   5.66855   12.57831 
 H                     9.45157   7.56074   13.9778 
 H                     12.14552   7.21539   12.73891 
 H                     10.78485   9.82405   13.33964 
 H                     13.00228   8.71731   14.99222 
 H                     10.1914   9.28921   15.99202 
 H                     10.80933   7.75792   22.94522 
 H                     11.47858   6.77766   20.99736 
 H                     8.91158   7.98539   19.96351 
 H                     10.98869   6.32734   18.59187 
 H                     10.26701   9.22636   18.24705 
 H                     12.60915   7.81574   19.51497 
 H                     13.55512   10.01469   19.81377 
 H                     13.25718   9.71933   18.12427 
 

 GradGradGradGradGradGradGradGradGradGradGradGradGradGradGradGradGradGrad
 Berny optimization.
 Initialization pass.
 Trust Radius=3.00D-01 FncErr=1.00D-07 GrdErr=1.00D-07
 Number of steps in this run=      2 maximum allowed number of steps=      2.
 GradGradGradGradGradGradGradGradGradGradGradGradGradGradGradGradGradGrad

                          Input orientation:                          
 ---------------------------------------------------------------------
 Center     Atomic      Atomic             Coordinates (Angstroms)
 Number     Number       Type             X           Y           Z
 ---------------------------------------------------------------------
      1          8           0       10.327000    7.810000   11.903000
      2          6           0       11.281000    7.800000   12.975000
      3          6           0       11.642000    9.195000   13.460000
      4          8           0       12.676000    9.667000   12.583000
      5          1           0       12.461000    9.540000   11.615000
      6          6           0       12.108000    9.298000   14.903000
      7          8           0       12.418000   10.634000   15.327000
      8          1           0       12.545000   11.294000   14.587000
      9          6           0       10.351000    5.699000   13.607000
     10          8           0        9.398000    4.964000   14.388000
     11          1           0        9.384000    4.017000   14.068000
     12          6           0       10.436000    7.149000   14.057000
     13          8           0       10.872000    7.376000   15.406000
     14          6           0       11.087000    8.717000   15.868000
     15          8           0       11.721000    8.315000   17.090000
     16          6           0       10.970000    8.422000   18.308000
     17          6           0       10.256000    7.107000   18.578000
     18          8           0        9.283000    6.785000   17.573000
     19          1           0        9.633000    7.015000   16.665000
     20          6           0        9.635000    7.197000   19.962000
     21          8           0        8.955000    5.949000   20.159000
     22          1           0        8.496000    5.717000   19.301000
     23          6           0       12.793000    9.885000   19.074000
     24          8           0       12.007000   11.084000   19.003000
     25          1           0       11.714000   11.250000   18.061000
     26          6           0       11.962000    8.664000   19.434000
     27          8           0       11.237000    8.815000   20.664000
     28          6           0       10.709000    7.521000   20.988000
     29          8           0       10.117000    7.678000   22.285000
     30          1           0       10.790413    7.817842   11.062294
     31          1           0       11.313700    5.243586   13.710475
     32          1           0       10.058122    5.668549   12.578314
     33          1           0        9.451571    7.560736   13.977801
     34          1           0       12.145523    7.215394   12.738914
     35          1           0       10.784851    9.824054   13.339636
     36          1           0       13.002285    8.717315   14.992215
     37          1           0       10.191405    9.289214   15.992018
     38          1           0       10.809334    7.757918   22.945218
     39          1           0       11.478579    6.777656   20.997358
     40          1           0        8.911576    7.985388   19.963511
     41          1           0       10.988692    6.327340   18.591875
     42          1           0       10.267015    9.226361   18.247047
     43          1           0       12.609153    7.815745   19.514972
     44          1           0       13.555117   10.014687   19.813769
     45          1           0       13.257178    9.719328   18.124268
 ---------------------------------------------------------------------
                    Distance matrix (angstroms):
                    1          2          3          4          5
     1  O    0.000000
     2  C    1.435061   0.000000
     3  C    2.464082   1.520385   0.000000
     4  O    3.070611   2.363340   1.435642   0.000000
     5  H    2.762209   2.503917   2.047880   0.999689   0.000000
     6  C    3.792902   2.577812   1.519873   2.416854   3.315738
     7  O    4.906224   3.854378   2.481650   2.920820   3.870094
     8  H    4.925610   4.050219   2.547811   2.584629   3.452008
     9  C    2.713027   2.382966   3.729652   4.711605   4.813880
    10  O    3.890756   3.685804   4.878328   6.010118   6.165328
    11  H    4.468033   4.370852   5.681541   6.705594   6.781494
    12  C    2.255774   1.519391   2.448869   3.678396   3.972514
    13  O    3.571609   2.501363   2.772828   4.058624   4.645374
    14  C    4.137810   3.041048   2.516937   3.770762   4.544581
    15  O    5.394741   4.170378   3.735979   4.801352   5.658962
    16  C    6.466221   5.378150   4.955019   6.102138   6.947608
    17  C    6.712293   5.737986   5.698655   6.953418   7.698369
    18  O    5.855720   5.115059   5.318811   6.687187   7.292974
    19  H    4.877531   4.116823   4.365834   5.740704   6.314722
    20  C    8.111850   7.203547   7.091971   8.354533   9.118571
    21  O    8.573636   7.774724   7.914107   9.223077   9.908948
    22  H    7.903393   7.218960   7.490733   8.843440   9.455747
    23  C    7.861935   6.620511   5.772166   6.495714   7.474351
    24  O    7.996967   6.902790   5.867401   6.608468   7.561256
    25  H    7.188764   6.160957   5.039584   5.782717   6.710665
    26  C    7.753612   6.552018   6.006083   6.960748   7.883726
    27  O    8.865283   7.755829   7.225375   8.252223   9.160142
    28  C    9.097619   8.038233   7.768111   8.894854   9.746743
    29  O   10.384963   9.383277   9.083366  10.229047  11.081980
    30  H    0.960000   1.974700   2.893226   3.047519   2.462148
    31  H    3.290444   2.660309   3.972932   4.763785   4.915942
    32  H    2.261450   2.489151   3.965084   4.779217   4.657245
    33  H    2.265681   2.099921   2.781531   4.096189   4.307781
    34  H    2.087902   1.070000   2.166181   2.513183   2.601250
    35  H    2.515942   2.115636   1.070000   2.042941   2.421679
    36  H    4.186122   2.805966   2.103864   2.610112   3.517866
    37  H    4.350463   3.536577   2.919626   4.235250   4.936825
    38  H   11.052870   9.981457   9.629532  10.700682  11.587823
    39  H    9.224923   8.089651   7.917198   8.976834   9.829768
    40  H    8.185720   7.381586   7.156397   8.454031   9.203959
    41  H    6.883107   5.814073   5.914932   7.078623   7.820847
    42  H    6.500508   5.554921   4.980702   6.170802   6.992567
    43  H    7.946721   6.673490   6.284935   7.175225   8.087309
    44  H    8.823925   7.539576   6.685977   7.292308   8.285061
    45  H    7.136921   5.839868   4.963780   5.571907   6.560230
                    6          7          8          9         10
     6  C    0.000000
     7  O    1.435539   0.000000
     8  H    2.067569   0.999664   0.000000
     9  C    4.209450   5.620064   6.089176   0.000000
    10  O    5.137400   6.492382   7.071924   1.434711   0.000000
    11  H    6.000530   7.387484   7.950850   1.994175   0.999702
    12  C    2.851228   4.205526   4.680791   1.520600   2.441563
    13  O    2.339827   3.607065   4.338250   2.513995   3.004454
    14  C    1.520272   2.395648   3.226090   3.842153   4.373572
    15  O    2.428791   2.995286   3.977238   4.566360   4.891455
    16  C    3.695463   3.984471   4.957303   5.467842   5.458512
    17  C    4.662189   5.261461   6.220818   5.167430   4.783797
    18  O    4.628682   5.448628   6.315688   4.248432   3.670625
    19  H    3.800310   4.758532   5.577425   3.405693   3.073525
    20  C    6.010275   6.406347   7.358270   6.568309   6.009321
    21  O    6.984465   7.569004   8.514946   6.703732   5.871194
    22  H    6.724025   7.439869   8.349798   5.988571   5.051552
    23  C    4.267439   3.839484   4.709560   7.305755   7.596108
    24  O    4.473254   3.726177   4.453605   7.801114   8.096882
    25  H    3.733431   2.889607   3.572278   7.246343   7.639933
    26  C    4.577470   4.577804   5.545286   6.733534   6.762116
    27  O    5.846456   5.760824   6.692252   7.765031   7.589486
    28  C    6.491699   6.682692   7.653707   7.610980   7.198401
    29  O    7.815523   7.902297   8.844764   8.903869   8.381251
    30  H    4.321797   5.363534   5.252219   3.340375   4.598212
    31  H    4.300151   5.734910   6.236337   1.070000   2.051125
    32  H    4.772743   6.146544   6.470323   1.070000   2.051125
    33  H    3.306160   4.479396   4.886480   2.100602   2.629481
    34  H    3.003652   4.296429   4.495557   2.504662   3.916266
    35  H    2.114607   2.696814   2.610514   4.156414   5.161642
    36  H    1.070000   2.031539   2.648135   4.249512   5.238637
    37  H    2.204399   2.684851   3.395976   4.313168   4.680795
    38  H    8.290696   8.300415   9.239925   9.573480   9.111740
    39  H    6.624915   6.921478   7.913742   7.553299   7.162525
    40  H    6.127711   6.388065   7.283924   6.906862   6.360166
    41  H    4.866771   5.590138   6.567254   5.064626   4.696973
    42  H    3.817985   3.890355   4.781244   5.829182   5.815080
    43  H    4.870166   5.051555   6.032187   6.669632   6.688034
    44  H    5.169472   4.669870   5.475043   8.210695   8.498825
    45  H    3.445967   3.060319   3.936883   6.709293   7.173987
                   11         12         13         14         15
    11  H    0.000000
    12  C    3.303975   0.000000
    13  O    3.909894   1.435767   0.000000
    14  C    5.313211   2.482367   1.434556   0.000000
    15  O    5.750379   3.494262   2.106746   1.434170   0.000000
    16  C    6.316409   4.469529   3.086312   2.460552   1.434913
    17  C    5.536116   4.524777   3.242438   3.259871   2.412392
    18  O    4.467331   3.718086   2.751380   3.145483   2.918567
    19  H    3.974219   2.732111   1.802921   2.376158   2.496071
    20  C    6.701838   5.959273   4.724336   4.602123   3.721519
    21  O    6.404447   6.392790   5.319984   5.533528   4.761037
    22  H    5.573404   5.771807   4.854759   5.243927   4.694545
    23  C    8.432956   6.181540   4.841440   3.814852   2.747788
    24  O    9.009819   6.512694   5.289225   4.034515   3.377681
    25  H    8.584244   5.872265   4.771359   3.408587   3.091458
    26  C    7.552129   5.791030   4.367130   3.672164   2.382062
    27  O    8.364307   6.860729   5.463562   4.799346   3.641117
    28  C    7.868929   6.946342   5.586262   5.271404   4.104751
    29  O    9.025481   8.251157   6.926895   6.572542   5.474177
    30  H    5.045659   3.088887   4.366883   4.898087   6.119346
    31  H    2.314321   2.126274   2.759908   4.095230   4.584830
    32  H    2.324053   2.126274   3.401999   4.601486   5.488550
    33  H    3.545528   1.070000   2.022745   2.753984   3.924921
    34  H    4.429695   2.159682   2.959899   3.628563   4.507915
    35  H    6.017871   2.791455   3.204750   2.776597   4.149560
    36  H    6.003259   3.149612   2.551167   2.106019   2.490833
    37  H    5.670096   2.895624   2.113531   1.070000   2.119981
    38  H    9.738123   8.916870   7.549145   7.147303   5.951894
    39  H    7.747547   7.028046   5.655903   5.497700   4.205905
    40  H    7.122383   6.157132   4.998551   4.694777   4.032191
    41  H    5.327115   4.641732   3.356054   3.624863   2.596670
    42  H    6.736586   4.679795   3.444037   2.567429   2.069640
    43  H    7.382518   5.912411   4.482714   4.053346   2.630316
    44  H    9.294317   7.147128   5.795707   4.831634   3.697545
    45  H    7.998210   5.577481   4.309204   3.287108   2.324153
                   16         17         18         19         20
    16  C    0.000000
    17  C    1.520500   0.000000
    18  O    2.462918   1.435423   0.000000
    19  H    2.542964   2.013992   0.999932   0.000000
    20  C    2.453277   1.519604   2.449688   3.302020   0.000000
    21  O    3.688110   2.352260   2.737494   3.715384   1.434822
    22  H    3.797861   2.356359   2.178526   3.150566   1.981071
    23  C    2.459767   3.794690   4.917632   4.901610   4.241091
    24  O    2.940177   4.366137   5.286443   5.259171   4.653475
    25  H    2.934643   4.422386   5.107262   4.920833   4.935874
    26  C    1.520034   2.463214   3.764439   3.976280   2.801036
    27  O    2.403430   2.868976   4.182499   4.669563   2.382673
    28  C    2.839423   2.486907   3.773248   4.483541   1.520239
    29  O    4.134933   3.753293   4.867848   5.679632   2.420747
    30  H    7.273068   7.568139   6.762274   5.777065   8.995843
    31  H    5.599793   5.318256   4.628045   3.832999   6.761318
    32  H    6.422018   6.172887   5.176308   4.323732   7.552087
    33  H    4.668835   4.691994   3.681798   2.748051   5.998049
    34  H    5.818287   6.138156   5.634506   4.665520   7.646962
    35  H    5.165722   5.924738   5.423355   4.502843   7.216598
    36  H    3.900233   4.795106   4.922130   4.128942   6.192634
    37  H    2.592690   3.384307   3.097708   2.436549   4.521914
    38  H    4.687281   4.449996   5.668949   6.432482   3.254731
    39  H    3.192987   2.730652   4.067782   4.715063   2.155597
    40  H    2.677397   2.121009   2.700635   3.513158   1.070000
    41  H    2.113891   1.070000   2.038859   2.454307   2.113300
    42  H    1.070000   2.145074   2.717143   2.791946   2.731083
    43  H    2.123946   2.630126   3.987102   4.197740   3.070548
    44  H    3.389222   4.567925   5.805421   5.856268   4.829974
    45  H    2.635906   4.004647   4.970741   4.751581   4.781168
                   21         22         23         24         25
    21  O    0.000000
    22  H    1.000334   0.000000
    23  C    5.603531   5.990656   0.000000
    24  O    6.084346   6.420328   1.435423   0.000000
    25  H    6.333584   6.519756   2.013364   1.000384   0.000000
    26  C    4.115689   4.551445   1.520198   2.458493   2.938372
    27  O    3.698176   4.355279   2.468630   2.915507   3.596159
    28  C    2.496986   3.316286   3.687133   4.280187   4.845905
    29  O    2.976501   3.921405   4.726769   5.093570   5.757757
    30  H    9.466329   8.806483   8.512986   8.671948   7.849497
    31  H    6.902503   6.278338   7.245582   7.912138   7.427269
    32  H    7.665659   6.901962   8.212914   8.625649   7.997148
    33  H    6.407144   5.713924   6.522162   6.648024   5.949938
    34  H    8.175626   7.656707   6.905022   7.363699   6.692448
    35  H    8.054075   7.592404   6.076126   5.929149   5.018757
    36  H    7.123183   6.919112   4.250677   4.762162   4.182297
    37  H    5.481739   5.156013   4.076993   3.947614   3.231666
    38  H    3.804438   4.774639   4.842079   5.295121   6.071955
    39  H    2.785312   3.591434   3.883632   4.775070   5.355323
    40  H    2.046211   2.399419   4.411939   4.483929   4.704340
    41  H    2.595174   2.662497   4.018073   4.881781   5.004046
    42  H    4.014728   4.069757   2.738295   2.655153   2.494693
    43  H    4.153594   4.622612   2.123693   3.362468   3.835289
    44  H    6.148990   6.657906   1.070000   2.048767   2.826289
    45  H    6.071593   6.330256   1.070000   2.048767   2.174479
                   26         27         28         29         30
    26  C    0.000000
    27  O    1.435732   0.000000
    28  C    2.300299   1.434641   0.000000
    29  O    3.536159   2.274821   1.434337   0.000000
    30  H    8.495532   9.663670   9.930478  11.243762   0.000000
    31  H    6.699124   7.817442   7.649487   8.993383   3.730079
    32  H    7.719968   8.756039   8.635858   9.912675   2.730207
    33  H    6.106517   7.033220   7.122190   8.334633   3.218507
    34  H    6.852468   8.135793   8.378807   9.770192   2.238375
    35  H    6.314482   7.407357   7.987946   9.223400   3.034996
    36  H    4.562289   5.940952   6.529912   7.911368   4.598447
    37  H    3.920859   4.810984   5.324878   6.496397   5.179375
    38  H    3.805032   2.550348   1.974056   0.960000  11.883090
    39  H    2.497214   2.078523   1.070000   2.079072  10.013044
    40  H    3.169539   2.566425   2.120369   2.633789   9.098888
    41  H    2.667674   3.247124   2.691555   4.027816   7.678248
    42  H    2.144314   2.636617   3.258286   4.327238   7.340201
    43  H    1.070000   2.049776   2.422244   3.728653   8.646131
    44  H    2.122876   2.745143   3.962029   4.836087   9.437057
    45  H    2.122876   3.368853   4.418916   5.598163   7.718293
                   31         32         33         34         35
    31  H    0.000000
    32  H    1.743232   0.000000
    33  H    2.984656   2.430399   0.000000
    34  H    2.350294   2.603029   2.985210   0.000000
    35  H    4.625785   4.286719   2.703238   3.002898   0.000000
    36  H    4.069517   4.877498   3.869661   2.840277   2.978742
    37  H    4.778294   4.977987   2.755369   4.324580   2.770084
    38  H    9.584191  10.602003   9.071767  10.307684   9.825310
    39  H    7.448437   8.609769   7.348207   8.296886   8.270581
    40  H    7.237965   7.824541   6.025001   7.952741   7.124996
    41  H    5.010810   6.120693   5.017338   6.031918   6.313048
    42  H    6.126870   6.695984   4.654644   6.157297   4.970722
    43  H    6.479690   7.696456   6.379311   6.818382   6.745084
    44  H    8.064587   9.136175   7.544501   7.737995   7.044510
    45  H    6.579585   7.576303   6.027881   6.042143   5.386657
                   36         37         38         39         40
    36  H    0.000000
    37  H    3.037716   0.000000
    38  H    8.305403   7.146586   0.000000
    39  H    6.491971   5.746144   2.281000   0.000000
    40  H    6.479459   4.371576   3.541723   3.019430   0.000000
    41  H    4.766978   4.020898   4.585883   2.495821   2.990806
    42  H    4.281911   2.257172   4.952094   3.876629   2.514652
    43  H    4.628467   4.519715   3.874181   2.133845   3.728544
    44  H    5.023562   5.142631   4.736908   4.023837   5.069807
    45  H    3.298295   3.759049   5.751576   4.480122   5.027287
                   41         42         43         44         45
    41  H    0.000000
    42  H    3.007332   0.000000
    43  H    2.386074   3.013815   0.000000
    44  H    4.655759   3.726620   2.412358   0.000000
    45  H    4.107343   3.033013   2.444918   1.740810   0.000000
 Stoichiometry    C12H22O11
 Framework group  C1[X(C12H22O11)]
 Deg. of freedom   129
 Full point group                 C1      NOp   1
 Largest Abelian subgroup         C1      NOp   1
 Largest concise Abelian subgroup C1      NOp   1
                         Standard orientation:                         
 ---------------------------------------------------------------------
 Center     Atomic      Atomic             Coordinates (Angstroms)
 Number     Number       Type             X           Y           Z
 ---------------------------------------------------------------------
      1          8           0       -4.848175    0.753099   -0.683461
      2          6           0       -3.847318    0.193358    0.179311
      3          6           0       -3.386730   -1.186013   -0.264270
      4          8           0       -4.334657   -2.117016    0.279548
      5          1           0       -5.285005   -1.855593    0.112594
      6          6           0       -1.980638   -1.584264    0.153238
      7          8           0       -1.577353   -2.884007   -0.303710
      8          1           0       -2.323270   -3.475484   -0.608819
      9          6           0       -3.154373    2.432420    0.609376
     10          8           0       -2.308514    3.541271    0.272677
     11          1           0       -2.628524    4.349609    0.766223
     12          6           0       -2.708810    1.161125   -0.095967
     13          8           0       -1.394085    0.679800    0.222231
     14          6           0       -0.946081   -0.573051   -0.314060
     15          8           0        0.226563   -0.635300    0.509273
     16          6           0        1.495454   -0.355726   -0.099601
     17          6           0        1.813376    1.123375    0.052412
     18          8           0        0.880063    1.967467   -0.638149
     19          1           0       -0.050236    1.617136   -0.530094
     20          6           0        3.238491    1.338934   -0.429021
     21          8           0        3.481294    2.746244   -0.290326
     22          1           0        2.657944    3.225742   -0.595032
     23          6           0        2.131681   -2.610399    0.650144
     24          8           0        2.119515   -3.171518   -0.671005
     25          1           0        1.201257   -3.111911   -1.063458
     26          6           0        2.547938   -1.148324    0.658403
     27          8           0        3.827021   -0.920208    0.047472
     28          6           0        4.185515    0.436558    0.345571
     29          8           0        5.521906    0.583624   -0.154182
     30          1           0       -5.719912    0.522482   -0.354081
     31          1           0       -3.121035    2.275584    1.667295
     32          1           0       -4.159483    2.658813    0.320588
     33          1           0       -2.716461    1.365409   -1.146257
     34          1           0       -4.145882    0.211271    1.206656
     35          1           0       -3.444141   -1.231429   -1.331763
     36          1           0       -1.956863   -1.598454    1.222879
     37          1           0       -0.757093   -0.559206   -1.367147
     38          1           0        6.130966    0.109318    0.416502
     39          1           0        4.138258    0.629750    1.396924
     40          1           0        3.293368    1.082319   -1.466343
     41          1           0        1.773197    1.367014    1.093530
     42          1           0        1.486594   -0.634554   -1.132595
     43          1           0        2.580681   -0.802858    1.670570
     44          1           0        2.815184   -3.167735    1.256032
     45          1           0        1.150808   -2.692829    1.069658
 ---------------------------------------------------------------------
 Rotational constants (GHZ):      0.4059516      0.1547439      0.1161149
 Standard basis: 6-31+G(2d,p) (6D, 7F)
 There are   685 symmetry adapted basis functions of A   symmetry.
 Integral buffers will be    131072 words long.
 Raffenetti 2 integral format.
 Two-electron integral symmetry is turned on.
   685 basis functions,  1028 primitive gaussians,   685 cartesian basis functions
    91 alpha electrons       91 beta electrons
       nuclear repulsion energy      2306.6430365190 Hartrees.
 NAtoms=   45 NActive=   45 NUniq=   45 SFac= 1.00D+00 NAtFMM=   50 NAOKFM=F Big=F
 One-electron integrals computed using PRISM.
 NBasis=   685 RedAO= T  NBF=   685
 NBsUse=   685 1.00D-06 NBFU=   685
 Harris functional with IExCor=  402 diagonalized for initial guess.
 ExpMin= 4.38D-02 ExpMax= 5.48D+03 ExpMxC= 8.25D+02 IAcc=2 IRadAn=         0 AccDes= 0.00D+00
 HarFok:  IExCor=  402 AccDes= 0.00D+00 IRadAn=         0 IDoV= 1
 ScaDFX=  1.000000  1.000000  1.000000  1.000000
 FoFCou: FMM=F IPFlag=           0 FMFlag=      100000 FMFlg1=           0
         NFxFlg=           0 DoJE=T BraDBF=F KetDBF=T FulRan=T
         Omega=  0.000000  0.000000  1.000000  0.000000  0.000000 ICntrl=     500 IOpCl=  0
         NMat0=    1 NMatS0=    1 NMatT0=    0 NMatD0=    1 NMtDS0=    0 NMtDT0=    0
         I1Cent=           4 NGrid=           0.
 Petite list used in FoFCou.
 Initial guess orbital symmetries:
       Occupied  (A) (A) (A) (A) (A) (A) (A) (A) (A) (A) (A) (A)
                 (A) (A) (A) (A) (A) (A) (A) (A) (A) (A) (A) (A)
                 (A) (A) (A) (A) (A) (A) (A) (A) (A) (A) (A) (A)
                 (A) (A) (A) (A) (A) (A) (A) (A) (A) (A) (A) (A)
                 (A) (A) (A) (A) (A) (A) (A) (A) (A) (A) (A) (A)
                 (A) (A) (A) (A) (A) (A) (A) (A) (A) (A) (A) (A)
                 (A) (A) (A) (A) (A) (A) (A) (A) (A) (A) (A) (A)
                 (A) (A) (A) (A) (A) (A) (A)
       Virtual   (A) (A) (A) (A) (A) (A) (A) (A) (A) (A) (A) (A)
                 (A) (A) (A) (A) (A) (A) (A) (A) (A) (A) (A) (A)
                 (A) (A) (A) (A) (A) (A) (A) (A) (A) (A) (A) (A)
                 (A) (A) (A) (A) (A) (A) (A) (A) (A) (A) (A) (A)
                 (A) (A) (A) (A) (A) (A) (A) (A) (A) (A) (A) (A)
                 (A) (A) (A) (A) (A) (A) (A) (A) (A) (A) (A) (A)
                 (A) (A) (A) (A) (A) (A) (A) (A) (A) (A) (A) (A)
                 (A) (A) (A) (A) (A) (A) (A) (A) (A) (A) (A) (A)
                 (A) (A) (A) (A) (A) (A) (A) (A) (A) (A) (A) (A)
                 (A) (A) (A) (A) (A) (A) (A) (A) (A) (A) (A) (A)
                 (A) (A) (A) (A) (A) (A) (A) (A) (A) (A) (A) (A)
                 (A) (A) (A) (A) (A) (A) (A) (A) (A) (A) (A) (A)
                 (A) (A) (A) (A) (A) (A) (A) (A) (A) (A) (A) (A)
                 (A) (A) (A) (A) (A) (A) (A) (A) (A) (A) (A) (A)
                 (A) (A) (A) (A) (A) (A) (A) (A) (A) (A) (A) (A)
                 (A) (A) (A) (A) (A) (A) (A) (A) (A) (A) (A) (A)
                 (A) (A) (A) (A) (A) (A) (A) (A) (A) (A) (A) (A)
                 (A) (A) (A) (A) (A) (A) (A) (A) (A) (A) (A) (A)
                 (A) (A) (A) (A) (A) (A) (A) (A) (A) (A) (A) (A)
                 (A) (A) (A) (A) (A) (A) (A) (A) (A) (A) (A) (A)
                 (A) (A) (A) (A) (A) (A) (A) (A) (A) (A) (A) (A)
                 (A) (A) (A) (A) (A) (A) (A) (A) (A) (A) (A) (A)
                 (A) (A) (A) (A) (A) (A) (A) (A) (A) (A) (A) (A)
                 (A) (A) (A) (A) (A) (A) (A) (A) (A) (A) (A) (A)
                 (A) (A) (A) (A) (A) (A) (A) (A) (A) (A) (A) (A)
                 (A) (A) (A) (A) (A) (A) (A) (A) (A) (A) (A) (A)
                 (A) (A) (A) (A) (A) (A) (A) (A) (A) (A) (A) (A)
                 (A) (A) (A) (A) (A) (A) (A) (A) (A) (A) (A) (A)
                 (A) (A) (A) (A) (A) (A) (A) (A) (A) (A) (A) (A)
                 (A) (A) (A) (A) (A) (A) (A) (A) (A) (A) (A) (A)
                 (A) (A) (A) (A) (A) (A) (A) (A) (A) (A) (A) (A)
                 (A) (A) (A) (A) (A) (A) (A) (A) (A) (A) (A) (A)
                 (A) (A) (A) (A) (A) (A) (A) (A) (A) (A) (A) (A)
                 (A) (A) (A) (A) (A) (A) (A) (A) (A) (A) (A) (A)
                 (A) (A) (A) (A) (A) (A) (A) (A) (A) (A) (A) (A)
                 (A) (A) (A) (A) (A) (A) (A) (A) (A) (A) (A) (A)
                 (A) (A) (A) (A) (A) (A) (A) (A) (A) (A) (A) (A)
                 (A) (A) (A) (A) (A) (A) (A) (A) (A) (A) (A) (A)
                 (A) (A) (A) (A) (A) (A) (A) (A) (A) (A) (A) (A)
                 (A) (A) (A) (A) (A) (A) (A) (A) (A) (A) (A) (A)
                 (A) (A) (A) (A) (A) (A) (A) (A) (A) (A) (A) (A)
                 (A) (A) (A) (A) (A) (A) (A) (A) (A) (A) (A) (A)
                 (A) (A) (A) (A) (A) (A) (A) (A) (A) (A) (A) (A)
                 (A) (A) (A) (A) (A) (A) (A) (A) (A) (A) (A) (A)
                 (A) (A) (A) (A) (A) (A) (A) (A) (A) (A) (A) (A)
                 (A) (A) (A) (A) (A) (A) (A) (A) (A) (A) (A) (A)
                 (A) (A) (A) (A) (A) (A) (A) (A) (A) (A) (A) (A)
                 (A) (A) (A) (A) (A) (A) (A) (A) (A) (A) (A) (A)
                 (A) (A) (A) (A) (A) (A) (A) (A) (A) (A) (A) (A)
                 (A) (A) (A) (A) (A) (A)
 The electronic state of the initial guess is 1-A.
 Requested convergence on RMS density matrix=1.00D-08 within 128 cycles.
 Requested convergence on MAX density matrix=1.00D-06.
 Requested convergence on             energy=1.00D-06.
 No special actions if energy rises.
 SCF Done:  E(RB3LYP) =  -1297.98549184     A.U. after   14 cycles
             Convg  =    0.1318D-08             -V/T =  2.0063
 Range of M.O.s used for correlation:     1   685
 NBasis=   685 NAE=    91 NBE=    91 NFC=     0 NFV=     0
 NROrb=    685 NOA=    91 NOB=    91 NVA=   594 NVB=   594

 **** Warning!!: The largest alpha MO coefficient is  0.87026110D+02

          Differentiating once with respect to electric field.
                with respect to dipole field.
          Electric field/nuclear overlap derivatives assumed to be zero.
          There are     3 degrees of freedom in the 1st order CPHF.  IDoFFX=0.
      3 vectors produced by pass  0 Test12= 1.80D-12 3.33D-08 XBig12= 1.23D+02 1.43D+00.
 AX will form     3 AO Fock derivatives at one time.
      3 vectors produced by pass  1 Test12= 1.80D-12 3.33D-08 XBig12= 2.45D+01 5.05D-01.
      3 vectors produced by pass  2 Test12= 1.80D-12 3.33D-08 XBig12= 9.99D+00 2.20D-01.
      3 vectors produced by pass  3 Test12= 1.80D-12 3.33D-08 XBig12= 1.21D+00 8.71D-02.
      3 vectors produced by pass  4 Test12= 1.80D-12 3.33D-08 XBig12= 3.45D-01 3.18D-02.
      3 vectors produced by pass  5 Test12= 1.80D-12 3.33D-08 XBig12= 6.31D-02 1.84D-02.
      3 vectors produced by pass  6 Test12= 1.80D-12 3.33D-08 XBig12= 2.30D-02 1.45D-02.
      3 vectors produced by pass  7 Test12= 1.80D-12 3.33D-08 XBig12= 3.06D-03 6.58D-03.
      3 vectors produced by pass  8 Test12= 1.80D-12 3.33D-08 XBig12= 7.34D-04 3.06D-03.
      3 vectors produced by pass  9 Test12= 1.80D-12 3.33D-08 XBig12= 1.61D-04 1.28D-03.
      3 vectors produced by pass 10 Test12= 1.80D-12 3.33D-08 XBig12= 5.06D-05 4.84D-04.
      3 vectors produced by pass 11 Test12= 1.80D-12 3.33D-08 XBig12= 8.01D-06 2.77D-04.
      3 vectors produced by pass 12 Test12= 1.80D-12 3.33D-08 XBig12= 1.25D-06 9.69D-05.
      3 vectors produced by pass 13 Test12= 1.80D-12 3.33D-08 XBig12= 3.33D-07 4.63D-05.
      3 vectors produced by pass 14 Test12= 1.80D-12 3.33D-08 XBig12= 6.68D-08 1.88D-05.
      3 vectors produced by pass 15 Test12= 1.80D-12 3.33D-08 XBig12= 1.68D-08 6.86D-06.
      3 vectors produced by pass 16 Test12= 1.80D-12 3.33D-08 XBig12= 1.79D-09 4.76D-06.
      3 vectors produced by pass 17 Test12= 1.80D-12 3.33D-08 XBig12= 2.49D-10 1.03D-06.
      3 vectors produced by pass 18 Test12= 1.80D-12 3.33D-08 XBig12= 5.37D-11 6.16D-07.
      3 vectors produced by pass 19 Test12= 1.80D-12 3.33D-08 XBig12= 1.49D-11 3.03D-07.
      3 vectors produced by pass 20 Test12= 1.80D-12 3.33D-08 XBig12= 7.03D-12 1.75D-07.
      2 vectors produced by pass 21 Test12= 1.80D-12 3.33D-08 XBig12= 1.29D-12 5.61D-08.
 Inverted reduced A of dimension    65 with in-core refinement.
 End of Minotr Frequency-dependent properties file   721 does not exist.
 End of Minotr Frequency-dependent properties file   722 does not exist.
 Symmetrizing basis deriv contribution to polar:
 IMax=3 JMax=2 DiffMx= 0.00D+00
 G2DrvN: will do    16 centers at a time, making    3 passes doing MaxLOS=2.
 Calling FoFCou, ICntrl=  3107 FMM=F I1Cent=   0 AccDes= 0.00D+00.
 Calling FoFCou, ICntrl=  3107 FMM=F I1Cent=   0 AccDes= 0.00D+00.
 Calling FoFCou, ICntrl=  3107 FMM=F I1Cent=   0 AccDes= 0.00D+00.
 FoFDir/FoFCou used for L=0 through L=2.
 End of G2Drv Frequency-dependent properties file   721 does not exist.
 End of G2Drv Frequency-dependent properties file   722 does not exist.
          IDoAtm=111111111111111111111111111111111111111111111
          Differentiating once with respect to electric field.
                with respect to dipole field.
          Differentiating once with respect to nuclear coordinates.
          There are   138 degrees of freedom in the 1st order CPHF.  IDoFFX=5.
 Will reuse    3 saved solutions.
    135 vectors produced by pass  0 Test12= 5.41D-14 1.00D-09 XBig12= 1.57D-01 7.14D-02.
 AX will form    45 AO Fock derivatives at one time.
    135 vectors produced by pass  1 Test12= 5.41D-14 1.00D-09 XBig12= 1.77D-02 1.15D-02.
    132 vectors produced by pass  2 Test12= 5.41D-14 1.00D-09 XBig12= 3.08D-04 2.31D-03.
    132 vectors produced by pass  3 Test12= 5.41D-14 1.00D-09 XBig12= 1.27D-06 7.88D-05.
    132 vectors produced by pass  4 Test12= 5.41D-14 1.00D-09 XBig12= 2.29D-09 2.96D-06.
    132 vectors produced by pass  5 Test12= 5.41D-14 1.00D-09 XBig12= 4.70D-12 1.15D-07.
     83 vectors produced by pass  6 Test12= 5.41D-14 1.00D-09 XBig12= 2.52D-13 2.76D-08.
 Inverted reduced A of dimension   881 with in-core refinement.
 Isotropic polarizability for W=    0.000000      190.36 Bohr**3.
 End of Minotr Frequency-dependent properties file   721 does not exist.
 End of Minotr Frequency-dependent properties file   722 does not exist.

 **********************************************************************

            Population analysis using the SCF density.

 **********************************************************************

 Orbital symmetries:
       Occupied  (A) (A) (A) (A) (A) (A) (A) (A) (A) (A) (A) (A)
                 (A) (A) (A) (A) (A) (A) (A) (A) (A) (A) (A) (A)
                 (A) (A) (A) (A) (A) (A) (A) (A) (A) (A) (A) (A)
                 (A) (A) (A) (A) (A) (A) (A) (A) (A) (A) (A) (A)
                 (A) (A) (A) (A) (A) (A) (A) (A) (A) (A) (A) (A)
                 (A) (A) (A) (A) (A) (A) (A) (A) (A) (A) (A) (A)
                 (A) (A) (A) (A) (A) (A) (A) (A) (A) (A) (A) (A)
                 (A) (A) (A) (A) (A) (A) (A)
       Virtual   (A) (A) (A) (A) (A) (A) (A) (A) (A) (A) (A) (A)
                 (A) (A) (A) (A) (A) (A) (A) (A) (A) (A) (A) (A)
                 (A) (A) (A) (A) (A) (A) (A) (A) (A) (A) (A) (A)
                 (A) (A) (A) (A) (A) (A) (A) (A) (A) (A) (A) (A)
                 (A) (A) (A) (A) (A) (A) (A) (A) (A) (A) (A) (A)
                 (A) (A) (A) (A) (A) (A) (A) (A) (A) (A) (A) (A)
                 (A) (A) (A) (A) (A) (A) (A) (A) (A) (A) (A) (A)
                 (A) (A) (A) (A) (A) (A) (A) (A) (A) (A) (A) (A)
                 (A) (A) (A) (A) (A) (A) (A) (A) (A) (A) (A) (A)
                 (A) (A) (A) (A) (A) (A) (A) (A) (A) (A) (A) (A)
                 (A) (A) (A) (A) (A) (A) (A) (A) (A) (A) (A) (A)
                 (A) (A) (A) (A) (A) (A) (A) (A) (A) (A) (A) (A)
                 (A) (A) (A) (A) (A) (A) (A) (A) (A) (A) (A) (A)
                 (A) (A) (A) (A) (A) (A) (A) (A) (A) (A) (A) (A)
                 (A) (A) (A) (A) (A) (A) (A) (A) (A) (A) (A) (A)
                 (A) (A) (A) (A) (A) (A) (A) (A) (A) (A) (A) (A)
                 (A) (A) (A) (A) (A) (A) (A) (A) (A) (A) (A) (A)
                 (A) (A) (A) (A) (A) (A) (A) (A) (A) (A) (A) (A)
                 (A) (A) (A) (A) (A) (A) (A) (A) (A) (A) (A) (A)
                 (A) (A) (A) (A) (A) (A) (A) (A) (A) (A) (A) (A)
                 (A) (A) (A) (A) (A) (A) (A) (A) (A) (A) (A) (A)
                 (A) (A) (A) (A) (A) (A) (A) (A) (A) (A) (A) (A)
                 (A) (A) (A) (A) (A) (A) (A) (A) (A) (A) (A) (A)
                 (A) (A) (A) (A) (A) (A) (A) (A) (A) (A) (A) (A)
                 (A) (A) (A) (A) (A) (A) (A) (A) (A) (A) (A) (A)
                 (A) (A) (A) (A) (A) (A) (A) (A) (A) (A) (A) (A)
                 (A) (A) (A) (A) (A) (A) (A) (A) (A) (A) (A) (A)
                 (A) (A) (A) (A) (A) (A) (A) (A) (A) (A) (A) (A)
                 (A) (A) (A) (A) (A) (A) (A) (A) (A) (A) (A) (A)
                 (A) (A) (A) (A) (A) (A) (A) (A) (A) (A) (A) (A)
                 (A) (A) (A) (A) (A) (A) (A) (A) (A) (A) (A) (A)
                 (A) (A) (A) (A) (A) (A) (A) (A) (A) (A) (A) (A)
                 (A) (A) (A) (A) (A) (A) (A) (A) (A) (A) (A) (A)
                 (A) (A) (A) (A) (A) (A) (A) (A) (A) (A) (A) (A)
                 (A) (A) (A) (A) (A) (A) (A) (A) (A) (A) (A) (A)
                 (A) (A) (A) (A) (A) (A) (A) (A) (A) (A) (A) (A)
                 (A) (A) (A) (A) (A) (A) (A) (A) (A) (A) (A) (A)
                 (A) (A) (A) (A) (A) (A) (A) (A) (A) (A) (A) (A)
                 (A) (A) (A) (A) (A) (A) (A) (A) (A) (A) (A) (A)
                 (A) (A) (A) (A) (A) (A) (A) (A) (A) (A) (A) (A)
                 (A) (A) (A) (A) (A) (A) (A) (A) (A) (A) (A) (A)
                 (A) (A) (A) (A) (A) (A) (A) (A) (A) (A) (A) (A)
                 (A) (A) (A) (A) (A) (A) (A) (A) (A) (A) (A) (A)
                 (A) (A) (A) (A) (A) (A) (A) (A) (A) (A) (A) (A)
                 (A) (A) (A) (A) (A) (A) (A) (A) (A) (A) (A) (A)
                 (A) (A) (A) (A) (A) (A) (A) (A) (A) (A) (A) (A)
                 (A) (A) (A) (A) (A) (A) (A) (A) (A) (A) (A) (A)
                 (A) (A) (A) (A) (A) (A) (A) (A) (A) (A) (A) (A)
                 (A) (A) (A) (A) (A) (A) (A) (A) (A) (A) (A) (A)
                 (A) (A) (A) (A) (A) (A)
 The electronic state is 1-A.
 Alpha  occ. eigenvalues --  -19.19794 -19.18886 -19.18754 -19.18132 -19.17455
 Alpha  occ. eigenvalues --  -19.16285 -19.15980 -19.15117 -19.14513 -19.13962
 Alpha  occ. eigenvalues --  -19.13391 -10.32085 -10.28734 -10.27478 -10.27393
 Alpha  occ. eigenvalues --  -10.27113 -10.26163 -10.24792 -10.23986 -10.23738
 Alpha  occ. eigenvalues --  -10.22932 -10.22907 -10.22325  -1.10955  -1.08187
 Alpha  occ. eigenvalues --   -1.07201  -1.05933  -1.03996  -1.03688  -1.02619
 Alpha  occ. eigenvalues --   -1.01942  -1.01123  -1.00137  -0.99122  -0.83073
 Alpha  occ. eigenvalues --   -0.82022  -0.78731  -0.77020  -0.72371  -0.69663
 Alpha  occ. eigenvalues --   -0.68243  -0.65141  -0.64059  -0.62795  -0.60772
 Alpha  occ. eigenvalues --   -0.60293  -0.58098  -0.56450  -0.55789  -0.54278
 Alpha  occ. eigenvalues --   -0.53651  -0.53193  -0.52770  -0.51947  -0.50638
 Alpha  occ. eigenvalues --   -0.49988  -0.49633  -0.49374  -0.48042  -0.46736
 Alpha  occ. eigenvalues --   -0.46585  -0.45175  -0.44522  -0.44136  -0.43400
 Alpha  occ. eigenvalues --   -0.42733  -0.42394  -0.40542  -0.40288  -0.39792
 Alpha  occ. eigenvalues --   -0.39487  -0.37560  -0.37288  -0.36646  -0.36163
 Alpha  occ. eigenvalues --   -0.35277  -0.34944  -0.34562  -0.33660  -0.33527
 Alpha  occ. eigenvalues --   -0.32505  -0.31392  -0.31130  -0.30102  -0.29792
 Alpha  occ. eigenvalues --   -0.29444  -0.28895  -0.28410  -0.27630  -0.26262
 Alpha  occ. eigenvalues --   -0.25481
 Alpha virt. eigenvalues --   -0.04654  -0.01998  -0.01166  -0.00194   0.00496
 Alpha virt. eigenvalues --    0.00962   0.01264   0.02262   0.02844   0.03230
 Alpha virt. eigenvalues --    0.03639   0.04410   0.04968   0.05434   0.05689
 Alpha virt. eigenvalues --    0.05936   0.06211   0.06628   0.07041   0.08136
 Alpha virt. eigenvalues --    0.08217   0.08676   0.09328   0.09641   0.09861
 Alpha virt. eigenvalues --    0.10572   0.10987   0.11282   0.11587   0.11932
 Alpha virt. eigenvalues --    0.12081   0.12385   0.12521   0.13252   0.13568
 Alpha virt. eigenvalues --    0.13888   0.14419   0.14612   0.14854   0.15056
 Alpha virt. eigenvalues --    0.15578   0.15801   0.16444   0.16779   0.16862
 Alpha virt. eigenvalues --    0.17094   0.17638   0.17926   0.18223   0.18558
 Alpha virt. eigenvalues --    0.18955   0.19357   0.19714   0.19843   0.20047
 Alpha virt. eigenvalues --    0.20439   0.20623   0.21006   0.21365   0.21683
 Alpha virt. eigenvalues --    0.21910   0.22143   0.22430   0.22636   0.22824
 Alpha virt. eigenvalues --    0.23150   0.23635   0.23749   0.23935   0.24192
 Alpha virt. eigenvalues --    0.24674   0.24902   0.25315   0.25686   0.26071
 Alpha virt. eigenvalues --    0.26299   0.26383   0.26926   0.27077   0.27539
 Alpha virt. eigenvalues --    0.27609   0.27998   0.28281   0.28670   0.28846
 Alpha virt. eigenvalues --    0.29195   0.29398   0.29793   0.30186   0.30406
 Alpha virt. eigenvalues --    0.30633   0.31131   0.31452   0.31702   0.31992
 Alpha virt. eigenvalues --    0.32514   0.32937   0.33315   0.33605   0.33998
 Alpha virt. eigenvalues --    0.34769   0.34920   0.35107   0.35745   0.36054
 Alpha virt. eigenvalues --    0.36141   0.36502   0.37236   0.37307   0.37645
 Alpha virt. eigenvalues --    0.37861   0.38163   0.38431   0.38675   0.39044
 Alpha virt. eigenvalues --    0.39441   0.39933   0.40151   0.40997   0.41414
 Alpha virt. eigenvalues --    0.41537   0.41945   0.42832   0.43555   0.43789
 Alpha virt. eigenvalues --    0.44077   0.44434   0.45146   0.45577   0.45961
 Alpha virt. eigenvalues --    0.47157   0.47325   0.48335   0.49510   0.50112
 Alpha virt. eigenvalues --    0.51068   0.51779   0.55947   0.56608   0.58413
 Alpha virt. eigenvalues --    0.58636   0.60704   0.61007   0.61565   0.62060
 Alpha virt. eigenvalues --    0.63443   0.64331   0.64846   0.65974   0.66191
 Alpha virt. eigenvalues --    0.67299   0.68651   0.69212   0.69991   0.70101
 Alpha virt. eigenvalues --    0.71057   0.71747   0.72076   0.72651   0.73079
 Alpha virt. eigenvalues --    0.74066   0.74804   0.76030   0.76365   0.77694
 Alpha virt. eigenvalues --    0.78221   0.78836   0.79108   0.80593   0.80889
 Alpha virt. eigenvalues --    0.81753   0.83401   0.84627   0.84890   0.85255
 Alpha virt. eigenvalues --    0.86069   0.87230   0.87595   0.88524   0.88899
 Alpha virt. eigenvalues --    0.89271   0.90335   0.90698   0.90867   0.91357
 Alpha virt. eigenvalues --    0.91628   0.92850   0.93257   0.93477   0.94197
 Alpha virt. eigenvalues --    0.95323   0.95599   0.95834   0.96287   0.97011
 Alpha virt. eigenvalues --    0.97452   0.97766   0.98324   0.98818   0.99380
 Alpha virt. eigenvalues --    1.00116   1.00383   1.01002   1.01167   1.01813
 Alpha virt. eigenvalues --    1.02697   1.03087   1.03922   1.04516   1.05201
 Alpha virt. eigenvalues --    1.06482   1.06660   1.06988   1.08113   1.08582
 Alpha virt. eigenvalues --    1.09560   1.09900   1.10282   1.10816   1.11854
 Alpha virt. eigenvalues --    1.12309   1.12695   1.13515   1.14414   1.14844
 Alpha virt. eigenvalues --    1.15461   1.16209   1.16978   1.17710   1.18135
 Alpha virt. eigenvalues --    1.18260   1.18693   1.19033   1.19235   1.19855
 Alpha virt. eigenvalues --    1.20389   1.20953   1.21754   1.22893   1.23018
 Alpha virt. eigenvalues --    1.23325   1.23778   1.24675   1.24694   1.24872
 Alpha virt. eigenvalues --    1.25453   1.26138   1.26837   1.26973   1.27539
 Alpha virt. eigenvalues --    1.28592   1.29263   1.29487   1.30145   1.31127
 Alpha virt. eigenvalues --    1.31513   1.31937   1.32216   1.33399   1.34070
 Alpha virt. eigenvalues --    1.34996   1.35413   1.36526   1.36593   1.37401
 Alpha virt. eigenvalues --    1.37856   1.38997   1.39735   1.40357   1.41126
 Alpha virt. eigenvalues --    1.42295   1.42517   1.43601   1.44137   1.44868
 Alpha virt. eigenvalues --    1.45564   1.45580   1.46474   1.47325   1.48524
 Alpha virt. eigenvalues --    1.49443   1.49930   1.50255   1.51409   1.53287
 Alpha virt. eigenvalues --    1.53927   1.54855   1.55834   1.56297   1.56744
 Alpha virt. eigenvalues --    1.58108   1.58691   1.60211   1.61118   1.61853
 Alpha virt. eigenvalues --    1.61936   1.62827   1.63751   1.64205   1.64949
 Alpha virt. eigenvalues --    1.65352   1.66980   1.67914   1.68580   1.69013
 Alpha virt. eigenvalues --    1.69803   1.70907   1.71498   1.73044   1.73523
 Alpha virt. eigenvalues --    1.74745   1.75384   1.76532   1.77109   1.77246
 Alpha virt. eigenvalues --    1.78444   1.81147   1.81385   1.82338   1.82762
 Alpha virt. eigenvalues --    1.84290   1.85466   1.87354   1.88106   1.89032
 Alpha virt. eigenvalues --    1.90560   1.91378   1.92439   1.93360   1.94888
 Alpha virt. eigenvalues --    1.95440   1.96238   1.96969   1.98766   1.99465
 Alpha virt. eigenvalues --    2.00533   2.01406   2.02296   2.03415   2.04917
 Alpha virt. eigenvalues --    2.05801   2.06460   2.07760   2.08758   2.11138
 Alpha virt. eigenvalues --    2.12605   2.14883   2.16020   2.17113   2.17761
 Alpha virt. eigenvalues --    2.18468   2.20826   2.21668   2.22595   2.24282
 Alpha virt. eigenvalues --    2.25808   2.27442   2.28020   2.30115   2.30286
 Alpha virt. eigenvalues --    2.31922   2.32935   2.35827   2.36475   2.40220
 Alpha virt. eigenvalues --    2.40825   2.42588   2.45853   2.49007   2.50622
 Alpha virt. eigenvalues --    2.51670   2.55208   2.56636   2.57081   2.58177
 Alpha virt. eigenvalues --    2.59216   2.61044   2.62460   2.64878   2.66100
 Alpha virt. eigenvalues --    2.67152   2.69252   2.70250   2.70963   2.72020
 Alpha virt. eigenvalues --    2.72788   2.75341   2.76748   2.78256   2.79112
 Alpha virt. eigenvalues --    2.79959   2.82399   2.83376   2.84396   2.87551
 Alpha virt. eigenvalues --    2.88153   2.89236   2.90071   2.91531   2.92145
 Alpha virt. eigenvalues --    2.92408   2.94466   2.96279   2.96594   2.97033
 Alpha virt. eigenvalues --    2.98792   2.99176   2.99693   3.00249   3.01615
 Alpha virt. eigenvalues --    3.01857   3.03772   3.04458   3.05075   3.06271
 Alpha virt. eigenvalues --    3.06733   3.07227   3.08110   3.08245   3.09025
 Alpha virt. eigenvalues --    3.10798   3.11385   3.12324   3.12686   3.14141
 Alpha virt. eigenvalues --    3.15314   3.17547   3.18851   3.20230   3.21209
 Alpha virt. eigenvalues --    3.23022   3.27129   3.33370   3.75832   3.84278
 Alpha virt. eigenvalues --    4.00223   4.02758   4.05178   4.09118   4.12118
 Alpha virt. eigenvalues --    4.12683   4.14398   4.15430   4.16163   4.16597
 Alpha virt. eigenvalues --    4.18557   4.19393   4.21053   4.22344   4.22606
 Alpha virt. eigenvalues --    4.23403   4.23918   4.24136   4.25034   4.25248
 Alpha virt. eigenvalues --    4.26216   4.26956   4.27853   4.28823   4.29276
 Alpha virt. eigenvalues --    4.29961   4.30618   4.31552   4.31915   4.32697
 Alpha virt. eigenvalues --    4.33290   4.33329   4.33772   4.34422   4.35675
 Alpha virt. eigenvalues --    4.36574   4.37380   4.37965   4.38273   4.39302
 Alpha virt. eigenvalues --    4.40656   4.41844   4.42215   4.42773   4.44321
 Alpha virt. eigenvalues --    4.44789   4.47114   4.47771   4.49438   4.50179
 Alpha virt. eigenvalues --    4.51542   4.53041   4.54670   4.55084   4.56062
 Alpha virt. eigenvalues --    4.57457   4.58566   4.58948   4.59553   4.60510
 Alpha virt. eigenvalues --    4.61032   4.61793   4.62637   4.63107   4.64226
 Alpha virt. eigenvalues --    4.64735   4.65711   4.65919   4.67125   4.68321
 Alpha virt. eigenvalues --    4.68676   4.69263   4.69659   4.70831   4.71482
 Alpha virt. eigenvalues --    4.71783   4.72635   4.72658   4.74098   4.74479
 Alpha virt. eigenvalues --    4.75451   4.76135   4.76592   4.76931   4.78150
 Alpha virt. eigenvalues --    4.79268   4.80226   4.80677   4.81529   4.82264
 Alpha virt. eigenvalues --    4.83530   4.84184   4.85306   4.86058   4.86126
 Alpha virt. eigenvalues --    4.87420   4.88374   4.89242   4.90853   4.91734
 Alpha virt. eigenvalues --    4.92504   4.92763   4.94610   4.96154   4.97437
 Alpha virt. eigenvalues --    4.97996   5.03789   5.04282   5.05572   5.05922
 Alpha virt. eigenvalues --    5.08197   5.10708   5.14135   5.15956   5.20017
 Alpha virt. eigenvalues --    5.22454   5.26774   5.29622   5.33091   5.52048
 Alpha virt. eigenvalues --    5.63626   5.89067   6.01384   6.30459   6.65262
 Alpha virt. eigenvalues --    6.71886   6.75886   6.82392   6.82631   6.86614
 Alpha virt. eigenvalues --    6.90690   6.95913   6.98095   7.01817   7.09755
 Alpha virt. eigenvalues --    7.16125  11.84433  11.95469  12.00322  12.05889
 Alpha virt. eigenvalues --   12.29458  12.45183  12.73266  12.75441  12.88324
 Alpha virt. eigenvalues --   12.96694  13.06794  13.17279  13.23326  13.28279
 Alpha virt. eigenvalues --   13.30035  13.35814  13.38934  13.52959  13.56063
 Alpha virt. eigenvalues --   13.59153  13.70205  13.75784  14.14324
          Condensed to atoms (all electrons):
              1          2          3          4          5          6
     1  O    8.312754  -0.045110   0.114138  -0.002066   0.008765   0.001644
     2  C   -0.045110   8.093862  -1.543357   0.063825  -0.015598  -1.219339
     3  C    0.114138  -1.543357   7.127584   0.044854   0.006263   0.671394
     4  O   -0.002066   0.063825   0.044854   8.252004   0.229215  -0.016796
     5  H    0.008765  -0.015598   0.006263   0.229215   0.447338  -0.026256
     6  C    0.001644  -1.219339   0.671394  -0.016796  -0.026256   9.017064
     7  O    0.000031  -0.003230   0.031618  -0.007946   0.000481   0.187504
     8  H    0.000000  -0.003445  -0.013246   0.006003  -0.000347   0.037100
     9  C   -0.015263   0.393056  -0.207049   0.010496  -0.005203  -0.002948
    10  O    0.000663   0.015755   0.006583   0.000006  -0.000004  -0.005933
    11  H    0.000414   0.001019   0.000274   0.000000   0.000000   0.000583
    12  C   -0.026050  -1.498753   0.568641  -0.007612   0.014801   0.220843
    13  O   -0.001242   0.023296  -0.062148  -0.003435  -0.000006   0.060471
    14  C   -0.015992   0.949798  -0.760674   0.029129   0.016177  -2.901626
    15  O   -0.000378  -0.014323  -0.005658   0.001144   0.000022  -0.108060
    16  C   -0.000904   0.097109  -0.127397  -0.005955   0.000647   0.322925
    17  C   -0.000872  -0.015019  -0.066046   0.000637   0.000042  -0.061988
    18  O    0.000061  -0.000655   0.001861  -0.000008   0.000000   0.000587
    19  H   -0.000048  -0.004686   0.008290   0.000005   0.000000  -0.002070
    20  C   -0.000056   0.000841  -0.008128  -0.000014   0.000002   0.039562
    21  O    0.000000   0.000116   0.000047   0.000000   0.000000  -0.000732
    22  H    0.000000  -0.000024   0.000018   0.000000   0.000000   0.000364
    23  C    0.000068   0.009418  -0.011218  -0.000332  -0.000014   0.003657
    24  O   -0.000001  -0.000268   0.000287   0.000029   0.000000  -0.016139
    25  H    0.000000  -0.000563  -0.004954  -0.000005   0.000000   0.009132
    26  C   -0.000233   0.040264   0.033011   0.001574   0.000013  -0.366828
    27  O    0.000000   0.000302  -0.000047   0.000001   0.000000  -0.001816
    28  C    0.000000  -0.002208   0.002982   0.000004   0.000000  -0.011584
    29  O    0.000000   0.000009  -0.000001   0.000000   0.000000  -0.000201
    30  H    0.242507   0.062077  -0.050600  -0.001653   0.000693  -0.009291
    31  H    0.001865   0.029533  -0.013890  -0.000091  -0.000002  -0.000023
    32  H   -0.014954   0.041728  -0.005546  -0.000057  -0.000003   0.000817
    33  H   -0.006630   0.164816  -0.108119  -0.000011   0.000003  -0.013620
    34  H   -0.024608   0.378178  -0.130040   0.004813  -0.000434   0.001750
    35  H   -0.001389   0.012267   0.343803  -0.030778  -0.003563  -0.187618
    36  H   -0.000048  -0.016618  -0.026483  -0.002269  -0.000234   0.469185
    37  H   -0.000098   0.008625  -0.001209  -0.000144   0.000004  -0.036270
    38  H    0.000000   0.000000   0.000000   0.000000   0.000000   0.000012
    39  H    0.000000   0.000007  -0.000005   0.000000   0.000000  -0.000179
    40  H    0.000000   0.000109  -0.000064   0.000000   0.000000  -0.000205
    41  H    0.000000  -0.000564   0.001638   0.000000   0.000000   0.005522
    42  H   -0.000001  -0.001262   0.006534   0.000003   0.000000  -0.019139
    43  H    0.000000  -0.000247   0.000647   0.000000   0.000000  -0.005407
    44  H    0.000000  -0.000056  -0.000545   0.000000   0.000000   0.003482
    45  H    0.000000   0.001170   0.001806   0.000001   0.000000  -0.015110
              7          8          9         10         11         12
     1  O    0.000031   0.000000  -0.015263   0.000663   0.000414  -0.026050
     2  C   -0.003230  -0.003445   0.393056   0.015755   0.001019  -1.498753
     3  C    0.031618  -0.013246  -0.207049   0.006583   0.000274   0.568641
     4  O   -0.007946   0.006003   0.010496   0.000006   0.000000  -0.007612
     5  H    0.000481  -0.000347  -0.005203  -0.000004   0.000000   0.014801
     6  C    0.187504   0.037100  -0.002948  -0.005933   0.000583   0.220843
     7  O    8.270289   0.233947  -0.004300  -0.000035   0.000000   0.003019
     8  H    0.233947   0.409461   0.000459   0.000000   0.000000   0.005475
     9  C   -0.004300   0.000459   5.991812   0.133474  -0.016079  -0.853813
    10  O   -0.000035   0.000000   0.133474   8.233167   0.229613  -0.050615
    11  H    0.000000   0.000000  -0.016079   0.229613   0.446935   0.015058
    12  C    0.003019   0.005475  -0.853813  -0.050615   0.015058   8.249623
    13  O   -0.000021  -0.000166  -0.025414   0.009867   0.000500   0.071882
    14  C   -0.097269  -0.027134  -0.034198   0.011617  -0.000306  -0.669770
    15  O    0.011677  -0.000145  -0.019049  -0.002695   0.000014   0.014466
    16  C    0.002216  -0.004508  -0.054850   0.008442  -0.000094   0.021639
    17  C   -0.006194  -0.000536  -0.005604  -0.006651  -0.000496  -0.083966
    18  O    0.000199  -0.000006  -0.006322  -0.003356   0.000285   0.005270
    19  H   -0.000057   0.000001  -0.011052   0.002672  -0.000076   0.012739
    20  C    0.000538  -0.000023  -0.002265  -0.000650  -0.000184  -0.030212
    21  O    0.000001   0.000000  -0.000219   0.000013  -0.000001   0.001048
    22  H    0.000000   0.000000  -0.000172  -0.000023   0.000000  -0.000040
    23  C   -0.011923   0.000955  -0.001690   0.000053  -0.000001  -0.023865
    24  O   -0.003132   0.000339   0.000102   0.000000   0.000000  -0.000121
    25  H    0.004552  -0.000048   0.000103   0.000000   0.000000   0.001016
    26  C    0.004439  -0.000386   0.006457  -0.000615  -0.000041  -0.017208
    27  O    0.000006   0.000002   0.000020   0.000005   0.000000   0.000261
    28  C    0.000202   0.000011   0.000082   0.000352   0.000006   0.009514
    29  O    0.000000   0.000000   0.000003   0.000000   0.000000   0.000039
    30  H   -0.000025   0.000000  -0.000100   0.000024  -0.000004  -0.000106
    31  H   -0.000005   0.000000   0.536615  -0.034069  -0.004512  -0.215994
    32  H   -0.000007   0.000000   0.450042  -0.034462  -0.003903  -0.104848
    33  H   -0.000214  -0.000002   0.108161   0.000752  -0.000103   0.086571
    34  H    0.000264  -0.000003   0.022981   0.000622  -0.000014  -0.031854
    35  H    0.004599   0.000224   0.007359   0.000014   0.000000   0.050444
    36  H   -0.039807   0.002059   0.003465  -0.000048   0.000000   0.071374
    37  H    0.007152  -0.000362   0.003405  -0.000091   0.000000   0.033996
    38  H    0.000000   0.000000   0.000000   0.000000   0.000000  -0.000002
    39  H    0.000001   0.000000   0.000012   0.000000   0.000000   0.000143
    40  H    0.000002   0.000000  -0.000001  -0.000001   0.000000   0.000438
    41  H   -0.000010   0.000000  -0.000127   0.000028   0.000000  -0.000919
    42  H   -0.001472  -0.000002  -0.000048  -0.000001   0.000000  -0.001839
    43  H   -0.000097   0.000000   0.000138   0.000001   0.000000  -0.000003
    44  H   -0.000040   0.000000   0.000016   0.000000   0.000000   0.000032
    45  H   -0.000400  -0.000065  -0.000196   0.000000   0.000000  -0.002000
             13         14         15         16         17         18
     1  O   -0.001242  -0.015992  -0.000378  -0.000904  -0.000872   0.000061
     2  C    0.023296   0.949798  -0.014323   0.097109  -0.015019  -0.000655
     3  C   -0.062148  -0.760674  -0.005658  -0.127397  -0.066046   0.001861
     4  O   -0.003435   0.029129   0.001144  -0.005955   0.000637  -0.000008
     5  H   -0.000006   0.016177   0.000022   0.000647   0.000042   0.000000
     6  C    0.060471  -2.901626  -0.108060   0.322925  -0.061988   0.000587
     7  O   -0.000021  -0.097269   0.011677   0.002216  -0.006194   0.000199
     8  H   -0.000166  -0.027134  -0.000145  -0.004508  -0.000536  -0.000006
     9  C   -0.025414  -0.034198  -0.019049  -0.054850  -0.005604  -0.006322
    10  O    0.009867   0.011617  -0.002695   0.008442  -0.006651  -0.003356
    11  H    0.000500  -0.000306   0.000014  -0.000094  -0.000496   0.000285
    12  C    0.071882  -0.669770   0.014466   0.021639  -0.083966   0.005270
    13  O    8.281557   0.005619  -0.076880  -0.003104   0.046395  -0.042778
    14  C    0.005619   9.869050   0.272088  -0.817247  -0.063206   0.064221
    15  O   -0.076880   0.272088   8.155616   0.081629  -0.030864  -0.004198
    16  C   -0.003104  -0.817247   0.081629  10.676664  -1.104799  -0.056684
    17  C    0.046395  -0.063206  -0.030864  -1.104799   7.783522   0.127404
    18  O   -0.042778   0.064221  -0.004198  -0.056684   0.127404   8.306572
    19  H    0.032337   0.021307  -0.000766  -0.039583   0.033678   0.232920
    20  C   -0.004559  -0.373656  -0.004122  -1.494950   0.126095   0.031125
    21  O    0.000222  -0.000474   0.000927   0.019360  -0.038396  -0.020572
    22  H   -0.000037   0.001893   0.000126   0.003923  -0.065951   0.017435
    23  C   -0.006085   0.042166  -0.144828   0.742577  -0.074122   0.012688
    24  O   -0.000746   0.018908   0.000877   0.018446   0.062827   0.000461
    25  H   -0.000422   0.006862   0.002392   0.029620   0.011807  -0.000048
    26  C   -0.009953  -0.266382   0.186538  -3.272287  -0.610931  -0.003729
    27  O    0.000476   0.007791  -0.001623   0.004406  -0.053640  -0.001490
    28  C    0.003517   0.124425   0.009408   0.511286  -0.225786  -0.015680
    29  O    0.000016   0.000959   0.000008   0.018215  -0.008348   0.000437
    30  H   -0.000179   0.004704   0.000019   0.000159   0.000010  -0.000001
    31  H    0.001735   0.006855   0.000092  -0.002346   0.002164   0.000170
    32  H    0.000260  -0.001516  -0.000152   0.000535  -0.000560  -0.000062
    33  H   -0.032772   0.061056  -0.004338   0.001383   0.002117   0.001636
    34  H    0.005183   0.041722  -0.000639  -0.001103   0.001231   0.000025
    35  H    0.003848   0.045278   0.000696  -0.002819   0.001587   0.000051
    36  H    0.012993  -0.211322  -0.004660   0.012040  -0.001238   0.000125
    37  H   -0.019775   0.253742  -0.027073   0.045792  -0.013716   0.001896
    38  H    0.000000   0.000215   0.000002   0.005608   0.003513  -0.000022
    39  H    0.000055   0.002696   0.000677   0.069222  -0.021022   0.000933
    40  H   -0.000011  -0.003482   0.001226   0.115559  -0.113585   0.005248
    41  H   -0.002452   0.020272   0.000565  -0.102425   0.320000  -0.030309
    42  H   -0.004544   0.023990  -0.015121   0.160409  -0.030348  -0.001241
    43  H   -0.000811   0.042354  -0.001631   0.060650   0.012302  -0.000257
    44  H   -0.000035  -0.001276  -0.004650   0.148912   0.016506   0.000026
    45  H   -0.000236  -0.006136   0.000764   0.019448  -0.009000   0.000010
             19         20         21         22         23         24
     1  O   -0.000048  -0.000056   0.000000   0.000000   0.000068  -0.000001
     2  C   -0.004686   0.000841   0.000116  -0.000024   0.009418  -0.000268
     3  C    0.008290  -0.008128   0.000047   0.000018  -0.011218   0.000287
     4  O    0.000005  -0.000014   0.000000   0.000000  -0.000332   0.000029
     5  H    0.000000   0.000002   0.000000   0.000000  -0.000014   0.000000
     6  C   -0.002070   0.039562  -0.000732   0.000364   0.003657  -0.016139
     7  O   -0.000057   0.000538   0.000001   0.000000  -0.011923  -0.003132
     8  H    0.000001  -0.000023   0.000000   0.000000   0.000955   0.000339
     9  C   -0.011052  -0.002265  -0.000219  -0.000172  -0.001690   0.000102
    10  O    0.002672  -0.000650   0.000013  -0.000023   0.000053   0.000000
    11  H   -0.000076  -0.000184  -0.000001   0.000000  -0.000001   0.000000
    12  C    0.012739  -0.030212   0.001048  -0.000040  -0.023865  -0.000121
    13  O    0.032337  -0.004559   0.000222  -0.000037  -0.006085  -0.000746
    14  C    0.021307  -0.373656  -0.000474   0.001893   0.042166   0.018908
    15  O   -0.000766  -0.004122   0.000927   0.000126  -0.144828   0.000877
    16  C   -0.039583  -1.494950   0.019360   0.003923   0.742577   0.018446
    17  C    0.033678   0.126095  -0.038396  -0.065951  -0.074122   0.062827
    18  O    0.232920   0.031125  -0.020572   0.017435   0.012688   0.000461
    19  H    0.353022  -0.022523   0.000872  -0.000474  -0.001822   0.000020
    20  C   -0.022523   6.798945   0.214653   0.027428  -0.005615   0.011069
    21  O    0.000872   0.214653   8.200670   0.251286  -0.006177  -0.000247
    22  H   -0.000474   0.027428   0.251286   0.400985   0.001041   0.000000
    23  C   -0.001822  -0.005615  -0.006177   0.001041   6.310844   0.337721
    24  O    0.000020   0.011069  -0.000247   0.000000   0.337721   8.071360
    25  H    0.000000   0.000037  -0.000002   0.000000  -0.027711   0.262087
    26  C   -0.014130   0.907349   0.008206   0.005629  -1.637289  -0.227180
    27  O   -0.000112  -0.053695   0.003000  -0.000170  -0.057496  -0.002176
    28  C    0.004326  -0.112733  -0.068609   0.000141  -0.071741  -0.011826
    29  O    0.000009  -0.071323   0.004136  -0.000316   0.003765  -0.000103
    30  H    0.000000  -0.000001   0.000000   0.000000  -0.000002   0.000000
    31  H   -0.000074   0.000130   0.000000   0.000000  -0.000008   0.000000
    32  H    0.000005   0.000014   0.000000   0.000000   0.000003   0.000000
    33  H   -0.001797   0.000598   0.000001   0.000000   0.000084  -0.000001
    34  H   -0.000007   0.000041   0.000000   0.000000   0.000136   0.000000
    35  H   -0.000005   0.000058   0.000000   0.000000   0.000246   0.000003
    36  H   -0.000025   0.001029   0.000000   0.000000  -0.000114  -0.000136
    37  H   -0.002203   0.010418   0.000025   0.000000  -0.007021  -0.000945
    38  H    0.000000   0.006999  -0.000761   0.000018  -0.000417   0.000026
    39  H   -0.000003  -0.156466   0.009213  -0.000310   0.017529  -0.000220
    40  H   -0.000190   0.268842  -0.026637  -0.001633   0.009492  -0.000087
    41  H   -0.000082  -0.029669  -0.000683   0.000336   0.012370  -0.000017
    42  H   -0.000073   0.028528   0.000250  -0.000008  -0.017785   0.001035
    43  H    0.000017  -0.064632  -0.000021  -0.000006   0.005712   0.006115
    44  H    0.000000  -0.001049  -0.000013   0.000000   0.493240  -0.045548
    45  H   -0.000001   0.002951  -0.000002   0.000000   0.530465  -0.020098
             25         26         27         28         29         30
     1  O    0.000000  -0.000233   0.000000   0.000000   0.000000   0.242507
     2  C   -0.000563   0.040264   0.000302  -0.002208   0.000009   0.062077
     3  C   -0.004954   0.033011  -0.000047   0.002982  -0.000001  -0.050600
     4  O   -0.000005   0.001574   0.000001   0.000004   0.000000  -0.001653
     5  H    0.000000   0.000013   0.000000   0.000000   0.000000   0.000693
     6  C    0.009132  -0.366828  -0.001816  -0.011584  -0.000201  -0.009291
     7  O    0.004552   0.004439   0.000006   0.000202   0.000000  -0.000025
     8  H   -0.000048  -0.000386   0.000002   0.000011   0.000000   0.000000
     9  C    0.000103   0.006457   0.000020   0.000082   0.000003  -0.000100
    10  O    0.000000  -0.000615   0.000005   0.000352   0.000000   0.000024
    11  H    0.000000  -0.000041   0.000000   0.000006   0.000000  -0.000004
    12  C    0.001016  -0.017208   0.000261   0.009514   0.000039  -0.000106
    13  O   -0.000422  -0.009953   0.000476   0.003517   0.000016  -0.000179
    14  C    0.006862  -0.266382   0.007791   0.124425   0.000959   0.004704
    15  O    0.002392   0.186538  -0.001623   0.009408   0.000008   0.000019
    16  C    0.029620  -3.272287   0.004406   0.511286   0.018215   0.000159
    17  C    0.011807  -0.610931  -0.053640  -0.225786  -0.008348   0.000010
    18  O   -0.000048  -0.003729  -0.001490  -0.015680   0.000437  -0.000001
    19  H    0.000000  -0.014130  -0.000112   0.004326   0.000009   0.000000
    20  C    0.000037   0.907349  -0.053695  -0.112733  -0.071323  -0.000001
    21  O   -0.000002   0.008206   0.003000  -0.068609   0.004136   0.000000
    22  H    0.000000   0.005629  -0.000170   0.000141  -0.000316   0.000000
    23  C   -0.027711  -1.637289  -0.057496  -0.071741   0.003765  -0.000002
    24  O    0.262087  -0.227180  -0.002176  -0.011826  -0.000103   0.000000
    25  H    0.420281  -0.037722   0.000611  -0.001277   0.000008   0.000000
    26  C   -0.037722  11.325456   0.268598  -0.573397  -0.034758   0.000002
    27  O    0.000611   0.268598   8.149790   0.126027  -0.028826   0.000000
    28  C   -0.001277  -0.573397   0.126027   5.297857   0.269198   0.000000
    29  O    0.000008  -0.034758  -0.028826   0.269198   8.137700   0.000000
    30  H    0.000000   0.000002   0.000000   0.000000   0.000000   0.436201
    31  H    0.000000   0.000462   0.000000  -0.000028   0.000000  -0.000071
    32  H    0.000000  -0.000010   0.000000   0.000002   0.000000  -0.000106
    33  H    0.000000   0.001208   0.000001  -0.000076   0.000000   0.000027
    34  H    0.000000  -0.000184   0.000000  -0.000004   0.000000  -0.009455
    35  H    0.000000  -0.000529   0.000000   0.000008   0.000000  -0.000211
    36  H    0.000002  -0.008644   0.000003   0.000225   0.000000   0.000000
    37  H    0.000016   0.016210   0.000156   0.000618  -0.000002   0.000000
    38  H    0.000000  -0.015980   0.002496   0.000719   0.244961   0.000000
    39  H    0.000001   0.003015  -0.058146   0.412228  -0.019257   0.000000
    40  H    0.000002   0.021605  -0.000929  -0.027428   0.000749   0.000000
    41  H   -0.000002   0.067823   0.002635  -0.018762   0.000324   0.000000
    42  H   -0.001175   0.124797   0.002841   0.007821  -0.000480   0.000000
    43  H   -0.000124   0.155688  -0.037141   0.073998   0.000040   0.000000
    44  H    0.005406  -0.282311   0.000810  -0.008914   0.000067   0.000000
    45  H   -0.012322  -0.168932   0.002786   0.003309  -0.000025   0.000000
             31         32         33         34         35         36
     1  O    0.001865  -0.014954  -0.006630  -0.024608  -0.001389  -0.000048
     2  C    0.029533   0.041728   0.164816   0.378178   0.012267  -0.016618
     3  C   -0.013890  -0.005546  -0.108119  -0.130040   0.343803  -0.026483
     4  O   -0.000091  -0.000057  -0.000011   0.004813  -0.030778  -0.002269
     5  H   -0.000002  -0.000003   0.000003  -0.000434  -0.003563  -0.000234
     6  C   -0.000023   0.000817  -0.013620   0.001750  -0.187618   0.469185
     7  O   -0.000005  -0.000007  -0.000214   0.000264   0.004599  -0.039807
     8  H    0.000000   0.000000  -0.000002  -0.000003   0.000224   0.002059
     9  C    0.536615   0.450042   0.108161   0.022981   0.007359   0.003465
    10  O   -0.034069  -0.034462   0.000752   0.000622   0.000014  -0.000048
    11  H   -0.004512  -0.003903  -0.000103  -0.000014   0.000000   0.000000
    12  C   -0.215994  -0.104848   0.086571  -0.031854   0.050444   0.071374
    13  O    0.001735   0.000260  -0.032772   0.005183   0.003848   0.012993
    14  C    0.006855  -0.001516   0.061056   0.041722   0.045278  -0.211322
    15  O    0.000092  -0.000152  -0.004338  -0.000639   0.000696  -0.004660
    16  C   -0.002346   0.000535   0.001383  -0.001103  -0.002819   0.012040
    17  C    0.002164  -0.000560   0.002117   0.001231   0.001587  -0.001238
    18  O    0.000170  -0.000062   0.001636   0.000025   0.000051   0.000125
    19  H   -0.000074   0.000005  -0.001797  -0.000007  -0.000005  -0.000025
    20  C    0.000130   0.000014   0.000598   0.000041   0.000058   0.001029
    21  O    0.000000   0.000000   0.000001   0.000000   0.000000   0.000000
    22  H    0.000000   0.000000   0.000000   0.000000   0.000000   0.000000
    23  C   -0.000008   0.000003   0.000084   0.000136   0.000246  -0.000114
    24  O    0.000000   0.000000  -0.000001   0.000000   0.000003  -0.000136
    25  H    0.000000   0.000000   0.000000   0.000000   0.000000   0.000002
    26  C    0.000462  -0.000010   0.001208  -0.000184  -0.000529  -0.008644
    27  O    0.000000   0.000000   0.000001   0.000000   0.000000   0.000003
    28  C   -0.000028   0.000002  -0.000076  -0.000004   0.000008   0.000225
    29  O    0.000000   0.000000   0.000000   0.000000   0.000000   0.000000
    30  H   -0.000071  -0.000106   0.000027  -0.009455  -0.000211   0.000000
    31  H    0.595754  -0.052906   0.005834   0.003174  -0.000013  -0.000045
    32  H   -0.052906   0.557361  -0.003238  -0.000181  -0.000028  -0.000003
    33  H    0.005834  -0.003238   0.598639   0.005436   0.000329  -0.000132
    34  H    0.003174  -0.000181   0.005436   0.587858   0.005160   0.000901
    35  H   -0.000013  -0.000028   0.000329   0.005160   0.607204   0.006361
    36  H   -0.000045  -0.000003  -0.000132   0.000901   0.006361   0.583380
    37  H    0.000001   0.000001   0.001823  -0.000023   0.001961   0.004823
    38  H    0.000000   0.000000   0.000000   0.000000   0.000000   0.000000
    39  H    0.000000   0.000000   0.000000   0.000000   0.000000   0.000000
    40  H    0.000000   0.000000   0.000000   0.000000   0.000000   0.000000
    41  H   -0.000001   0.000000  -0.000001   0.000000   0.000000  -0.000004
    42  H    0.000000   0.000000  -0.000004   0.000000  -0.000002  -0.000002
    43  H    0.000000   0.000000   0.000000   0.000000   0.000000   0.000000
    44  H    0.000000   0.000000   0.000000   0.000000   0.000000  -0.000001
    45  H    0.000000   0.000000   0.000000   0.000000   0.000000   0.000136
             37         38         39         40         41         42
     1  O   -0.000098   0.000000   0.000000   0.000000   0.000000  -0.000001
     2  C    0.008625   0.000000   0.000007   0.000109  -0.000564  -0.001262
     3  C   -0.001209   0.000000  -0.000005  -0.000064   0.001638   0.006534
     4  O   -0.000144   0.000000   0.000000   0.000000   0.000000   0.000003
     5  H    0.000004   0.000000   0.000000   0.000000   0.000000   0.000000
     6  C   -0.036270   0.000012  -0.000179  -0.000205   0.005522  -0.019139
     7  O    0.007152   0.000000   0.000001   0.000002  -0.000010  -0.001472
     8  H   -0.000362   0.000000   0.000000   0.000000   0.000000  -0.000002
     9  C    0.003405   0.000000   0.000012  -0.000001  -0.000127  -0.000048
    10  O   -0.000091   0.000000   0.000000  -0.000001   0.000028  -0.000001
    11  H    0.000000   0.000000   0.000000   0.000000   0.000000   0.000000
    12  C    0.033996  -0.000002   0.000143   0.000438  -0.000919  -0.001839
    13  O   -0.019775   0.000000   0.000055  -0.000011  -0.002452  -0.004544
    14  C    0.253742   0.000215   0.002696  -0.003482   0.020272   0.023990
    15  O   -0.027073   0.000002   0.000677   0.001226   0.000565  -0.015121
    16  C    0.045792   0.005608   0.069222   0.115559  -0.102425   0.160409
    17  C   -0.013716   0.003513  -0.021022  -0.113585   0.320000  -0.030348
    18  O    0.001896  -0.000022   0.000933   0.005248  -0.030309  -0.001241
    19  H   -0.002203   0.000000  -0.000003  -0.000190  -0.000082  -0.000073
    20  C    0.010418   0.006999  -0.156466   0.268842  -0.029669   0.028528
    21  O    0.000025  -0.000761   0.009213  -0.026637  -0.000683   0.000250
    22  H    0.000000   0.000018  -0.000310  -0.001633   0.000336  -0.000008
    23  C   -0.007021  -0.000417   0.017529   0.009492   0.012370  -0.017785
    24  O   -0.000945   0.000026  -0.000220  -0.000087  -0.000017   0.001035
    25  H    0.000016   0.000000   0.000001   0.000002  -0.000002  -0.001175
    26  C    0.016210  -0.015980   0.003015   0.021605   0.067823   0.124797
    27  O    0.000156   0.002496  -0.058146  -0.000929   0.002635   0.002841
    28  C    0.000618   0.000719   0.412228  -0.027428  -0.018762   0.007821
    29  O   -0.000002   0.244961  -0.019257   0.000749   0.000324  -0.000480
    30  H    0.000000   0.000000   0.000000   0.000000   0.000000   0.000000
    31  H    0.000001   0.000000   0.000000   0.000000  -0.000001   0.000000
    32  H    0.000001   0.000000   0.000000   0.000000   0.000000   0.000000
    33  H    0.001823   0.000000   0.000000   0.000000  -0.000001  -0.000004
    34  H   -0.000023   0.000000   0.000000   0.000000   0.000000   0.000000
    35  H    0.001961   0.000000   0.000000   0.000000   0.000000  -0.000002
    36  H    0.004823   0.000000   0.000000   0.000000  -0.000004  -0.000002
    37  H    0.564314   0.000000   0.000000  -0.000010  -0.000048   0.003015
    38  H    0.000000   0.438216  -0.007336  -0.000181   0.000004   0.000002
    39  H    0.000000  -0.007336   0.610190   0.005604   0.002507  -0.000102
    40  H   -0.000010  -0.000181   0.005604   0.608550   0.005769   0.000956
    41  H   -0.000048   0.000004   0.002507   0.005769   0.615405   0.005709
    42  H    0.003015   0.000002  -0.000102   0.000956   0.005709   0.592201
    43  H   -0.000014  -0.000013   0.003360  -0.000095   0.002128   0.005538
    44  H   -0.000002  -0.000001  -0.000025   0.000000  -0.000011  -0.000096
    45  H    0.000047   0.000000  -0.000013   0.000000  -0.000018   0.000168
             43         44         45
     1  O    0.000000   0.000000   0.000000
     2  C   -0.000247  -0.000056   0.001170
     3  C    0.000647  -0.000545   0.001806
     4  O    0.000000   0.000000   0.000001
     5  H    0.000000   0.000000   0.000000
     6  C   -0.005407   0.003482  -0.015110
     7  O   -0.000097  -0.000040  -0.000400
     8  H    0.000000   0.000000  -0.000065
     9  C    0.000138   0.000016  -0.000196
    10  O    0.000001   0.000000   0.000000
    11  H    0.000000   0.000000   0.000000
    12  C   -0.000003   0.000032  -0.002000
    13  O   -0.000811  -0.000035  -0.000236
    14  C    0.042354  -0.001276  -0.006136
    15  O   -0.001631  -0.004650   0.000764
    16  C    0.060650   0.148912   0.019448
    17  C    0.012302   0.016506  -0.009000
    18  O   -0.000257   0.000026   0.000010
    19  H    0.000017   0.000000  -0.000001
    20  C   -0.064632  -0.001049   0.002951
    21  O   -0.000021  -0.000013  -0.000002
    22  H   -0.000006   0.000000   0.000000
    23  C    0.005712   0.493240   0.530465
    24  O    0.006115  -0.045548  -0.020098
    25  H   -0.000124   0.005406  -0.012322
    26  C    0.155688  -0.282311  -0.168932
[...]
 ,0.01275024,0.00915177,-0.17371616,0.15236974,-0.01613484,0.01037445,-
 0.01418892,0.00092726,0.00154066,0.00173109,0.00082342,-0.00011301,0.0
 0000310,-0.00015333,0.00080072,0.00005102,-0.00026762,-0.00043781,0.00
 002818,0.00004966,0.00006240,-0.00004145,0.00006172,-0.00080922,0.0024
 0760,-0.00019272,0.00249398,-0.00004679,0.00077228,-0.00087620,-0.0014
 4456,0.00048167,-0.01525803,0.01748688,-0.00282921,0.00214359,-0.00090
 588,0.00154080,-0.00015615,-0.00031550,0.00001011,0.00006740,-0.000018
 98,-0.00000520,-0.00000204,-0.00000083,-0.00000105,0.00000294,0.000000
 10,-0.00000883,0.00000920,0.00002817,0.00000796,0.00001952,0.00000973,
 0.00005522,-0.00000072,-0.00000468,0.00000140,0.00000526,-0.00000049,0
 .00002650,0.00013315,0.00003417,-0.00018599,0.00094541,-0.00026341,0.0
 0096414,0.00000277,0.00004491,0.00001175,-0.00010260,-0.00008722,0.000
 11982,0.00007242,-0.00011213,0.00006440,-0.00124480,-0.00283301,0.0006
 4316,0.19073681,-0.00000635,0.00000254,0.00001207,0.00000666,0.0000041
 7,-0.00000527,0.00006960,0.00004062,-0.00006102,-0.00003072,-0.0000174
 9,0.00000160,0.00001100,-0.00000049,-0.00000637,-0.00036728,0.00038293
 ,-0.00009169,-0.00002194,-0.00009523,-0.00004558,0.00000006,0.00000954
 ,-0.00000846,0.00000756,-0.00002492,-0.00000047,-0.00002159,0.00002945
 ,-0.00001189,0.00000824,-0.00000363,0.00001537,0.00001696,-0.00005981,
 -0.00013376,0.00002536,0.00014910,0.00034291,-0.00006863,0.00117208,0.
 00123092,0.00027693,0.00177290,-0.00247863,0.15578588,-0.22521879,0.01
 824398,0.02044249,-0.02422695,0.00495145,0.00012426,0.00440230,-0.0004
 8435,0.00013902,-0.00058400,-0.00062793,0.00147670,-0.00069517,-0.0013
 6478,-0.00089719,0.00066958,0.00018970,0.00021222,-0.00012343,0.000069
 42,-0.00021586,-0.00041852,0.00043093,-0.00089689,-0.00084683,-0.00004
 161,-0.00066083,-0.00059380,-0.00028754,-0.00439538,0.00660604,-0.0011
 0907,-0.00008759,0.00043974,0.00113681,0.00000253,-0.00015380,-0.00000
 250,-0.00000868,0.00006347,0.00007286,0.00000016,-0.00000115,-0.000000
 98,-0.00001231,0.00000804,0.00000616,-0.00000195,0.00000181,0.00000080
 ,-0.00000496,-0.00000299,-0.00000551,-0.00000518,-0.00000058,0.0000070
 8,-0.00000276,0.00000644,-0.00000222,-0.00007101,-0.00010062,0.0001549
 9,-0.00050164,0.00028669,-0.00089798,-0.00000382,-0.00000174,0.0000042
 4,-0.00015410,0.00004944,-0.00011587,-0.00097307,0.00072447,0.00078970
 ,-0.00290765,-0.00383764,0.00130092,-0.16550435,0.24028671,-0.00002063
 ,-0.00000672,-0.00006802,-0.00001026,0.00000151,0.00004362,-0.00001223
 ,0.00002231,0.00006349,0.00000993,0.00002257,-0.00003713,-0.00000253,-
 0.00000239,-0.00000052,0.00018148,-0.00019915,-0.00012237,-0.00007447,
 0.00013753,0.00001870,-0.00000909,0.00001289,0.00000569,0.00003026,0.0
 0008885,-0.00007840,-0.00004372,-0.00005551,0.00004579,-0.00000113,0.0
 0000742,-0.00000796,-0.00011619,-0.00001635,-0.00002139,-0.00115656,-0
 .00032152,-0.00069054,0.00494531,-0.00318081,0.00424482,0.02840335,-0.
 02217976,-0.01452692,-0.02025464,0.02203255,-0.04467659,-0.00590144,0.
 00357600,0.00091758,0.00103145,-0.00042446,0.00091004,0.00035269,-0.00
 008899,-0.00037686,-0.00070533,0.00080702,0.00016094,0.00018551,-0.000
 18645,-0.00010957,-0.00006156,-0.00000262,0.00004762,0.00044331,0.0011
 7856,0.00038191,0.00108297,-0.00056384,0.00039062,-0.00003323,-0.00021
 564,0.00018039,-0.01636542,0.01929440,-0.00181634,0.00056049,-0.000576
 64,0.00228645,-0.00016092,0.00050051,-0.00000493,0.00005862,-0.0000951
 3,-0.00022433,0.00000357,0.00000685,-0.00000064,-0.00000258,-0.0000002
 4,0.00000896,-0.00000874,-0.00003035,-0.00000191,-0.00002834,-0.000016
 91,-0.00011681,0.00000024,0.00000604,0.00000328,-0.00001952,0.00001285
 ,-0.00005612,-0.00021541,0.00008267,0.00003955,-0.00081059,0.00056867,
 -0.00049782,0.00001109,0.00004500,0.00000337,0.00019833,-0.00024900,0.
 00005840,0.00054347,0.00022395,-0.00006320,0.00098089,0.00121068,0.000
 06100,0.00993336,-0.02006757,0.05697945,0.00000033,-0.00000734,-0.0000
 1094,-0.00000338,0.00000385,0.00001284,0.00000838,0.00002031,0.0000269
 5,0.00001197,0.00000220,-0.00002932,0.00000012,0.00000324,-0.00000204,
 -0.00003143,-0.00011646,-0.00004946,0.00001822,0.00005838,0.00002710,-
 0.00000130,-0.00000675,-0.00000302,-0.00000372,0.00003070,-0.00002300,
 0.00000461,-0.00002058,0.00002076,-0.00000718,0.00000163,-0.00000746,-
 0.00000288,-0.00000959,0.00002641,-0.00002413,-0.00013516,-0.00012603,
 0.00031485,-0.00006911,-0.00008793,0.00079109,-0.00058761,0.00018190,-
 0.01665378,0.02016693,-0.00511851,-0.00011362,0.00217720,-0.00004133,0
 .00080990,-0.00061555,0.00034263,0.00002813,0.00018158,-0.00002810,-0.
 00012212,-0.00028496,0.00016089,-0.00008816,-0.00029965,-0.00010475,-0
 .00005085,-0.00002513,0.00003154,0.01215872,-0.01317396,0.00044038,-0.
 00069755,-0.00496349,0.00184690,-0.00020620,-0.00070724,-0.00013197,-0
 .15166336,0.14207673,-0.02160252,-0.01542826,0.01178846,0.01292627,-0.
 00020209,0.00511090,0.00020474,0.00047091,-0.00101361,-0.00009676,-0.0
 0000070,0.00000331,-0.00000011,0.00000455,-0.00000442,-0.00000264,-0.0
 0000028,-0.00000785,-0.00000067,0.00000117,0.00000114,-0.00000450,0.00
 000221,-0.00000079,-0.00000466,-0.00000007,-0.00000336,-0.00000089,0.0
 0001012,0.00001702,-0.00002248,0.00010534,-0.00007858,0.00019947,0.000
 01048,0.00021220,-0.00003537,0.00023775,-0.00135456,0.00048387,0.00034
 972,0.00000317,-0.00003492,0.00008953,-0.00126389,-0.00006780,-0.00209
 918,-0.00120660,-0.00294700,0.17078736,-0.00000460,0.00001425,-0.00000
 046,0.00000933,-0.00001814,0.00000692,0.00000344,0.00002216,0.00000586
 ,-0.00001283,0.00001863,0.00000567,0.00000384,-0.00000528,-0.00000058,
 0.00004251,-0.00018708,-0.00000070,-0.00002903,0.00014255,0.00007788,0
 .00001287,-0.00001048,-0.00000887,0.00002533,-0.00000663,-0.00000181,-
 0.00001862,0.00000377,0.00000149,0.00000791,0.00000014,0.00000337,0.00
 001578,0.00000096,0.00000759,-0.00001214,0.00005233,0.00006035,-0.0001
 7963,0.00008729,0.00022427,-0.00021108,0.00017059,0.00097246,-0.004116
 25,0.00432612,-0.00212873,-0.00117693,0.00007805,-0.00064384,-0.000166
 70,0.00003970,0.00027850,0.00007415,-0.00001971,-0.00001455,-0.0002048
 3,-0.00018677,-0.00011580,0.00014620,0.00016009,0.00004269,0.00001884,
 0.00000033,-0.00006012,0.01854665,-0.01817926,0.00270393,-0.00259290,-
 0.00481266,0.00206301,-0.00031134,-0.00057684,-0.00041088,0.14681932,-
 0.24048415,0.02633876,0.00611919,-0.00199052,-0.00569925,-0.00344225,0
 .00077805,0.00225422,-0.00044278,0.00038303,-0.00008447,0.00000230,-0.
 00000445,0.00000061,-0.00000842,0.00000476,0.00000360,-0.00000376,0.00
 000049,0.00000067,-0.00000396,0.00000271,-0.00000300,-0.00000228,0.000
 00481,0.00000490,-0.00000898,0.00000163,-0.00001059,-0.00000988,0.0000
 2460,0.00002622,-0.00002374,-0.00000910,-0.00012419,0.00006546,-0.0001
 6027,-0.00000977,0.00032147,0.00139261,0.00015225,-0.00005484,-0.00011
 785,0.00005725,-0.00020721,0.00071481,-0.00032440,-0.00091841,-0.00008
 317,-0.00114430,-0.15772847,0.25696973,-0.00000252,-0.00001687,-0.0000
 1158,-0.00000248,0.00001700,0.00000221,-0.00001427,-0.00001314,0.00002
 415,0.00001280,-0.00001065,-0.00001722,-0.00000373,0.00000348,0.000001
 15,0.00005183,0.00004368,0.00002389,0.00002535,-0.00007307,-0.00005119
 ,-0.00000639,-0.00000336,0.00000602,-0.00000771,0.00002606,-0.00000666
 ,0.00000679,-0.00002022,0.00001399,-0.00000615,0.00000146,-0.00000736,
 -0.00000078,0.00002048,0.00002709,0.00006831,-0.00014047,-0.00003214,0
 .00000035,0.00024235,0.00013779,0.00045146,-0.00085368,0.00174061,-0.0
 1738089,0.02020673,-0.00254199,0.00018159,0.00158210,0.00035713,0.0003
 9491,-0.00051013,0.00013336,-0.00002101,0.00015775,0.00003701,-0.00019
 189,0.00042924,-0.00032516,0.00009378,0.00006565,0.00036582,0.00005441
 ,0.00007750,-0.00004291,-0.00524725,0.00323551,0.00022241,0.00107150,0
 .00198323,0.00060496,-0.00009248,-0.00026716,0.00020791,-0.02277742,0.
 02886136,-0.04380071,0.03068769,-0.02395658,-0.01166463,0.00133569,-0.
 00633621,0.00064404,-0.00029627,0.00067459,-0.00027165,-0.00000072,0.0
 0000519,0.00000119,0.00000552,-0.00000572,-0.00000357,0.00000142,-0.00
 000315,0.00000009,0.00000438,0.00000073,0.00000073,0.00000233,-0.00000
 372,-0.00000581,0.00000491,-0.00000447,0.00000689,0.00002346,0.0000053
 1,-0.00004732,0.00020509,-0.00012578,0.00007582,0.00004995,-0.00013241
 ,0.00004628,-0.00043446,0.00103636,-0.00014864,-0.00004736,0.00002601,
 -0.00019620,0.00010321,-0.00065217,0.00020654,-0.00259965,-0.00117604,
 -0.00338404,0.01408894,-0.02414727,0.05736058,-0.00000648,-0.00000272,
 -0.00002768,-0.00000065,0.00000750,0.00001540,-0.00000828,-0.00001486,
 0.00002317,0.00002168,0.00000650,-0.00003145,-0.00000298,-0.00000149,0
 .00000435,-0.00005958,0.00001057,-0.00003152,0.00007240,-0.00008444,-0
 .00002329,0.00000306,0.00000799,0.00002950,-0.00000762,0.00000580,0.00
 000506,-0.00000180,-0.00001168,-0.00001429,0.00000334,0.00000360,-0.00
 000148,0.00001321,0.00002667,0.00008257,0.00007777,-0.00000367,-0.0000
 4290,-0.00005548,0.00005604,-0.00005070,0.00100667,0.00074465,0.000319
 29,-0.00088850,-0.00389584,0.00254920,-0.00025959,0.00064501,-0.001115
 31,-0.00053462,-0.00059198,-0.00018723,-0.00005735,0.00002776,0.000190
 58,0.00013350,0.00019302,-0.00029253,-0.00000239,-0.00001412,0.0002007
 0,0.00005904,0.00004909,-0.00006519,-0.19659085,-0.03370781,-0.1507523
 2,-0.01300620,0.00845533,-0.01480661,-0.00315424,0.00081310,0.00143566
 ,-0.01524283,-0.00793550,-0.01611982,0.00160165,0.00194744,0.00004542,
 0.00002964,-0.00032076,0.00001310,0.00006708,0.00007380,0.00009759,0.0
 0000069,0.00000262,0.00000382,0.00000429,-0.00000148,0.00000172,-0.000
 00020,-0.00000233,-0.00000370,-0.00000093,-0.00000030,-0.00000165,0.00
 000061,-0.00000285,-0.00000378,0.00000625,-0.00000113,0.00000728,0.000
 00777,-0.00002182,-0.00002396,0.00002801,-0.00001951,0.00002526,-0.000
 05925,-0.00007191,0.00004808,-0.00002879,0.00002466,-0.00000550,-0.000
 00649,-0.00000399,0.00001269,0.00001031,-0.00005711,0.00001712,0.00025
 202,0.00029477,0.00016241,0.00066897,-0.00009583,0.00049461,0.21339846
 ,0.00000316,0.00002218,-0.00003972,-0.00002444,-0.00002132,0.00003270,
 0.00002352,0.00003238,0.00004464,0.00002569,0.00003835,-0.00005108,0.0
 0000270,-0.00000501,-0.00000155,-0.00011642,-0.00029659,-0.00007640,-0
 .00001995,0.00026371,0.00011831,0.00001694,-0.00000481,-0.00001562,-0.
 00002196,0.00000442,-0.00000693,0.00000144,-0.00000550,-0.00002834,0.0
 0000537,0.00000366,-0.00000017,0.00003236,0.00000933,0.00012091,0.0000
 1786,-0.00001774,-0.00027879,0.00026975,-0.00024968,0.00054178,-0.0001
 8482,0.00032429,0.00007705,-0.00275132,-0.00493011,0.00270575,-0.00034
 895,0.00104154,-0.00144760,-0.00080908,-0.00096150,-0.00036192,-0.0000
 5484,0.00004601,0.00030249,0.00017741,0.00014055,-0.00034288,-0.000076
 03,-0.00005487,0.00021775,0.00007729,0.00005344,-0.00007638,-0.0366976
 8,-0.04733756,-0.03754938,0.02605392,-0.00587759,0.02644389,0.00571138
 ,-0.00303638,-0.00001733,-0.02145108,-0.00547749,-0.02068175,0.0018037
 9,0.00164028,0.00037136,-0.00003974,-0.00021119,-0.00011889,0.00007211
 ,0.00003455,0.00006769,0.00000030,-0.00000153,-0.00000094,0.00000670,-
 0.00000020,0.00000353,-0.00000080,-0.00001225,-0.00000924,-0.00001008,
 -0.00000301,-0.00001294,0.00000169,0.00000218,-0.00000391,-0.00000543,
 -0.00000096,-0.00001015,-0.00001476,0.00003643,0.00001426,-0.00006456,
 -0.00001358,-0.00004789,-0.00003735,-0.00000952,0.00003307,-0.00000507
 ,0.00000762,-0.00001049,-0.00001745,0.00000053,0.00002929,0.00003192,-
 0.00007974,0.00003682,-0.00011268,0.00004068,0.00002675,0.00079335,0.0
 0080355,-0.00025803,0.03156842,0.06361404,-0.00002623,-0.00001942,-0.0
 0007554,0.00000468,0.00003196,0.00003502,-0.00001644,-0.00002114,0.000
 09015,0.00004892,0.00001119,-0.00009970,-0.00000702,-0.00000324,0.0000
 0444,0.00001970,0.00007945,0.00007423,0.00003601,0.00007945,-0.0001526
 7,-0.00006761,-0.00005505,-0.00005000,0.00000424,0.00005361,-0.0000353
 0,-0.00002067,-0.00003793,0.00000979,0.00000084,0.00000603,-0.00000189
 ,0.00005274,0.00000338,0.00010067,-0.00011422,-0.00023954,-0.00026679,
 0.00028652,0.00010204,0.00077423,-0.00176932,-0.00097574,-0.00024441,0
 .00202316,0.00151607,-0.00146939,0.00021084,-0.00010517,0.00039283,0.0
 0015737,0.00017909,0.00016129,0.00008100,0.00005226,-0.00006104,0.0000
 1584,-0.00000466,-0.00000689,-0.00006543,-0.00009108,0.00001000,0.0000
 1162,0.00000956,0.00000704,-0.15416485,-0.03404134,-0.20125667,-0.0004
 6923,0.00514554,0.00157532,-0.00020708,-0.00060604,0.00172756,0.008455
 03,0.00369028,0.00594316,-0.00106405,-0.00094829,0.00136420,-0.0000233
 1,0.00032899,0.00002077,-0.00008271,-0.00008792,0.00012029,0.00000058,
 0.00000756,0.00000777,0.00000336,-0.00000368,0.00000587,-0.00000481,-0
 .00001656,-0.00000542,-0.00000780,0.00000309,-0.00001890,-0.00000067,-
 0.00000751,-0.00000682,0.00000609,-0.00000006,-0.00000833,-0.00001770,
 -0.00000048,0.00003052,-0.00000730,0.00002242,-0.00005733,-0.00000538,
 0.00002251,-0.00003356,0.00001762,-0.00004414,0.00000832,0.00001127,-0
 .00001691,0.00000438,-0.00001562,-0.00000487,-0.00000337,0.00007857,0.
 00002644,0.00003368,-0.00053672,-0.00100743,0.00024140,0.16832021,0.03
 239356,0.20862501,0.00004387,0.00001889,0.00012544,-0.00000099,-0.0000
 3734,-0.00006031,-0.00001978,0.00001716,-0.00014684,-0.00006596,-0.000
 02728,0.00016706,0.00000177,0.00000784,-0.00000292,0.00006848,-0.00004
 295,-0.00016143,-0.00014299,-0.00032389,0.00012551,0.00008119,0.000112
 64,0.00014673,-0.00001676,-0.00009032,0.00007085,0.00004615,0.00006319
 ,-0.00001788,-0.00000647,-0.00000982,0.00000354,-0.00010180,0.00000941
 ,-0.00017092,0.00023208,0.00041746,0.00046970,-0.00058941,-0.00015458,
 -0.00168513,0.00088554,0.00005944,-0.00053299,-0.00105441,0.00022349,0
 .00195952,0.00020208,-0.00011383,0.00013777,0.00009575,0.00012968,-0.0
 0024846,-0.00017723,-0.00010396,0.00007528,0.00007483,0.00012844,0.000
 19408,0.00001355,-0.00002184,-0.00019584,-0.00005159,-0.00003051,0.000
 05764,-0.09935815,0.01499918,0.11278526,-0.01476046,0.01595094,0.01538
 577,0.00115314,0.00019177,0.00157449,-0.00818933,0.00224291,0.01785058
 ,-0.00141327,-0.00437602,0.00040254,0.00004200,0.00105865,0.00047087,-
 0.00034394,-0.00034450,0.00045546,-0.00000259,-0.00000954,-0.00001072,
 -0.00000101,0.00000408,-0.00001082,0.00000947,0.00003139,0.00001060,0.
 00001685,-0.00000598,0.00003478,0.00000166,0.00000931,0.00000979,-0.00
 000249,-0.00000117,0.00001480,0.00005014,0.00001351,-0.00003536,0.0000
 6814,-0.00003942,0.00016278,-0.00003961,0.00000299,-0.00006172,-0.0000
 1479,-0.00008668,0.00002052,0.00000374,-0.00000444,-0.00001404,-0.0000
 3192,-0.00001074,0.00000160,0.00000908,0.00012793,-0.00015721,0.000515
 80,-0.00024690,-0.00028684,0.01250868,-0.00383258,-0.02115205,0.110260
 92,-0.00000394,-0.00001846,0.00003641,0.00001252,0.00002558,-0.0000492
 5,0.00000907,-0.00012933,-0.00007777,-0.00003896,-0.00004170,0.0000657
 3,-0.00000469,-0.00000141,0.00000214,0.00005874,0.00065917,0.00003762,
 -0.00027548,-0.00029106,-0.00027698,0.00001356,-0.00004464,-0.00005201
 ,-0.00001851,-0.00003353,0.00003755,0.00002243,0.00002393,-0.00000832,
 -0.00000535,-0.00000568,0.00000271,-0.00003949,0.00000783,-0.00011821,
 0.00008449,0.00013998,0.00024131,-0.00008606,-0.00005968,-0.00098815,-
 0.00143333,-0.00133119,-0.00162465,-0.00028908,0.00074049,0.00054510,0
 .00001176,-0.00014681,0.00030613,0.00010098,0.00014329,-0.00020860,-0.
 00010115,-0.00007675,0.00003203,0.00015771,-0.00003387,0.00033257,-0.0
 0011714,-0.00012191,-0.00028416,-0.00005579,-0.00004535,0.00007157,0.0
 1543640,-0.04881142,-0.03362996,0.02440241,-0.02014341,-0.02539453,-0.
 00061732,0.00174450,-0.00177916,-0.00898766,0.00812809,0.02300837,-0.0
 0462989,-0.00663525,0.00123918,-0.00022277,0.00207817,0.00017491,-0.00
 053673,-0.00058809,0.00094697,-0.00000056,0.,-0.00000027,0.00000253,-0
 .00000001,-0.00000661,0.00000786,0.00001649,0.00000665,0.00000838,-0.0
 0000317,0.00002110,-0.00000144,-0.00000459,0.00000036,0.00000687,0.000
 00258,0.00002916,0.00006132,-0.00005309,-0.00008275,0.00007487,-0.0000
 4060,0.00011341,-0.00004040,0.00002242,-0.00013273,0.00004105,-0.00017
 217,0.00001548,-0.00001351,-0.00001679,-0.00001474,-0.00000132,0.00001
 797,-0.00000625,-0.00001756,-0.00005800,-0.00024120,0.00103243,0.00065
 460,0.00000853,0.00189876,0.00044842,-0.00542627,-0.02590602,0.0640544
 5,0.00002705,0.00003460,0.00003930,-0.00003357,-0.00006293,-0.00000467
 ,0.00004736,0.00002698,-0.00005890,-0.00003105,0.00001353,0.00006539,0
 .00000776,0.00000121,-0.00000437,-0.00009383,-0.00030532,-0.00022947,-
 0.00009152,0.00001549,0.00000436,0.00010545,0.00008835,0.00008053,0.00
 000630,-0.00001278,-0.00001175,-0.00000016,0.00001797,0.00000146,0.000
 00293,-0.00000195,0.00000078,-0.00001997,-0.00004398,-0.00006954,-0.00
 000185,0.00003080,-0.00014531,-0.00050669,-0.00043456,0.00024004,-0.00
 436952,-0.00315227,-0.00249198,0.00034901,0.00000384,-0.00100146,0.000
 17141,-0.00011533,-0.00009439,0.00002140,0.00004577,0.00011304,0.00002
 540,0.00000423,-0.00001811,-0.00008752,0.00005248,-0.00008536,0.000073
 93,0.00009060,0.00007115,0.00000463,0.00000371,-0.00001733,0.12363222,
 -0.03915399,-0.30187575,-0.00324676,0.00173196,0.00738840,-0.00052352,
 -0.00014138,0.00269457,0.00276004,-0.00166271,-0.00676289,-0.00022050,
 0.00185969,0.00063362,0.00002317,-0.00083802,0.00021292,0.00012944,0.0
 0014291,-0.00022843,0.00000097,-0.00000580,-0.00000920,-0.00000341,0.0
 0000290,-0.00000046,-0.00000140,-0.00000372,0.00000013,-0.00000193,0.0
 0000292,0.00000016,0.00000230,0.00001127,0.00000436,-0.00000524,-0.000
 00214,0.00001426,0.00002866,-0.00000405,-0.00006749,-0.00002477,0.0000
 3072,-0.00007511,0.00000874,-0.00004998,0.00006276,-0.00000004,0.00007
 588,-0.00001324,-0.00000855,0.00000481,-0.00000528,-0.00001579,0.00001
 676,0.00000728,0.00002554,0.00003872,-0.00000295,0.00009930,0.00064854
 ,0.00006972,0.00949608,-0.00213327,-0.01751392,-0.12776146,0.04312756,
 0.31908313\\-0.01370637,-0.01266278,0.01107897,0.03661567,-0.01256156,
 -0.03029741,-0.01206425,0.00181211,0.03203282,-0.00984122,-0.01154450,
 0.01822799,0.00057262,-0.00435134,-0.03455114,-0.00653532,-0.02310723,
 0.00106817,0.00331779,-0.02012144,0.01738117,0.00326987,0.02857285,-0.
 01709977,0.01362193,0.01410787,-0.03628894,0.00029202,0.02456212,0.009
 09600,-0.00064474,-0.03099319,-0.01047108,0.00420080,0.01030536,0.0005
 5300,0.01569486,0.02327547,0.03112192,-0.04466517,0.05571499,-0.009439
 81,0.00356563,-0.04071758,0.00786691,-0.00477867,0.02559977,0.00782110
 ,0.00291436,-0.02266146,0.01598335,0.00134736,-0.01148860,0.00013872,0
 .00120389,0.01443303,-0.02429745,0.01730126,0.03077286,0.01997687,0.00
 740351,0.00585754,0.00571180,-0.01545756,-0.01020248,-0.02386532,0.016
 98402,-0.01021088,-0.00711650,0.00689190,-0.00436788,0.02388849,-0.013
 41611,0.00798170,-0.02935060,0.01007572,-0.03025034,0.00856412,-0.0135
 4071,0.01696895,0.01330041,0.03199845,-0.02780887,-0.03564343,0.000944
 84,0.01129234,0.02446904,-0.00017314,0.00016672,0.00528386,-0.01973811
 ,0.00795727,-0.00250181,0.00299070,-0.00490729,0.01401340,0.01798069,-
 0.00856350,0.00429495,-0.01533289,0.00584361,0.00407109,0.01876407,-0.
 01017298,0.00250193,-0.01464068,0.01133741,-0.00526497,0.01448405,-0.0
 0924981,-0.00389264,-0.00520469,-0.00081857,0.00002132,-0.01558041,0.0
 1228621,-0.00195969,0.01151333,-0.01597764,-0.00445663,-0.01425385,0.0
 1491131,0.00018336,0.01014830,-0.01354660,-0.00018256,-0.01512867,0.01
 444510,-0.00002542,-0.01030588,-0.00797716,-0.01279677,-0.00908921,0.0
 0605908,0.01085120\\\@


 I FIND THAT THE THREE TRULY GREAT TIMES FOR THINKING THOUGHTS
 ARE WHEN I AM STANDING IN THE SHOWER, SITTING ON THE JOHN, OR WALKING.

                                    -- COLIN FLETCHER
 Job cpu time:  1 days  7 hours  6 minutes 58.8 seconds.
 File lengths (MBytes):  RWF=   1769 Int=      0 D2E=      0 Chk=     28 Scr=      1
 Normal termination of Gaussian 09 at Mon Mar 28 11:19:42 2016.
Gaussian '09 finished on node018 at Mon Mar 28 11:19:42 EDT 2016.
