Gaussian '09 started on node007 at Tue Mar  1 03:53:47 EST 2016.
 Entering Gaussian System, Link 0=/usr/local/gaussian/g09/g09
 Initial command:
 /usr/local/gaussian/g09/l1.exe /home/srmcgrat/thesis/gaussian/cellobiose/550/9000/2/gdp/gaussian10063/Gau-10099.inp -scrdir=/home/srmcgrat/thesis/gaussian/cellobiose/550/9000/2/gdp/gaussian10063/
 Entering Link 1 = /usr/local/gaussian/g09/l1.exe PID=     10101.
  
 Copyright (c) 1988,1990,1992,1993,1995,1998,2003,2009,2010,
            Gaussian, Inc.  All Rights Reserved.
  
 This is part of the Gaussian(R) 09 program.  It is based on
 the Gaussian(R) 03 system (copyright 2003, Gaussian, Inc.),
 the Gaussian(R) 98 system (copyright 1998, Gaussian, Inc.),
 the Gaussian(R) 94 system (copyright 1995, Gaussian, Inc.),
 the Gaussian 92(TM) system (copyright 1992, Gaussian, Inc.),
 the Gaussian 90(TM) system (copyright 1990, Gaussian, Inc.),
 the Gaussian 88(TM) system (copyright 1988, Gaussian, Inc.),
 the Gaussian 86(TM) system (copyright 1986, Carnegie Mellon
 University), and the Gaussian 82(TM) system (copyright 1983,
 Carnegie Mellon University). Gaussian is a federally registered
 trademark of Gaussian, Inc.
  
 This software contains proprietary and confidential information,
 including trade secrets, belonging to Gaussian, Inc.
  
 This software is provided under written license and may be
 used, copied, transmitted, or stored only in accord with that
 written license.
  
 The following legend is applicable only to US Government
 contracts under FAR:
  
                    RESTRICTED RIGHTS LEGEND
  
 Use, reproduction and disclosure by the US Government is
 subject to restrictions as set forth in subparagraphs (a)
 and (c) of the Commercial Computer Software - Restricted
 Rights clause in FAR 52.227-19.
  
 Gaussian, Inc.
 340 Quinnipiac St., Bldg. 40, Wallingford CT 06492
  
  
 ---------------------------------------------------------------
 Warning -- This program may not be used in any manner that
 competes with the business of Gaussian, Inc. or will provide
 assistance to any competitor of Gaussian, Inc.  The licensee
 of this program is prohibited from giving any competitor of
 Gaussian, Inc. access to this program.  By using this program,
 the user acknowledges that Gaussian, Inc. is engaged in the
 business of creating and licensing software in the field of
 computational chemistry and represents and warrants to the
 licensee that it is not a competitor of Gaussian, Inc. and that
 it will not use this program in any manner prohibited above.
 ---------------------------------------------------------------
  

 Cite this work as:
 Gaussian 09, Revision B.01,
 M. J. Frisch, G. W. Trucks, H. B. Schlegel, G. E. Scuseria, 
 M. A. Robb, J. R. Cheeseman, G. Scalmani, V. Barone, B. Mennucci, 
 G. A. Petersson, H. Nakatsuji, M. Caricato, X. Li, H. P. Hratchian, 
 A. F. Izmaylov, J. Bloino, G. Zheng, J. L. Sonnenberg, M. Hada, 
 M. Ehara, K. Toyota, R. Fukuda, J. Hasegawa, M. Ishida, T. Nakajima, 
 Y. Honda, O. Kitao, H. Nakai, T. Vreven, J. A. Montgomery, Jr., 
 J. E. Peralta, F. Ogliaro, M. Bearpark, J. J. Heyd, E. Brothers, 
 K. N. Kudin, V. N. Staroverov, T. Keith, R. Kobayashi, J. Normand, 
 K. Raghavachari, A. Rendell, J. C. Burant, S. S. Iyengar, J. Tomasi, 
 M. Cossi, N. Rega, J. M. Millam, M. Klene, J. E. Knox, J. B. Cross, 
 V. Bakken, C. Adamo, J. Jaramillo, R. Gomperts, R. E. Stratmann, 
 O. Yazyev, A. J. Austin, R. Cammi, C. Pomelli, J. W. Ochterski, 
 R. L. Martin, K. Morokuma, V. G. Zakrzewski, G. A. Voth, 
 P. Salvador, J. J. Dannenberg, S. Dapprich, A. D. Daniels, 
 O. Farkas, J. B. Foresman, J. V. Ortiz, J. Cioslowski, 
 and D. J. Fox, Gaussian, Inc., Wallingford CT, 2010.
 
 ******************************************
 Gaussian 09:  EM64L-G09RevB.01 12-Aug-2010
                 1-Mar-2016 
 ******************************************
 ------------------------------------------------
 # freq=raman b3lyp/6-31+g(d,p) geom=connectivity
 ------------------------------------------------
 1/10=4,30=1,38=1,57=2/1,3;
 2/12=2,17=6,18=5,40=1/2;
 3/5=1,6=6,7=111,11=2,16=1,25=1,30=1,71=2,74=-5/1,2,3;
 4//1;
 5/5=2,38=5,98=1/2;
 8/6=4,10=90,11=11/1;
 10/13=10,15=4/2;
 11/6=3,8=1,9=11,15=111,16=1/1,2,10;
 10/6=1/2;
 6/7=2,8=2,9=2,10=2,18=1,28=1/1;
 7/8=1,10=1,25=1/1,2,3,16;
 1/10=4,30=1/3;
 99//99;
 ------------
 550 9000.com
 ------------
 Symbolic Z-matrix:
 Charge =  0 Multiplicity = 1
 O                     9.141     7.245     22.44 
 C                     9.811     7.178     23.707 
 C                     10.304    8.534     24.187 
 O                     11.456    8.73      23.354 
 H                     11.216    8.741     22.384 
 C                     10.916    8.573     25.578 
 O                     10.74     9.864     26.178 
 H                     11.029    10.619    25.589 
 C                     8.634     5.049     24.231 
 O                     7.878     4.071     24.96 
 H                     6.901     4.281     24.915 
 C                     9.041     6.411     24.769 
 O                     9.932     6.361     25.893 
 C                     10.222    7.614     26.531 
 O                     10.854    7.326     27.787 
 C                     10.084    7.297     28.998 
 C                     9.954     5.839     29.406 
 O                     9.032     5.142     28.555 
 H                     9.354     5.381     27.639 
 C                     9.562     5.712     30.869 
 O                     10.213    4.507     31.296 
 H                     9.922     3.803     30.647 
 C                     11.576    9.483     29.703 
 O                     10.743    10.65     29.761 
 H                     9.991     10.699    29.103 
 C                     11.051    8.067     29.882 
 O                     10.433    8.081     31.176 
 C                     10.254    6.765     31.719 
 O                     9.531     6.822     32.957 
 H                     10.15153   6.85569   33.68871 
 H                     11.23064   6.38933   31.94248 
 H                     8.50292   5.68321   31.01871 
 H                     10.91415   5.38205   29.28677 
 H                     9.13937   7.78843   28.89281 
 H                     11.91964   7.44753   29.96341 
 H                     12.06095   9.50616   28.74949 
 H                     12.33608   9.61834   30.44385 
 H                     9.79193   7.28226   21.73537 
 H                     9.5419    4.56331   23.93992 
 H                     8.0833    5.23874   23.33343 
 H                     8.16374   6.96181   25.03719 
 H                     10.69519   6.60239   23.52875 
 H                     9.57574   9.30451   24.04258 
 H                     11.95843   8.33812   25.52264 
 H                     9.27862   8.0606    26.76655 
 

 GradGradGradGradGradGradGradGradGradGradGradGradGradGradGradGradGradGrad
 Berny optimization.
 Initialization pass.
 Trust Radius=3.00D-01 FncErr=1.00D-07 GrdErr=1.00D-07
 Number of steps in this run=      2 maximum allowed number of steps=      2.
 GradGradGradGradGradGradGradGradGradGradGradGradGradGradGradGradGradGrad

                          Input orientation:                          
 ---------------------------------------------------------------------
 Center     Atomic      Atomic             Coordinates (Angstroms)
 Number     Number       Type             X           Y           Z
 ---------------------------------------------------------------------
      1          8           0        9.141000    7.245000   22.440000
      2          6           0        9.811000    7.178000   23.707000
      3          6           0       10.304000    8.534000   24.187000
      4          8           0       11.456000    8.730000   23.354000
      5          1           0       11.216000    8.741000   22.384000
      6          6           0       10.916000    8.573000   25.578000
      7          8           0       10.740000    9.864000   26.178000
      8          1           0       11.029000   10.619000   25.589000
      9          6           0        8.634000    5.049000   24.231000
     10          8           0        7.878000    4.071000   24.960000
     11          1           0        6.901000    4.281000   24.915000
     12          6           0        9.041000    6.411000   24.769000
     13          8           0        9.932000    6.361000   25.893000
     14          6           0       10.222000    7.614000   26.531000
     15          8           0       10.854000    7.326000   27.787000
     16          6           0       10.084000    7.297000   28.998000
     17          6           0        9.954000    5.839000   29.406000
     18          8           0        9.032000    5.142000   28.555000
     19          1           0        9.354000    5.381000   27.639000
     20          6           0        9.562000    5.712000   30.869000
     21          8           0       10.213000    4.507000   31.296000
     22          1           0        9.922000    3.803000   30.647000
     23          6           0       11.576000    9.483000   29.703000
     24          8           0       10.743000   10.650000   29.761000
     25          1           0        9.991000   10.699000   29.103000
     26          6           0       11.051000    8.067000   29.882000
     27          8           0       10.433000    8.081000   31.176000
     28          6           0       10.254000    6.765000   31.719000
     29          8           0        9.531000    6.822000   32.957000
     30          1           0       10.151535    6.855689   33.688712
     31          1           0       11.230641    6.389328   31.942481
     32          1           0        8.502917    5.683210   31.018712
     33          1           0       10.914149    5.382054   29.286774
     34          1           0        9.139369    7.788434   28.892813
     35          1           0       11.919636    7.447529   29.963406
     36          1           0       12.060949    9.506163   28.749487
     37          1           0       12.336083    9.618343   30.443849
     38          1           0        9.791930    7.282261   21.735371
     39          1           0        9.541897    4.563309   23.939920
     40          1           0        8.083297    5.238741   23.333434
     41          1           0        8.163740    6.961806   25.037193
     42          1           0       10.695193    6.602388   23.528748
     43          1           0        9.575743    9.304510   24.042584
     44          1           0       11.958433    8.338117   25.522642
     45          1           0        9.278623    8.060605   26.766551
 ---------------------------------------------------------------------
                    Distance matrix (angstroms):
                    1          2          3          4          5
     1  O    0.000000
     2  C    1.434809   0.000000
     3  C    2.462945   1.520587   0.000000
     4  O    2.898249   2.288960   1.435064   0.000000
     5  H    2.558667   2.483410   2.031109   0.999310   0.000000
     6  C    3.842038   2.582187   1.520180   2.293998   3.212454
     7  O    4.836177   3.766096   2.433737   3.126274   3.985240
     8  H    4.986444   4.106815   2.615044   2.957343   3.719392
     9  C    2.878740   2.488483   3.864720   4.720442   4.869189
    10  O    4.244979   3.867809   5.138227   6.089959   6.291814
    11  H    4.464137   4.280184   5.495307   6.555787   6.701999
    12  C    2.475843   1.519550   2.537917   3.634861   3.980923
    13  O    3.651075   2.336820   2.787606   3.792263   4.430140
    14  C    4.247470   2.886866   2.519417   3.586299   4.410870
    15  O    5.615277   4.213805   3.836895   4.688828   5.596935
    16  C    6.625656   5.299375   4.972353   5.982525   6.863786
    17  C    7.152829   5.855935   5.884172   6.873179   7.702125
    18  O    6.467435   5.315566   5.674775   6.767564   7.470201
    19  H    5.527157   4.347261   4.770767   5.830560   6.509352
    20  C    8.577609   7.314739   7.291322   8.316898   9.160010
    21  O    9.331375   8.055356   8.170856   9.080426   9.917485
    22  H    8.933766   7.717937   8.016226   8.933999   9.712644
    23  C    7.980541   6.661852   5.739760   6.394624   7.365319
    24  O    8.231493   7.040904   5.978265   6.726397   7.634667
    25  H    7.553025   6.445670   5.380730   6.250935   7.104882
    26  C    7.727040   6.360703   5.762736   6.574069   7.530040
    27  O    8.870505   7.549056   7.004853   7.915265   8.851438
    28  C    9.357831   8.034859   7.737111   8.676362   9.590216
    29  O   10.532726   9.261082   8.968911   9.978161  10.877045
    30  H   11.300719   9.992718   9.650000  10.583994  11.510169
    31  H    9.767083   8.394077   8.099738   8.904579   9.843532
    32  H    8.743034   7.576715   7.618608   8.760790   9.553489
    33  H    7.313887   5.964582   6.026171   6.833751   7.682572
    34  H    6.475655   5.264634   4.904784   6.077152   6.898146
    35  H    8.022685   6.607694   6.095701   6.748625   7.721112
    36  H    7.310854   5.992436   4.984803   5.484494   6.466748
    37  H    8.938842   7.597134   6.667332   7.199281   8.184466
    38  H    0.960000   1.974476   2.799920   2.735880   2.139302
    39  H    3.098701   2.638803   4.050709   4.622598   4.761997
    40  H    2.437629   2.623973   4.064336   4.854321   4.793857
    41  H    2.789381   2.128290   2.788429   4.098613   4.418287
    42  H    2.003456   1.070000   2.077848   2.266296   2.480997
    43  H    2.645536   2.165642   1.070000   2.083165   2.399769
    44  H    4.316887   3.042021   2.135288   2.260314   3.250322
    45  H    4.404906   3.228509   2.815952   4.102995   4.839744
                    6          7          8          9         10
     6  C    0.000000
     7  O    1.434454   0.000000
     8  H    2.049148   1.000233   0.000000
     9  C    4.409139   5.604487   6.213299   0.000000
    10  O    5.466203   6.575212   7.293884   1.435082   0.000000
    11  H    5.914479   6.892240   7.593741   2.015185   1.000327
    12  C    2.973945   4.098181   4.725654   1.519913   2.620048
    13  O    2.441398   3.606258   4.407538   2.483625   3.214577
    14  C    1.519712   2.335687   3.250944   3.793543   4.529374
    15  O    2.537427   3.007211   3.963039   4.770562   5.238657
    16  C    3.743902   3.869396   4.852833   5.466287   5.619516
    17  C    4.801436   5.219043   6.210758   5.398808   5.215603
    18  O    4.917697   5.555599   6.540848   4.343274   3.924638
    19  H    4.108093   4.914550   5.868967   3.499012   3.327419
    20  C    6.165494   6.374345   7.355891   6.735265   6.359640
    21  O    7.051389   7.427591   8.401919   7.259561   6.766625
    22  H    7.031052   7.574748   8.559595   6.661570   6.049110
    23  C    4.275433   3.642757   4.302871   7.632726   8.090797
    24  O    4.673473   3.668200   4.181906   8.148618   8.633717
    25  H    4.219138   3.132707   3.664975   7.582897   8.096888
    26  C    4.335744   4.128625   4.994300   6.847190   7.089572
    27  O    5.640298   5.315387   6.165325   7.788610   7.826032
    28  C    6.435759   6.367313   7.282228   7.851064   7.654221
    29  O    7.709336   7.527967   8.423101   8.949369   8.616984
    30  H    8.325695   8.112152   8.974284   9.747582   9.440014
    31  H    6.736025   6.748578   7.635280   8.246572   8.085164
    32  H    6.616283   6.776137   7.760470   6.818537   6.300614
    33  H    4.892560   5.457347   6.411889   5.556155   5.445919
    34  H    3.841867   3.773619   4.743204   5.430690   5.556742
    35  H    4.637430   4.643293   5.476029   7.029142   7.264286
    36  H    3.498575   2.912988   3.505995   7.212975   7.835705
    37  H    5.175506   4.561282   5.126337   8.554753   8.984437
    38  H    4.206583   5.225052   5.245439   3.543504   4.936959
    39  H    4.544127   5.877226   6.449988   1.070000   2.012830
    40  H    4.917272   6.045051   6.535436   1.070000   2.012830
    41  H    3.234711   4.044909   4.678597   2.128361   2.905919
    42  H    2.851579   4.202220   4.526504   2.674825   4.048825
    43  H    2.165386   2.495701   2.496246   4.362539   5.577957
    44  H    1.070000   2.059706   2.463874   4.851648   5.930834
    45  H    2.087152   2.394629   3.315996   3.989276   4.598078
                   11         12         13         14         15
    11  H    0.000000
    12  C    3.022882   0.000000
    13  O    3.803925   1.435185   0.000000
    14  C    4.974875   2.438568   1.435672   0.000000
    15  O    5.757310   3.637653   2.317012   1.435237   0.000000
    16  C    5.991547   4.444917   3.246571   2.491109   1.435361
    17  C    5.649536   4.760517   3.551639   3.389406   2.375359
    18  O    4.304890   3.993024   3.063039   3.409320   2.946076
    19  H    3.827190   3.065252   2.083987   2.639579   2.460677
    20  C    6.676736   6.161984   5.031767   4.782410   3.711197
    21  O    7.192884   6.899314   5.719151   5.688476   4.546507
    22  H    6.496980   6.490663   5.398516   5.617399   4.632467
    23  C    8.475929   6.340959   5.192853   3.922762   2.974053
    24  O    8.877434   6.766534   5.832209   4.463366   3.867554
    25  H    8.263060   6.170332   5.396835   4.023154   3.722063
    26  C    7.498492   5.738049   4.480482   3.481616   2.230900
    27  O    8.131122   6.765812   5.578485   4.673183   3.497512
    28  C    7.981684   7.063936   5.848861   5.257107   4.016882
    29  O    8.834441   8.212939   7.090375   6.511392   5.360340
    30  H    9.704278   8.999572   7.814476   7.198113   5.961950
    31  H    8.519174   7.500255   6.187365   5.639264   4.276357
    32  H    6.464335   6.314912   5.364196   5.179069   4.320916
    33  H    6.035735   4.997769   3.666150   3.613162   2.455985
    34  H    5.756334   4.348889   3.415364   2.603973   2.092039
    35  H    7.791022   6.028499   4.658267   3.832897   2.426334
    36  H    8.284365   5.877449   4.752262   3.447274   2.671370
    37  H    9.412519   7.304007   6.090987   4.878229   3.809232
    38  H    5.241668   3.244364   4.260777   4.826290   6.144276
    39  H    2.829278   2.086201   2.682983   4.059920   4.914682
    40  H    2.194640   2.086201   3.350902   4.521098   5.645148
    41  H    2.965833   1.070000   2.054292   2.625500   3.864140
    42  H    4.659017   2.076345   2.496081   3.203247   4.322215
    43  H    5.757691   3.030846   3.495026   3.076960   4.423697
    44  H    6.512070   3.576754   2.855274   2.134556   2.715045
    45  H    4.833916   2.601513   2.019567   1.070000   2.015632
                   16         17         18         19         20
    16  C    0.000000
    17  C    1.519582   0.000000
    18  O    2.438643   1.435303   0.000000
    19  H    2.459845   1.921472   0.999930   0.000000
    20  C    2.507060   1.519922   2.441392   3.253571   0.000000
    21  O    3.616842   2.326673   3.051404   3.856865   1.434627
    22  H    3.866973   2.384618   2.638463   3.443947   1.955292
    23  C    2.738920   3.999729   5.160826   5.101351   4.431274
    24  O    3.501294   4.888176   5.892370   5.847612   5.196756
    25  H    3.404890   4.869577   5.665707   5.552494   5.307821
    26  C    1.519686   2.528630   3.793800   3.889146   2.955895
    27  O    2.340970   2.896361   4.179732   4.578713   2.542646
    28  C    2.777727   2.509471   3.760094   4.401347   1.519925
    29  O    4.025558   3.708749   4.738038   5.512616   2.364911
    30  H    4.711910   4.406166   5.526761   6.277721   3.099411
    31  H    3.287647   2.892474   4.226686   4.801922   2.096544
    32  H    3.031075   2.175030   2.577347   3.498304   1.070000
    33  H    2.107025   1.070000   2.033618   2.269190   2.107275
    34  H    1.070000   2.174231   2.670067   2.722839   2.897501
    35  H    2.079478   2.600345   3.954430   4.031861   3.064410
    36  H    2.974977   4.279992   5.315852   5.057443   5.013258
    37  H    3.542737   4.586380   5.875573   5.891949   4.809969
    38  H    7.268515   7.806909   7.187876   6.217670   9.270479
    39  H    5.775043   5.628077   4.679086   3.793035   7.023677
    40  H    6.350319   6.382468   5.307932   4.491416   7.693847
    41  H    4.414493   4.853061   4.054693   3.268802   6.125938
    42  H    5.546960   5.972790   5.492008   4.492745   7.480389
    43  H    5.370714   6.396801   6.163119   5.327035   7.714031
    44  H    4.083569   5.034263   5.289080   4.472872   6.420508
    45  H    2.492206   3.515445   3.431855   2.819066   4.735645
                   21         22         23         24         25
    21  O    0.000000
    22  H    1.000749   0.000000
    23  C    5.399629   5.990764   0.000000
    24  O    6.354020   6.952729   1.434971   0.000000
    25  H    6.572625   7.067072   2.085877   1.000434   0.000000
    26  C    3.921127   4.476780   1.520764   2.604111   2.942425
    27  O    3.582775   4.340766   2.332763   2.949252   3.368474
    28  C    2.297645   3.167468   3.633107   4.377912   4.731700
    29  O    2.929722   3.821432   4.674555   5.131953   5.485986
    30  H    3.353385   4.315508   4.981743   5.493045   5.985446
    31  H    2.235327   3.174886   3.834756   4.811442   5.307790
    32  H    2.093978   2.384776   5.060962   5.591852   5.571579
    33  H    2.300939   2.308243   4.174811   5.292016   5.399619
    34  H    4.206638   4.424180   3.076545   3.393220   3.039876
    35  H    3.651729   4.211941   2.080634   3.417786   3.877112
    36  H    5.906884   6.379791   1.070000   2.017055   2.415061
    37  H    5.599952   6.299784   1.070000   2.017055   2.909486
    38  H    9.964186   9.567618   8.456316   8.755394   8.123773
    39  H    7.386844   6.760730   7.845638   8.507375   8.031550
    40  H    8.274874   7.676616   8.413327   8.813021   8.169556
    41  H    7.028386   6.673790   6.306322   6.524547   5.816897
    42  H    8.059365   7.687907   6.869872   7.431448   6.953446
    43  H    8.719761   8.602605   6.006096   5.989417   5.265439
    44  H    7.145324   7.139565   4.351138   4.978530   4.718424
    45  H    5.832416   5.796466   3.990474   4.220911   3.595498
                   26         27         28         29         30
    26  C    0.000000
    27  O    1.434070   0.000000
    28  C    2.388510   1.434833   0.000000
    29  O    3.649116   2.360222   1.434790   0.000000
    30  H    4.094797   2.809685   1.974459   0.960000   0.000000
    31  H    2.663162   2.021256   1.070000   2.026137   2.105062
    32  H    3.669781   3.082103   2.174158   2.471995   3.349857
    33  H    2.753535   3.329412   2.874727   4.178170   4.704278
    34  H    2.170351   2.640458   3.205800   4.195830   4.989503
    35  H    1.070000   2.020336   2.514418   3.880525   4.165856
    36  H    2.091357   3.251042   4.426856   5.595404   5.921724
    37  H    2.091357   2.553662   3.755349   4.690837   4.788908
    38  H    8.280618   9.496022  10.007693  11.234095  11.966354
    39  H    7.061272   8.095003   8.115949   9.295673  10.033225
    40  H    7.725932   8.666336   8.795404   9.859796  10.682879
    41  H    5.747163   6.639811   7.003889   8.038177   8.877576
    42  H    6.529587   7.793299   8.203739   9.502395  10.177652
    43  H    6.148706   7.288174   8.113970   9.253738   9.968753
    44  H    4.461047   5.861187   6.616241   7.966224   8.493949
    45  H    3.584325   4.558096   5.211209   6.318188   7.080262
                   31         32         33         34         35
    31  H    0.000000
    32  H    2.965203   0.000000
    33  H    2.857892   2.984015   0.000000
    34  H    3.953655   3.058838   3.015910   0.000000
    35  H    2.347603   3.987539   2.394791   2.998712   0.000000
    36  H    4.538644   5.694203   4.314175   3.392163   2.394064
    37  H    3.727524   5.523486   4.615935   3.996656   2.262008
    38  H   10.346609   9.507836   7.867265   7.204930   8.500295
    39  H    8.380166   7.241751   5.580526   5.924070   7.089059
    40  H    9.238252   7.709548   6.593672   6.206683   7.972000
    41  H    7.577375   6.126044   5.302764   4.062138   6.213716
    42  H    8.433445   7.858150   5.889993   5.709683   6.604420
    43  H    8.581686   7.932914   6.684199   5.100355   6.633125
    44  H    6.748466   7.013979   4.898727   4.428016   4.529353
    45  H    5.778736   4.933011   4.025059   2.148129   4.191742
                   36         37         38         39         40
    36  H    0.000000
    37  H    1.720217   0.000000
    38  H    7.700131   9.368435   0.000000
    39  H    7.342300   8.698387   3.509310   0.000000
    40  H    7.960291   9.371504   3.106317   1.718007   0.000000
    41  H    5.953412   7.327862   3.695365   2.975922   2.424503
    42  H    6.128076   7.720565   2.119980   2.378445   2.952911
    43  H    5.326523   6.978120   3.075623   4.742433   4.388708
    44  H    3.433274   5.099007   4.489097   4.753297   5.423600
    45  H    3.709853   5.029625   5.116842   4.504468   4.601957
                   41         42         43         44         45
    41  H    0.000000
    42  H    2.968643   0.000000
    43  H    2.910543   2.969623   0.000000
    44  H    4.065659   2.929871   2.966765   0.000000
    45  H    2.332596   3.823145   3.009248   2.967440   0.000000
 Stoichiometry    C12H22O11
 Framework group  C1[X(C12H22O11)]
 Deg. of freedom   129
 Full point group                 C1      NOp   1
 Largest Abelian subgroup         C1      NOp   1
 Largest concise Abelian subgroup C1      NOp   1
                         Standard orientation:                         
 ---------------------------------------------------------------------
 Center     Atomic      Atomic             Coordinates (Angstroms)
 Number     Number       Type             X           Y           Z
 ---------------------------------------------------------------------
      1          8           0       -5.142191    0.272994   -0.480604
      2          6           0       -3.829817    0.070406    0.062820
      3          6           0       -3.344848   -1.363363   -0.083119
      4          8           0       -4.098174   -2.025272    0.943422
      5          1           0       -5.082743   -1.946017    0.791888
      6          6           0       -1.915154   -1.637358    0.354886
      7          8           0       -1.356492   -2.734847   -0.380690
      8          1           0       -1.939360   -3.547682   -0.386114
      9          6           0       -3.345628    2.500435   -0.167536
     10          8           0       -2.651489    3.710387   -0.504656
     11          1           0       -2.769947    3.921509   -1.475248
     12          6           0       -2.809031    1.097243   -0.398303
     13          8           0       -1.623983    0.786609    0.349310
     14          6           0       -0.993640   -0.468043    0.049860
     15          8           0        0.309738   -0.453748    0.650614
     16          6           0        1.463544   -0.097715   -0.125424
     17          6           0        1.891995    1.288157    0.327253
     18          8           0        0.992770    2.294794   -0.160774
     19          1           0        0.097019    1.935142    0.100265
     20          6           0        3.325934    1.580110   -0.083530
     21          8           0        3.823271    2.413645    0.972894
     22          1           0        3.170303    3.168478    1.046085
     23          6           0        2.226091   -2.697285    0.277621
     24          8           0        2.200349   -3.416308   -0.963944
     25          1           0        1.489888   -3.157425   -1.618996
     26          6           0        2.397323   -1.189079    0.370989
     27          8           0        3.643754   -0.934068   -0.290779
     28          6           0        4.200371    0.344001    0.049018
     29          8           0        5.382615    0.602580   -0.721733
     30          1           0        6.155537    0.323317   -0.225544
     31          1           0        4.500293    0.285732    1.074470
     32          1           0        3.400886    2.044555   -1.044557
     33          1           0        1.850693    1.307302    1.396284
     34          1           0        1.281416   -0.156919   -1.178146
     35          1           0        2.553059   -0.982139    1.409171
     36          1           0        1.309016   -2.927885    0.778319
     37          1           0        3.015857   -3.126603    0.858014
     38          1           0       -5.799611   -0.036406    0.146828
     39          1           0       -3.561406    2.565596    0.878453
     40          1           0       -4.283723    2.545707   -0.680203
     41          1           0       -2.615283    0.959903   -1.441614
     42          1           0       -3.932855    0.228383    1.116066
     43          1           0       -3.556673   -1.766411   -1.051408
     44          1           0       -1.891624   -1.853797    1.402502
     45          1           0       -0.834926   -0.483522   -1.008190
 ---------------------------------------------------------------------
 Rotational constants (GHZ):      0.3845508      0.1499788      0.1129959
 Standard basis: 6-31+G(d,p) (6D, 7F)
 There are   547 symmetry adapted basis functions of A   symmetry.
 Integral buffers will be    131072 words long.
 Raffenetti 2 integral format.
 Two-electron integral symmetry is turned on.
   547 basis functions,   890 primitive gaussians,   547 cartesian basis functions
    91 alpha electrons       91 beta electrons
       nuclear repulsion energy      2277.5228838049 Hartrees.
 NAtoms=   45 NActive=   45 NUniq=   45 SFac= 1.00D+00 NAtFMM=   50 NAOKFM=F Big=F
 One-electron integrals computed using PRISM.
 NBasis=   547 RedAO= T  NBF=   547
 NBsUse=   547 1.00D-06 NBFU=   547
 Harris functional with IExCor=  402 diagonalized for initial guess.
 ExpMin= 4.38D-02 ExpMax= 5.48D+03 ExpMxC= 8.25D+02 IAcc=2 IRadAn=         0 AccDes= 0.00D+00
 HarFok:  IExCor=  402 AccDes= 0.00D+00 IRadAn=         0 IDoV= 1
 ScaDFX=  1.000000  1.000000  1.000000  1.000000
 FoFCou: FMM=F IPFlag=           0 FMFlag=      100000 FMFlg1=           0
         NFxFlg=           0 DoJE=T BraDBF=F KetDBF=T FulRan=T
         Omega=  0.000000  0.000000  1.000000  0.000000  0.000000 ICntrl=     500 IOpCl=  0
         NMat0=    1 NMatS0=    1 NMatT0=    0 NMatD0=    1 NMtDS0=    0 NMtDT0=    0
         I1Cent=           4 NGrid=           0.
 Petite list used in FoFCou.
 Initial guess orbital symmetries:
       Occupied  (A) (A) (A) (A) (A) (A) (A) (A) (A) (A) (A) (A)
                 (A) (A) (A) (A) (A) (A) (A) (A) (A) (A) (A) (A)
                 (A) (A) (A) (A) (A) (A) (A) (A) (A) (A) (A) (A)
                 (A) (A) (A) (A) (A) (A) (A) (A) (A) (A) (A) (A)
                 (A) (A) (A) (A) (A) (A) (A) (A) (A) (A) (A) (A)
                 (A) (A) (A) (A) (A) (A) (A) (A) (A) (A) (A) (A)
                 (A) (A) (A) (A) (A) (A) (A) (A) (A) (A) (A) (A)
                 (A) (A) (A) (A) (A) (A) (A)
       Virtual   (A) (A) (A) (A) (A) (A) (A) (A) (A) (A) (A) (A)
                 (A) (A) (A) (A) (A) (A) (A) (A) (A) (A) (A) (A)
                 (A) (A) (A) (A) (A) (A) (A) (A) (A) (A) (A) (A)
                 (A) (A) (A) (A) (A) (A) (A) (A) (A) (A) (A) (A)
                 (A) (A) (A) (A) (A) (A) (A) (A) (A) (A) (A) (A)
                 (A) (A) (A) (A) (A) (A) (A) (A) (A) (A) (A) (A)
                 (A) (A) (A) (A) (A) (A) (A) (A) (A) (A) (A) (A)
                 (A) (A) (A) (A) (A) (A) (A) (A) (A) (A) (A) (A)
                 (A) (A) (A) (A) (A) (A) (A) (A) (A) (A) (A) (A)
                 (A) (A) (A) (A) (A) (A) (A) (A) (A) (A) (A) (A)
                 (A) (A) (A) (A) (A) (A) (A) (A) (A) (A) (A) (A)
                 (A) (A) (A) (A) (A) (A) (A) (A) (A) (A) (A) (A)
                 (A) (A) (A) (A) (A) (A) (A) (A) (A) (A) (A) (A)
                 (A) (A) (A) (A) (A) (A) (A) (A) (A) (A) (A) (A)
                 (A) (A) (A) (A) (A) (A) (A) (A) (A) (A) (A) (A)
                 (A) (A) (A) (A) (A) (A) (A) (A) (A) (A) (A) (A)
                 (A) (A) (A) (A) (A) (A) (A) (A) (A) (A) (A) (A)
                 (A) (A) (A) (A) (A) (A) (A) (A) (A) (A) (A) (A)
                 (A) (A) (A) (A) (A) (A) (A) (A) (A) (A) (A) (A)
                 (A) (A) (A) (A) (A) (A) (A) (A) (A) (A) (A) (A)
                 (A) (A) (A) (A) (A) (A) (A) (A) (A) (A) (A) (A)
                 (A) (A) (A) (A) (A) (A) (A) (A) (A) (A) (A) (A)
                 (A) (A) (A) (A) (A) (A) (A) (A) (A) (A) (A) (A)
                 (A) (A) (A) (A) (A) (A) (A) (A) (A) (A) (A) (A)
                 (A) (A) (A) (A) (A) (A) (A) (A) (A) (A) (A) (A)
                 (A) (A) (A) (A) (A) (A) (A) (A) (A) (A) (A) (A)
                 (A) (A) (A) (A) (A) (A) (A) (A) (A) (A) (A) (A)
                 (A) (A) (A) (A) (A) (A) (A) (A) (A) (A) (A) (A)
                 (A) (A) (A) (A) (A) (A) (A) (A) (A) (A) (A) (A)
                 (A) (A) (A) (A) (A) (A) (A) (A) (A) (A) (A) (A)
                 (A) (A) (A) (A) (A) (A) (A) (A) (A) (A) (A) (A)
                 (A) (A) (A) (A) (A) (A) (A) (A) (A) (A) (A) (A)
                 (A) (A) (A) (A) (A) (A) (A) (A) (A) (A) (A) (A)
                 (A) (A) (A) (A) (A) (A) (A) (A) (A) (A) (A) (A)
                 (A) (A) (A) (A) (A) (A) (A) (A) (A) (A) (A) (A)
                 (A) (A) (A) (A) (A) (A) (A) (A) (A) (A) (A) (A)
                 (A) (A) (A) (A) (A) (A) (A) (A) (A) (A) (A) (A)
                 (A) (A) (A) (A) (A) (A) (A) (A) (A) (A) (A) (A)
 The electronic state of the initial guess is 1-A.
 Requested convergence on RMS density matrix=1.00D-08 within 128 cycles.
 Requested convergence on MAX density matrix=1.00D-06.
 Requested convergence on             energy=1.00D-06.
 No special actions if energy rises.
 SCF Done:  E(RB3LYP) =  -1297.92076436     A.U. after   14 cycles
             Convg  =    0.3940D-08             -V/T =  2.0087
 Range of M.O.s used for correlation:     1   547
 NBasis=   547 NAE=    91 NBE=    91 NFC=     0 NFV=     0
 NROrb=    547 NOA=    91 NOB=    91 NVA=   456 NVB=   456

 **** Warning!!: The largest alpha MO coefficient is  0.83784935D+02

          Differentiating once with respect to electric field.
                with respect to dipole field.
          Electric field/nuclear overlap derivatives assumed to be zero.
          There are     3 degrees of freedom in the 1st order CPHF.  IDoFFX=0.
      3 vectors produced by pass  0 Test12= 1.38D-12 3.33D-08 XBig12= 1.17D+02 8.94D-01.
 AX will form     3 AO Fock derivatives at one time.
      3 vectors produced by pass  1 Test12= 1.38D-12 3.33D-08 XBig12= 2.31D+01 3.73D-01.
      3 vectors produced by pass  2 Test12= 1.38D-12 3.33D-08 XBig12= 8.96D+00 2.02D-01.
      3 vectors produced by pass  3 Test12= 1.38D-12 3.33D-08 XBig12= 1.01D+00 7.07D-02.
      3 vectors produced by pass  4 Test12= 1.38D-12 3.33D-08 XBig12= 2.83D-01 3.52D-02.
      3 vectors produced by pass  5 Test12= 1.38D-12 3.33D-08 XBig12= 4.99D-02 1.33D-02.
      3 vectors produced by pass  6 Test12= 1.38D-12 3.33D-08 XBig12= 1.73D-02 1.00D-02.
      3 vectors produced by pass  7 Test12= 1.38D-12 3.33D-08 XBig12= 2.58D-03 4.52D-03.
      3 vectors produced by pass  8 Test12= 1.38D-12 3.33D-08 XBig12= 5.01D-04 1.76D-03.
      3 vectors produced by pass  9 Test12= 1.38D-12 3.33D-08 XBig12= 1.12D-04 7.26D-04.
      3 vectors produced by pass 10 Test12= 1.38D-12 3.33D-08 XBig12= 3.14D-05 3.86D-04.
      3 vectors produced by pass 11 Test12= 1.38D-12 3.33D-08 XBig12= 6.54D-06 2.03D-04.
      3 vectors produced by pass 12 Test12= 1.38D-12 3.33D-08 XBig12= 6.54D-07 6.10D-05.
      3 vectors produced by pass 13 Test12= 1.38D-12 3.33D-08 XBig12= 1.59D-07 3.19D-05.
      3 vectors produced by pass 14 Test12= 1.38D-12 3.33D-08 XBig12= 2.29D-08 1.22D-05.
      3 vectors produced by pass 15 Test12= 1.38D-12 3.33D-08 XBig12= 4.81D-09 5.94D-06.
      3 vectors produced by pass 16 Test12= 1.38D-12 3.33D-08 XBig12= 6.40D-10 2.61D-06.
      3 vectors produced by pass 17 Test12= 1.38D-12 3.33D-08 XBig12= 7.88D-11 7.38D-07.
      3 vectors produced by pass 18 Test12= 1.38D-12 3.33D-08 XBig12= 2.78D-11 3.63D-07.
      3 vectors produced by pass 19 Test12= 1.38D-12 3.33D-08 XBig12= 1.44D-11 3.11D-07.
      3 vectors produced by pass 20 Test12= 1.38D-12 3.33D-08 XBig12= 9.20D-12 2.12D-07.
      3 vectors produced by pass 21 Test12= 1.38D-12 3.33D-08 XBig12= 4.07D-12 1.48D-07.
      1 vectors produced by pass 22 Test12= 1.38D-12 3.33D-08 XBig12= 1.20D-12 7.53D-08.
 Inverted reduced A of dimension    67 with in-core refinement.
 End of Minotr Frequency-dependent properties file   721 does not exist.
 End of Minotr Frequency-dependent properties file   722 does not exist.
 Symmetrizing basis deriv contribution to polar:
 IMax=3 JMax=2 DiffMx= 0.00D+00
 G2DrvN: will do    23 centers at a time, making    2 passes doing MaxLOS=2.
 Calling FoFCou, ICntrl=  3107 FMM=F I1Cent=   0 AccDes= 0.00D+00.
 Calling FoFCou, ICntrl=  3107 FMM=F I1Cent=   0 AccDes= 0.00D+00.
 FoFDir/FoFCou used for L=0 through L=2.
 End of G2Drv Frequency-dependent properties file   721 does not exist.
 End of G2Drv Frequency-dependent properties file   722 does not exist.
          IDoAtm=111111111111111111111111111111111111111111111
          Differentiating once with respect to electric field.
                with respect to dipole field.
          Differentiating once with respect to nuclear coordinates.
          There are   138 degrees of freedom in the 1st order CPHF.  IDoFFX=5.
 Will reuse    3 saved solutions.
    135 vectors produced by pass  0 Test12= 4.15D-14 1.00D-09 XBig12= 2.67D-01 7.87D-02.
 AX will form    68 AO Fock derivatives at one time.
    135 vectors produced by pass  1 Test12= 4.15D-14 1.00D-09 XBig12= 2.73D-02 2.13D-02.
    132 vectors produced by pass  2 Test12= 4.15D-14 1.00D-09 XBig12= 2.53D-04 1.56D-03.
    132 vectors produced by pass  3 Test12= 4.15D-14 1.00D-09 XBig12= 8.39D-07 8.98D-05.
    132 vectors produced by pass  4 Test12= 4.15D-14 1.00D-09 XBig12= 1.27D-09 1.99D-06.
    131 vectors produced by pass  5 Test12= 4.15D-14 1.00D-09 XBig12= 5.08D-12 1.53D-07.
     78 vectors produced by pass  6 Test12= 4.15D-14 1.00D-09 XBig12= 1.56D-13 2.14D-08.
 Inverted reduced A of dimension   875 with in-core refinement.
 Isotropic polarizability for W=    0.000000      186.29 Bohr**3.
 End of Minotr Frequency-dependent properties file   721 does not exist.
 End of Minotr Frequency-dependent properties file   722 does not exist.

 **********************************************************************

            Population analysis using the SCF density.

 **********************************************************************

 Orbital symmetries:
       Occupied  (A) (A) (A) (A) (A) (A) (A) (A) (A) (A) (A) (A)
                 (A) (A) (A) (A) (A) (A) (A) (A) (A) (A) (A) (A)
                 (A) (A) (A) (A) (A) (A) (A) (A) (A) (A) (A) (A)
                 (A) (A) (A) (A) (A) (A) (A) (A) (A) (A) (A) (A)
                 (A) (A) (A) (A) (A) (A) (A) (A) (A) (A) (A) (A)
                 (A) (A) (A) (A) (A) (A) (A) (A) (A) (A) (A) (A)
                 (A) (A) (A) (A) (A) (A) (A) (A) (A) (A) (A) (A)
                 (A) (A) (A) (A) (A) (A) (A)
       Virtual   (A) (A) (A) (A) (A) (A) (A) (A) (A) (A) (A) (A)
                 (A) (A) (A) (A) (A) (A) (A) (A) (A) (A) (A) (A)
                 (A) (A) (A) (A) (A) (A) (A) (A) (A) (A) (A) (A)
                 (A) (A) (A) (A) (A) (A) (A) (A) (A) (A) (A) (A)
                 (A) (A) (A) (A) (A) (A) (A) (A) (A) (A) (A) (A)
                 (A) (A) (A) (A) (A) (A) (A) (A) (A) (A) (A) (A)
                 (A) (A) (A) (A) (A) (A) (A) (A) (A) (A) (A) (A)
                 (A) (A) (A) (A) (A) (A) (A) (A) (A) (A) (A) (A)
                 (A) (A) (A) (A) (A) (A) (A) (A) (A) (A) (A) (A)
                 (A) (A) (A) (A) (A) (A) (A) (A) (A) (A) (A) (A)
                 (A) (A) (A) (A) (A) (A) (A) (A) (A) (A) (A) (A)
                 (A) (A) (A) (A) (A) (A) (A) (A) (A) (A) (A) (A)
                 (A) (A) (A) (A) (A) (A) (A) (A) (A) (A) (A) (A)
                 (A) (A) (A) (A) (A) (A) (A) (A) (A) (A) (A) (A)
                 (A) (A) (A) (A) (A) (A) (A) (A) (A) (A) (A) (A)
                 (A) (A) (A) (A) (A) (A) (A) (A) (A) (A) (A) (A)
                 (A) (A) (A) (A) (A) (A) (A) (A) (A) (A) (A) (A)
                 (A) (A) (A) (A) (A) (A) (A) (A) (A) (A) (A) (A)
                 (A) (A) (A) (A) (A) (A) (A) (A) (A) (A) (A) (A)
                 (A) (A) (A) (A) (A) (A) (A) (A) (A) (A) (A) (A)
                 (A) (A) (A) (A) (A) (A) (A) (A) (A) (A) (A) (A)
                 (A) (A) (A) (A) (A) (A) (A) (A) (A) (A) (A) (A)
                 (A) (A) (A) (A) (A) (A) (A) (A) (A) (A) (A) (A)
                 (A) (A) (A) (A) (A) (A) (A) (A) (A) (A) (A) (A)
                 (A) (A) (A) (A) (A) (A) (A) (A) (A) (A) (A) (A)
                 (A) (A) (A) (A) (A) (A) (A) (A) (A) (A) (A) (A)
                 (A) (A) (A) (A) (A) (A) (A) (A) (A) (A) (A) (A)
                 (A) (A) (A) (A) (A) (A) (A) (A) (A) (A) (A) (A)
                 (A) (A) (A) (A) (A) (A) (A) (A) (A) (A) (A) (A)
                 (A) (A) (A) (A) (A) (A) (A) (A) (A) (A) (A) (A)
                 (A) (A) (A) (A) (A) (A) (A) (A) (A) (A) (A) (A)
                 (A) (A) (A) (A) (A) (A) (A) (A) (A) (A) (A) (A)
                 (A) (A) (A) (A) (A) (A) (A) (A) (A) (A) (A) (A)
                 (A) (A) (A) (A) (A) (A) (A) (A) (A) (A) (A) (A)
                 (A) (A) (A) (A) (A) (A) (A) (A) (A) (A) (A) (A)
                 (A) (A) (A) (A) (A) (A) (A) (A) (A) (A) (A) (A)
                 (A) (A) (A) (A) (A) (A) (A) (A) (A) (A) (A) (A)
                 (A) (A) (A) (A) (A) (A) (A) (A) (A) (A) (A) (A)
 The electronic state is 1-A.
 Alpha  occ. eigenvalues --  -19.20222 -19.19669 -19.19592 -19.19027 -19.18749
 Alpha  occ. eigenvalues --  -19.17801 -19.16244 -19.16057 -19.15981 -19.15707
 Alpha  occ. eigenvalues --  -19.15323 -10.31954 -10.28770 -10.27592 -10.27386
 Alpha  occ. eigenvalues --  -10.27279 -10.27239 -10.25526 -10.25180 -10.24569
 Alpha  occ. eigenvalues --  -10.24181 -10.24144 -10.23184  -1.10155  -1.08052
 Alpha  occ. eigenvalues --   -1.06674  -1.05873  -1.04654  -1.04243  -1.03250
 Alpha  occ. eigenvalues --   -1.02991  -1.01462  -1.00994  -1.00033  -0.82675
 Alpha  occ. eigenvalues --   -0.81703  -0.78670  -0.77388  -0.72761  -0.70660
 Alpha  occ. eigenvalues --   -0.68069  -0.65710  -0.64424  -0.62431  -0.62218
 Alpha  occ. eigenvalues --   -0.59774  -0.58029  -0.57294  -0.55415  -0.54669
 Alpha  occ. eigenvalues --   -0.53862  -0.53115  -0.52787  -0.52094  -0.51210
 Alpha  occ. eigenvalues --   -0.50174  -0.49753  -0.48801  -0.48339  -0.47048
 Alpha  occ. eigenvalues --   -0.46122  -0.45632  -0.45010  -0.44346  -0.43754
 Alpha  occ. eigenvalues --   -0.42750  -0.41798  -0.41265  -0.40113  -0.39756
 Alpha  occ. eigenvalues --   -0.39070  -0.37688  -0.37100  -0.36784  -0.36200
 Alpha  occ. eigenvalues --   -0.35286  -0.34877  -0.34510  -0.33929  -0.33764
 Alpha  occ. eigenvalues --   -0.32556  -0.32511  -0.31429  -0.31040  -0.30180
 Alpha  occ. eigenvalues --   -0.29834  -0.29196  -0.28579  -0.27457  -0.27241
 Alpha  occ. eigenvalues --   -0.25602
 Alpha virt. eigenvalues --   -0.04461  -0.01607  -0.01421   0.00192   0.00559
 Alpha virt. eigenvalues --    0.00884   0.01530   0.01882   0.02436   0.02754
 Alpha virt. eigenvalues --    0.03292   0.04204   0.04665   0.04995   0.05315
 Alpha virt. eigenvalues --    0.05779   0.06097   0.06716   0.07200   0.07864
 Alpha virt. eigenvalues --    0.08244   0.08617   0.09404   0.09559   0.09757
 Alpha virt. eigenvalues --    0.10079   0.10700   0.11156   0.11658   0.11932
 Alpha virt. eigenvalues --    0.12277   0.12548   0.12810   0.13064   0.13482
 Alpha virt. eigenvalues --    0.13684   0.14022   0.14406   0.14540   0.14803
 Alpha virt. eigenvalues --    0.15116   0.15569   0.16222   0.16490   0.16800
 Alpha virt. eigenvalues --    0.16882   0.17197   0.17288   0.17359   0.17980
 Alpha virt. eigenvalues --    0.18409   0.18618   0.18893   0.19488   0.19602
 Alpha virt. eigenvalues --    0.20293   0.20549   0.20700   0.20863   0.21094
 Alpha virt. eigenvalues --    0.21356   0.21669   0.22291   0.22419   0.22697
 Alpha virt. eigenvalues --    0.22994   0.23564   0.23613   0.24008   0.24062
 Alpha virt. eigenvalues --    0.24323   0.25116   0.25240   0.25618   0.25769
 Alpha virt. eigenvalues --    0.26065   0.26389   0.26868   0.27172   0.27541
 Alpha virt. eigenvalues --    0.27785   0.28255   0.28531   0.28669   0.29129
 Alpha virt. eigenvalues --    0.29312   0.29598   0.29912   0.30097   0.30330
 Alpha virt. eigenvalues --    0.30854   0.31225   0.31510   0.31544   0.31935
 Alpha virt. eigenvalues --    0.32590   0.32868   0.32945   0.33469   0.33991
 Alpha virt. eigenvalues --    0.34231   0.34611   0.34766   0.35333   0.35542
 Alpha virt. eigenvalues --    0.35807   0.36030   0.36879   0.37276   0.37591
 Alpha virt. eigenvalues --    0.37641   0.38004   0.38219   0.38477   0.38717
 Alpha virt. eigenvalues --    0.39422   0.39724   0.40053   0.40142   0.40526
 Alpha virt. eigenvalues --    0.41140   0.41639   0.41984   0.42607   0.43041
 Alpha virt. eigenvalues --    0.43539   0.44133   0.44947   0.45426   0.45662
 Alpha virt. eigenvalues --    0.46650   0.46911   0.48251   0.49244   0.50252
 Alpha virt. eigenvalues --    0.51537   0.53661   0.54956   0.62095   0.63405
 Alpha virt. eigenvalues --    0.65199   0.66552   0.68102   0.69607   0.70417
 Alpha virt. eigenvalues --    0.70574   0.71644   0.72634   0.73840   0.75402
 Alpha virt. eigenvalues --    0.76003   0.76593   0.77753   0.78092   0.78611
 Alpha virt. eigenvalues --    0.80201   0.81145   0.81496   0.82146   0.84054
 Alpha virt. eigenvalues --    0.84566   0.86111   0.87564   0.87829   0.89478
 Alpha virt. eigenvalues --    0.89903   0.91004   0.91861   0.92619   0.93388
 Alpha virt. eigenvalues --    0.94327   0.96819   0.97703   0.98340   0.99309
 Alpha virt. eigenvalues --    1.00288   1.00908   1.01761   1.02500   1.03207
 Alpha virt. eigenvalues --    1.03585   1.04121   1.04992   1.05975   1.06509
 Alpha virt. eigenvalues --    1.06717   1.07628   1.08653   1.08964   1.10039
 Alpha virt. eigenvalues --    1.10825   1.11642   1.12822   1.13493   1.13959
 Alpha virt. eigenvalues --    1.16329   1.16998   1.17327   1.18431   1.20656
 Alpha virt. eigenvalues --    1.20975   1.21705   1.23389   1.23953   1.24363
 Alpha virt. eigenvalues --    1.25057   1.26206   1.26720   1.27288   1.27366
 Alpha virt. eigenvalues --    1.27957   1.28010   1.28812   1.30058   1.31058
 Alpha virt. eigenvalues --    1.31372   1.32118   1.32765   1.33159   1.34141
 Alpha virt. eigenvalues --    1.35184   1.35358   1.36723   1.37221   1.38034
 Alpha virt. eigenvalues --    1.38504   1.39797   1.40810   1.41223   1.41647
 Alpha virt. eigenvalues --    1.43175   1.44373   1.44958   1.46434   1.47278
 Alpha virt. eigenvalues --    1.48317   1.48779   1.50667   1.51135   1.52168
 Alpha virt. eigenvalues --    1.52404   1.53514   1.54499   1.55866   1.57078
 Alpha virt. eigenvalues --    1.58022   1.58722   1.59208   1.59713   1.60097
 Alpha virt. eigenvalues --    1.61029   1.61941   1.62655   1.63710   1.64753
 Alpha virt. eigenvalues --    1.65092   1.65863   1.66423   1.67794   1.68112
 Alpha virt. eigenvalues --    1.69445   1.69896   1.70187   1.71524   1.73264
 Alpha virt. eigenvalues --    1.73588   1.75151   1.75923   1.76204   1.77285
 Alpha virt. eigenvalues --    1.78117   1.78707   1.80306   1.80459   1.81320
 Alpha virt. eigenvalues --    1.81830   1.82646   1.83376   1.84184   1.85245
 Alpha virt. eigenvalues --    1.86381   1.87149   1.87612   1.88673   1.90605
 Alpha virt. eigenvalues --    1.90809   1.91472   1.92114   1.92926   1.93677
 Alpha virt. eigenvalues --    1.94364   1.95586   1.96568   1.98254   1.98540
 Alpha virt. eigenvalues --    1.99137   2.00479   2.02026   2.03002   2.03709
 Alpha virt. eigenvalues --    2.04067   2.05768   2.06438   2.06830   2.08911
 Alpha virt. eigenvalues --    2.09247   2.09916   2.10558   2.10950   2.12374
 Alpha virt. eigenvalues --    2.13835   2.14477   2.15097   2.16622   2.17232
 Alpha virt. eigenvalues --    2.18666   2.19689   2.20871   2.22502   2.23605
 Alpha virt. eigenvalues --    2.24751   2.24846   2.26108   2.27088   2.28372
 Alpha virt. eigenvalues --    2.30114   2.31709   2.31842   2.32123   2.32795
 Alpha virt. eigenvalues --    2.33967   2.34700   2.35874   2.36282   2.36822
 Alpha virt. eigenvalues --    2.38854   2.39556   2.39945   2.40586   2.41627
 Alpha virt. eigenvalues --    2.43582   2.44779   2.47023   2.49174   2.49860
 Alpha virt. eigenvalues --    2.50496   2.51457   2.52617   2.53676   2.54888
 Alpha virt. eigenvalues --    2.55217   2.56380   2.56922   2.58247   2.59597
 Alpha virt. eigenvalues --    2.60959   2.61088   2.61340   2.61970   2.63399
 Alpha virt. eigenvalues --    2.64346   2.66035   2.66711   2.67099   2.67612
 Alpha virt. eigenvalues --    2.68380   2.71729   2.72445   2.73123   2.75134
 Alpha virt. eigenvalues --    2.75448   2.75861   2.76798   2.77896   2.78535
 Alpha virt. eigenvalues --    2.79543   2.80066   2.82513   2.83103   2.83661
 Alpha virt. eigenvalues --    2.84997   2.85313   2.85436   2.88045   2.89784
 Alpha virt. eigenvalues --    2.90431   2.90530   2.92166   2.93290   2.94008
 Alpha virt. eigenvalues --    2.95591   2.96142   2.96765   2.98047   2.98142
 Alpha virt. eigenvalues --    2.99284   3.01557   3.03235   3.03804   3.04369
 Alpha virt. eigenvalues --    3.05053   3.06818   3.07680   3.09835   3.10748
 Alpha virt. eigenvalues --    3.11939   3.15960   3.19447   3.26518   3.28595
 Alpha virt. eigenvalues --    3.30253   3.35847   3.39545   3.39920   3.42080
 Alpha virt. eigenvalues --    3.42889   3.43892   3.45329   3.45914   3.46844
 Alpha virt. eigenvalues --    3.47559   3.49152   3.50165   3.51098   3.52459
 Alpha virt. eigenvalues --    3.55338   3.56711   3.58450   3.59329   3.61325
 Alpha virt. eigenvalues --    3.61997   3.63475   3.68471   4.26877   4.28105
 Alpha virt. eigenvalues --    4.31426   4.31946   4.33286   4.38613   4.39745
 Alpha virt. eigenvalues --    4.43730   4.46452   4.48818   4.52039   4.55233
 Alpha virt. eigenvalues --    4.57191   4.59571   4.64332   4.68498   4.75659
 Alpha virt. eigenvalues --    4.76641   4.78343   4.84311   4.88589   4.89339
 Alpha virt. eigenvalues --    4.92821
          Condensed to atoms (all electrons):
              1          2          3          4          5          6
     1  O    8.265696   0.445892  -0.084918  -0.013482   0.011138  -0.028099
     2  C    0.445892  10.450632  -2.448578   0.091475  -0.083864  -1.961717
     3  C   -0.084918  -2.448578   8.844966  -0.255643   0.108768  -0.773513
     4  O   -0.013482   0.091475  -0.255643   8.350362   0.185827   0.262892
     5  H    0.011138  -0.083864   0.108768   0.185827   0.458510  -0.062398
     6  C   -0.028099  -1.961717  -0.773513   0.262892  -0.062398  17.596299
     7  O    0.000259   0.051309   0.072991  -0.017881   0.001089  -0.427129
     8  H   -0.000065   0.001813  -0.074394   0.001956  -0.000400   0.226168
     9  C   -0.041268   0.114562  -0.285982   0.008664  -0.002713   0.633320
    10  O    0.000602   0.004793   0.008294   0.000012  -0.000005  -0.025562
    11  H   -0.000218   0.014152   0.004901  -0.000001   0.000000   0.002349
    12  C   -0.265829  -2.737296   0.436032   0.002585   0.037633   0.353619
    13  O    0.005131   0.001879  -0.045291  -0.000074   0.000293   0.021436
    14  C    0.040730   1.564014  -0.104116  -0.044967   0.015539  -7.539736
    15  O    0.000369   0.009410   0.002978  -0.000531   0.000066  -0.079850
    16  C    0.002108   0.226522   0.032338   0.004791   0.000085  -1.099761
    17  C    0.000284  -0.043401   0.000030   0.001152   0.000054   0.298370
    18  O    0.000034   0.004381  -0.003675  -0.000016   0.000000  -0.002688
    19  H   -0.000029   0.004623   0.000448   0.000000   0.000000  -0.001242
    20  C    0.000103   0.021195  -0.011573   0.000303   0.000002  -0.238886
    21  O    0.000000  -0.000086   0.000093   0.000000   0.000000  -0.000191
    22  H    0.000000   0.000016  -0.000004   0.000000   0.000000  -0.000023
    23  C    0.000088   0.009741  -0.006410   0.000297  -0.000026  -0.134313
    24  O   -0.000001  -0.000641  -0.003748  -0.000022   0.000000   0.033839
    25  H    0.000000  -0.000373  -0.004742  -0.000003   0.000000   0.015894
    26  C   -0.000189  -0.035223   0.038777   0.000673   0.000042  -0.609971
    27  O    0.000000  -0.000197   0.000641  -0.000001   0.000000  -0.003044
    28  C    0.000011   0.002301   0.002586   0.000003   0.000000  -0.000267
    29  O    0.000000  -0.000009  -0.000003   0.000000   0.000000   0.000111
    30  H    0.000000   0.000000   0.000000   0.000000   0.000000  -0.000004
    31  H    0.000000   0.000006  -0.000013   0.000000   0.000000   0.000669
    32  H    0.000000  -0.000050   0.000020   0.000000   0.000000   0.000354
    33  H    0.000000  -0.000237   0.000166  -0.000001   0.000000   0.000968
    34  H   -0.000002  -0.002488   0.001410   0.000000   0.000000   0.001257
    35  H    0.000000   0.000362  -0.000369  -0.000001   0.000000   0.015599
    36  H    0.000000   0.000817   0.003037   0.000020   0.000000  -0.052774
    37  H    0.000000  -0.000013  -0.000772   0.000000   0.000000   0.002036
    38  H    0.232053  -0.004062  -0.036122   0.002561   0.004834  -0.015970
    39  H    0.000549   0.076562   0.010304  -0.000391   0.000001   0.006985
    40  H   -0.003249   0.021990  -0.021647   0.000080   0.000000  -0.010442
    41  H    0.007401   0.036872  -0.022545  -0.000852  -0.000021   0.006500
    42  H   -0.048316   0.456538  -0.098482  -0.011757  -0.002968   0.049168
    43  H   -0.004483   0.123602   0.282566  -0.036547  -0.006042  -0.203364
    44  H   -0.000449   0.009077   0.040471  -0.010111   0.000918   0.270502
    45  H    0.000061  -0.020470   0.019664  -0.000550   0.000012  -0.171043
              7          8          9         10         11         12
     1  O    0.000259  -0.000065  -0.041268   0.000602  -0.000218  -0.265829
     2  C    0.051309   0.001813   0.114562   0.004793   0.014152  -2.737296
     3  C    0.072991  -0.074394  -0.285982   0.008294   0.004901   0.436032
     4  O   -0.017881   0.001956   0.008664   0.000012  -0.000001   0.002585
     5  H    0.001089  -0.000400  -0.002713  -0.000005   0.000000   0.037633
     6  C   -0.427129   0.226168   0.633320  -0.025562   0.002349   0.353619
     7  O    8.357602   0.184459  -0.002771  -0.000034   0.000000  -0.018767
     8  H    0.184459   0.414179   0.001170   0.000000   0.000000   0.007652
     9  C   -0.002771   0.001170   6.365134   0.205565   0.047027  -1.111100
    10  O   -0.000034   0.000000   0.205565   8.222168   0.235509  -0.064000
    11  H    0.000000   0.000000   0.047027   0.235509   0.424091  -0.065086
    12  C   -0.018767   0.007652  -1.111100  -0.064000  -0.065086  10.392625
    13  O    0.011481  -0.000646   0.013191   0.007854  -0.001596  -0.089749
    14  C    0.320060  -0.118898  -0.525477   0.006872  -0.003146  -0.978439
    15  O    0.000169  -0.000384  -0.017634  -0.000272  -0.000012  -0.012524
    16  C    0.019785  -0.007688  -0.122326   0.019771  -0.000078   0.010131
    17  C    0.001551  -0.000295   0.035055  -0.007471  -0.000813  -0.160116
    18  O    0.000140  -0.000002   0.008381  -0.001621  -0.000209  -0.017154
    19  H   -0.000126   0.000000  -0.012857   0.002880   0.000020   0.012831
    20  C    0.002674  -0.000245  -0.036001   0.002783  -0.000129   0.001445
    21  O   -0.000002   0.000000  -0.000198   0.000016   0.000000   0.000917
    22  H    0.000000   0.000000   0.000000  -0.000001   0.000000   0.000124
    23  C   -0.031446   0.002177  -0.000181   0.000112  -0.000002   0.005420
    24  O    0.001293   0.000588   0.000142   0.000000   0.000000   0.002535
    25  H    0.002169  -0.000049   0.000059   0.000000   0.000000   0.001034
    26  C    0.043487  -0.003832  -0.030798  -0.000411   0.000035   0.038565
    27  O   -0.000161   0.000005   0.000066   0.000001   0.000000   0.000037
    28  C    0.000414   0.000000  -0.001334   0.000301   0.000004  -0.004496
    29  O   -0.000003   0.000000   0.000002   0.000000   0.000000   0.000008
    30  H    0.000000   0.000000   0.000000   0.000000   0.000000   0.000001
    31  H    0.000002   0.000000   0.000003   0.000000   0.000000  -0.000048
    32  H    0.000002   0.000000   0.000087   0.000002   0.000000   0.000086
    33  H    0.000025   0.000000   0.000469  -0.000012   0.000000   0.002180
    34  H   -0.000558   0.000004   0.000745   0.000001   0.000000   0.008359
    35  H    0.000074   0.000001   0.000111   0.000000   0.000000  -0.000317
    36  H   -0.000310  -0.000292  -0.000126   0.000000   0.000000  -0.002916
    37  H    0.000196   0.000000   0.000008   0.000000   0.000000   0.000180
    38  H   -0.000044   0.000000  -0.004548   0.000004  -0.000001   0.063351
    39  H   -0.000004   0.000000   0.516565  -0.060313   0.006952  -0.251098
    40  H   -0.000003   0.000000   0.388586  -0.045664  -0.012165  -0.034557
    41  H   -0.000116   0.000006   0.006572  -0.001767   0.002025   0.185893
    42  H   -0.000261   0.000007   0.001567   0.000097   0.000005  -0.121142
    43  H    0.000937  -0.001085   0.008236   0.000002   0.000000  -0.045510
    44  H   -0.037950  -0.003900   0.004081   0.000000   0.000000   0.002932
    45  H    0.006365  -0.000003   0.007886  -0.000168   0.000002   0.007063
             13         14         15         16         17         18
     1  O    0.005131   0.040730   0.000369   0.002108   0.000284   0.000034
     2  C    0.001879   1.564014   0.009410   0.226522  -0.043401   0.004381
     3  C   -0.045291  -0.104116   0.002978   0.032338   0.000030  -0.003675
     4  O   -0.000074  -0.044967  -0.000531   0.004791   0.001152  -0.000016
     5  H    0.000293   0.015539   0.000066   0.000085   0.000054   0.000000
     6  C    0.021436  -7.539736  -0.079850  -1.099761   0.298370  -0.002688
     7  O    0.011481   0.320060   0.000169   0.019785   0.001551   0.000140
     8  H   -0.000646  -0.118898  -0.000384  -0.007688  -0.000295  -0.000002
     9  C    0.013191  -0.525477  -0.017634  -0.122326   0.035055   0.008381
    10  O    0.007854   0.006872  -0.000272   0.019771  -0.007471  -0.001621
    11  H   -0.001596  -0.003146  -0.000012  -0.000078  -0.000813  -0.000209
    12  C   -0.089749  -0.978439  -0.012524   0.010131  -0.160116  -0.017154
    13  O    8.422180   0.183764  -0.020059  -0.043479   0.001933   0.011328
    14  C    0.183764  13.564504   0.286107  -1.412105   0.430798  -0.003388
    15  O   -0.020059   0.286107   8.332507   0.012585  -0.135902  -0.005056
    16  C   -0.043479  -1.412105   0.012585  13.149539  -2.629597  -0.219834
    17  C    0.001933   0.430798  -0.135902  -2.629597  14.399327   0.381048
    18  O    0.011328  -0.003388  -0.005056  -0.219834   0.381048   8.240340
    19  H    0.020111  -0.034030   0.016265   0.008678  -0.034174   0.189626
    20  C   -0.013236  -0.814145   0.047756  -0.397577  -5.707171  -0.022550
    21  O    0.000288   0.012798   0.000015  -0.002835   0.040924  -0.017567
    22  H    0.000020  -0.001038   0.000127   0.027201  -0.038042   0.009518
    23  C    0.000190  -0.017011  -0.051953  -0.073871  -0.250794   0.000630
    24  O    0.000211  -0.017347  -0.003697   0.030328   0.028526   0.000003
    25  H    0.000004  -0.021144  -0.003299   0.058293   0.007921   0.000020
    26  C    0.002395   0.364320   0.049050  -2.734425  -1.684954   0.043303
    27  O    0.000044   0.030916   0.009107  -0.141930   0.098742  -0.001777
    28  C   -0.000387  -0.200449   0.015651   0.799118   0.472958  -0.015459
    29  O    0.000001   0.003789   0.000133   0.017672   0.049716  -0.000443
    30  H    0.000000   0.000130  -0.000011  -0.000492  -0.008566   0.000006
    31  H    0.000006   0.006938   0.000283   0.067559   0.081162  -0.000930
    32  H    0.000102   0.016073  -0.000026   0.001577   0.175039  -0.005521
    33  H    0.001664   0.080280  -0.002068  -0.159272   0.553747  -0.052077
    34  H    0.001749   0.074345  -0.052755   0.245782   0.058798  -0.000906
    35  H   -0.000260   0.034638   0.002234   0.010891   0.116118  -0.000535
    36  H   -0.000374   0.018059   0.008415  -0.107107   0.011079   0.000029
    37  H    0.000004   0.000291  -0.001967   0.057894   0.002316   0.000028
    38  H   -0.000612   0.007101   0.000005   0.000150   0.000010   0.000000
    39  H   -0.003955   0.003027  -0.000072  -0.000244  -0.000580  -0.000088
    40  H    0.004970   0.011229  -0.000019   0.000533   0.000611  -0.000037
    41  H   -0.060059   0.057604  -0.000296   0.010348   0.001313  -0.000108
    42  H    0.002418   0.010905  -0.000732   0.000327   0.000400  -0.000002
    43  H    0.002694   0.119247  -0.000636   0.008671   0.000520   0.000004
    44  H    0.007019  -0.071845  -0.000828   0.048097   0.005006   0.000019
    45  H   -0.069501   0.361991  -0.064574   0.072925   0.032631  -0.000393
             19         20         21         22         23         24
     1  O   -0.000029   0.000103   0.000000   0.000000   0.000088  -0.000001
     2  C    0.004623   0.021195  -0.000086   0.000016   0.009741  -0.000641
     3  C    0.000448  -0.011573   0.000093  -0.000004  -0.006410  -0.003748
     4  O    0.000000   0.000303   0.000000   0.000000   0.000297  -0.000022
     5  H    0.000000   0.000002   0.000000   0.000000  -0.000026   0.000000
     6  C   -0.001242  -0.238886  -0.000191  -0.000023  -0.134313   0.033839
     7  O   -0.000126   0.002674  -0.000002   0.000000  -0.031446   0.001293
     8  H    0.000000  -0.000245   0.000000   0.000000   0.002177   0.000588
     9  C   -0.012857  -0.036001  -0.000198   0.000000  -0.000181   0.000142
    10  O    0.002880   0.002783   0.000016  -0.000001   0.000112   0.000000
    11  H    0.000020  -0.000129   0.000000   0.000000  -0.000002   0.000000
    12  C    0.012831   0.001445   0.000917   0.000124   0.005420   0.002535
    13  O    0.020111  -0.013236   0.000288   0.000020   0.000190   0.000211
    14  C   -0.034030  -0.814145   0.012798  -0.001038  -0.017011  -0.017347
    15  O    0.016265   0.047756   0.000015   0.000127  -0.051953  -0.003697
    16  C    0.008678  -0.397577  -0.002835   0.027201  -0.073871   0.030328
    17  C   -0.034174  -5.707171   0.040924  -0.038042  -0.250794   0.028526
    18  O    0.189626  -0.022550  -0.017567   0.009518   0.000630   0.000003
    19  H    0.378477   0.036401   0.001635  -0.000606   0.002185  -0.000012
    20  C    0.036401  12.944073   0.063716   0.030221   0.304888   0.004354
    21  O    0.001635   0.063716   8.265162   0.211227  -0.003808  -0.000103
    22  H   -0.000606   0.030221   0.211227   0.421731  -0.000560   0.000001
    23  C    0.002185   0.304888  -0.003808  -0.000560   6.807436   0.348105
    24  O   -0.000012   0.004354  -0.000103   0.000001   0.348105   8.178321
    25  H    0.000000  -0.001447  -0.000001   0.000000   0.002605   0.240144
    26  C    0.013670   1.667275   0.020534   0.000079  -1.363007  -0.250772
    27  O    0.000079  -0.275502   0.004673  -0.000492  -0.126009   0.004067
    28  C    0.002441  -1.622074  -0.056396  -0.006406  -0.212108   0.005110
    29  O    0.000043  -0.263810   0.006968  -0.001040   0.008449  -0.000408
    30  H    0.000000   0.028726  -0.001891   0.000036   0.004381  -0.000026
    31  H    0.000011  -0.175345  -0.008821   0.000438  -0.001778   0.000055
    32  H    0.000068   0.203350  -0.034690  -0.004506   0.003419  -0.000015
    33  H   -0.006094  -0.159303  -0.014305  -0.002558   0.018079   0.000015
    34  H   -0.000780  -0.007686  -0.000808   0.000002   0.002982   0.002986
    35  H    0.000022  -0.074127  -0.001674   0.000018  -0.069176   0.010809
    36  H    0.000000   0.007879  -0.000019   0.000000   0.545917  -0.063828
    37  H    0.000000  -0.003578   0.000006   0.000000   0.461249  -0.058164
    38  H    0.000000   0.000001   0.000000   0.000000  -0.000002   0.000000
    39  H    0.000083  -0.000022   0.000000   0.000000  -0.000008   0.000000
    40  H   -0.000002   0.000051   0.000000   0.000000   0.000008   0.000000
    41  H    0.000200   0.000657   0.000000   0.000000  -0.000109  -0.000001
    42  H    0.000002   0.000041   0.000000   0.000000   0.000087   0.000000
    43  H   -0.000001   0.000076   0.000000   0.000000   0.000631  -0.000004
    44  H   -0.000004   0.001010   0.000000   0.000000   0.005969  -0.000081
    45  H   -0.000265   0.014755  -0.000021   0.000000   0.000717  -0.000186
             25         26         27         28         29         30
     1  O    0.000000  -0.000189   0.000000   0.000011   0.000000   0.000000
     2  C   -0.000373  -0.035223  -0.000197   0.002301  -0.000009   0.000000
     3  C   -0.004742   0.038777   0.000641   0.002586  -0.000003   0.000000
     4  O   -0.000003   0.000673  -0.000001   0.000003   0.000000   0.000000
     5  H    0.000000   0.000042   0.000000   0.000000   0.000000   0.000000
     6  C    0.015894  -0.609971  -0.003044  -0.000267   0.000111  -0.000004
     7  O    0.002169   0.043487  -0.000161   0.000414  -0.000003   0.000000
     8  H   -0.000049  -0.003832   0.000005   0.000000   0.000000   0.000000
     9  C    0.000059  -0.030798   0.000066  -0.001334   0.000002   0.000000
    10  O    0.000000  -0.000411   0.000001   0.000301   0.000000   0.000000
    11  H    0.000000   0.000035   0.000000   0.000004   0.000000   0.000000
    12  C    0.001034   0.038565   0.000037  -0.004496   0.000008   0.000001
    13  O    0.000004   0.002395   0.000044  -0.000387   0.000001   0.000000
    14  C   -0.021144   0.364320   0.030916  -0.200449   0.003789   0.000130
    15  O   -0.003299   0.049050   0.009107   0.015651   0.000133  -0.000011
    16  C    0.058293  -2.734425  -0.141930   0.799118   0.017672  -0.000492
    17  C    0.007921  -1.684954   0.098742   0.472958   0.049716  -0.008566
    18  O    0.000020   0.043303  -0.001777  -0.015459  -0.000443   0.000006
    19  H    0.000000   0.013670   0.000079   0.002441   0.000043   0.000000
    20  C   -0.001447   1.667275  -0.275502  -1.622074  -0.263810   0.028726
    21  O   -0.000001   0.020534   0.004673  -0.056396   0.006968  -0.001891
    22  H    0.000000   0.000079  -0.000492  -0.006406  -0.001040   0.000036
    23  C    0.002605  -1.363007  -0.126009  -0.212108   0.008449   0.004381
    24  O    0.240144  -0.250772   0.004067   0.005110  -0.000408  -0.000026
    25  H    0.410506  -0.049637  -0.003390   0.000352  -0.000020   0.000000
    26  C   -0.049637  11.744827   0.191173  -1.299775  -0.103876   0.011695
    27  O   -0.003390   0.191173   8.448925   0.213256  -0.043977  -0.004587
    28  C    0.000352  -1.299775   0.213256   6.940928   0.507808  -0.027224
    29  O   -0.000020  -0.103876  -0.043977   0.507808   8.144337   0.248710
    30  H    0.000000   0.011695  -0.004587  -0.027224   0.248710   0.404658
    31  H   -0.000001  -0.093789  -0.077412   0.486572  -0.052605  -0.010507
    32  H    0.000000   0.005524   0.003938  -0.100200  -0.003335   0.000369
    33  H    0.000000   0.002792   0.003205  -0.033203  -0.000487   0.000011
    34  H   -0.000276  -0.089954   0.008380  -0.005508  -0.000446   0.000001
    35  H   -0.000118   0.169130  -0.043883   0.051850  -0.001201  -0.000014
    36  H   -0.005776  -0.078756   0.008406  -0.000560   0.000034   0.000000
    37  H    0.006159  -0.125224  -0.010185   0.000028  -0.000115   0.000001
    38  H    0.000000   0.000009   0.000000   0.000000   0.000000   0.000000
    39  H    0.000000  -0.000071   0.000000   0.000007   0.000000   0.000000
    40  H    0.000000  -0.000017   0.000000   0.000000   0.000000   0.000000
    41  H    0.000000   0.000140   0.000000   0.000091   0.000000   0.000000
    42  H    0.000000  -0.000095   0.000000   0.000000   0.000000   0.000000
    43  H    0.000001  -0.001088   0.000000   0.000013   0.000000   0.000000
    44  H    0.000002  -0.013755   0.000015   0.000237   0.000000   0.000000
    45  H    0.000105   0.004352   0.000420   0.001818  -0.000009   0.000000
             31         32         33         34         35         36
     1  O    0.000000   0.000000   0.000000  -0.000002   0.000000   0.000000
     2  C    0.000006  -0.000050  -0.000237  -0.002488   0.000362   0.000817
     3  C   -0.000013   0.000020   0.000166   0.001410  -0.000369   0.003037
     4  O    0.000000   0.000000  -0.000001   0.000000  -0.000001   0.000020
     5  H    0.000000   0.000000   0.000000   0.000000   0.000000   0.000000
     6  C    0.000669   0.000354   0.000968   0.001257   0.015599  -0.052774
     7  O    0.000002   0.000002   0.000025  -0.000558   0.000074  -0.000310
     8  H    0.000000   0.000000   0.000000   0.000004   0.000001  -0.000292
     9  C    0.000003   0.000087   0.000469   0.000745   0.000111  -0.000126
    10  O    0.000000   0.000002  -0.000012   0.000001   0.000000   0.000000
    11  H    0.000000   0.000000   0.000000   0.000000   0.000000   0.000000
    12  C   -0.000048   0.000086   0.002180   0.008359  -0.000317  -0.002916
    13  O    0.000006   0.000102   0.001664   0.001749  -0.000260  -0.000374
    14  C    0.006938   0.016073   0.080280   0.074345   0.034638   0.018059
    15  O    0.000283  -0.000026  -0.002068  -0.052755   0.002234   0.008415
    16  C    0.067559   0.001577  -0.159272   0.245782   0.010891  -0.107107
    17  C    0.081162   0.175039   0.553747   0.058798   0.116118   0.011079
    18  O   -0.000930  -0.005521  -0.052077  -0.000906  -0.000535   0.000029
    19  H    0.000011   0.000068  -0.006094  -0.000780   0.000022   0.000000
    20  C   -0.175345   0.203350  -0.159303  -0.007686  -0.074127   0.007879
    21  O   -0.008821  -0.034690  -0.014305  -0.000808  -0.001674  -0.000019
    22  H    0.000438  -0.004506  -0.002558   0.000002   0.000018   0.000000
    23  C   -0.001778   0.003419   0.018079   0.002982  -0.069176   0.545917
    24  O    0.000055  -0.000015   0.000015   0.002986   0.010809  -0.063828
    25  H   -0.000001   0.000000   0.000000  -0.000276  -0.000118  -0.005776
    26  C   -0.093789   0.005524   0.002792  -0.089954   0.169130  -0.078756
    27  O   -0.077412   0.003938   0.003205   0.008380  -0.043883   0.008406
    28  C    0.486572  -0.100200  -0.033203  -0.005508   0.051850  -0.000560
    29  O   -0.052605  -0.003335  -0.000487  -0.000446  -0.001201   0.000034
    30  H   -0.010507   0.000369   0.000011   0.000001  -0.000014   0.000000
    31  H    0.636549   0.005022   0.000761   0.000041   0.009656  -0.000016
    32  H    0.005022   0.564507   0.004147   0.000656   0.000001   0.000000
    33  H    0.000761   0.004147   0.590188   0.005340   0.003202  -0.000011
    34  H    0.000041   0.000656   0.005340   0.589765   0.005861   0.000242
    35  H    0.009656   0.000001   0.003202   0.005861   0.646189  -0.000381
    36  H   -0.000016   0.000000  -0.000011   0.000242  -0.000381   0.606690
    37  H   -0.000022   0.000001   0.000005  -0.000024  -0.005725  -0.043633
    38  H    0.000000   0.000000   0.000000   0.000000   0.000000   0.000000
    39  H    0.000000   0.000000   0.000000   0.000000   0.000000   0.000000
    40  H    0.000000   0.000000   0.000000   0.000000   0.000000   0.000000
    41  H    0.000000   0.000000  -0.000001  -0.000029   0.000000   0.000000
    42  H    0.000000   0.000000   0.000000   0.000000   0.000000   0.000000
    43  H    0.000000   0.000000   0.000000  -0.000001   0.000000   0.000001
    44  H    0.000000   0.000000  -0.000002   0.000010  -0.000006   0.000174
    45  H    0.000000  -0.000006  -0.000038   0.010835  -0.000026   0.000055
             37         38         39         40         41         42
     1  O    0.000000   0.232053   0.000549  -0.003249   0.007401  -0.048316
     2  C   -0.000013  -0.004062   0.076562   0.021990   0.036872   0.456538
     3  C   -0.000772  -0.036122   0.010304  -0.021647  -0.022545  -0.098482
     4  O    0.000000   0.002561  -0.000391   0.000080  -0.000852  -0.011757
     5  H    0.000000   0.004834   0.000001   0.000000  -0.000021  -0.002968
     6  C    0.002036  -0.015970   0.006985  -0.010442   0.006500   0.049168
     7  O    0.000196  -0.000044  -0.000004  -0.000003  -0.000116  -0.000261
     8  H    0.000000   0.000000   0.000000   0.000000   0.000006   0.000007
     9  C    0.000008  -0.004548   0.516565   0.388586   0.006572   0.001567
    10  O    0.000000   0.000004  -0.060313  -0.045664  -0.001767   0.000097
    11  H    0.000000  -0.000001   0.006952  -0.012165   0.002025   0.000005
    12  C    0.000180   0.063351  -0.251098  -0.034557   0.185893  -0.121142
    13  O    0.000004  -0.000612  -0.003955   0.004970  -0.060059   0.002418
    14  C    0.000291   0.007101   0.003027   0.011229   0.057604   0.010905
    15  O   -0.001967   0.000005  -0.000072  -0.000019  -0.000296  -0.000732
    16  C    0.057894   0.000150  -0.000244   0.000533   0.010348   0.000327
    17  C    0.002316   0.000010  -0.000580   0.000611   0.001313   0.000400
    18  O    0.000028   0.000000  -0.000088  -0.000037  -0.000108  -0.000002
    19  H    0.000000   0.000000   0.000083  -0.000002   0.000200   0.000002
    20  C   -0.003578   0.000001  -0.000022   0.000051   0.000657   0.000041
    21  O    0.000006   0.000000   0.000000   0.000000   0.000000   0.000000
    22  H    0.000000   0.000000   0.000000   0.000000   0.000000   0.000000
    23  C    0.461249  -0.000002  -0.000008   0.000008  -0.000109   0.000087
    24  O   -0.058164   0.000000   0.000000   0.000000  -0.000001   0.000000
    25  H    0.006159   0.000000   0.000000   0.000000   0.000000   0.000000
    26  C   -0.125224   0.000009  -0.000071  -0.000017   0.000140  -0.000095
    27  O   -0.010185   0.000000   0.000000   0.000000   0.000000   0.000000
    28  C    0.000028   0.000000   0.000007   0.000000   0.000091   0.000000
    29  O   -0.000115   0.000000   0.000000   0.000000   0.000000   0.000000
    30  H    0.000001   0.000000   0.000000   0.000000   0.000000   0.000000
    31  H   -0.000022   0.000000   0.000000   0.000000   0.000000   0.000000
    32  H    0.000001   0.000000   0.000000   0.000000   0.000000   0.000000
    33  H    0.000005   0.000000   0.000000   0.000000  -0.000001   0.000000
    34  H   -0.000024   0.000000   0.000000   0.000000  -0.000029   0.000000
    35  H   -0.005725   0.000000   0.000000   0.000000   0.000000   0.000000
    36  H   -0.043633   0.000000   0.000000   0.000000   0.000000   0.000000
    37  H    0.572960   0.000000   0.000000   0.000000   0.000000   0.000000
    38  H    0.000000   0.413529  -0.000166  -0.000149  -0.000321  -0.013238
    39  H    0.000000  -0.000166   0.577655  -0.036298   0.006815   0.005583
    40  H    0.000000  -0.000149  -0.036298   0.584610  -0.005665  -0.000028
    41  H    0.000000  -0.000321   0.006815  -0.005665   0.633022   0.006603
    42  H    0.000000  -0.013238   0.005583  -0.000028   0.006603   0.598821
    43  H    0.000000  -0.000059  -0.000001  -0.000002   0.001434   0.005046
    44  H    0.000000   0.000006  -0.000001   0.000000  -0.000020   0.000455
    45  H    0.000002   0.000000   0.000012   0.000006   0.009383   0.000087
             43         44         45
     1  O   -0.004483  -0.000449   0.000061
     2  C    0.123602   0.009077  -0.020470
     3  C    0.282566   0.040471   0.019664
     4  O   -0.036547  -0.010111  -0.000550
     5  H   -0.006042   0.000918   0.000012
     6  C   -0.203364   0.270502  -0.171043
     7  O    0.000937  -0.037950   0.006365
     8  H   -0.001085  -0.003900  -0.000003
     9  C    0.008236   0.004081   0.007886
    10  O    0.000002   0.000000  -0.000168
    11  H    0.000000   0.000000   0.000002
    12  C   -0.045510   0.002932   0.007063
    13  O    0.002694   0.007019  -0.069501
    14  C    0.119247  -0.071845   0.361991
    15  O   -0.000636  -0.000828  -0.064574
    16  C    0.008671   0.048097   0.072925
    17  C    0.000520   0.005006   0.032631
    18  O    0.000004   0.000019  -0.000393
    19  H   -0.000001  -0.000004  -0.000265
    20  C    0.000076   0.001010   0.014755
    21  O    0.000000   0.000000  -0.000021
    22  H    0.000000   0.000000   0.000000
    23  C    0.000631   0.005969   0.000717
    24  O   -0.000004  -0.000081  -0.000186
    25  H    0.000001   0.000002   0.000105
    26  C   -0.001088  -0.013755   0.004352
    27  O    0.000000   0.000015   0.000420
    28  C    0.000013   0.000237   0.001818
    29  O    0.000000   0.000000  -0.000009
    30  H    0.000000   0.000000   0.000000
    31  H    0.000000   0.000000   0.000000
    32  H    0.000000   0.000000  -0.000006
    33  H    0.000000  -0.000002  -0.000038
    34  H   -0.000001   0.000010   0.010835
    35  H    0.000000  -0.000006  -0.000026
    36  H    0.000001   0.000174   0.000055
    37  H    0.000000   0.000000   0.000002
    38  H   -0.000059   0.000006   0.000000
    39  H   -0.000001  -0.000001   0.000012
    40  H   -0.000002   0.000000   0.000006
    41  H    0.001434  -0.000020   0.009383
    42  H    0.005046   0.000455   0.000087
    43  H    0.580362   0.003741   0.000847
    44  H    0.003741   0.559367   0.006310
    45  H    0.000847   0.006310   0.669559
 Mulliken atomic charges:
              1
     1  O   -0.521912
     2  C   -0.405833
     3  C    0.371058
     4  O   -0.520822
     5  H    0.333625
     6  C   -0.356348
     7  O   -0.540967
     8  H    0.371994
     9  C   -0.171942
    10  O   -0.510336
    11  H    0.346383
    12  C    0.406905
    13  O   -0.375081
    14  C    0.281212
    15  O   -0.338074
    16  C    0.208923
    17  C   -0.585260
    18  O   -0.516797
    19  H    0.399422
    20  C    0.440669
    21  O   -0.485555
    22  H    0.354518
    23  C   -0.193193
    24  O   -0.492377
    25  H    0.345009
    26  C    0.157770
    27  O   -0.293547
    28  C    0.081990
    29  O   -0.515996
    30  H    0.354598
    31  H    0.125555
    32  H    0.164005
    33  H    0.162426
    34  H    0.142669
    35  H    0.121047
    36  H    0.146023
    37  H    0.146059
    38  H    0.351682
    39  H    0.142212
    40  H    0.157269
    41  H    0.119033
    42  H    0.158865
    43  H    0.160193
    44  H    0.173537
    45  H    0.099388
 Sum of Mulliken atomic charges =   0.00000
 Mulliken charges with hydrogens summed into heavy atoms:
              1
     1  O   -0.170230
     2  C   -0.246968
     3  C    0.531252
     4  O   -0.187197
     6  C   -0.182812
     7  O   -0.168973
     9  C    0.127539
    10  O   -0.163953
    12  C    0.525939
    13  O   -0.375081
    14  C    0.380600
    15  O   -0.338074
    16  C    0.351592
    17  C   -0.422834
    18  O   -0.117374
    20  C    0.604675
    21  O   -0.131038
    23  C    0.098889
    24  O   -0.147368
    26  C    0.278816
    27  O   -0.293547
    28  C    0.207545
    29  O   -0.161397
 Sum of Mulliken charges with hydrogens summed into heavy atoms =   0.00000
 APT atomic charges:
              1
     1  O   -0.638837
     2  C    0.430752
     3  C    0.340706
     4  O   -0.606012
     5  H    0.230689
     6  C    0.363860
     7  O   -0.600731
     8  H    0.257965
     9  C    0.466789
    10  O   -0.606815
    11  H    0.247257
    12  C    0.412698
    13  O   -0.877832
    14  C    0.966570
    15  O   -0.876879
    16  C    0.423820
    17  C    0.363672
    18  O   -0.663229
    19  H    0.341947
    20  C    0.344380
    21  O   -0.596217
    22  H    0.263271
    23  C    0.477760
    24  O   -0.606135
    25  H    0.255529
    26  C    0.432991
    27  O   -0.829147
    28  C    0.937980
    29  O   -0.677372
    30  H    0.261567
    31  H   -0.073817
    32  H   -0.017981
    33  H   -0.030687
    34  H   -0.028311
    35  H   -0.051602
    36  H   -0.036711
    37  H   -0.019257
    38  H    0.247187
    39  H   -0.013662
    40  H   -0.016549
    41  H   -0.061443
    42  H   -0.033211
    43  H   -0.038226
    44  H   -0.004648
    45  H   -0.062083
 Sum of APT charges=   0.00000
 APT Atomic charges with hydrogens summed into heavy atoms:
[...]
 6947,-0.00005381,-0.00008603,-0.00005503,0.00002332,0.00004154,0.00002
 491,0.00002414,0.00001217,0.00002947,-0.00001133,-0.00008538,-0.000057
 39,-0.00003071,0.00012174,-0.00001057,-0.00000252,0.00000493,0.0000081
 5,-0.00000170,-0.00001302,-0.00000532,-0.00000182,0.00000987,-0.000013
 90,0.00002240,0.00000023,0.00001332,-0.00001973,-0.00000290,-0.0000075
 5,0.00000527,0.00000095,0.00000495,-0.00000177,0.00001665,0.00000472,-
 0.00000661,-0.00002210,-0.00000364,0.00000836,0.00001679,0.00000589,-0
 .00000588,-0.00001683,-0.00000028,0.00000104,0.00000202,0.00000146,-0.
 00000043,-0.00000055,0.00000147,0.00000105,-0.00000260,0.00000335,-0.0
 0000284,0.00000697,0.00000853,-0.00000588,-0.00000503,0.00000372,-0.00
 000145,0.00000231,0.00000456,0.00000133,-0.00000190,0.00000069,-0.0000
 0355,-0.00000145,0.00118494,-0.00049235,-0.00017495,0.00037760,-0.0012
 4886,-0.00032709,0.00004461,0.00002145,0.00005289,-0.00093316,-0.00204
 864,0.00230216,0.28098282,0.00227466,0.00287731,0.00353608,0.13835410,
 -0.13462702,-0.03050275,0.02353746,-0.02555005,-0.00808375,0.00168249,
 0.00348709,-0.00011529,0.00003194,-0.00135753,0.00056390,0.00054943,-0
 .00023166,0.00058262,-0.00065033,0.00008099,-0.00073981,0.00028702,0.0
 0013173,0.00017474,-0.00188068,0.00094190,0.00063841,0.00041273,0.0000
 6702,-0.00030204,0.00009776,0.00004361,-0.00001940,-0.01542085,0.00868
 968,0.00602189,-0.00072229,0.00059086,-0.00162122,-0.00007279,-0.00039
 665,-0.00016639,0.00007210,0.00006578,-0.00009245,-0.00004633,0.000030
 36,0.00001651,0.00001008,-0.00001319,-0.00001793,0.00002816,0.00000145
 ,-0.00001299,-0.00005110,-0.00000285,0.00002577,0.00000074,0.00000229,
 0.00000235,-0.00000294,0.00000660,-0.00000238,0.00000103,-0.00000038,-
 0.00000004,0.00000871,-0.00002397,0.00000761,-0.00001118,0.00002156,-0
 .00001609,-0.00000870,-0.00000312,0.00002076,0.00000972,-0.00000767,0.
 00000462,-0.00000154,0.00001190,-0.00001202,0.00000026,-0.00001360,0.0
 0000828,0.00000065,0.00000313,-0.00000438,0.00000088,-0.00000100,0.000
 00126,-0.00000144,0.00000135,-0.00000067,-0.00000041,0.00000025,-0.000
 00138,0.00000327,0.00000302,-0.00000009,-0.00000179,-0.00000500,0.0000
 0144,-0.00000099,0.00000445,-0.00000328,0.00001125,-0.00000237,0.00000
 718,-0.00000008,0.00000257,-0.00000630,0.00043148,0.00063775,0.0006164
 9,0.00028863,-0.00009610,0.00015993,-0.00016451,-0.00005360,-0.0000646
 0,-0.00171770,-0.00138222,0.00249188,-0.14409197,0.15006135,-0.0420631
 9,0.01970865,-0.01639404,0.05420908,-0.03653749,-0.05250746,0.01121280
 ,-0.00777775,0.00053186,0.00053320,0.00356084,0.00058811,-0.00042282,0
 .00046589,0.00005007,0.00041752,-0.00000393,-0.00004647,-0.00026182,0.
 00020261,-0.00009599,0.00012964,0.00004405,0.00008373,-0.00053565,-0.0
 0166303,0.00026184,-0.00025420,0.00032047,-0.00003126,-0.00011516,-0.0
 0017740,-0.00003875,0.02288293,-0.00906811,-0.00691541,0.00025507,0.00
 026332,0.00223459,0.00010296,-0.00058697,-0.00045432,-0.00002144,0.000
 06041,-0.00006596,0.00000298,-0.00002668,-0.00001872,0.00002783,0.0000
 0605,0.00002345,-0.00007632,0.00000896,-0.00000424,0.00010446,-0.00000
 069,-0.00003380,0.00000432,-0.00001166,0.00000506,-0.00001155,0.000013
 20,-0.00000635,0.00000705,-0.00000564,0.00000182,0.00001054,-0.0000075
 5,-0.00000299,-0.00001241,0.00000495,-0.00000160,0.00000402,0.00000339
 ,0.00000464,0.00001793,0.00000260,-0.00000374,-0.00000926,0.00000420,-
 0.00001298,0.00000606,-0.00000583,0.00001451,-0.00000104,0.00000164,-0
 .00000913,0.00000116,-0.00000164,0.00000138,-0.00000303,0.00000016,-0.
 00000176,-0.00000263,0.00000028,0.00000373,-0.00001294,-0.00000116,-0.
 00001431,-0.00000939,0.00000977,0.00000735,-0.00000597,0.00000361,-0.0
 0000403,0.00000177,-0.00000242,0.00000357,-0.00000112,-0.00000030,-0.0
 0000307,-0.00227235,0.00076354,0.00273087,-0.00009326,0.00060676,0.000
 38572,0.00004693,0.00026277,-0.00002615,0.00139953,0.00271023,-0.00314
 707,-0.04345355,0.02861377,0.07323075,0.00049834,0.00134637,0.00124570
 ,0.01101987,-0.01041998,0.00065841,-0.18226280,0.15358317,-0.03351464,
 -0.02818439,0.01548886,0.00759590,0.00028126,-0.00012858,-0.00074502,-
 0.00563873,0.00838274,-0.00351297,0.00187163,-0.00011242,0.00218975,-0
 .00099021,-0.00050356,-0.00073919,0.00012611,-0.00007617,-0.00012521,-
 0.00013215,-0.00001833,0.00002733,-0.00000979,-0.00000968,0.00002501,0
 .00093746,0.00124761,-0.00049825,0.00005923,-0.00019689,0.00042908,-0.
 00128966,-0.00064450,-0.00031802,0.00033667,0.00009203,-0.00039255,-0.
 00009057,0.00011197,0.00006545,-0.00000785,-0.00002500,-0.00008344,0.0
 0001811,0.00000144,0.00005116,-0.00000294,0.00001070,-0.00005165,0.000
 00471,0.00001834,0.00001438,0.00000340,0.00000152,-0.00000730,-0.00000
 439,-0.00000032,-0.00000233,-0.00002942,0.00005976,-0.00000461,0.00002
 699,-0.00005254,0.00003312,0.00001631,0.00000969,-0.00004360,0.0000127
 4,0.00002391,0.00000275,-0.00000196,-0.00002192,-0.00001234,-0.0000035
 7,0.00000752,0.00000050,0.00000121,-0.00000401,0.00000222,-0.00000090,
 0.00000165,-0.00000084,0.00000172,-0.00000080,0.00000082,0.00000215,-0
 .00000071,-0.00000482,0.00000498,-0.00000404,0.00000495,0.00001642,-0.
 00000264,-0.00000929,0.00000213,-0.00000867,0.00000786,-0.00001589,0.0
 0001003,-0.00001258,0.00000126,-0.00000835,0.00000889,-0.00012822,-0.0
 0006998,-0.00009097,-0.00011323,0.00004688,0.00006321,-0.00000254,-0.0
 0000828,-0.00000474,-0.00012325,0.00017730,0.00007434,-0.00081286,-0.0
 0279861,-0.00139733,0.20466600,-0.00081918,0.00431222,0.00096127,0.021
 29965,-0.02143861,0.00525313,0.15851197,-0.21899678,0.03667261,-0.0077
 7797,0.01038467,-0.00157799,0.00049168,0.00044220,-0.00058241,-0.00166
 812,0.00020150,-0.00334866,-0.00160620,0.00168579,-0.00111551,-0.00031
 629,0.00014439,-0.00007522,-0.00018991,-0.00005889,0.00029058,-0.00028
 275,-0.00017372,-0.00002441,0.00000292,-0.00005903,0.00001974,0.001359
 08,0.00016692,-0.00117250,-0.00041447,0.00018022,0.00030694,0.00035562
 ,-0.00063275,-0.00052430,-0.00006737,0.00013667,0.00001661,0.00004669,
 -0.00000449,-0.00000008,-0.00002626,-0.00003270,-0.00002988,0.00000137
 ,0.00002579,0.00006446,0.00002040,0.00000212,-0.00008297,0.00001075,0.
 00000030,0.00000109,-0.00000579,0.00000979,0.00000270,0.00000194,-0.00
 000057,-0.00000636,0.00000186,-0.00001603,0.00001144,-0.00001087,0.000
 00925,-0.00000380,0.00000606,0.00000609,0.00000598,-0.00000561,-0.0000
 0359,0.00000759,0.00000131,0.00001918,-0.00000323,-0.00000024,-0.00002
 250,0.00000278,-0.00000069,0.00000708,0.00000316,0.00000018,-0.0000014
 1,0.00000025,-0.00000133,0.00000141,-0.00000010,-0.00000085,-0.0000007
 4,-0.00000038,0.00000173,0.00000528,-0.00000246,-0.00000674,-0.0000003
 3,0.00000502,-0.00000384,0.00000033,-0.00000468,0.00000743,0.00000171,
 0.00000180,0.00000062,0.00000251,-0.00000440,-0.00002899,-0.00016916,0
 .00007993,-0.00004631,0.00025116,0.00011864,-0.00003346,-0.00001768,-0
 .00003778,-0.00072355,0.00005332,0.00053485,-0.00166622,-0.00390337,-0
 .00169024,-0.16568406,0.22761001,0.00101587,0.00109719,0.00140290,0.00
 326365,-0.00849566,0.00214699,-0.03667295,0.03713104,-0.05189784,0.024
 21290,-0.01376654,-0.00163298,0.00044470,-0.00099812,0.00122336,-0.021
 29330,0.02114938,-0.00428988,0.00201353,0.00111828,0.00360082,-0.00098
 567,-0.00082437,-0.00049943,0.00000889,-0.00005895,0.00022942,-0.00008
 477,-0.00008782,-0.00000170,0.00000158,-0.00001018,0.00000896,-0.00067
 217,-0.00031200,-0.00077449,0.00043870,0.00052882,-0.00020920,-0.00211
 206,-0.00121508,0.00089840,0.00066421,0.00014240,-0.00114856,-0.000207
 32,0.00019549,0.00024271,0.00003869,-0.00005468,-0.00012567,0.00003544
 ,0.00003405,-0.00000588,-0.00004164,-0.00004333,0.00002737,-0.00000678
 ,0.00001623,0.00004313,-0.00000316,0.00004072,-0.00004230,-0.00000530,
 -0.00001440,0.00000818,-0.00007269,0.00011113,0.00002101,0.00005590,-0
 .00009755,0.00002381,-0.00000013,0.00002215,-0.00004816,0.00003774,0.0
 0003078,0.00006628,0.00000130,-0.00001073,-0.00010341,-0.00000440,-0.0
 0001936,0.00005922,0.00001250,-0.00000389,-0.00004047,0.00000051,0.000
 00010,0.00000580,-0.00000043,0.00000153,-0.00000242,0.00000240,0.00000
 094,-0.00000832,0.00000241,-0.00000822,0.00000826,0.00003323,0.0000000
 4,-0.00003509,0.00000326,-0.00001162,0.00000768,0.00000704,0.00002681,
 -0.00001056,0.00000553,-0.00001807,-0.00000350,0.00028281,-0.00014962,
 -0.00000353,-0.00000060,0.00003529,-0.00000592,-0.00000334,0.00002589,
 0.00000848,0.00005016,0.00002578,0.00007390,0.00014682,-0.00127410,-0.
 00038762,0.02993411,-0.03402082,0.05561240,0.00013222,-0.00036829,-0.0
 0039418,-0.00042182,0.00135509,-0.00017836,-0.01224977,0.00200446,0.00
 002849,0.00106643,-0.00055780,0.00348767,0.00077584,-0.00021806,0.0010
 4316,-0.35356104,0.06052099,0.01109737,0.00442202,0.00544650,0.0020957
 5,0.00035657,0.00022290,0.00030170,0.00001109,0.00000677,0.00001754,0.
 00001728,-0.00000536,-0.00001616,-0.00000010,0.00000647,0.00000435,0.0
 0001653,0.00007251,0.00007696,0.00090900,-0.00104022,-0.00039082,-0.01
 586383,0.00319265,0.00245893,0.00154616,-0.00023339,-0.00069678,0.0000
 7929,0.00006926,0.00020926,0.00004387,0.00000145,-0.00008353,0.0000385
 0,-0.00003280,0.00000004,-0.00004698,0.00002230,-0.00000258,-0.0000048
 0,0.00002256,0.00002293,0.00000833,0.00000158,-0.00001661,-0.00000849,
 -0.00000215,0.00000347,-0.00010080,0.00009031,0.00003551,0.00005919,-0
 .00008144,0.00002676,0.00001710,-0.00000448,-0.00004423,-0.00000595,-0
 .00000916,0.00004642,0.00000044,-0.00002109,-0.00003551,-0.00000368,0.
 00001143,0.00001652,0.00000525,-0.00000799,-0.00001041,-0.00000034,0.0
 0000246,0.00000151,0.00000190,-0.00000086,0.00000061,0.00000335,-0.000
 00050,-0.00000685,0.00000163,-0.00001810,0.00002223,0.00006026,0.00001
 362,-0.00020696,0.00001172,-0.00000972,0.00002155,0.00002228,0.0000501
 2,-0.00001760,0.00001172,-0.00001201,-0.00000431,-0.00010833,-0.000078
 01,-0.00003463,0.00000035,-0.00003667,-0.00001853,0.00000446,0.0000009
 6,0.00000114,0.00014187,0.00001160,0.00002548,0.00014738,-0.00040722,-
 0.00020667,-0.00035499,-0.00055609,-0.00101528,0.37300255,0.00012879,0
 .00014977,0.00009772,0.00010333,-0.00043532,0.00040407,0.00047337,0.00
 341115,0.00273949,0.00038838,0.00013706,-0.00047794,-0.00018799,0.0001
 6523,-0.00028206,0.05535442,-0.05359303,0.00050384,0.03322230,-0.02410
 754,-0.01305460,0.00168639,0.00070907,-0.00017559,0.00004746,0.0000786
 6,0.00002370,-0.00001709,-0.00004776,-0.00001293,0.00001061,0.00001237
 ,0.00001060,-0.00000737,0.00009965,0.00010573,0.00184678,0.00076621,-0
 .00044346,-0.02527493,0.00783104,0.00244239,0.00185790,0.00041023,-0.0
 0142559,-0.00002017,0.00021795,0.00000695,0.00003242,-0.00002348,-0.00
 013569,0.00006070,-0.00006587,0.00006562,-0.00005071,0.00010412,-0.000
 01308,0.00000476,0.00003054,-0.00000071,0.00000687,-0.00000463,0.00001
 301,-0.00000529,0.00000828,-0.00000846,0.00014897,-0.00024543,-0.00003
 086,-0.00010933,0.00020201,-0.00012659,-0.00008890,-0.00003667,0.00022
 990,0.00000762,-0.00006406,0.00001889,0.00000560,0.00003628,0.00001442
 ,-0.00001046,-0.00002470,-0.00000914,0.00000172,0.00000984,0.00001334,
 -0.00000017,-0.00000229,-0.00000018,0.00000122,0.00000293,0.00000094,0
 .00000344,-0.00000133,-0.00000685,0.00000775,-0.00002232,0.00001975,0.
 00014266,-0.00009078,-0.00008343,0.00001368,0.00003556,0.00001974,0.00
 005039,-0.00001858,0.00003469,-0.00001324,0.00003544,-0.00001899,0.000
 03451,0.00003267,-0.00000833,-0.00000133,-0.00003255,-0.00001685,-0.00
 000625,-0.00000910,-0.00000764,0.00011610,-0.00002057,0.00003819,-0.00
 020253,-0.00002641,-0.00023680,0.00015738,-0.00014797,-0.00040281,-0.0
 6801021,0.06762534,-0.00013248,-0.00105950,-0.00103501,-0.00010955,0.0
 0193935,-0.00027370,-0.03081755,0.00587558,-0.00197300,-0.00119299,0.0
 0020145,0.00018138,0.00022066,0.00004198,0.00055001,0.01365041,-0.0002
 7478,-0.04263021,0.01471961,-0.01158916,-0.00163246,-0.00011444,0.0005
 6652,-0.00007537,-0.00003352,0.00006405,0.00009003,-0.00003908,-0.0000
 6765,0.00003680,0.00000672,-0.00000401,-0.00001132,-0.00027868,0.00004
 213,-0.00050483,-0.00095452,0.00073188,0.00038069,0.02425125,-0.003634
 19,-0.00149943,-0.00146504,-0.00088713,0.00250699,0.00021457,-0.000272
 77,-0.00042040,-0.00005251,0.00005506,0.00019474,-0.00007331,0.0000111
 6,-0.00005494,0.00005707,-0.00004200,0.00004927,-0.00000054,-0.0000383
 6,-0.00003142,-0.00000650,-0.00003497,0.00002988,0.00000882,0.00000733
 ,-0.00000140,0.00028079,-0.00023606,-0.00018443,-0.00020351,0.00020946
 ,-0.00002430,0.00000916,0.00000533,0.00012029,-0.00000356,0.00004501,-
 0.00008992,-0.00005882,-0.00003868,0.00014428,0.00002938,0.00006199,-0
 .00005955,-0.00002479,-0.00000589,0.00004416,0.00000104,-0.00000126,-0
 .00000794,-0.00000250,-0.00000331,-0.00000077,-0.00000570,-0.00000163,
 0.00001201,-0.00000979,0.00004013,-0.00002166,-0.00022572,0.00007023,0
 .00011001,-0.00003467,0.00002426,-0.00005682,-0.00003517,-0.00012687,-
 0.00003189,-0.00002558,0.00001360,0.00001889,-0.00013183,-0.00009576,-
 0.00006354,-0.00000082,-0.00000655,-0.00000740,0.00002665,0.00003136,-
 0.00000075,-0.00000235,0.00000095,-0.00008262,0.00002683,-0.00047467,-
 0.00013993,-0.00076325,-0.00025977,-0.00409773,-0.01876119,0.00708895,
 0.05274989,0.00017799,0.00005041,0.00014889,-0.00031570,0.00019466,0.0
 0010972,-0.00056621,-0.00004478,-0.00053050,0.00016684,-0.00024255,0.0
 0038575,0.00004251,0.00001701,0.00023947,-0.01808261,0.00669268,0.0079
 7538,0.00217235,0.00102622,-0.00117322,0.00052288,0.00006411,-0.000368
 04,0.00050892,-0.00033674,0.00003539,-0.00001948,-0.00001274,-0.000014
 43,-0.00000357,0.00002074,0.00003018,0.00263844,-0.00160310,0.00032113
 ,0.01028337,-0.00351979,-0.00326522,-0.28965456,0.10663441,0.06547167,
 -0.02039215,0.01211825,-0.01167136,0.00028662,-0.00146446,0.00431044,0
 .00035241,-0.00008042,-0.00019546,0.00023888,-0.00010729,-0.00005764,-
 0.00031241,-0.00001519,0.00011022,0.00006352,0.00005745,0.00008953,0.0
 0001122,0.00004874,-0.00006432,-0.00002539,-0.00002147,0.00001404,-0.0
 0031397,0.00039390,-0.00004830,0.00026144,-0.00022098,0.00007177,-0.00
 003084,-0.00016925,-0.00017475,0.00047197,-0.00008480,0.00014372,-0.00
 002744,-0.00014328,-0.00049263,-0.00005162,-0.00006650,0.00014230,0.00
 003954,-0.00001197,-0.00008726,-0.00000026,0.00000447,0.00001162,0.000
 00909,0.00000788,-0.00000234,0.00001572,0.00001170,-0.00004949,-0.0000
 4194,-0.00028871,0.00020038,0.00128704,-0.00034108,-0.00127769,0.00022
 720,0.00005207,0.00028006,-0.00000548,0.00003052,-0.00006689,0.0000149
 8,-0.00004801,0.00001479,-0.00000238,-0.00001746,-0.00003080,-0.000182
 53,-0.00011137,-0.00013414,-0.00002832,0.00009393,0.00004224,0.0004128
 7,0.00073748,0.00134582,-0.00000145,-0.00004107,-0.00013470,0.00029158
 ,-0.00017808,0.00046808,-0.00018367,-0.00190954,0.00205703,0.30974463,
 0.00010835,0.00035970,-0.00029462,-0.00043035,-0.00036768,-0.00001542,
 0.00005033,0.00020387,-0.00060091,0.00007768,0.00012431,0.00021048,0.0
 0013650,-0.00004017,0.00015670,-0.01995672,0.00673219,0.00665917,-0.00
 039795,0.00137787,0.00053497,-0.00002821,0.00033485,-0.00016095,-0.000
 40904,0.00017754,-0.00017897,-0.00010686,-0.00002897,0.00009824,0.0000
 0756,-0.00003028,-0.00007497,0.00467946,0.00006539,0.00383108,0.022100
 99,-0.03509243,-0.02286997,0.10402754,-0.08521140,-0.02283702,0.010557
 20,0.00137806,0.00492177,0.00063722,-0.00009324,-0.00137967,-0.0000605
 7,-0.00005395,0.00019190,-0.00033095,0.00036036,0.00009253,0.00058924,
 -0.00034208,-0.00077522,0.00000589,-0.00003728,0.00001964,-0.00002612,
 0.00003247,-0.00002577,0.00001177,-0.00002015,0.00000641,-0.00002853,0
 .00004292,-0.00005500,-0.00000749,-0.00004172,0.00003556,0.00001426,0.
 00001204,-0.00005264,-0.00011962,0.00015573,-0.00003439,-0.00004866,0.
 00003578,0.00010161,0.00002965,0.00002229,0.00001776,-0.00000571,-0.00
 000605,-0.00001783,0.00000062,-0.00000183,0.00000281,-0.00000501,-0.00
 000197,-0.00000546,-0.00001065,-0.00000575,0.00002279,-0.00000716,0.00
 010615,-0.00008956,-0.00047789,0.00019498,0.00074011,-0.00015004,-0.00
 003240,-0.00007210,-0.00001794,-0.00003565,-0.00000016,-0.00000038,-0.
 00002220,0.00000599,-0.00003467,-0.00003364,-0.00006637,-0.00000743,0.
 00027139,0.00021227,-0.00016308,-0.00009984,-0.00001728,-0.00145370,0.
 00078533,-0.00048174,-0.00018032,-0.00006624,0.00016318,0.00002120,0.0
 0002041,0.00016387,-0.00141438,-0.00309099,0.00202720,-0.11717604,0.11
 196230,-0.00010543,-0.00004221,-0.00021257,-0.00012331,0.00023727,-0.0
 0016150,0.00015480,-0.00054945,0.00054417,-0.00021078,0.00004593,0.000
 11597,-0.00019955,-0.00002717,-0.00010645,0.02516210,-0.00528024,-0.00
 339446,-0.00197707,-0.00134175,0.00085884,-0.00030211,-0.00017897,0.00
 009116,-0.00033911,0.00004122,-0.00010134,-0.00004247,-0.00000222,0.00
 003596,0.00000532,-0.00002999,-0.00002502,0.00361586,-0.00140992,0.002
 61457,0.00791600,-0.01889430,-0.00653736,0.07137928,-0.02588021,-0.059
 70159,-0.03575481,0.01790500,-0.01474850,-0.00664142,0.00180079,0.0033
 2165,0.00011984,0.00020351,-0.00047304,0.00015779,0.00001482,0.0002584
 0,-0.00006810,0.00002551,-0.00031972,0.00007163,0.00004383,0.00004828,
 0.00001565,0.00005238,-0.00003618,-0.00001534,-0.00001701,-0.00000190,
 -0.00009605,0.00014863,-0.00002228,0.00008258,-0.00010603,0.00001617,-
 0.00000129,-0.00001803,0.00001245,-0.00052074,0.00007683,0.00015361,0.
 00025757,-0.00002582,-0.00022853,-0.00006453,-0.00006692,0.00007205,0.
 00003076,0.00000823,-0.00005169,-0.00000076,-0.00000037,0.00000937,0.0
 0000155,0.00000076,0.00000791,0.00001746,0.00001159,-0.00005305,0.0002
 2820,-0.00023011,-0.00003759,0.00127296,-0.00044718,-0.00023986,0.0002
 3188,-0.00015633,-0.00005825,0.00002051,0.00002689,-0.00007258,0.00001
 446,-0.00001617,-0.00001512,-0.00000281,0.00002528,0.00000721,-0.00005
 001,0.00020606,0.00008015,-0.00005694,-0.00006922,-0.00002576,-0.00092
 017,0.00069259,0.00009274,-0.00007884,0.00003852,0.00020411,-0.0001000
 0,0.00020737,-0.00034442,0.00109588,0.00308665,-0.00220659,-0.06418046
 ,0.02988998,0.08063057\\0.01342266,-0.00859199,-0.00943860,0.00767663,
 0.01249525,0.00326307,-0.02624571,0.02545021,0.02067179,-0.00785848,-0
 .02457148,0.03771786,-0.00345179,-0.00421517,-0.02980162,0.00746468,-0
 .01080555,-0.02275748,-0.00527781,-0.02366752,0.01018887,0.00421485,0.
 02818099,-0.01388778,0.00571729,0.01250821,0.00040324,0.02006389,-0.01
 768120,-0.01125423,-0.03105694,0.00341634,-0.00168670,0.00482290,-0.00
 368797,-0.00641720,-0.00537635,0.01557412,-0.00422738,0.01597129,0.017
 61753,-0.02308797,-0.00149717,-0.00644321,0.06441009,-0.03411066,-0.01
 396608,0.02236742,0.02625853,-0.01877575,0.00377389,-0.01237569,-0.014
 37794,0.01465646,0.01197474,0.01412622,-0.01448403,-0.03354395,0.00840
 104,0.01644632,0.02096217,0.03438751,0.00951468,-0.00806094,-0.0166053
 7,-0.02222359,0.01504629,-0.00873531,0.03614118,0.02523407,0.00303495,
 0.00157868,-0.02853027,0.01218070,-0.01555054,0.03216390,-0.00240709,-
 0.05112676,0.01948497,0.01387600,-0.01967876,0.01044333,-0.01591796,-0
 .03053388,-0.00075582,-0.00555201,0.02060194,-0.00378872,-0.00309860,-
 0.00231976,-0.01927654,0.00866259,-0.00005342,0.01670122,-0.00184974,-
 0.00306563,-0.01892930,0.00341734,-0.00020151,0.01634600,-0.00752592,0
 .00258353,-0.02270593,0.00892489,0.00446426,-0.01218605,0.00202707,0.0
 1697730,-0.00565335,-0.00419757,-0.01460539,-0.00232601,0.00270832,0.0
 0312788,-0.01406366,0.01302998,0.00265932,0.00411790,-0.00864603,0.016
 86612,0.01902135,-0.01114650,-0.00913354,-0.01701990,0.01002068,-0.003
 45583,0.01377591,-0.01193637,-0.00019531,-0.01674078,0.00513626,0.0046
 4137,0.01994725,-0.01077387,-0.00386835\\\@


 CONTRAIWISE...CONTINUED TWEEDLEDEE, IF IT WAS SO, IT MIGHT BE,
 AND IF IT WERE SO, IT WOULD BE.....
 BUT AS IT ISN'T, IT AIN'T....
 THAT'S LOGIC.....
 ALICE THROUGH THE LOOKING GLASS
 Job cpu time:  0 days 12 hours 56 minutes 59.7 seconds.
 File lengths (MBytes):  RWF=   1324 Int=      0 D2E=      0 Chk=     19 Scr=      1
 Normal termination of Gaussian 09 at Tue Mar  1 16:51:17 2016.
Gaussian '09 finished on node007 at Tue Mar  1 16:51:17 EST 2016.
