Gaussian '09 started on node029 at Mon Feb 29 14:22:26 EST 2016.
 Entering Gaussian System, Link 0=/usr/local/gaussian/g09/g09
 Initial command:
 /usr/local/gaussian/g09/l1.exe /home/srmcgrat/thesis/gaussian/cellobiose/280/6000/2/gdp/gaussian25197/Gau-25233.inp -scrdir=/home/srmcgrat/thesis/gaussian/cellobiose/280/6000/2/gdp/gaussian25197/
 Entering Link 1 = /usr/local/gaussian/g09/l1.exe PID=     25235.
  
 Copyright (c) 1988,1990,1992,1993,1995,1998,2003,2009,2010,
            Gaussian, Inc.  All Rights Reserved.
  
 This is part of the Gaussian(R) 09 program.  It is based on
 the Gaussian(R) 03 system (copyright 2003, Gaussian, Inc.),
 the Gaussian(R) 98 system (copyright 1998, Gaussian, Inc.),
 the Gaussian(R) 94 system (copyright 1995, Gaussian, Inc.),
 the Gaussian 92(TM) system (copyright 1992, Gaussian, Inc.),
 the Gaussian 90(TM) system (copyright 1990, Gaussian, Inc.),
 the Gaussian 88(TM) system (copyright 1988, Gaussian, Inc.),
 the Gaussian 86(TM) system (copyright 1986, Carnegie Mellon
 University), and the Gaussian 82(TM) system (copyright 1983,
 Carnegie Mellon University). Gaussian is a federally registered
 trademark of Gaussian, Inc.
  
 This software contains proprietary and confidential information,
 including trade secrets, belonging to Gaussian, Inc.
  
 This software is provided under written license and may be
 used, copied, transmitted, or stored only in accord with that
 written license.
  
 The following legend is applicable only to US Government
 contracts under FAR:
  
                    RESTRICTED RIGHTS LEGEND
  
 Use, reproduction and disclosure by the US Government is
 subject to restrictions as set forth in subparagraphs (a)
 and (c) of the Commercial Computer Software - Restricted
 Rights clause in FAR 52.227-19.
  
 Gaussian, Inc.
 340 Quinnipiac St., Bldg. 40, Wallingford CT 06492
  
  
 ---------------------------------------------------------------
 Warning -- This program may not be used in any manner that
 competes with the business of Gaussian, Inc. or will provide
 assistance to any competitor of Gaussian, Inc.  The licensee
 of this program is prohibited from giving any competitor of
 Gaussian, Inc. access to this program.  By using this program,
 the user acknowledges that Gaussian, Inc. is engaged in the
 business of creating and licensing software in the field of
 computational chemistry and represents and warrants to the
 licensee that it is not a competitor of Gaussian, Inc. and that
 it will not use this program in any manner prohibited above.
 ---------------------------------------------------------------
  

 Cite this work as:
 Gaussian 09, Revision B.01,
 M. J. Frisch, G. W. Trucks, H. B. Schlegel, G. E. Scuseria, 
 M. A. Robb, J. R. Cheeseman, G. Scalmani, V. Barone, B. Mennucci, 
 G. A. Petersson, H. Nakatsuji, M. Caricato, X. Li, H. P. Hratchian, 
 A. F. Izmaylov, J. Bloino, G. Zheng, J. L. Sonnenberg, M. Hada, 
 M. Ehara, K. Toyota, R. Fukuda, J. Hasegawa, M. Ishida, T. Nakajima, 
 Y. Honda, O. Kitao, H. Nakai, T. Vreven, J. A. Montgomery, Jr., 
 J. E. Peralta, F. Ogliaro, M. Bearpark, J. J. Heyd, E. Brothers, 
 K. N. Kudin, V. N. Staroverov, T. Keith, R. Kobayashi, J. Normand, 
 K. Raghavachari, A. Rendell, J. C. Burant, S. S. Iyengar, J. Tomasi, 
 M. Cossi, N. Rega, J. M. Millam, M. Klene, J. E. Knox, J. B. Cross, 
 V. Bakken, C. Adamo, J. Jaramillo, R. Gomperts, R. E. Stratmann, 
 O. Yazyev, A. J. Austin, R. Cammi, C. Pomelli, J. W. Ochterski, 
 R. L. Martin, K. Morokuma, V. G. Zakrzewski, G. A. Voth, 
 P. Salvador, J. J. Dannenberg, S. Dapprich, A. D. Daniels, 
 O. Farkas, J. B. Foresman, J. V. Ortiz, J. Cioslowski, 
 and D. J. Fox, Gaussian, Inc., Wallingford CT, 2010.
 
 ******************************************
 Gaussian 09:  EM64L-G09RevB.01 12-Aug-2010
                29-Feb-2016 
 ******************************************
 ------------------------------------------------
 # freq=raman b3lyp/6-31+g(d,p) geom=connectivity
 ------------------------------------------------
 1/10=4,30=1,38=1,57=2/1,3;
 2/12=2,17=6,18=5,40=1/2;
 3/5=1,6=6,7=111,11=2,16=1,25=1,30=1,71=2,74=-5/1,2,3;
 4//1;
 5/5=2,38=5,98=1/2;
 8/6=4,10=90,11=11/1;
 10/13=10,15=4/2;
 11/6=3,8=1,9=11,15=111,16=1/1,2,10;
 10/6=1/2;
 6/7=2,8=2,9=2,10=2,18=1,28=1/1;
 7/8=1,10=1,25=1/1,2,3,16;
 1/10=4,30=1/3;
 99//99;
 --------
 6000.pdb
 --------
 Symbolic Z-matrix:
 Charge =  0 Multiplicity = 1
 O                     7.83091   7.7444    22.81825 
 C                     8.335     8.129     24.1 
 C                     7.651     9.409     24.553 
 O                     7.877     10.504    23.653 
 H                     7.99      10.172    22.716 
 C                     7.953     9.707     26.012 
 O                     6.943     10.629    26.446 
 H                     7.133     11.097    27.31 
 C                     8.438     5.586     24.846 
 O                     7.883     4.811     23.773 
 H                     7.875     3.855     24.066 
 C                     8.048     7.031     25.11 
 O                     8.625     7.399     26.372 
 C                     7.913     8.507     26.943 
 O                     8.684     8.779     28.122 
 C                     7.988     8.426     29.326 
 C                     8.473     7.069     29.809 
 O                     8.367     6.032     28.823 
 H                     8.522     6.377     27.897 
 C                     7.943     6.708     31.187 
 O                     8.624     5.629     31.844 
 H                     8.23      5.398     32.733 
 C                     7.596     10.901    30.095 
 O                     7.692     11.669    28.887 
 H                     7.738     12.629    29.163 
 C                     8.181     9.524     30.36 
 O                     7.591     9.034     31.574 
 C                     8.181     7.86      32.15 
 O                     7.427     7.556     33.333 
 H                     8.02908   7.3699    34.0572 
 H                     9.22081   7.99662   32.36218 
 H                     6.8961    6.49455   31.12915 
 H                     9.52595   7.19477   29.95173 
 H                     6.94399   8.35162   29.10371 
 H                     9.23199   9.63989   30.52396 
 H                     8.00353   11.52959   30.859 
 H                     6.54684   10.79908   30.27881 
 H                     6.90771   8.23675   27.19049 
 H                     8.91211   10.17587   26.08389 
 H                     6.60055   9.21026   24.50872 
 H                     9.39087   8.29016   24.0362 
 H                     6.98708   7.0295    25.24906 
 H                     8.23354   5.04681   25.74732 
 H                     9.49916   5.57811   24.70895 
 H                     8.56511   7.56663   22.22584 
 

 GradGradGradGradGradGradGradGradGradGradGradGradGradGradGradGradGradGrad
 Berny optimization.
 Initialization pass.
 Trust Radius=3.00D-01 FncErr=1.00D-07 GrdErr=1.00D-07
 Number of steps in this run=      2 maximum allowed number of steps=      2.
 GradGradGradGradGradGradGradGradGradGradGradGradGradGradGradGradGradGrad

                          Input orientation:                          
 ---------------------------------------------------------------------
 Center     Atomic      Atomic             Coordinates (Angstroms)
 Number     Number       Type             X           Y           Z
 ---------------------------------------------------------------------
      1          8           0        7.830913    7.744395   22.818253
      2          6           0        8.335000    8.129000   24.100000
      3          6           0        7.651000    9.409000   24.553000
      4          8           0        7.877000   10.504000   23.653000
      5          1           0        7.990000   10.172000   22.716000
      6          6           0        7.953000    9.707000   26.012000
      7          8           0        6.943000   10.629000   26.446000
      8          1           0        7.133000   11.097000   27.310000
      9          6           0        8.438000    5.586000   24.846000
     10          8           0        7.883000    4.811000   23.773000
     11          1           0        7.875000    3.855000   24.066000
     12          6           0        8.048000    7.031000   25.110000
     13          8           0        8.625000    7.399000   26.372000
     14          6           0        7.913000    8.507000   26.943000
     15          8           0        8.684000    8.779000   28.122000
     16          6           0        7.988000    8.426000   29.326000
     17          6           0        8.473000    7.069000   29.809000
     18          8           0        8.367000    6.032000   28.823000
     19          1           0        8.522000    6.377000   27.897000
     20          6           0        7.943000    6.708000   31.187000
     21          8           0        8.624000    5.629000   31.844000
     22          1           0        8.230000    5.398000   32.733000
     23          6           0        7.596000   10.901000   30.095000
     24          8           0        7.692000   11.669000   28.887000
     25          1           0        7.738000   12.629000   29.163000
     26          6           0        8.181000    9.524000   30.360000
     27          8           0        7.591000    9.034000   31.574000
     28          6           0        8.181000    7.860000   32.150000
     29          8           0        7.427000    7.556000   33.333000
     30          1           0        8.029081    7.369900   34.057200
     31          1           0        9.220814    7.996620   32.362183
     32          1           0        6.896103    6.494554   31.129147
     33          1           0        9.525953    7.194772   29.951727
     34          1           0        6.943990    8.351621   29.103713
     35          1           0        9.231994    9.639885   30.523960
     36          1           0        8.003526   11.529593   30.858999
     37          1           0        6.546844   10.799085   30.278807
     38          1           0        6.907707    8.236749   27.190490
     39          1           0        8.912109   10.175873   26.083885
     40          1           0        6.600552    9.210259   24.508717
     41          1           0        9.390868    8.290163   24.036205
     42          1           0        6.987076    7.029502   25.249058
     43          1           0        8.233537    5.046813   25.747317
     44          1           0        9.499157    5.578109   24.708946
     45          1           0        8.565107    7.566633   22.225835
 ---------------------------------------------------------------------
                    Distance matrix (angstroms):
                    1          2          3          4          5
     1  O    0.000000
     2  C    1.430000   0.000000
     3  C    2.410938   1.520350   0.000000
     4  O    2.883461   2.459715   1.435305   0.000000
     5  H    2.434960   2.491652   2.017835   1.000481   0.000000
     6  C    3.750566   2.508337   1.519437   2.491158   3.328845
     7  O    4.719097   3.700186   2.360744   2.947682   3.901020
     8  H    5.648259   4.534085   3.273945   3.778734   4.763918
     9  C    3.023075   2.652164   3.914147   5.091630   5.076318
    10  O    3.085298   3.364574   4.669457   5.694268   5.465256
    11  H    4.084876   4.298818   5.579808   6.661815   6.460667
    12  C    2.410013   1.519234   2.474418   3.770122   3.949744
    13  O    3.657730   2.403952   2.880545   4.194459   4.632396
    14  C    4.195455   2.898899   2.567946   3.848819   4.543752
    15  O    5.470639   4.089106   3.768521   4.857863   5.625560
    16  C    6.545230   5.245922   4.884812   6.042626   6.836711
    17  C    7.052587   5.808212   5.811783   7.074657   7.757097
    18  O    6.267110   5.167704   5.490873   6.853305   7.387637
    19  H    5.304813   4.185891   4.597173   5.954804   6.444207
    20  C    8.433422   7.238679   7.168725   8.436535   9.152013
    21  O    9.304192   8.142669   8.270055   9.561177  10.215732
    22  H   10.196423   9.055279   9.128842  10.423159  11.099052
    23  C    7.935388   6.646061   5.739586   6.460335   7.425383
    24  O    7.228520   5.988357   4.888030   5.365278   6.356969
    25  H    8.007734   6.800028   5.623884   5.907203   6.903924
    26  C    7.756771   6.415399   5.832270   6.785032   7.673794
    27  O    8.853459   7.565265   7.031263   8.061324   8.939710
    28  C    9.339027   8.055965   7.771403   8.904053   9.715049
    29  O   10.524188   9.295218   8.976201  10.128949  10.949023
    30  H   11.246930   9.990778   9.727830  10.867064  11.682299
    31  H    9.647903   8.310587   8.089652   9.162023   9.964739
    32  H    8.456177   7.358719   7.232536   8.539941   9.246690
    33  H    7.352666   6.044325   6.128989   7.303697   7.973630
    34  H    6.376705   5.198232   4.725135   5.934098   6.723897
    35  H    8.058153   6.659928   6.181037   7.056401   7.924010
    36  H    8.888819   7.573504   6.662342   7.279716   8.255402
    37  H    8.163322   6.964518   5.994694   6.764444   7.724764
    38  H    4.495684   3.405863   2.980437   4.312051   4.993757
    39  H    4.212532   2.908358   2.126523   2.662390   3.491841
    40  H    2.553471   2.084342   1.070000   2.008815   2.463604
    41  H    2.052980   1.070000   2.132138   2.709191   2.691966
    42  H    2.670570   2.084738   2.566575   3.925749   4.159031
    43  H    4.002308   3.496258   4.560089   5.856122   5.959508
    44  H    3.324237   2.869342   4.256258   5.292525   5.230031
    45  H    0.960000   1.970203   3.105737   3.337427   2.712738
                    6          7          8          9         10
     6  C    0.000000
     7  O    1.434761   0.000000
     8  H    2.071063   1.000810   0.000000
     9  C    4.310153   5.497897   6.176200   0.000000
    10  O    5.384128   6.471295   7.251666   1.435263   0.000000
    11  H    6.167569   7.240173   7.969985   1.980336   0.999924
    12  C    2.825527   3.993936   4.712704   1.519810   2.596766
    13  O    2.430648   3.642458   4.096476   2.377102   3.742073
    14  C    1.519329   2.385538   2.729687   3.633906   4.869314
    15  O    2.418190   3.043445   2.904835   4.581260   5.941416
    16  C    3.553137   3.773544   3.453914   5.323392   6.626844
    17  C    4.652596   5.130718   4.925991   5.179950   6.471473
    18  O    4.645292   5.367524   5.428273   4.002560   5.218007
    19  H    3.868577   4.762158   4.955027   3.152989   4.457359
    20  C    5.981198   6.233083   5.911899   6.458498   7.653078
    21  O    7.147905   7.547461   7.258048   7.000603   8.146118
    22  H    7.988495   8.279257   7.942980   7.891982   8.985910
    23  C    4.268955   3.716933   2.830019   7.517326   8.782833
    24  O    3.490443   2.757006   1.768218   7.340919   8.556964
    25  H    4.302686   3.466138   2.479245   8.290376   9.497065
    26  C    4.357818   4.251243   3.588194   6.780714   8.104921
    27  O    5.614251   5.409280   4.758931   7.607371   8.875505
    28  C    6.413925   6.460311   5.916255   7.654119   8.919604
    29  O    7.648563   7.557007   6.992971   8.771100   9.956734
    30  H    8.378130   8.350549   7.760086   9.391257  10.598777
    31  H    6.697580   6.864334   6.284575   7.932017   9.258076
    32  H    6.133681   6.247216   5.985359   6.533059   7.610599
    33  H    4.930205   5.545781   5.285104   5.462622   6.823367
    34  H    3.523328   3.499985   3.284850   5.292338   6.467939
    35  H    4.690215   4.779916   4.105910   7.021655   8.409125
    36  H    5.178590   4.627131   3.679720   8.465885   9.765521
    37  H    4.623372   3.856978   3.040748   7.763254   8.942483
    38  H    2.154788   2.505669   2.871598   3.855502   4.936212
    39  H    1.070000   2.052765   2.348843   4.777455   5.931367
    40  H    2.082241   2.425523   3.419134   4.077405   4.641060
    41  H    2.824652   4.155638   4.867652   2.979299   3.800989
    42  H    2.946878   3.793547   4.562162   2.085985   2.811259
    43  H    4.676120   5.771867   6.344913   1.070000   2.019013
    44  H    4.597423   5.921385   6.543878   1.070000   2.019013
    45  H    4.392140   5.460688   6.353200   3.286993   3.233033
                   11         12         13         14         15
    11  H    0.000000
    12  C    3.347662   0.000000
    13  O    4.294190   1.435617   0.000000
    14  C    5.469888   2.357263   1.435496   0.000000
    15  O    6.430505   3.540077   2.229435   1.434736   0.000000
    16  C    6.969534   4.441203   3.191648   2.385555   1.434797
    17  C    6.608286   4.718333   3.456150   3.255058   2.411346
    18  O    5.254564   3.858255   2.818271   3.141041   2.852700
    19  H    4.632025   2.901682   1.838673   2.412032   2.417948
    20  C    7.671563   6.086484   4.911907   4.609646   3.772578
    21  O    8.012825   6.902473   5.751146   5.727845   4.876411
    22  H    8.810435   7.798073   6.679996   6.579549   5.735730
    23  C    9.277543   6.327040   5.213787   3.970747   3.095054
    24  O    9.183361   5.991954   5.042679   3.718363   3.149824
    25  H   10.147968   6.918129   5.994110   4.685073   4.098914
    26  C    8.476180   5.813367   4.540584   3.575193   2.411779
    27  O    9.125391   6.782636   5.550062   4.671999   3.629873
    28  C    9.026889   7.089889   5.813342   5.253883   4.162013
    29  O    9.988763   8.263110   7.065081   6.478634   5.498209
    30  H   10.592560   8.953636   7.708324   7.205436   6.135232
    31  H    9.369679   7.409593   6.049333   5.598072   4.345048
    32  H    7.603521   6.151811   5.141747   4.754771   4.178302
    33  H    6.965738   5.064927   3.697008   3.657321   2.562531
    34  H    6.816519   4.348864   3.345973   2.373142   2.043049
    35  H    8.775624   6.125283   4.756972   3.980760   2.609757
    36  H   10.249913   7.300021   6.130349   4.947657   3.939539
    37  H    9.411869   6.570274   5.580542   4.271726   3.646916
    38  H    5.467889   2.661303   2.078664   1.070000   2.077730
    39  H    6.715720   3.403728   2.806504   2.126366   2.481370
    40  H    5.522592   2.684366   3.294067   2.853564   4.193156
    41  H    4.687154   2.131155   2.614702   3.268114   4.175206
    42  H    3.502213   1.070000   2.019981   2.431003   3.767505
    43  H    2.091840   2.092270   2.465006   3.674955   4.446488
    44  H    2.453644   2.092270   2.616399   4.010648   4.749645
    45  H    4.199842   2.978709   4.149984   4.853986   6.020692
                   16         17         18         19         20
    16  C    0.000000
    17  C    1.519856   0.000000
    18  O    2.475457   1.434852   0.000000
    19  H    2.554525   2.033964   1.000263   0.000000
    20  C    2.533154   1.519903   2.495045   3.356919   0.000000
    21  O    3.816809   2.497524   3.058578   4.018547   1.435148
    22  H    4.564537   3.376546   3.963436   4.942732   2.046603
    23  C    2.621192   3.941465   5.091128   5.114221   4.346737
    24  O    3.285938   4.756054   5.677631   5.447409   5.473986
    25  H    4.213583   5.645453   6.635635   6.426890   6.260738
    26  C    1.520529   2.532961   3.819821   4.010768   2.944559
    27  O    2.362367   2.784668   4.145139   4.631062   2.384103
    28  C    2.886621   2.488217   3.800672   4.517032   1.520236
    29  O    4.138559   3.708081   4.852451   5.669141   2.364461
    30  H    4.847812   4.281916   5.413041   6.259143   2.946789
    31  H    3.304936   2.817525   4.136973   4.800976   2.162037
    32  H    2.859032   2.135271   2.774132   3.619964   1.070000
    33  H    2.067065   1.070000   1.992294   2.428698   2.066056
    34  H    1.070000   2.116699   2.735763   2.800964   2.835418
    35  H    2.110959   2.774291   4.081460   4.248698   3.270639
    36  H    3.461591   4.606495   5.873749   5.965858   4.833116
    37  H    2.935354   4.224255   5.306358   5.397136   4.417131
    38  H    2.400678   3.266554   3.107337   2.561984   4.402386
    39  H    3.798334   4.870519   4.997157   4.227411   6.245566
    40  H    5.074080   6.015318   5.642226   4.816615   7.256923
    41  H    5.474342   5.971506   5.390827   4.395551   7.465483
    42  H    4.424196   4.796103   3.958821   3.129433   6.022982
    43  H    4.928099   4.543550   3.232372   2.544355   5.695095
    44  H    5.631276   5.411683   4.291065   3.428812   6.757475
    45  H    7.175229   7.600034   6.776203   5.794756   9.023677
                   21         22         23         24         25
    21  O    0.000000
    22  H    0.999459   0.000000
    23  C    5.648873   6.135471   0.000000
    24  O    6.789262   7.376083   1.434679   0.000000
    25  H    7.548030   8.079253   1.968444   0.999946   0.000000
    26  C    4.191602   4.759980   1.519401   2.647617   3.357094
    27  O    3.568475   3.869380   2.381839   3.764757   4.331115
    28  C    2.295048   2.530560   3.716575   5.039322   5.644624
    29  O    2.713533   2.379448   4.658565   6.062500   6.574264
    30  H    2.878005   2.383749   5.324965   6.732522   7.189997
    31  H    2.496062   2.805716   4.026855   5.282097   5.821723
    32  H    2.060540   2.356704   4.579966   5.695223   6.496611
    33  H    2.616459   3.555751   4.181073   4.951337   5.774920
    34  H    4.212395   4.852775   2.811957   3.407563   4.350855
    35  H    4.266071   4.886455   2.109714   3.027957   3.608190
    36  H    6.014334   6.415575   1.070000   2.001315   2.038532
    37  H    5.787416   6.166668   1.070000   2.001315   2.452033
    38  H    5.603675   6.366033   4.001020   3.908147   4.885903
    39  H    7.344112   8.216086   4.283339   3.402286   4.108201
    40  H    8.409883   9.210171   5.920817   5.138680   5.885909
    41  H    8.284416   9.238315   6.837179   6.150846   6.916756
    42  H    6.937881   7.759900   6.232371   5.937717   6.872933
    43  H    6.136851   6.994506   7.319857   7.348757   8.330786
    44  H    7.188706   8.125801   7.807993   7.604006   8.523810
    45  H    9.811574  10.733861   8.601217   7.871649   8.627626
                   26         27         28         29         30
    26  C    0.000000
    27  O    1.435965   0.000000
    28  C    2.443971   1.434626   0.000000
    29  O    3.644210   2.303359   1.435417   0.000000
    30  H    4.281648   3.021163   1.975016   0.960000   0.000000
    31  H    2.724489   2.086548   1.070000   2.086720   2.164737
    32  H    3.379363   2.670124   2.134841   2.503095   3.259350
    33  H    2.720457   3.123871   2.661547   3.996135   4.373351
    34  H    2.117291   2.643214   3.324417   4.330494   5.165097
    35  H    1.070000   2.040231   2.629940   3.935897   4.368479
    36  H    2.074343   2.628572   3.894110   4.716196   5.247113
    37  H    2.074343   2.425554   3.848383   4.540966   5.313435
    38  H    3.650217   4.507512   5.134195   6.201896   7.011463
    39  H    4.386869   5.761125   6.534182   7.849774   8.498645
    40  H    6.069083   7.136545   7.918979   9.015962   9.828588
    41  H    6.555648   7.785318   8.214773   9.530277  10.154885
    42  H    5.811171   6.662404   7.052530   8.113005   8.876092
    43  H    6.428437   7.089481   6.993649   8.030511   8.630914
    44  H    7.017265   7.919168   7.893913   9.087365   9.631277
    45  H    8.375169   9.512636   9.935927  11.165326  11.845134
                   31         32         33         34         35
    31  H    0.000000
    32  H    3.029994   0.000000
    33  H    2.558587   2.965255   0.000000
    34  H    3.990937   2.748340   2.953635   0.000000
    35  H    2.465666   3.964309   2.528328   2.985245   0.000000
    36  H    4.027810   5.162459   4.683118   3.781950   2.278679
    37  H    4.398225   4.401596   4.687552   2.743839   2.934940
    38  H    5.670497   4.306786   3.945296   1.917012   4.299201
    39  H    6.652929   6.562855   4.921785   4.039895   4.483734
    40  H    8.367534   7.161879   6.499732   4.687131   6.579682
    41  H    8.332887   7.730323   6.017602   5.627666   6.628572
    42  H    7.518075   5.905074   5.346804   4.075319   6.299076
    43  H    7.309755   5.731385   4.895010   4.883654   6.701458
    44  H    8.031109   6.988186   5.486445   5.790961   7.098155
    45  H   10.166631   9.121617   7.794287   7.109812   8.579160
                   36         37         38         39         40
    36  H    0.000000
    37  H    1.729794   0.000000
    38  H    5.049911   4.029081   0.000000
    39  H    5.045769   4.855949   3.000400   0.000000
    40  H    6.904616   5.985081   2.869490   2.959200   0.000000
    41  H    7.679137   7.304330   4.014779   2.824555   2.975854
    42  H    7.263293   6.300947   2.287554   3.781844   2.335211
    43  H    8.258851   7.514517   3.743830   5.184688   4.640588
    44  H    8.687936   8.185237   4.465651   4.834720   4.651292
    45  H    9.515878   8.909124   5.276725   4.670449   3.431113
                   41         42         43         44         45
    41  H    0.000000
    42  H    2.972961   0.000000
    43  H    3.845340   2.394365   0.000000
    44  H    2.796345   2.951070   1.721128   0.000000
    45  H    2.117266   3.452328   4.342840   3.315496   0.000000
 Stoichiometry    C12H22O11
 Framework group  C1[X(C12H22O11)]
 Deg. of freedom   129
 Full point group                 C1      NOp   1
 Largest Abelian subgroup         C1      NOp   1
 Largest concise Abelian subgroup C1      NOp   1
                         Standard orientation:                         
 ---------------------------------------------------------------------
 Center     Atomic      Atomic             Coordinates (Angstroms)
 Number     Number       Type             X           Y           Z
 ---------------------------------------------------------------------
      1          8           0        5.009952   -0.377084   -0.228945
      2          6           0        3.724841   -0.070853    0.318422
      3          6           0        3.259340    1.280370   -0.200202
      4          8           0        4.148975    2.346952    0.161809
      5          1           0        5.089149    2.012341    0.233011
      6          6           0        1.797712    1.524307    0.135696
      7          8           0        1.354464    2.561376   -0.751186
      8          1           0        0.486135    2.993654   -0.504687
      9          6           0        3.003152   -2.613709    0.101575
     10          8           0        4.083221   -3.302852   -0.545350
     11          1           0        3.799338   -4.253065   -0.673233
     12          6           0        2.725210   -1.133818   -0.104563
     13          8           0        1.460038   -0.853004    0.513078
     14          6           0        0.878167    0.329965   -0.054953
     15          8           0       -0.303001    0.492031    0.743196
     16          6           0       -1.503917    0.217546    0.007600
     17          6           0       -1.973734   -1.194046    0.318475
     18          8           0       -0.977950   -2.200178    0.084138
     19          1           0       -0.055205   -1.868515    0.281792
     20          6           0       -3.348486   -1.498913   -0.253555
     21          8           0       -3.994850   -2.660910    0.286470
     22          1           0       -4.881798   -2.849189   -0.133997
     23          6           0       -2.296649    2.714726   -0.071881
     24          8           0       -1.095975    3.476110    0.120419
     25          1           0       -1.381086    4.420120    0.286095
     26          6           0       -2.548238    1.272842    0.335858
     27          8           0       -3.757797    0.849071   -0.311738
     28          6           0       -4.322304   -0.395006    0.126163
     29          8           0       -5.502715   -0.613414   -0.660824
     30          1           0       -6.224820   -0.880338   -0.087312
     31          1           0       -4.535280   -0.391720    1.174748
     32          1           0       -3.289104   -1.578997   -1.318900
     33          1           0       -2.117149   -1.202507    1.378787
     34          1           0       -1.281431    0.276630   -1.037345
     35          1           0       -2.712791    1.254616    1.392972
     36          1           0       -3.066406    3.280032    0.410616
     37          1           0       -2.479979    2.743274   -1.125672
     38          1           0        0.632782    0.185411   -1.086355
     39          1           0        1.721822    1.868657    1.145925
     40          1           0        3.305011    1.215190   -1.267238
     41          1           0        3.787604   -0.042604    1.386206
     42          1           0        2.585665   -1.003749   -1.157421
     43          1           0        2.106914   -3.131590   -0.169456
     44          1           0        3.140783   -2.753141    1.153485
     45          1           0        5.604389   -0.639759    0.477629
 ---------------------------------------------------------------------
 Rotational constants (GHZ):      0.4002257      0.1471811      0.1106045
 Standard basis: 6-31+G(d,p) (6D, 7F)
 There are   547 symmetry adapted basis functions of A   symmetry.
 Integral buffers will be    131072 words long.
 Raffenetti 2 integral format.
 Two-electron integral symmetry is turned on.
   547 basis functions,   890 primitive gaussians,   547 cartesian basis functions
    91 alpha electrons       91 beta electrons
       nuclear repulsion energy      2284.8364389344 Hartrees.
 NAtoms=   45 NActive=   45 NUniq=   45 SFac= 1.00D+00 NAtFMM=   50 NAOKFM=F Big=F
 One-electron integrals computed using PRISM.
 NBasis=   547 RedAO= T  NBF=   547
 NBsUse=   547 1.00D-06 NBFU=   547
 Harris functional with IExCor=  402 diagonalized for initial guess.
 ExpMin= 4.38D-02 ExpMax= 5.48D+03 ExpMxC= 8.25D+02 IAcc=2 IRadAn=         0 AccDes= 0.00D+00
 HarFok:  IExCor=  402 AccDes= 0.00D+00 IRadAn=         0 IDoV= 1
 ScaDFX=  1.000000  1.000000  1.000000  1.000000
 FoFCou: FMM=F IPFlag=           0 FMFlag=      100000 FMFlg1=           0
         NFxFlg=           0 DoJE=T BraDBF=F KetDBF=T FulRan=T
         Omega=  0.000000  0.000000  1.000000  0.000000  0.000000 ICntrl=     500 IOpCl=  0
         NMat0=    1 NMatS0=    1 NMatT0=    0 NMatD0=    1 NMtDS0=    0 NMtDT0=    0
         I1Cent=           4 NGrid=           0.
 Petite list used in FoFCou.
 Initial guess orbital symmetries:
       Occupied  (A) (A) (A) (A) (A) (A) (A) (A) (A) (A) (A) (A)
                 (A) (A) (A) (A) (A) (A) (A) (A) (A) (A) (A) (A)
                 (A) (A) (A) (A) (A) (A) (A) (A) (A) (A) (A) (A)
                 (A) (A) (A) (A) (A) (A) (A) (A) (A) (A) (A) (A)
                 (A) (A) (A) (A) (A) (A) (A) (A) (A) (A) (A) (A)
                 (A) (A) (A) (A) (A) (A) (A) (A) (A) (A) (A) (A)
                 (A) (A) (A) (A) (A) (A) (A) (A) (A) (A) (A) (A)
                 (A) (A) (A) (A) (A) (A) (A)
       Virtual   (A) (A) (A) (A) (A) (A) (A) (A) (A) (A) (A) (A)
                 (A) (A) (A) (A) (A) (A) (A) (A) (A) (A) (A) (A)
                 (A) (A) (A) (A) (A) (A) (A) (A) (A) (A) (A) (A)
                 (A) (A) (A) (A) (A) (A) (A) (A) (A) (A) (A) (A)
                 (A) (A) (A) (A) (A) (A) (A) (A) (A) (A) (A) (A)
                 (A) (A) (A) (A) (A) (A) (A) (A) (A) (A) (A) (A)
                 (A) (A) (A) (A) (A) (A) (A) (A) (A) (A) (A) (A)
                 (A) (A) (A) (A) (A) (A) (A) (A) (A) (A) (A) (A)
                 (A) (A) (A) (A) (A) (A) (A) (A) (A) (A) (A) (A)
                 (A) (A) (A) (A) (A) (A) (A) (A) (A) (A) (A) (A)
                 (A) (A) (A) (A) (A) (A) (A) (A) (A) (A) (A) (A)
                 (A) (A) (A) (A) (A) (A) (A) (A) (A) (A) (A) (A)
                 (A) (A) (A) (A) (A) (A) (A) (A) (A) (A) (A) (A)
                 (A) (A) (A) (A) (A) (A) (A) (A) (A) (A) (A) (A)
                 (A) (A) (A) (A) (A) (A) (A) (A) (A) (A) (A) (A)
                 (A) (A) (A) (A) (A) (A) (A) (A) (A) (A) (A) (A)
                 (A) (A) (A) (A) (A) (A) (A) (A) (A) (A) (A) (A)
                 (A) (A) (A) (A) (A) (A) (A) (A) (A) (A) (A) (A)
                 (A) (A) (A) (A) (A) (A) (A) (A) (A) (A) (A) (A)
                 (A) (A) (A) (A) (A) (A) (A) (A) (A) (A) (A) (A)
                 (A) (A) (A) (A) (A) (A) (A) (A) (A) (A) (A) (A)
                 (A) (A) (A) (A) (A) (A) (A) (A) (A) (A) (A) (A)
                 (A) (A) (A) (A) (A) (A) (A) (A) (A) (A) (A) (A)
                 (A) (A) (A) (A) (A) (A) (A) (A) (A) (A) (A) (A)
                 (A) (A) (A) (A) (A) (A) (A) (A) (A) (A) (A) (A)
                 (A) (A) (A) (A) (A) (A) (A) (A) (A) (A) (A) (A)
                 (A) (A) (A) (A) (A) (A) (A) (A) (A) (A) (A) (A)
                 (A) (A) (A) (A) (A) (A) (A) (A) (A) (A) (A) (A)
                 (A) (A) (A) (A) (A) (A) (A) (A) (A) (A) (A) (A)
                 (A) (A) (A) (A) (A) (A) (A) (A) (A) (A) (A) (A)
                 (A) (A) (A) (A) (A) (A) (A) (A) (A) (A) (A) (A)
                 (A) (A) (A) (A) (A) (A) (A) (A) (A) (A) (A) (A)
                 (A) (A) (A) (A) (A) (A) (A) (A) (A) (A) (A) (A)
                 (A) (A) (A) (A) (A) (A) (A) (A) (A) (A) (A) (A)
                 (A) (A) (A) (A) (A) (A) (A) (A) (A) (A) (A) (A)
                 (A) (A) (A) (A) (A) (A) (A) (A) (A) (A) (A) (A)
                 (A) (A) (A) (A) (A) (A) (A) (A) (A) (A) (A) (A)
                 (A) (A) (A) (A) (A) (A) (A) (A) (A) (A) (A) (A)
 The electronic state of the initial guess is 1-A.
 Requested convergence on RMS density matrix=1.00D-08 within 128 cycles.
 Requested convergence on MAX density matrix=1.00D-06.
 Requested convergence on             energy=1.00D-06.
 No special actions if energy rises.
 SCF Done:  E(RB3LYP) =  -1297.93083734     A.U. after   13 cycles
             Convg  =    0.7734D-08             -V/T =  2.0087
 Range of M.O.s used for correlation:     1   547
 NBasis=   547 NAE=    91 NBE=    91 NFC=     0 NFV=     0
 NROrb=    547 NOA=    91 NOB=    91 NVA=   456 NVB=   456

 **** Warning!!: The largest alpha MO coefficient is  0.81911123D+02

          Differentiating once with respect to electric field.
                with respect to dipole field.
          Electric field/nuclear overlap derivatives assumed to be zero.
          There are     3 degrees of freedom in the 1st order CPHF.  IDoFFX=0.
      3 vectors produced by pass  0 Test12= 1.38D-12 3.33D-08 XBig12= 1.19D+02 1.01D+00.
 AX will form     3 AO Fock derivatives at one time.
      3 vectors produced by pass  1 Test12= 1.38D-12 3.33D-08 XBig12= 2.30D+01 4.43D-01.
      3 vectors produced by pass  2 Test12= 1.38D-12 3.33D-08 XBig12= 9.81D+00 2.35D-01.
      3 vectors produced by pass  3 Test12= 1.38D-12 3.33D-08 XBig12= 8.62D-01 1.04D-01.
      3 vectors produced by pass  4 Test12= 1.38D-12 3.33D-08 XBig12= 2.73D-01 4.36D-02.
      3 vectors produced by pass  5 Test12= 1.38D-12 3.33D-08 XBig12= 5.40D-02 2.37D-02.
      3 vectors produced by pass  6 Test12= 1.38D-12 3.33D-08 XBig12= 1.65D-02 1.51D-02.
      3 vectors produced by pass  7 Test12= 1.38D-12 3.33D-08 XBig12= 2.13D-03 7.28D-03.
      3 vectors produced by pass  8 Test12= 1.38D-12 3.33D-08 XBig12= 4.28D-04 2.39D-03.
      3 vectors produced by pass  9 Test12= 1.38D-12 3.33D-08 XBig12= 1.15D-04 1.16D-03.
      3 vectors produced by pass 10 Test12= 1.38D-12 3.33D-08 XBig12= 3.09D-05 4.55D-04.
      3 vectors produced by pass 11 Test12= 1.38D-12 3.33D-08 XBig12= 7.06D-06 2.14D-04.
      3 vectors produced by pass 12 Test12= 1.38D-12 3.33D-08 XBig12= 7.66D-07 7.86D-05.
      3 vectors produced by pass 13 Test12= 1.38D-12 3.33D-08 XBig12= 2.92D-07 4.60D-05.
      3 vectors produced by pass 14 Test12= 1.38D-12 3.33D-08 XBig12= 4.95D-08 1.83D-05.
      3 vectors produced by pass 15 Test12= 1.38D-12 3.33D-08 XBig12= 1.79D-08 1.20D-05.
      3 vectors produced by pass 16 Test12= 1.38D-12 3.33D-08 XBig12= 1.33D-09 2.73D-06.
      3 vectors produced by pass 17 Test12= 1.38D-12 3.33D-08 XBig12= 1.46D-10 6.51D-07.
      3 vectors produced by pass 18 Test12= 1.38D-12 3.33D-08 XBig12= 6.72D-11 6.70D-07.
      3 vectors produced by pass 19 Test12= 1.38D-12 3.33D-08 XBig12= 2.22D-11 5.32D-07.
      3 vectors produced by pass 20 Test12= 1.38D-12 3.33D-08 XBig12= 6.12D-12 2.03D-07.
      2 vectors produced by pass 21 Test12= 1.38D-12 3.33D-08 XBig12= 1.16D-12 8.48D-08.
 Inverted reduced A of dimension    65 with in-core refinement.
 End of Minotr Frequency-dependent properties file   721 does not exist.
 End of Minotr Frequency-dependent properties file   722 does not exist.
 Symmetrizing basis deriv contribution to polar:
 IMax=3 JMax=2 DiffMx= 0.00D+00
 G2DrvN: will do    23 centers at a time, making    2 passes doing MaxLOS=2.
 Calling FoFCou, ICntrl=  3107 FMM=F I1Cent=   0 AccDes= 0.00D+00.
 Calling FoFCou, ICntrl=  3107 FMM=F I1Cent=   0 AccDes= 0.00D+00.
 FoFDir/FoFCou used for L=0 through L=2.
 End of G2Drv Frequency-dependent properties file   721 does not exist.
 End of G2Drv Frequency-dependent properties file   722 does not exist.
          IDoAtm=111111111111111111111111111111111111111111111
          Differentiating once with respect to electric field.
                with respect to dipole field.
          Differentiating once with respect to nuclear coordinates.
          There are   138 degrees of freedom in the 1st order CPHF.  IDoFFX=5.
 Will reuse    3 saved solutions.
    135 vectors produced by pass  0 Test12= 4.15D-14 1.00D-09 XBig12= 2.79D-01 1.12D-01.
 AX will form    68 AO Fock derivatives at one time.
    135 vectors produced by pass  1 Test12= 4.15D-14 1.00D-09 XBig12= 2.74D-02 1.59D-02.
    132 vectors produced by pass  2 Test12= 4.15D-14 1.00D-09 XBig12= 2.00D-04 2.29D-03.
    132 vectors produced by pass  3 Test12= 4.15D-14 1.00D-09 XBig12= 8.17D-07 8.50D-05.
    132 vectors produced by pass  4 Test12= 4.15D-14 1.00D-09 XBig12= 1.49D-09 2.78D-06.
    132 vectors produced by pass  5 Test12= 4.15D-14 1.00D-09 XBig12= 5.06D-12 1.70D-07.
     77 vectors produced by pass  6 Test12= 4.15D-14 1.00D-09 XBig12= 1.57D-13 2.37D-08.
 Inverted reduced A of dimension   875 with in-core refinement.
 Isotropic polarizability for W=    0.000000      187.70 Bohr**3.
 End of Minotr Frequency-dependent properties file   721 does not exist.
 End of Minotr Frequency-dependent properties file   722 does not exist.

 **********************************************************************

            Population analysis using the SCF density.

 **********************************************************************

 Orbital symmetries:
       Occupied  (A) (A) (A) (A) (A) (A) (A) (A) (A) (A) (A) (A)
                 (A) (A) (A) (A) (A) (A) (A) (A) (A) (A) (A) (A)
                 (A) (A) (A) (A) (A) (A) (A) (A) (A) (A) (A) (A)
                 (A) (A) (A) (A) (A) (A) (A) (A) (A) (A) (A) (A)
                 (A) (A) (A) (A) (A) (A) (A) (A) (A) (A) (A) (A)
                 (A) (A) (A) (A) (A) (A) (A) (A) (A) (A) (A) (A)
                 (A) (A) (A) (A) (A) (A) (A) (A) (A) (A) (A) (A)
                 (A) (A) (A) (A) (A) (A) (A)
       Virtual   (A) (A) (A) (A) (A) (A) (A) (A) (A) (A) (A) (A)
                 (A) (A) (A) (A) (A) (A) (A) (A) (A) (A) (A) (A)
                 (A) (A) (A) (A) (A) (A) (A) (A) (A) (A) (A) (A)
                 (A) (A) (A) (A) (A) (A) (A) (A) (A) (A) (A) (A)
                 (A) (A) (A) (A) (A) (A) (A) (A) (A) (A) (A) (A)
                 (A) (A) (A) (A) (A) (A) (A) (A) (A) (A) (A) (A)
                 (A) (A) (A) (A) (A) (A) (A) (A) (A) (A) (A) (A)
                 (A) (A) (A) (A) (A) (A) (A) (A) (A) (A) (A) (A)
                 (A) (A) (A) (A) (A) (A) (A) (A) (A) (A) (A) (A)
                 (A) (A) (A) (A) (A) (A) (A) (A) (A) (A) (A) (A)
                 (A) (A) (A) (A) (A) (A) (A) (A) (A) (A) (A) (A)
                 (A) (A) (A) (A) (A) (A) (A) (A) (A) (A) (A) (A)
                 (A) (A) (A) (A) (A) (A) (A) (A) (A) (A) (A) (A)
                 (A) (A) (A) (A) (A) (A) (A) (A) (A) (A) (A) (A)
                 (A) (A) (A) (A) (A) (A) (A) (A) (A) (A) (A) (A)
                 (A) (A) (A) (A) (A) (A) (A) (A) (A) (A) (A) (A)
                 (A) (A) (A) (A) (A) (A) (A) (A) (A) (A) (A) (A)
                 (A) (A) (A) (A) (A) (A) (A) (A) (A) (A) (A) (A)
                 (A) (A) (A) (A) (A) (A) (A) (A) (A) (A) (A) (A)
                 (A) (A) (A) (A) (A) (A) (A) (A) (A) (A) (A) (A)
                 (A) (A) (A) (A) (A) (A) (A) (A) (A) (A) (A) (A)
                 (A) (A) (A) (A) (A) (A) (A) (A) (A) (A) (A) (A)
                 (A) (A) (A) (A) (A) (A) (A) (A) (A) (A) (A) (A)
                 (A) (A) (A) (A) (A) (A) (A) (A) (A) (A) (A) (A)
                 (A) (A) (A) (A) (A) (A) (A) (A) (A) (A) (A) (A)
                 (A) (A) (A) (A) (A) (A) (A) (A) (A) (A) (A) (A)
                 (A) (A) (A) (A) (A) (A) (A) (A) (A) (A) (A) (A)
                 (A) (A) (A) (A) (A) (A) (A) (A) (A) (A) (A) (A)
                 (A) (A) (A) (A) (A) (A) (A) (A) (A) (A) (A) (A)
                 (A) (A) (A) (A) (A) (A) (A) (A) (A) (A) (A) (A)
                 (A) (A) (A) (A) (A) (A) (A) (A) (A) (A) (A) (A)
                 (A) (A) (A) (A) (A) (A) (A) (A) (A) (A) (A) (A)
                 (A) (A) (A) (A) (A) (A) (A) (A) (A) (A) (A) (A)
                 (A) (A) (A) (A) (A) (A) (A) (A) (A) (A) (A) (A)
                 (A) (A) (A) (A) (A) (A) (A) (A) (A) (A) (A) (A)
                 (A) (A) (A) (A) (A) (A) (A) (A) (A) (A) (A) (A)
                 (A) (A) (A) (A) (A) (A) (A) (A) (A) (A) (A) (A)
                 (A) (A) (A) (A) (A) (A) (A) (A) (A) (A) (A) (A)
 The electronic state is 1-A.
 Alpha  occ. eigenvalues --  -19.20332 -19.19450 -19.19314 -19.18994 -19.18470
 Alpha  occ. eigenvalues --  -19.17638 -19.17039 -19.16581 -19.15856 -19.14835
 Alpha  occ. eigenvalues --  -19.14000 -10.31332 -10.30932 -10.27162 -10.26186
 Alpha  occ. eigenvalues --  -10.25985 -10.25831 -10.25434 -10.25112 -10.24861
 Alpha  occ. eigenvalues --  -10.24614 -10.24606 -10.24338  -1.10434  -1.09263
 Alpha  occ. eigenvalues --   -1.06085  -1.05404  -1.04384  -1.03807  -1.02652
 Alpha  occ. eigenvalues --   -1.02398  -1.01764  -1.00591  -0.99877  -0.82070
 Alpha  occ. eigenvalues --   -0.80283  -0.79856  -0.78039  -0.72272  -0.70426
 Alpha  occ. eigenvalues --   -0.67412  -0.65376  -0.63674  -0.62792  -0.61621
 Alpha  occ. eigenvalues --   -0.60342  -0.56769  -0.55974  -0.55546  -0.54864
 Alpha  occ. eigenvalues --   -0.54029  -0.53648  -0.52879  -0.52349  -0.51764
 Alpha  occ. eigenvalues --   -0.50559  -0.50078  -0.49380  -0.49002  -0.47332
 Alpha  occ. eigenvalues --   -0.46595  -0.45382  -0.44881  -0.44082  -0.43319
 Alpha  occ. eigenvalues --   -0.42742  -0.41982  -0.41065  -0.40176  -0.39267
 Alpha  occ. eigenvalues --   -0.38776  -0.38119  -0.37229  -0.36115  -0.35762
 Alpha  occ. eigenvalues --   -0.35299  -0.34492  -0.34374  -0.33769  -0.33318
 Alpha  occ. eigenvalues --   -0.33074  -0.31616  -0.30947  -0.30520  -0.30078
 Alpha  occ. eigenvalues --   -0.28873  -0.28565  -0.27821  -0.27691  -0.26866
 Alpha  occ. eigenvalues --   -0.26379
 Alpha virt. eigenvalues --   -0.02838  -0.02149  -0.01866  -0.00425   0.00221
 Alpha virt. eigenvalues --    0.01323   0.01931   0.02500   0.03084   0.03433
 Alpha virt. eigenvalues --    0.03652   0.04131   0.04972   0.05364   0.05593
 Alpha virt. eigenvalues --    0.06108   0.06589   0.07518   0.07664   0.07805
 Alpha virt. eigenvalues --    0.08237   0.08957   0.09189   0.09654   0.09892
 Alpha virt. eigenvalues --    0.10504   0.11105   0.11603   0.11873   0.12091
 Alpha virt. eigenvalues --    0.12262   0.12710   0.13148   0.13486   0.14116
 Alpha virt. eigenvalues --    0.14294   0.14453   0.14668   0.14861   0.15070
 Alpha virt. eigenvalues --    0.15540   0.16434   0.16662   0.16983   0.17242
 Alpha virt. eigenvalues --    0.17591   0.17840   0.17932   0.18027   0.18470
 Alpha virt. eigenvalues --    0.18696   0.18970   0.19428   0.19948   0.20116
 Alpha virt. eigenvalues --    0.20642   0.21083   0.21258   0.21385   0.21670
 Alpha virt. eigenvalues --    0.21820   0.22317   0.22776   0.22911   0.23285
 Alpha virt. eigenvalues --    0.23743   0.23990   0.24159   0.24364   0.24652
 Alpha virt. eigenvalues --    0.24998   0.25180   0.25581   0.25829   0.26129
 Alpha virt. eigenvalues --    0.26620   0.26938   0.27034   0.27448   0.27610
 Alpha virt. eigenvalues --    0.27725   0.28044   0.28254   0.28620   0.29144
 Alpha virt. eigenvalues --    0.29319   0.29607   0.30103   0.30449   0.30762
 Alpha virt. eigenvalues --    0.31110   0.31491   0.31820   0.31875   0.32127
 Alpha virt. eigenvalues --    0.32505   0.32622   0.33118   0.33399   0.34098
 Alpha virt. eigenvalues --    0.34241   0.34771   0.35147   0.35730   0.35985
 Alpha virt. eigenvalues --    0.36299   0.36623   0.37043   0.37426   0.37673
 Alpha virt. eigenvalues --    0.38146   0.38801   0.39087   0.39478   0.39873
 Alpha virt. eigenvalues --    0.40195   0.40469   0.41106   0.41300   0.41448
 Alpha virt. eigenvalues --    0.41834   0.42057   0.43361   0.44100   0.44372
 Alpha virt. eigenvalues --    0.44732   0.44887   0.45384   0.45708   0.46722
 Alpha virt. eigenvalues --    0.47722   0.48336   0.48765   0.49315   0.50424
 Alpha virt. eigenvalues --    0.51191   0.52236   0.53913   0.62700   0.64375
 Alpha virt. eigenvalues --    0.65289   0.65944   0.67117   0.68760   0.69072
 Alpha virt. eigenvalues --    0.71391   0.72040   0.72727   0.73759   0.74685
 Alpha virt. eigenvalues --    0.75854   0.76315   0.77529   0.78005   0.78909
 Alpha virt. eigenvalues --    0.80358   0.80858   0.81592   0.82293   0.84132
 Alpha virt. eigenvalues --    0.85371   0.86088   0.87006   0.88295   0.89173
 Alpha virt. eigenvalues --    0.90758   0.91579   0.92011   0.93081   0.94237
 Alpha virt. eigenvalues --    0.95107   0.96770   0.97643   0.99582   1.00357
 Alpha virt. eigenvalues --    1.01775   1.01821   1.03052   1.03734   1.03860
 Alpha virt. eigenvalues --    1.04378   1.05056   1.05973   1.06287   1.07548
 Alpha virt. eigenvalues --    1.08417   1.08773   1.09217   1.10101   1.10692
 Alpha virt. eigenvalues --    1.11015   1.11720   1.13011   1.14386   1.14889
 Alpha virt. eigenvalues --    1.16888   1.18146   1.19500   1.20538   1.21116
 Alpha virt. eigenvalues --    1.21845   1.22790   1.23507   1.23942   1.25439
 Alpha virt. eigenvalues --    1.26182   1.26572   1.26919   1.27392   1.28109
 Alpha virt. eigenvalues --    1.28571   1.29242   1.30027   1.30561   1.31291
 Alpha virt. eigenvalues --    1.31469   1.32744   1.33286   1.33835   1.34670
 Alpha virt. eigenvalues --    1.35331   1.35441   1.36279   1.37061   1.37718
 Alpha virt. eigenvalues --    1.38167   1.39132   1.40561   1.42684   1.43508
 Alpha virt. eigenvalues --    1.44209   1.45497   1.46672   1.46862   1.48772
 Alpha virt. eigenvalues --    1.49037   1.49916   1.51380   1.52383   1.53136
 Alpha virt. eigenvalues --    1.54995   1.55726   1.57225   1.57531   1.57982
 Alpha virt. eigenvalues --    1.58394   1.59489   1.59650   1.59997   1.60748
 Alpha virt. eigenvalues --    1.60882   1.63092   1.64433   1.65584   1.66116
 Alpha virt. eigenvalues --    1.67108   1.67404   1.68244   1.68860   1.69546
 Alpha virt. eigenvalues --    1.70341   1.70684   1.72511   1.72822   1.73093
 Alpha virt. eigenvalues --    1.73418   1.74407   1.75911   1.76894   1.77252
 Alpha virt. eigenvalues --    1.78058   1.78691   1.79888   1.80526   1.81536
 Alpha virt. eigenvalues --    1.83307   1.83681   1.85114   1.85724   1.86810
 Alpha virt. eigenvalues --    1.87624   1.88169   1.89520   1.89882   1.90958
 Alpha virt. eigenvalues --    1.92022   1.92182   1.93777   1.93922   1.94645
 Alpha virt. eigenvalues --    1.95681   1.96107   1.97015   1.97771   1.98160
 Alpha virt. eigenvalues --    1.99390   1.99689   2.00862   2.01595   2.02307
 Alpha virt. eigenvalues --    2.02988   2.04150   2.05249   2.06250   2.07362
 Alpha virt. eigenvalues --    2.08368   2.09014   2.09302   2.10902   2.11841
 Alpha virt. eigenvalues --    2.12183   2.13438   2.14315   2.15314   2.15787
 Alpha virt. eigenvalues --    2.16378   2.16587   2.17646   2.18543   2.19787
 Alpha virt. eigenvalues --    2.21436   2.22632   2.24329   2.25758   2.27584
 Alpha virt. eigenvalues --    2.28626   2.30068   2.31498   2.33724   2.34581
 Alpha virt. eigenvalues --    2.36341   2.37791   2.38678   2.38799   2.39332
 Alpha virt. eigenvalues --    2.40010   2.40674   2.41749   2.44250   2.45169
 Alpha virt. eigenvalues --    2.45748   2.46559   2.47435   2.48337   2.49302
 Alpha virt. eigenvalues --    2.50093   2.51915   2.53026   2.53942   2.54498
 Alpha virt. eigenvalues --    2.56610   2.56915   2.58189   2.58893   2.59913
 Alpha virt. eigenvalues --    2.60875   2.61587   2.62257   2.63952   2.65029
 Alpha virt. eigenvalues --    2.65465   2.66263   2.67701   2.68109   2.69503
 Alpha virt. eigenvalues --    2.70765   2.71458   2.72033   2.72883   2.73313
 Alpha virt. eigenvalues --    2.76077   2.76280   2.77063   2.78586   2.79846
 Alpha virt. eigenvalues --    2.80819   2.83426   2.83877   2.85081   2.85753
 Alpha virt. eigenvalues --    2.86183   2.87348   2.87602   2.88705   2.89172
 Alpha virt. eigenvalues --    2.89890   2.91763   2.92856   2.92959   2.95048
 Alpha virt. eigenvalues --    2.95432   2.96810   2.97848   2.98990   2.99270
 Alpha virt. eigenvalues --    3.01175   3.02064   3.04579   3.05021   3.07131
 Alpha virt. eigenvalues --    3.07433   3.07927   3.08767   3.12286   3.13171
 Alpha virt. eigenvalues --    3.15194   3.17292   3.24331   3.25788   3.29845
 Alpha virt. eigenvalues --    3.31666   3.36336   3.37989   3.39307   3.41442
 Alpha virt. eigenvalues --    3.42701   3.44009   3.45216   3.46707   3.48474
 Alpha virt. eigenvalues --    3.49486   3.51801   3.52856   3.53612   3.54318
 Alpha virt. eigenvalues --    3.55754   3.56984   3.60506   3.62376   3.64760
 Alpha virt. eigenvalues --    3.65444   3.66953   3.71236   4.31753   4.32490
 Alpha virt. eigenvalues --    4.33041   4.39002   4.40155   4.41794   4.44720
 Alpha virt. eigenvalues --    4.45995   4.48216   4.49560   4.52216   4.55403
 Alpha virt. eigenvalues --    4.58239   4.59109   4.61050   4.65175   4.72393
 Alpha virt. eigenvalues --    4.75833   4.81456   4.84407   4.85533   4.90553
 Alpha virt. eigenvalues --    4.93380
          Condensed to atoms (all electrons):
              1          2          3          4          5          6
     1  O    8.298732   0.211840  -0.157357  -0.011079   0.025744   0.151231
     2  C    0.211840   9.036085   0.401395  -0.015663  -0.086214  -3.752932
     3  C   -0.157357   0.401395   8.387591   0.239247   0.051667  -2.480080
     4  O   -0.011079  -0.015663   0.239247   8.236783   0.198568  -0.154936
     5  H    0.025744  -0.086214   0.051667   0.198568   0.428071   0.012256
     6  C    0.151231  -3.752932  -2.480080  -0.154936   0.012256  18.686161
     7  O   -0.001577   0.034701   0.018622   0.006801  -0.000545  -0.062073
     8  H    0.000041  -0.012003  -0.010989  -0.000823   0.000018   0.097348
     9  C   -0.023384  -0.894190  -0.386219   0.001339  -0.000471   1.285480
    10  O    0.001182  -0.031228  -0.000550   0.000023  -0.000016   0.013755
    11  H    0.000522  -0.006430   0.000732  -0.000001   0.000000   0.000387
    12  C   -0.181937  -1.869365  -1.364465  -0.003687   0.021709   2.680825
    13  O    0.006476  -0.074034   0.046608  -0.000619   0.000095  -0.121056
    14  C    0.016002   2.170940   1.134483   0.065862  -0.001296  -8.085923
    15  O    0.000330  -0.012166  -0.029759   0.000067   0.000047   0.124375
    16  C    0.006265   0.278405   0.107352  -0.001255   0.001101  -1.227959
    17  C   -0.000044   0.046768  -0.010905   0.001792   0.000048  -0.314579
    18  O    0.000029   0.003033  -0.000763  -0.000017   0.000000   0.004960
    19  H   -0.000053  -0.002172   0.002875  -0.000003   0.000000   0.023028
    20  C    0.000119   0.017459  -0.021331   0.000071   0.000002  -0.018551
    21  O    0.000000   0.000046   0.000030   0.000000   0.000000  -0.000438
    22  H    0.000000   0.000001   0.000002   0.000000   0.000000  -0.000088
    23  C    0.000191   0.002347  -0.016809   0.000547  -0.000011  -0.301844
    24  O    0.000000   0.002261  -0.000036   0.000168  -0.000005  -0.004839
    25  H    0.000000  -0.000115   0.000321  -0.000001   0.000000   0.000039
    26  C   -0.000191   0.040806   0.011348  -0.000215   0.000023  -0.432752
    27  O    0.000000   0.000104   0.000799   0.000000   0.000000   0.005550
    28  C    0.000006   0.000980   0.003593   0.000001   0.000000   0.010881
    29  O    0.000000  -0.000004   0.000048   0.000000   0.000000  -0.000408
    30  H    0.000000   0.000000   0.000000   0.000000   0.000000   0.000008
    31  H    0.000000  -0.000003   0.000000   0.000000   0.000000   0.000443
    32  H    0.000000   0.000020   0.000043   0.000000   0.000000   0.001546
    33  H    0.000000  -0.001053  -0.000029   0.000000   0.000000   0.009417
    34  H   -0.000004   0.000838   0.001139   0.000004   0.000000  -0.001017
    35  H    0.000000  -0.000072   0.000331   0.000000   0.000000   0.006287
    36  H    0.000000   0.000023  -0.000108   0.000000   0.000000   0.001810
    37  H    0.000000  -0.000002   0.000747   0.000000   0.000000  -0.003631
    38  H    0.000207   0.039065  -0.021718  -0.000357   0.000004  -0.146774
    39  H   -0.000643   0.053544  -0.092205   0.005995   0.000042   0.154693
    40  H   -0.009247   0.095749   0.406263  -0.053231  -0.000663  -0.417059
    41  H   -0.042805   0.421878  -0.052397   0.000149  -0.000802  -0.066451
    42  H    0.008925   0.012856  -0.000155   0.000433  -0.000006  -0.089146
    43  H    0.000397  -0.005925  -0.012681   0.000034   0.000000   0.003619
    44  H    0.001669  -0.037311   0.002873  -0.000007   0.000000   0.014893
    45  H    0.226974   0.099785  -0.030244   0.001698  -0.002953  -0.001886
              7          8          9         10         11         12
     1  O   -0.001577   0.000041  -0.023384   0.001182   0.000522  -0.181937
     2  C    0.034701  -0.012003  -0.894190  -0.031228  -0.006430  -1.869365
     3  C    0.018622  -0.010989  -0.386219  -0.000550   0.000732  -1.364465
     4  O    0.006801  -0.000823   0.001339   0.000023  -0.000001  -0.003687
     5  H   -0.000545   0.000018  -0.000471  -0.000016   0.000000   0.021709
     6  C   -0.062073   0.097348   1.285480   0.013755   0.000387   2.680825
     7  O    8.291871   0.221107   0.004352   0.000032   0.000000  -0.020951
     8  H    0.221107   0.333013   0.000909   0.000000   0.000000   0.005691
     9  C    0.004352   0.000909  11.052297   0.119656   0.001266  -3.616579
    10  O    0.000032   0.000000   0.119656   8.304336   0.201601   0.033407
    11  H    0.000000   0.000000   0.001266   0.201601   0.438996   0.027092
    12  C   -0.020951   0.005691  -3.616579   0.033407   0.027092  14.194480
    13  O    0.008405  -0.000654   0.009446  -0.001146  -0.000688  -0.182158
    14  C    0.079303  -0.074292  -1.884804  -0.005411  -0.006043  -2.745586
    15  O   -0.011412   0.005703  -0.002172   0.000171   0.000005  -0.007542
    16  C    0.062272   0.007779  -0.574577  -0.006639  -0.000009  -0.601657
    17  C   -0.005904   0.001075  -0.089806   0.000052  -0.000192  -0.203732
    18  O    0.000061  -0.000025  -0.002384  -0.000240  -0.000001   0.004213
    19  H   -0.000088  -0.000001   0.005776   0.000069  -0.000007  -0.000821
    20  C    0.003996   0.000402  -0.009548   0.000092   0.000021  -0.044376
    21  O   -0.000006   0.000000  -0.000073   0.000000   0.000000   0.000006
    22  H    0.000000   0.000000  -0.000017   0.000000   0.000000   0.000049
    23  C    0.034450   0.018449  -0.010078  -0.000024  -0.000001  -0.044997
    24  O   -0.020883   0.004896   0.000199   0.000000   0.000000   0.003596
    25  H    0.002090   0.000258  -0.000007   0.000000   0.000000  -0.000195
    26  C   -0.023593  -0.029499  -0.050934  -0.000288   0.000002   0.061695
    27  O    0.000204   0.000048  -0.000316   0.000000   0.000000  -0.001836
    28  C   -0.000180  -0.000319  -0.005575  -0.000008  -0.000001  -0.010492
    29  O   -0.000005   0.000000  -0.000016   0.000000   0.000000   0.000101
    30  H    0.000000   0.000000   0.000001   0.000000   0.000000   0.000000
    31  H    0.000001   0.000000   0.000012   0.000000   0.000000   0.000037
    32  H    0.000005   0.000000   0.000039   0.000000   0.000000   0.000292
    33  H    0.000020   0.000000   0.001732   0.000000   0.000000   0.003464
    34  H   -0.000964  -0.000145   0.000332   0.000002   0.000000   0.009163
    35  H    0.000220  -0.000006   0.000205   0.000000   0.000000   0.001308
    36  H   -0.000712   0.000315   0.000000   0.000000   0.000000   0.000052
    37  H    0.001255   0.000088   0.000003   0.000000   0.000000  -0.000072
    38  H   -0.002954  -0.000968  -0.012278  -0.000033   0.000000  -0.050249
    39  H   -0.039804  -0.007337   0.003536  -0.000008   0.000000  -0.016696
    40  H    0.002632   0.000032   0.013678  -0.000176   0.000000  -0.057356
    41  H   -0.000227   0.000005  -0.024403  -0.000889  -0.000001  -0.139869
    42  H   -0.000659   0.000007  -0.029702   0.003736  -0.000083   0.110446
    43  H    0.000002   0.000000   0.462040  -0.039550  -0.014381  -0.070544
    44  H   -0.000001   0.000000   0.701517  -0.073160   0.000248  -0.332135
    45  H    0.000002   0.000000   0.000596  -0.000225  -0.000004  -0.044356
             13         14         15         16         17         18
     1  O    0.006476   0.016002   0.000330   0.006265  -0.000044   0.000029
     2  C   -0.074034   2.170940  -0.012166   0.278405   0.046768   0.003033
     3  C    0.046608   1.134483  -0.029759   0.107352  -0.010905  -0.000763
     4  O   -0.000619   0.065862   0.000067  -0.001255   0.001792  -0.000017
     5  H    0.000095  -0.001296   0.000047   0.001101   0.000048   0.000000
     6  C   -0.121056  -8.085923   0.124375  -1.227959  -0.314579   0.004960
     7  O    0.008405   0.079303  -0.011412   0.062272  -0.005904   0.000061
     8  H   -0.000654  -0.074292   0.005703   0.007779   0.001075  -0.000025
     9  C    0.009446  -1.884804  -0.002172  -0.574577  -0.089806  -0.002384
    10  O   -0.001146  -0.005411   0.000171  -0.006639   0.000052  -0.000240
    11  H   -0.000688  -0.006043   0.000005  -0.000009  -0.000192  -0.000001
    12  C   -0.182158  -2.745586  -0.007542  -0.601657  -0.203732   0.004213
    13  O    8.490670   0.343224  -0.030313   0.003945  -0.031499   0.010641
    14  C    0.343224  16.930657   0.080903  -1.063367   0.011476   0.010402
    15  O   -0.030313   0.080903   8.257489   0.033482   0.005855  -0.008843
    16  C    0.003945  -1.063367   0.033482  15.438028  -2.112853  -0.144551
    17  C   -0.031499   0.011476   0.005855  -2.112853   8.576092   0.350873
    18  O    0.010641   0.010402  -0.008843  -0.144551   0.350873   8.260736
    19  H    0.025444  -0.006279   0.022022  -0.086406   0.035333   0.177030
    20  C   -0.012133  -0.669737   0.068722  -1.796049  -0.381972  -0.116132
    21  O    0.000218  -0.003219  -0.000378   0.032469  -0.101415   0.011701
    22  H    0.000000  -0.000717   0.000038  -0.019706   0.020482  -0.000693
    23  C    0.006071  -0.248539  -0.055967   0.042145  -0.085546   0.003935
    24  O    0.000988  -0.009166  -0.001668   0.081445   0.003472   0.000187
    25  H    0.000016  -0.004226   0.001003  -0.007339  -0.000960  -0.000001
    26  C   -0.006161  -0.901093   0.012007  -4.142780   0.021051   0.045635
    27  O    0.000056  -0.019370   0.007345  -0.014068  -0.022528   0.001191
    28  C    0.001771  -0.095427   0.000444   0.937116   0.041748  -0.004113
    29  O    0.000017  -0.000541   0.000269  -0.021889  -0.006822  -0.000202
    30  H    0.000000   0.000371   0.000000  -0.001755   0.012854  -0.000014
    31  H    0.000009   0.006573   0.000095   0.120637  -0.015247  -0.000638
    32  H    0.000254   0.006835  -0.001459   0.124423  -0.157044   0.003989
    33  H    0.001357   0.106966  -0.018079   0.086906   0.356453  -0.059103
    34  H    0.003112   0.039572  -0.074355   0.335736  -0.040087  -0.001509
    35  H   -0.000231   0.055229   0.001375   0.086205  -0.014658  -0.000405
    36  H    0.000001   0.005161   0.000278   0.025567  -0.003465   0.000026
    37  H    0.000027  -0.003641   0.001228   0.044777   0.002980   0.000013
    38  H   -0.064390   0.373279  -0.058536   0.085634   0.021221   0.000399
    39  H    0.010261   0.116909  -0.012276   0.053490   0.006057   0.000145
    40  H    0.003762   0.226076  -0.000665   0.012352   0.002746   0.000044
    41  H    0.008681   0.134473  -0.000106   0.001255   0.001865   0.000036
    42  H   -0.052084   0.231404   0.002238   0.017972   0.007790   0.000055
    43  H    0.001774  -0.009474  -0.000251   0.004140   0.002557  -0.001101
    44  H    0.006901   0.005583   0.000075  -0.005966   0.000295   0.000093
    45  H   -0.000835  -0.002938  -0.000012   0.000283  -0.000074   0.000000
             19         20         21         22         23         24
     1  O   -0.000053   0.000119   0.000000   0.000000   0.000191   0.000000
     2  C   -0.002172   0.017459   0.000046   0.000001   0.002347   0.002261
     3  C    0.002875  -0.021331   0.000030   0.000002  -0.016809  -0.000036
     4  O   -0.000003   0.000071   0.000000   0.000000   0.000547   0.000168
     5  H    0.000000   0.000002   0.000000   0.000000  -0.000011  -0.000005
     6  C    0.023028  -0.018551  -0.000438  -0.000088  -0.301844  -0.004839
     7  O   -0.000088   0.003996  -0.000006   0.000000   0.034450  -0.020883
     8  H   -0.000001   0.000402   0.000000   0.000000   0.018449   0.004896
     9  C    0.005776  -0.009548  -0.000073  -0.000017  -0.010078   0.000199
    10  O    0.000069   0.000092   0.000000   0.000000  -0.000024   0.000000
    11  H   -0.000007   0.000021   0.000000   0.000000  -0.000001   0.000000
    12  C   -0.000821  -0.044376   0.000006   0.000049  -0.044997   0.003596
    13  O    0.025444  -0.012133   0.000218   0.000000   0.006071   0.000988
    14  C   -0.006279  -0.669737  -0.003219  -0.000717  -0.248539  -0.009166
    15  O    0.022022   0.068722  -0.000378   0.000038  -0.055967  -0.001668
    16  C   -0.086406  -1.796049   0.032469  -0.019706   0.042145   0.081445
    17  C    0.035333  -0.381972  -0.101415   0.020482  -0.085546   0.003472
    18  O    0.177030  -0.116132   0.011701  -0.000693   0.003935   0.000187
    19  H    0.365763   0.024026  -0.000615   0.000009  -0.002651  -0.000050
    20  C    0.024026   9.750353   0.084543   0.007193   0.200007  -0.003864
    21  O   -0.000615   0.084543   8.279917   0.205247  -0.004760   0.000021
    22  H    0.000009   0.007193   0.205247   0.425361   0.000020   0.000000
    23  C   -0.002651   0.200007  -0.004760   0.000020   7.259050   0.057420
    24  O   -0.000050  -0.003864   0.000021   0.000000   0.057420   8.464418
    25  H    0.000000   0.000306   0.000000   0.000000  -0.007763   0.212980
    26  C    0.007210   0.691033   0.014427   0.006727  -1.724304  -0.071992
    27  O    0.000023  -0.264096   0.014404   0.000253  -0.057123   0.000743
    28  C   -0.001522  -1.473197   0.030178  -0.011364  -0.069615   0.003242
    29  O    0.000024  -0.157711   0.006511   0.024234  -0.001894   0.000028
    30  H    0.000000  -0.029726  -0.003788  -0.003051   0.000491   0.000000
    31  H    0.000003  -0.124819   0.001268  -0.000798  -0.008523   0.000014
    32  H   -0.000048   0.307948  -0.035814  -0.007372   0.009389   0.000008
    33  H   -0.002851  -0.190371   0.001746  -0.000179   0.019331   0.000059
    34  H   -0.000416   0.011712  -0.000399   0.000007   0.039952   0.000565
    35  H    0.000008  -0.035590   0.000084   0.000003  -0.002664   0.006166
    36  H    0.000000   0.000682  -0.000004   0.000000   0.442340  -0.044618
    37  H    0.000000   0.000230  -0.000006   0.000000   0.642836  -0.072010
    38  H   -0.001177   0.015836   0.000010   0.000000   0.003256   0.001001
    39  H   -0.000029   0.001082   0.000000   0.000000   0.006983   0.002650
    40  H   -0.000002   0.000084   0.000000   0.000000   0.000392   0.000085
    41  H   -0.000009   0.000048   0.000000   0.000000   0.000063   0.000008
    42  H    0.000291   0.001174   0.000000   0.000000   0.000027   0.000010
    43  H    0.001301  -0.001203   0.000000   0.000000   0.000033   0.000000
    44  H    0.000034   0.000139   0.000000   0.000000  -0.000011   0.000000
    45  H    0.000000   0.000001   0.000000   0.000000   0.000002   0.000000
             25         26         27         28         29         30
     1  O    0.000000  -0.000191   0.000000   0.000006   0.000000   0.000000
     2  C   -0.000115   0.040806   0.000104   0.000980  -0.000004   0.000000
     3  C    0.000321   0.011348   0.000799   0.003593   0.000048   0.000000
     4  O   -0.000001  -0.000215   0.000000   0.000001   0.000000   0.000000
     5  H    0.000000   0.000023   0.000000   0.000000   0.000000   0.000000
     6  C    0.000039  -0.432752   0.005550   0.010881  -0.000408   0.000008
     7  O    0.002090  -0.023593   0.000204  -0.000180  -0.000005   0.000000
     8  H    0.000258  -0.029499   0.000048  -0.000319   0.000000   0.000000
     9  C   -0.000007  -0.050934  -0.000316  -0.005575  -0.000016   0.000001
    10  O    0.000000  -0.000288   0.000000  -0.000008   0.000000   0.000000
    11  H    0.000000   0.000002   0.000000  -0.000001   0.000000   0.000000
    12  C   -0.000195   0.061695  -0.001836  -0.010492   0.000101   0.000000
    13  O    0.000016  -0.006161   0.000056   0.001771   0.000017   0.000000
    14  C   -0.004226  -0.901093  -0.019370  -0.095427  -0.000541   0.000371
    15  O    0.001003   0.012007   0.007345   0.000444   0.000269   0.000000
    16  C   -0.007339  -4.142780  -0.014068   0.937116  -0.021889  -0.001755
    17  C   -0.000960   0.021051  -0.022528   0.041748  -0.006822   0.012854
    18  O   -0.000001   0.045635   0.001191  -0.004113  -0.000202  -0.000014
    19  H    0.000000   0.007210   0.000023  -0.001522   0.000024   0.000000
    20  C    0.000306   0.691033  -0.264096  -1.473197  -0.157711  -0.029726
    21  O    0.000000   0.014427   0.014404   0.030178   0.006511  -0.003788
    22  H    0.000000   0.006727   0.000253  -0.011364   0.024234  -0.003051
    23  C   -0.007763  -1.724304  -0.057123  -0.069615  -0.001894   0.000491
    24  O    0.212980  -0.071992   0.000743   0.003242   0.000028   0.000000
    25  H    0.392946   0.028866  -0.000033  -0.000835   0.000001   0.000000
    26  C    0.028866  13.405204   0.233431  -0.803141  -0.032775   0.007479
    27  O   -0.000033   0.233431   8.385462   0.183100  -0.039418   0.000605
    28  C   -0.000835  -0.803141   0.183100   6.155967   0.382061   0.019058
    29  O    0.000001  -0.032775  -0.039418   0.382061   8.250831   0.230515
    30  H    0.000000   0.007479   0.000605   0.019058   0.230515   0.407092
    31  H    0.000000  -0.083402  -0.059372   0.452365  -0.051238  -0.007268
    32  H    0.000000  -0.017226   0.005233   0.009975  -0.004392   0.000351
    33  H    0.000000  -0.107256   0.002413   0.002089  -0.000201   0.000019
    34  H    0.000001  -0.117342   0.004572   0.003585  -0.000474   0.000002
    35  H   -0.000118   0.137921  -0.049973   0.037888  -0.000978   0.000014
    36  H   -0.013132  -0.094111   0.000087   0.001078  -0.000034  -0.000001
    37  H    0.000032  -0.337583   0.008402   0.007169  -0.000216   0.000000
    38  H    0.000003   0.034155   0.000263   0.000542  -0.000005   0.000000
    39  H   -0.000009  -0.002217   0.000015  -0.000008   0.000000   0.000000
    40  H    0.000000   0.000263   0.000000  -0.000006   0.000000   0.000000
    41  H    0.000000  -0.000060   0.000000  -0.000003   0.000000   0.000000
    42  H    0.000000  -0.000027   0.000000  -0.000010   0.000000   0.000000
    43  H    0.000000   0.000397   0.000000   0.000074   0.000000   0.000000
    44  H    0.000000  -0.000367   0.000000  -0.000010   0.000000   0.000000
    45  H    0.000000   0.000000   0.000000   0.000000   0.000000   0.000000
             31         32         33         34         35         36
     1  O    0.000000   0.000000   0.000000  -0.000004   0.000000   0.000000
     2  C   -0.000003   0.000020  -0.001053   0.000838  -0.000072   0.000023
     3  C    0.000000   0.000043  -0.000029   0.001139   0.000331  -0.000108
     4  O    0.000000   0.000000   0.000000   0.000004   0.000000   0.000000
     5  H    0.000000   0.000000   0.000000   0.000000   0.000000   0.000000
     6  C    0.000443   0.001546   0.009417  -0.001017   0.006287   0.001810
     7  O    0.000001   0.000005   0.000020  -0.000964   0.000220  -0.000712
     8  H    0.000000   0.000000   0.000000  -0.000145  -0.000006   0.000315
     9  C    0.000012   0.000039   0.001732   0.000332   0.000205   0.000000
    10  O    0.000000   0.000000   0.000000   0.000002   0.000000   0.000000
    11  H    0.000000   0.000000   0.000000   0.000000   0.000000   0.000000
    12  C    0.000037   0.000292   0.003464   0.009163   0.001308   0.000052
    13  O    0.000009   0.000254   0.001357   0.003112  -0.000231   0.000001
    14  C    0.006573   0.006835   0.106966   0.039572   0.055229   0.005161
    15  O    0.000095  -0.001459  -0.018079  -0.074355   0.001375   0.000278
    16  C    0.120637   0.124423   0.086906   0.335736   0.086205   0.025567
    17  C   -0.015247  -0.157044   0.356453  -0.040087  -0.014658  -0.003465
    18  O   -0.000638   0.003989  -0.059103  -0.001509  -0.000405   0.000026
    19  H    0.000003  -0.000048  -0.002851  -0.000416   0.000008   0.000000
    20  C   -0.124819   0.307948  -0.190371   0.011712  -0.035590   0.000682
    21  O    0.001268  -0.035814   0.001746  -0.000399   0.000084  -0.000004
    22  H   -0.000798  -0.007372  -0.000179   0.000007   0.000003   0.000000
    23  C   -0.008523   0.009389   0.019331   0.039952  -0.002664   0.442340
    24  O    0.000014   0.000008   0.000059   0.000565   0.006166  -0.044618
    25  H    0.000000   0.000000   0.000000   0.000001  -0.000118  -0.013132
    26  C   -0.083402  -0.017226  -0.107256  -0.117342   0.137921  -0.094111
    27  O   -0.059372   0.005233   0.002413   0.004572  -0.049973   0.000087
    28  C    0.452365   0.009975   0.002089   0.003585   0.037888   0.001078
    29  O   -0.051238  -0.004392  -0.000201  -0.000474  -0.000978  -0.000034
    30  H   -0.007268   0.000351   0.000019   0.000002   0.000014  -0.000001
    31  H    0.616604   0.004429   0.003128   0.000018   0.006704  -0.000008
    32  H    0.004429   0.588684   0.007170   0.002797   0.000017   0.000002
    33  H    0.003128   0.007170   0.634430   0.007724   0.003981   0.000004
    34  H    0.000018   0.002797   0.007724   0.630397   0.006707  -0.000018
    35  H    0.006704   0.000017   0.003981   0.006707   0.626917  -0.011059
    36  H   -0.000008   0.000002   0.000004  -0.000018  -0.011059   0.599133
    37  H    0.000009  -0.000011   0.000002   0.003580   0.007404  -0.039780
    38  H    0.000000  -0.000032  -0.000101   0.012551  -0.000027   0.000001
    39  H    0.000000   0.000000  -0.000004   0.000009  -0.000013   0.000002
    40  H    0.000000   0.000000   0.000000  -0.000003   0.000000   0.000000
    41  H    0.000000   0.000000   0.000000   0.000000   0.000000   0.000000
    42  H    0.000000   0.000000  -0.000001  -0.000045   0.000000   0.000000
    43  H    0.000000   0.000000   0.000000   0.000001   0.000000   0.000000
    44  H    0.000000   0.000000   0.000000   0.000000   0.000000   0.000000
    45  H    0.000000   0.000000   0.000000   0.000000   0.000000   0.000000
             37         38         39         40         41         42
     1  O    0.000000   0.000207  -0.000643  -0.009247  -0.042805   0.008925
     2  C   -0.000002   0.039065   0.053544   0.095749   0.421878   0.012856
     3  C    0.000747  -0.021718  -0.092205   0.406263  -0.052397  -0.000155
     4  O    0.000000  -0.000357   0.005995  -0.053231   0.000149   0.000433
     5  H    0.000000   0.000004   0.000042  -0.000663  -0.000802  -0.000006
     6  C   -0.003631  -0.146774   0.154693  -0.417059  -0.066451  -0.089146
     7  O    0.001255  -0.002954  -0.039804   0.002632  -0.000227  -0.000659
     8  H    0.000088  -0.000968  -0.007337   0.000032   0.000005   0.000007
     9  C    0.000003  -0.012278   0.003536   0.013678  -0.024403  -0.029702
    10  O    0.000000  -0.000033  -0.000008  -0.000176  -0.000889   0.003736
    11  H    0.000000   0.000000   0.000000   0.000000  -0.000001  -0.000083
    12  C   -0.000072  -0.050249  -0.016696  -0.057356  -0.139869   0.110446
    13  O    0.000027  -0.064390   0.010261   0.003762   0.008681  -0.052084
    14  C   -0.003641   0.373279   0.116909   0.226076   0.134473   0.231404
    15  O    0.001228  -0.058536  -0.012276  -0.000665  -0.000106   0.002238
    16  C    0.044777   0.085634   0.053490   0.012352   0.001255   0.017972
    17  C    0.002980   0.021221   0.006057   0.002746   0.001865   0.007790
    18  O    0.000013   0.000399   0.000145   0.000044   0.000036   0.000055
    19  H    0.000000  -0.001177  -0.000029  -0.000002  -0.000009   0.000291
    20  C    0.000230   0.015836   0.001082   0.000084   0.000048   0.001174
    21  O   -0.000006   0.000010   0.000000   0.000000   0.000000   0.000000
    22  H    0.000000   0.000000   0.000000   0.000000   0.000000   0.000000
    23  C    0.642836   0.003256   0.006983   0.000392   0.000063   0.000027
    24  O   -0.072010   0.001001   0.002650   0.000085   0.000008   0.000010
    25  H    0.000032   0.000003  -0.000009   0.000000   0.000000   0.000000
    26  C   -0.337583   0.034155  -0.002217   0.000263  -0.000060  -0.000027
    27  O    0.008402   0.000263   0.000015   0.000000   0.000000   0.000000
    28  C    0.007169   0.000542  -0.000008  -0.000006  -0.000003  -0.000010
    29  O   -0.000216  -0.000005   0.000000   0.000000   0.000000   0.000000
    30  H    0.000000   0.000000   0.000000   0.000000   0.000000   0.000000
    31  H    0.000009   0.000000   0.000000   0.000000   0.000000   0.000000
    32  H   -0.000011  -0.000032   0.000000   0.000000   0.000000   0.000000
    33  H    0.000002  -0.000101  -0.000004   0.000000   0.000000  -0.000001
    34  H    0.003580   0.012551   0.000009  -0.000003   0.000000  -0.000045
    35  H    0.007404  -0.000027  -0.000013   0.000000   0.000000   0.000000
    36  H   -0.039780   0.000001   0.000002   0.000000   0.000000   0.000000
    37  H    0.579709  -0.000016  -0.000003   0.000000   0.000000   0.000000
    38  H   -0.000016   0.621057   0.004905   0.001761  -0.000007   0.007632
    39  H   -0.000003   0.004905   0.591258   0.006958   0.002240   0.000118
    40  H    0.000000   0.001761   0.006958   0.610443   0.006515   0.005374
    41  H    0.000000  -0.000007   0.002240   0.006515   0.616562   0.006782
    42  H    0.000000   0.007632   0.000118   0.005374   0.006782   0.629984
    43  H    0.000000   0.000049   0.000002   0.000005  -0.000066  -0.009623
    44  H    0.000000  -0.000018  -0.000002   0.000000   0.003248   0.007742
    45  H    0.000000   0.000002   0.000014   0.000210  -0.012018  -0.000109
             43         44         45
     1  O    0.000397   0.001669   0.226974
     2  C   -0.005925  -0.037311   0.099785
     3  C   -0.012681   0.002873  -0.030244
     4  O    0.000034  -0.000007   0.001698
     5  H    0.000000   0.000000  -0.002953
     6  C    0.003619   0.014893  -0.001886
     7  O    0.000002  -0.000001   0.000002
     8  H    0.000000   0.000000   0.000000
     9  C    0.462040   0.701517   0.000596
    10  O   -0.039550  -0.073160  -0.000225
    11  H   -0.014381   0.000248  -0.000004
    12  C   -0.070544  -0.332135  -0.044356
    13  O    0.001774   0.006901  -0.000835
    14  C   -0.009474   0.005583  -0.002938
    15  O   -0.000251   0.000075  -0.000012
    16  C    0.004140  -0.005966   0.000283
    17  C    0.002557   0.000295  -0.000074
    18  O   -0.001101   0.000093   0.000000
    19  H    0.001301   0.000034   0.000000
    20  C   -0.001203   0.000139   0.000001
    21  O    0.000000   0.000000   0.000000
    22  H    0.000000   0.000000   0.000000
    23  C    0.000033  -0.000011   0.000002
    24  O    0.000000   0.000000   0.000000
    25  H    0.000000   0.000000   0.000000
    26  C    0.000397  -0.000367   0.000000
    27  O    0.000000   0.000000   0.000000
    28  C    0.000074  -0.000010   0.000000
    29  O    0.000000   0.000000   0.000000
    30  H    0.000000   0.000000   0.000000
    31  H    0.000000   0.000000   0.000000
    32  H    0.000000   0.000000   0.000000
    33  H    0.000000   0.000000   0.000000
    34  H    0.000001   0.000000   0.000000
    35  H    0.000000   0.000000   0.000000
    36  H    0.000000   0.000000   0.000000
    37  H    0.000000   0.000000   0.000000
    38  H    0.000049  -0.000018   0.000002
    39  H    0.000002  -0.000002   0.000014
    40  H    0.000005   0.000000   0.000210
    41  H   -0.000066   0.003248  -0.012018
    42  H   -0.009623   0.007742  -0.000109
    43  H    0.602074  -0.049460  -0.000016
    44  H   -0.049460   0.618073  -0.000033
    45  H   -0.000016  -0.000033   0.402235
 Mulliken atomic charges:
              1
     1  O   -0.528560
     2  C   -0.170043
     3  C   -0.129305
     4  O   -0.517691
     5  H    0.353584
     6  C    0.395429
     7  O   -0.579867
     8  H    0.439876
     9  C   -0.046879
    10  O   -0.518521
    11  H    0.356968
    12  C    0.454026
    13  O   -0.412228
    14  C   -0.310594
    15  O   -0.299604
    16  C   -0.202356
    17  C    0.068398
    18  O   -0.548694
    19  H    0.414929
    20  C    0.163121
    21  O   -0.531912
    22  H    0.354358
    23  C   -0.146600
    24  O   -0.617499
    25  H    0.395872
    26  C    0.219627
    27  O   -0.326172
    28  C    0.190915
    29  O   -0.575418
    30  H    0.366745
    31  H    0.138968
    32  H    0.149948
    33  H    0.130817
    34  H    0.122696
    35  H    0.130823
    36  H    0.130488
    37  H    0.156480
    38  H    0.136809
    39  H    0.150344
    40  H    0.142983
    41  H    0.136304
    42  H    0.126656
    43  H    0.135776
    44  H    0.135099
    45  H    0.363903
 Sum of Mulliken atomic charges =   0.00000
 Mulliken charges with hydrogens summed into heavy atoms:
              1
     1  O   -0.164657
     2  C   -0.033738
     3  C    0.013678
     4  O   -0.164107
     6  C    0.545773
     7  O   -0.139991
     9  C    0.223997
    10  O   -0.161553
    12  C    0.580681
    13  O   -0.412228
    14  C   -0.173786
    15  O   -0.299604
    16  C   -0.079660
    17  C    0.199215
    18  O   -0.133764
    20  C    0.313069
    21  O   -0.177554
    23  C    0.140368
    24  O   -0.221627
    26  C    0.350450
    27  O   -0.326172
    28  C    0.329883
    29  O   -0.208674
 Sum of Mulliken charges with hydrogens summed into heavy atoms =   0.00000
 APT atomic charges:
              1
     1  O   -0.638425
     2  C    0.408545
     3  C    0.438671
     4  O   -0.644502
     5  H    0.268568
     6  C    0.357154
     7  O   -0.735411
     8  H    0.445097
     9  C    0.486842
    10  O   -0.613932
    11  H    0.251782
    12  C    0.426762
    13  O   -0.881109
    14  C    0.906842
    15  O   -0.836883
    16  C    0.426808
    17  C    0.402521
    18  O   -0.738824
    19  H    0.417458
    20  C    0.390979
    21  O   -0.655706
    22  H    0.266191
    23  C    0.448391
    24  O   -0.656084
    25  H    0.258318
    26  C    0.483404
    27  O   -0.839864
    28  C    0.948161
    29  O   -0.672836
    30  H    0.267321
    31  H   -0.066858
    32  H   -0.036012
    33  H   -0.056802
    34  H   -0.035234
    35  H   -0.064126
    36  H   -0.045508
    37  H   -0.027048
    38  H   -0.043485
    39  H   -0.025923
    40  H   -0.042320
    41  H   -0.052761
    42  H   -0.047757
    43  H   -0.042328
    44  H   -0.061142
    45  H    0.261063
 Sum of APT charges=   0.00000
 APT Atomic charges with hydrogens summed into heavy atoms:
              1
     1  O   -0.377361
     2  C    0.355784
     3  C    0.396352
     4  O   -0.375933
[...]
 00461604,-0.01280460,-0.00008945,0.00289081,0.00159674,0.00084045,0.00
 023330,-0.00004223,-0.00011046,-0.00006291,-0.00002963,-0.00000968,0.0
 0011849,0.00005876,0.00027593,0.00007002,-0.00039740,-0.00043684,-0.00
 040683,0.00068653,-0.00004411,-0.00004393,0.00000794,0.00002121,0.0000
 1339,-0.00001293,-0.00000677,-0.00000543,-0.00000376,-0.00002231,0.000
 01131,0.00000070,0.00002426,-0.00001225,0.00000461,-0.00001044,0.00000
 232,-0.00000143,0.00001968,0.00001470,0.00001360,0.00001795,-0.0000052
 8,-0.00004037,-0.00000693,0.00001455,0.00002060,0.00001754,-0.00000133
 ,-0.00003513,-0.00000089,-0.00000022,0.00000426,0.00000412,0.00000212,
 0.00000179,0.00001331,0.00000342,-0.00001190,0.00001259,0.00000729,0.0
 0002801,0.00003029,-0.00001192,-0.00004606,0.00000654,0.00000227,0.000
 00941,0.00000207,-0.00000492,0.00000084,0.00000655,-0.00000264,-0.0000
 0394,0.00083829,-0.00123785,-0.00097161,0.00002947,0.00015788,0.000095
 05,0.00112682,-0.00024752,-0.00027075,0.00049468,-0.00094658,0.0007249
 7,0.37538135,0.00140339,0.00029849,-0.00081200,-0.02675350,-0.00339244
 ,0.00785013,-0.00233914,-0.00012459,0.00090400,0.00075347,0.00031390,-
 0.00051928,-0.00012749,0.00014312,-0.00005967,-0.00018296,-0.00036142,
 -0.00037844,0.00012898,0.00006665,0.00004645,0.00000111,-0.00003157,-0
 .00008164,0.03808889,-0.00466805,-0.00516646,-0.00273174,0.00224719,0.
 00044676,0.00014837,0.00021211,0.00016074,0.00467998,-0.04495479,0.001
 75601,-0.01110187,0.00014477,-0.00595389,-0.00334514,0.00059413,-0.001
 10380,0.00035921,-0.00016505,0.00013432,0.00007504,0.00001577,-0.00004
 692,-0.00000794,0.00013768,0.00012953,-0.00008517,-0.00003870,-0.00024
 243,0.00018896,-0.00012439,0.00026567,0.00000960,-0.00002214,-0.000007
 33,-0.00001072,-0.00001130,-0.00000543,0.00000445,0.00000171,0.0000041
 0,-0.00000035,0.00002164,-0.00003564,0.00001156,-0.00000201,0.00005689
 ,0.00000017,-0.00000035,0.00000396,0.00001842,0.00000468,-0.00000895,0
 .00000303,-0.00003331,0.00002721,-0.00000980,0.00004756,-0.00001144,0.
 00000035,-0.00001192,-0.00000465,0.00000074,0.00000044,0.00000086,0.00
 000049,-0.00000404,-0.00000094,-0.00000474,0.00000406,0.00000500,-0.00
 001420,-0.00003308,-0.00001590,0.00002564,0.00001977,-0.00003218,-0.00
 000065,0.00000315,0.00000713,0.00000257,-0.00000383,0.00000688,-0.0000
 0088,-0.00000423,-0.00000156,0.00030147,0.00030780,-0.00011706,0.00005
 876,0.00019028,0.00013799,0.00062228,-0.00060402,0.00034521,-0.0007349
 7,-0.00310497,0.00294083,-0.00130636,0.05804582,-0.00157845,-0.0007282
 0,0.00178439,0.02714773,0.00457282,-0.00327979,0.00127408,-0.00108005,
 0.00049459,-0.00073886,-0.00015658,0.00008207,0.00022972,-0.00009854,0
 .00007152,0.00023622,0.00009984,-0.00051186,0.00009390,-0.00018890,0.0
 0021683,-0.00002962,0.00002611,0.00000991,0.00913704,0.00017383,0.0007
 7758,-0.00075775,0.00078897,0.00023527,-0.00001095,0.00005785,-0.00001
 697,0.05650344,-0.00004352,-0.05075772,-0.04316659,-0.00687488,-0.0125
 3162,-0.00519664,0.00146444,0.00176894,0.00060608,-0.00000617,-0.00023
 714,-0.00000759,-0.00007122,0.00017180,0.00000732,0.00003937,0.0000193
 4,0.00023802,0.00010873,-0.00015258,-0.00052246,-0.00044986,0.00051300
 ,-0.00001509,-0.00003601,0.00001982,0.00000214,0.00002516,-0.00002134,
 -0.00000215,-0.00000346,-0.00000125,-0.00000831,0.00001658,-0.00000291
 ,0.00000405,-0.00001641,0.00000692,0.00000292,0.00000419,-0.00000296,0
 .00001840,0.00002257,0.00003233,0.00000045,0.00000472,-0.00004862,0.00
 000775,-0.00000585,0.00002748,0.00000786,0.00000260,-0.00002791,0.0000
 0098,-0.00000017,0.00000343,-0.00000076,0.00000129,-0.00000070,0.00000
 602,0.00000207,-0.00001112,0.00001269,0.00000425,0.00003015,0.00005052
 ,0.00000269,-0.00007896,0.00000131,0.00000273,0.00000639,0.00000104,-0
 .00000572,-0.00000043,0.00000209,-0.00000214,0.00000008,0.00095676,0.0
 0019628,-0.00012372,-0.00003337,0.00003330,-0.00014139,-0.00067381,0.0
 0027019,0.00019087,0.00049647,0.00354003,-0.00324123,-0.04368540,0.000
 51568,0.06311036,0.00004724,-0.00030550,0.00003801,-0.00025811,0.00165
 808,0.00153407,0.00055276,0.00019748,-0.00039496,-0.00013550,0.0003066
 5,-0.00003844,-0.00001048,-0.00000203,0.00004007,-0.00000195,0.0000026
 4,0.00000495,-0.00000487,-0.00001119,-0.00000210,0.00000206,0.00001225
 ,0.00001350,-0.06260622,-0.03550500,0.06061711,0.00330603,0.00351469,-
 0.02370800,0.00203984,0.00147621,0.00012194,0.00258963,0.01119577,-0.0
 1118395,0.00040991,-0.00191427,-0.00077725,-0.00019796,0.00013487,-0.0
 0005996,-0.00006342,-0.00005354,-0.00022799,0.00002001,-0.00005209,0.0
 0012253,-0.00009017,-0.00014337,-0.00011223,-0.00025039,0.00030168,0.0
 0019215,0.00049147,-0.00046930,-0.00019485,0.00004765,0.00003839,0.000
 01857,-0.00002029,0.00001853,0.00000439,0.00000279,0.00000147,-0.00000
 059,0.00000552,-0.00000698,0.00002349,-0.00000302,0.00000575,-0.000018
 95,0.00000054,-0.00000137,-0.00000047,-0.00000624,0.00002442,-0.000008
 42,-0.00001307,0.00003105,-0.00003295,0.00001085,-0.00006089,0.0000049
 3,-0.00001123,0.00001491,0.00002178,0.00000061,-0.00000163,-0.00000371
 ,-0.00000364,0.00000115,-0.00000166,-0.00001006,-0.00000018,0.00000301
 ,0.00001065,-0.00000937,-0.00000976,-0.00000993,0.00000981,-0.00000127
 ,-0.00000235,-0.00000290,-0.00000268,-0.00000250,0.00000400,-0.0000016
 5,-0.00000140,0.00000234,0.00000069,-0.00004229,0.00003136,0.00000918,
 0.00000332,0.00000233,0.00000739,-0.00002385,-0.00007517,-0.00003078,0
 .00013006,0.00040798,-0.00014136,0.00074904,-0.00055183,-0.00079013,0.
 05926905,-0.00002112,0.00055825,-0.00008632,0.00293173,-0.00408633,-0.
 00439336,-0.00105060,0.00005206,0.00168446,0.00041996,-0.00118953,0.00
 011611,-0.00007550,0.00012321,-0.00020964,-0.00010268,0.00015349,0.000
 51134,0.00002760,0.00002109,-0.00036125,0.00003230,0.00000885,0.000099
 92,-0.03193171,-0.12904878,0.14206117,-0.00167472,0.00324136,-0.027989
 95,0.00006146,0.00348780,-0.00275913,-0.00781612,-0.02112926,0.0273253
 6,0.00024346,0.00257119,0.00066386,0.00020358,-0.00036312,-0.00014797,
 0.00001532,0.00009928,-0.00022781,-0.00004292,-0.00003462,0.00012580,-
 0.00003161,-0.00043915,-0.00034993,0.00010381,0.00057123,0.00054950,-0
 .00034425,-0.00088036,-0.00094147,0.00002922,0.00013476,-0.00001377,0.
 00001392,-0.00001950,0.00005233,-0.00000254,0.00000636,-0.00000923,0.0
 0000242,-0.00006637,0.00009249,-0.00001059,0.00004420,-0.00011206,-0.0
 0000663,-0.00001235,0.00000347,-0.00000413,-0.00001061,-0.00005090,-0.
 00001143,0.00006574,-0.00001684,0.00001261,-0.00011870,-0.00003679,-0.
 00002408,0.00002655,0.00007912,-0.00000202,-0.00000149,-0.00001288,-0.
 00000131,0.00000825,0.00000363,0.00000167,-0.00000973,-0.00000771,0.00
 005372,0.00007675,0.00006579,0.00001041,-0.00001506,-0.00001101,0.0000
 0161,0.00000320,0.00000612,-0.00000353,0.00002159,-0.00001078,0.000002
 02,0.00000650,-0.00000449,0.00000143,-0.00002725,0.00000291,0.00000641
 ,-0.00001853,-0.00003950,0.00011334,-0.00002651,-0.00005755,-0.0000632
 0,0.00013451,-0.00007524,0.00017717,0.00135016,0.00011541,0.03793692,0
 .14272072,0.00009158,0.00035460,0.00012619,-0.00054834,-0.00120335,-0.
 00018845,0.00004973,-0.00009197,0.00004947,0.00002188,-0.00005846,0.00
 008347,0.00000189,-0.00004526,-0.00001813,0.00007732,-0.00004749,-0.00
 013240,0.00001719,-0.00007494,0.00005613,-0.00000313,0.00001281,-0.000
 00094,0.05654233,0.13698277,-0.25678247,-0.00348211,-0.00155848,-0.036
 87689,-0.00064424,0.00040674,0.00026825,0.00053448,-0.00180980,0.00183
 572,0.00019708,-0.00226009,0.00121134,-0.00017285,-0.00008836,0.000419
 21,-0.00002639,0.00001916,0.00000582,0.00002321,0.00002337,0.00001521,
 0.00001911,0.00005048,-0.00003135,-0.00000980,-0.00019747,-0.00017982,
 -0.00006039,-0.00000786,-0.00007244,-0.00000803,-0.00001682,-0.0000067
 9,-0.00000550,-0.00001316,-0.00001810,0.00000375,0.00000387,0.00000792
 ,-0.00000083,0.00001611,-0.00001489,0.00000062,-0.00001655,0.00001402,
 0.00000115,0.00000545,-0.00000233,-0.00000624,0.00000783,0.00001020,0.
 00000149,-0.00002196,-0.00000034,-0.00000635,0.00002746,0.00001532,0.0
 0000915,-0.00001106,-0.00002502,-0.00000025,0.00000371,0.00000682,0.00
 000020,-0.00000175,-0.00000160,-0.00000181,0.00000220,0.00000343,-0.00
 000878,-0.00000054,-0.00000307,-0.00000540,-0.00000035,-0.00000546,-0.
 00000082,-0.00000148,-0.00000241,-0.00000065,-0.00000479,0.00000051,-0
 .00000014,-0.00000030,0.00000147,0.00000305,0.00003526,-0.00001930,-0.
 00001236,-0.00000490,0.00000704,0.00000715,-0.00001191,-0.00000280,0.0
 0001039,-0.00007346,0.00005627,-0.00034853,0.00013378,0.00061784,-0.05
 425545,-0.13418888,0.29217813,0.00024638,-0.00005292,-0.00025931,0.000
 68474,-0.00079397,0.00049457,0.00028752,0.00001498,-0.00002920,0.00006
 830,0.00019798,-0.00004046,-0.00005051,-0.00000803,0.00001897,-0.00003
 991,-0.00010671,-0.00006316,0.00003399,0.00003723,0.00003075,-0.000014
 26,-0.00002119,-0.00002647,-0.34388106,0.00986774,0.05385622,-0.013639
 32,-0.01275061,-0.01340094,-0.00142403,0.00056852,-0.00067109,-0.01484
 513,0.00241313,0.00318968,0.00122522,0.00037852,0.00085768,0.00036398,
 0.00003413,0.00008734,0.00007051,0.00015510,0.00027752,0.00000182,0.00
 005303,-0.00006261,-0.00002641,0.00000770,0.00000035,0.00019358,-0.000
 05356,0.00005798,-0.00030154,0.00008196,-0.00008321,-0.00001879,0.0000
 1055,-0.00001063,0.00002697,-0.00001498,0.00001332,-0.00000521,-0.0000
 0194,-0.00000298,-0.00000501,0.00000097,-0.00000760,0.00001803,0.00000
 707,0.00001650,-0.00000853,-0.00000131,0.00000266,-0.00002353,-0.00002
 018,-0.00000867,0.00001849,-0.00001279,0.00003158,-0.00002336,0.000021
 28,-0.00001595,0.00000810,-0.00000432,0.00000433,-0.00000364,0.0000001
 1,0.00000010,0.00000557,0.00000177,0.00000367,0.00001034,-0.00000098,-
 0.00000614,0.00001332,0.00002145,0.00002967,0.00001368,-0.00000842,0.0
 0000106,0.00000850,0.00000271,0.00000750,0.00000053,0.00000212,0.00000
 343,0.00000288,-0.00000189,-0.00000187,0.00009042,-0.00018563,-0.00016
 349,0.00001570,0.00004129,0.00001625,0.00013177,-0.00022222,-0.0000393
 3,0.00023606,0.00094992,-0.00053052,0.00049746,0.00232776,0.00018877,-
 0.00578244,0.00077919,0.00203522,0.37603712,-0.00016759,0.00033540,0.0
 0059794,0.00060632,0.00283726,-0.00082978,0.00019165,-0.00001322,-0.00
 026460,-0.00022993,-0.00012417,0.00016900,0.00003147,-0.00006386,-0.00
 000746,0.00001565,0.00019494,0.00001035,-0.00003126,-0.00004125,0.0000
 0443,0.00000265,0.00002472,0.00003061,0.00950070,-0.04424174,0.0058931
 5,-0.02405404,-0.00526496,-0.01119632,-0.00178718,-0.00012404,-0.00008
 835,0.03903146,-0.00648380,-0.00658241,-0.00147935,0.00209251,0.001458
 17,0.00036098,0.00014186,0.00017914,-0.00018331,-0.00008009,-0.0002265
 3,-0.00004275,-0.00003360,0.00010715,0.00002802,-0.00003898,-0.0000337
 7,0.00005268,0.00008685,0.00004271,-0.00010668,-0.00014285,-0.00003991
 ,-0.00000890,0.00000146,0.00001166,0.00000383,0.00001494,-0.00000970,-
 0.00000238,-0.00000286,-0.00000161,-0.00000120,0.00000237,0.00000991,-
 0.00000695,-0.00001109,-0.00001470,0.00000197,0.00000344,-0.00000369,-
 0.00000136,0.00001269,0.00001797,-0.00000075,0.00001305,-0.00003621,0.
 00000643,-0.00002383,0.00002427,0.00000556,0.00000524,-0.00001457,-0.0
 0000074,0.00000056,0.00000264,-0.00000054,0.00000236,-0.00000077,0.000
 00183,-0.00000284,-0.00000197,0.00000396,0.00001704,0.00001222,0.00000
 042,0.00000128,0.00001147,-0.00000025,-0.00000124,-0.00000338,-0.00000
 164,-0.00000238,-0.00000261,0.00000067,0.00000169,0.00000166,-0.000245
 64,-0.00000636,0.00009151,-0.00001080,-0.00005702,-0.00001691,-0.00033
 745,0.00005703,0.00004247,-0.00080776,-0.00030944,0.00030029,0.0018040
 7,-0.00649518,-0.00212864,-0.01828781,0.00210620,0.00393893,-0.0039190
 8,0.05587284,0.00018893,-0.00007893,0.00010330,-0.00072051,-0.00034789
 ,-0.00008171,-0.00005564,0.00011878,0.00010978,0.00003278,-0.00014406,
 0.00000637,-0.00001706,0.00004341,-0.00002465,-0.00000358,0.00005749,0
 .00011711,-0.00001121,-0.00001047,-0.00007957,0.00001362,0.00001467,0.
 00002787,0.05469597,0.00681044,-0.05214054,-0.03789357,-0.01315548,-0.
 00600279,-0.00177816,0.00021225,-0.00033739,0.00265550,-0.00009762,0.0
 0268796,-0.00046161,0.00041800,0.00088453,0.00024100,0.00013359,0.0000
 0617,-0.00008659,0.00003020,-0.00004850,0.00002484,-0.00001062,0.00000
 062,-0.00000956,0.00003411,0.00004165,-0.00020608,-0.00004477,-0.00012
 285,0.00043128,0.00009758,0.00004078,0.00001226,-0.00001768,0.00001058
 ,-0.00002102,0.00001476,-0.00001566,0.00000328,-0.00000045,0.00000354,
 0.00000147,-0.00000787,0.00000734,-0.00000978,-0.00000195,-0.00002296,
 0.00000143,0.00000099,-0.00000016,0.00000473,-0.00000115,0.00001745,-0
 .00001088,0.00001208,-0.00001335,0.00001046,-0.00000515,0.00001790,-0.
 00000023,0.00000226,-0.00001248,0.00000167,-0.00000084,0.00000130,-0.0
 0000291,-0.00000223,-0.00000318,-0.00000738,0.00000281,0.00000629,-0.0
 0001490,-0.00003516,-0.00004141,-0.00001552,0.00000503,0.00000388,-0.0
 0000542,-0.00000307,-0.00000600,-0.00000075,-0.00000151,-0.00000307,-0
 .00000050,0.00000266,0.00000071,-0.00009350,0.00000401,-0.00000097,-0.
 00000071,-0.00001503,-0.00000492,-0.00000840,0.00003636,-0.00002829,0.
 00001533,-0.00020091,0.00015548,-0.00068956,-0.00101202,0.00043249,0.0
 2940425,-0.00130251,-0.00261961,-0.04551549,0.00833607,0.05703058,-0.3
 4591620,0.08070074,0.26609481,0.00856838,-0.00693185,-0.02197417,-0.00
 164922,0.00018015,-0.00222385,-0.00011352,-0.00029318,0.00023792,0.000
 24971,0.00030353,0.00011606,0.00071508,-0.00030767,0.00006910,0.000014
 66,-0.00029331,-0.00042761,0.00010160,0.00000607,0.00003766,0.00057309
 ,0.00008461,0.00023591,-0.00015472,0.00022925,-0.00016931,0.00002415,0
 .00003903,-0.00015786,-0.00109593,-0.00119186,-0.00051892,0.00000755,0
 .00032610,-0.00134179,-0.00007653,0.00016661,0.00030110,-0.00004685,-0
 .00004591,-0.00018115,-0.00003574,-0.00002380,0.00005946,0.00002429,0.
 00002673,0.00001854,-0.00001504,0.00003347,-0.00010783,0.00001093,-0.0
 0009091,0.00013742,-0.00000350,-0.00001799,0.00001370,-0.00000817,0.00
 001789,-0.00001852,0.00000077,-0.00000193,0.00000214,-0.00000369,-0.00
 000743,0.00001338,-0.00002366,-0.00001545,-0.00004712,0.00000487,0.000
 00291,-0.00000740,0.00001213,0.00000803,0.00002401,-0.00000813,0.00001
 196,-0.00003462,0.00001379,-0.00001145,0.00002758,0.00000370,0.0000024
 0,-0.00002209,0.00000189,0.00000068,0.00000364,-0.00000282,0.00000028,
 -0.00000160,-0.00000201,0.00000068,0.00000010,-0.00000738,-0.00000622,
 -0.00000634,-0.00000247,0.00000131,-0.00000162,-0.00000488,-0.00000082
 ,-0.00000442,0.00000007,-0.00000181,-0.00000718,0.00000059,0.00000197,
 0.00000108,0.00000604,-0.00000676,-0.00002434,-0.00002667,0.00000158,0
 .00010765,0.00049531,0.00001667,-0.00005566,0.00150867,-0.00097648,-0.
 00294703,0.00017886,0.00009477,-0.00001583,-0.00013765,0.00003939,-0.0
 0003959,-0.00021832,0.00006501,-0.00009829,0.33703696,0.06227396,-0.01
 195158,-0.06504383,0.00951914,-0.00730202,-0.00565677,-0.00112039,-0.0
 0077356,-0.00682360,-0.00076592,0.00012201,0.00066118,0.00118240,-0.00
 171647,-0.00031579,0.00043811,-0.00111994,0.00045659,-0.00001238,-0.00
 038929,-0.00043367,0.00013697,-0.00000726,-0.00006711,0.00006278,0.000
 69772,0.00163437,0.00025049,-0.00000665,-0.00092298,0.00001865,-0.0000
 0032,-0.00042867,-0.00027044,0.00127893,0.00205289,0.00040734,-0.00084
 489,0.00128127,0.00006919,-0.00013967,-0.00006039,-0.00000605,0.000004
 75,0.00011837,0.00002589,0.00002564,-0.00008273,-0.00000225,0.00004064
 ,0.00004962,0.00000066,-0.00012879,0.00001338,0.00000819,0.00017649,-0
 .00007742,-0.00000108,0.00001827,-0.00001964,0.00000267,-0.00004159,0.
 00000878,0.00000358,0.00001011,0.00000423,0.00000286,0.00002416,-0.000
 04138,-0.00002053,-0.00003708,0.00003054,0.00000587,0.00000559,-0.0000
 1771,0.00001055,0.00000757,-0.00001743,0.00000528,-0.00004814,0.000043
 10,-0.00001347,0.00005257,-0.00002588,-0.00000352,-0.00001816,0.000012
 66,-0.00000037,0.00000470,-0.00000068,0.00000132,-0.00000276,0.0000006
 5,0.,0.00000092,0.00000326,-0.00000664,-0.00000422,-0.00000643,-0.0000
 0316,0.00000015,0.00000361,-0.00000211,0.00000059,-0.00000011,0.000002
 25,-0.00000141,0.00000305,-0.00000328,-0.00000325,0.00000238,-0.000008
 00,0.00001507,-0.00000431,-0.00010431,-0.00002444,-0.00018381,-0.00046
 969,0.00028967,0.00029469,0.00009187,0.00131781,0.00059084,0.00010235,
 0.00002048,-0.00019542,0.00012368,-0.00009604,-0.00021307,0.00020454,-
 0.00026090,0.00010980,-0.07213699,0.02080458,0.21150026,-0.06678343,-0
 .21637597,0.03032702,-0.00451786,-0.02162246,-0.00216008,-0.00037823,-
 0.00390578,-0.00008401,0.00084137,0.00020370,0.00003137,-0.00049066,0.
 00064436,0.00044360,-0.00072847,0.00033828,-0.00011611,0.00002972,-0.0
 0009649,0.00006384,-0.00004708,-0.00005700,0.00032988,0.00054287,-0.00
 048523,-0.00014662,-0.00045633,-0.00010907,-0.00002178,0.00002083,0.00
 024329,-0.00123382,-0.00227110,-0.00304292,-0.00031745,0.00091554,-0.0
 0038723,0.00005167,-0.00020679,-0.00012621,0.00002096,0.00001130,0.000
 27314,0.00005532,0.00005868,-0.00012194,-0.00002189,-0.00006703,-0.000
 07291,0.00000737,0.00005059,0.00015849,-0.00001387,-0.00001597,-0.0001
 3986,0.00001000,0.00003946,-0.00003644,0.00001093,-0.00003428,0.000051
 49,0.00000003,0.00000581,-0.00000831,0.00001071,-0.00001059,-0.0000096
 9,0.00000012,0.00003183,0.00003258,-0.00000002,-0.00001317,0.00000519,
 -0.00000025,-0.00002386,-0.00005996,-0.00000106,-0.00001228,0.00008035
 ,-0.00000537,0.00000896,-0.00008168,-0.00002311,-0.00000041,0.00007304
 ,-0.00000008,-0.00000290,-0.00001571,0.00000210,-0.00000082,0.00000370
 ,0.00000104,-0.00000331,0.00000044,0.00001080,0.00001131,0.00000544,-0
 .00000196,-0.00000593,0.00000169,0.00000059,0.00000319,0.00000363,0.00
 000336,0.00001031,0.00000645,-0.00000424,-0.00000332,-0.00000320,-0.00
 001344,0.00002773,0.00000480,-0.00006313,-0.00003192,-0.00010588,-0.00
 027067,0.00047359,0.00011559,-0.00078497,-0.00004774,0.00313369,-0.000
 06151,-0.00026150,0.00056683,-0.00018248,-0.00014188,0.00001488,-0.000
 28596,0.00021019,-0.00010360,-0.23706712,0.07326356,0.24100647\\0.0048
 2988,-0.00899822,0.00056756,0.00012996,0.00908577,0.00656333,0.0038343
 0,0.00821369,0.01816798,-0.01595668,0.00419501,0.00929714,0.00743758,-
 0.00254907,-0.03078248,0.01802277,-0.03195451,-0.00646300,0.00431595,-
 0.00726213,-0.00988140,-0.00700381,0.01488931,0.01887360,-0.01826908,0
 .01523043,0.00331927,0.01186854,0.01086606,-0.00223803,-0.00023670,-0.
 03185242,0.00806325,0.01909851,0.00423117,0.00446002,0.00286083,0.0074
 5469,0.00664858,-0.05118773,-0.00020186,0.00006677,0.02579860,-0.00403
 000,0.00882950,0.00102182,-0.00391532,0.00658088,-0.02797207,0.0165756
 4,0.00763690,0.01699822,-0.00494195,0.00414159,-0.00162608,0.00187756,
 -0.02307537,-0.01011796,0.00843173,-0.01918259,-0.00479701,0.02284965,
 -0.00176648,-0.00228995,-0.01335896,0.03209554,0.02376069,-0.01392578,
 -0.01608622,-0.01784386,-0.01550785,0.00223714,0.00112713,0.03121571,0
 .01156540,-0.01489509,0.02496611,0.00900107,0.00715246,-0.02074154,-0.
 01458233,0.04705053,-0.00719887,0.01307344,-0.00723819,-0.00909757,0.0
 1379576,-0.00398373,-0.00493361,-0.00468567,-0.01783323,-0.00318351,-0
 .00373090,0.01937859,0.00117371,-0.00098342,-0.02475075,-0.00472062,-0
 .00427799,0.01986032,-0.00043652,0.00163897,-0.02279948,-0.00091940,-0
 .00119252,-0.00390113,-0.00593463,-0.01759252,0.01945474,0.00264127,-0
 .00786338,0.01640304,0.00502849,-0.00225369,-0.01969017,-0.00457492,-0
 .00231457,0.02165576,0.00554308,-0.00024834,-0.02054448,-0.00275839,0.
 00012781,0.02383659,0.00101985,-0.00006259,0.00211791,0.00274102,-0.01
 923266,-0.02297414,0.00024600,-0.00024444,-0.00210343,0.00452168,0.001
 98908\\\@


 EDUCATION IS NOT TRAINING BUT RATHER THE PROCESS THAT EQUIPS YOU TO
 ENTERTAIN YOURSELF, A FRIEND, OR AN IDEA.  -- WALLACE STERLING
 Job cpu time:  0 days 13 hours  0 minutes 42.6 seconds.
 File lengths (MBytes):  RWF=   1323 Int=      0 D2E=      0 Chk=     19 Scr=      1
 Normal termination of Gaussian 09 at Tue Mar  1 03:24:10 2016.
Gaussian '09 finished on node029 at Tue Mar  1 03:24:10 EST 2016.
