Gaussian '09 started on node018 at Thu Jan 21 05:14:40 EST 2016.
 Entering Gaussian System, Link 0=/usr/local/gaussian/g09/g09
 Initial command:
 /usr/local/gaussian/g09/l1.exe /home/srmcgrat/thesis/gaussian/cellobiose/550/8000/gaussian954/Gau-990.inp -scrdir=/home/srmcgrat/thesis/gaussian/cellobiose/550/8000/gaussian954/
 Entering Link 1 = /usr/local/gaussian/g09/l1.exe PID=       992.
  
 Copyright (c) 1988,1990,1992,1993,1995,1998,2003,2009,2010,
            Gaussian, Inc.  All Rights Reserved.
  
 This is part of the Gaussian(R) 09 program.  It is based on
 the Gaussian(R) 03 system (copyright 2003, Gaussian, Inc.),
 the Gaussian(R) 98 system (copyright 1998, Gaussian, Inc.),
 the Gaussian(R) 94 system (copyright 1995, Gaussian, Inc.),
 the Gaussian 92(TM) system (copyright 1992, Gaussian, Inc.),
 the Gaussian 90(TM) system (copyright 1990, Gaussian, Inc.),
 the Gaussian 88(TM) system (copyright 1988, Gaussian, Inc.),
 the Gaussian 86(TM) system (copyright 1986, Carnegie Mellon
 University), and the Gaussian 82(TM) system (copyright 1983,
 Carnegie Mellon University). Gaussian is a federally registered
 trademark of Gaussian, Inc.
  
 This software contains proprietary and confidential information,
 including trade secrets, belonging to Gaussian, Inc.
  
 This software is provided under written license and may be
 used, copied, transmitted, or stored only in accord with that
 written license.
  
 The following legend is applicable only to US Government
 contracts under FAR:
  
                    RESTRICTED RIGHTS LEGEND
  
 Use, reproduction and disclosure by the US Government is
 subject to restrictions as set forth in subparagraphs (a)
 and (c) of the Commercial Computer Software - Restricted
 Rights clause in FAR 52.227-19.
  
 Gaussian, Inc.
 340 Quinnipiac St., Bldg. 40, Wallingford CT 06492
  
  
 ---------------------------------------------------------------
 Warning -- This program may not be used in any manner that
 competes with the business of Gaussian, Inc. or will provide
 assistance to any competitor of Gaussian, Inc.  The licensee
 of this program is prohibited from giving any competitor of
 Gaussian, Inc. access to this program.  By using this program,
 the user acknowledges that Gaussian, Inc. is engaged in the
 business of creating and licensing software in the field of
 computational chemistry and represents and warrants to the
 licensee that it is not a competitor of Gaussian, Inc. and that
 it will not use this program in any manner prohibited above.
 ---------------------------------------------------------------
  

 Cite this work as:
 Gaussian 09, Revision B.01,
 M. J. Frisch, G. W. Trucks, H. B. Schlegel, G. E. Scuseria, 
 M. A. Robb, J. R. Cheeseman, G. Scalmani, V. Barone, B. Mennucci, 
 G. A. Petersson, H. Nakatsuji, M. Caricato, X. Li, H. P. Hratchian, 
 A. F. Izmaylov, J. Bloino, G. Zheng, J. L. Sonnenberg, M. Hada, 
 M. Ehara, K. Toyota, R. Fukuda, J. Hasegawa, M. Ishida, T. Nakajima, 
 Y. Honda, O. Kitao, H. Nakai, T. Vreven, J. A. Montgomery, Jr., 
 J. E. Peralta, F. Ogliaro, M. Bearpark, J. J. Heyd, E. Brothers, 
 K. N. Kudin, V. N. Staroverov, T. Keith, R. Kobayashi, J. Normand, 
 K. Raghavachari, A. Rendell, J. C. Burant, S. S. Iyengar, J. Tomasi, 
 M. Cossi, N. Rega, J. M. Millam, M. Klene, J. E. Knox, J. B. Cross, 
 V. Bakken, C. Adamo, J. Jaramillo, R. Gomperts, R. E. Stratmann, 
 O. Yazyev, A. J. Austin, R. Cammi, C. Pomelli, J. W. Ochterski, 
 R. L. Martin, K. Morokuma, V. G. Zakrzewski, G. A. Voth, 
 P. Salvador, J. J. Dannenberg, S. Dapprich, A. D. Daniels, 
 O. Farkas, J. B. Foresman, J. V. Ortiz, J. Cioslowski, 
 and D. J. Fox, Gaussian, Inc., Wallingford CT, 2010.
 
 ******************************************
 Gaussian 09:  EM64L-G09RevB.01 12-Aug-2010
                21-Jan-2016 
 ******************************************
 ------------------------------------------------
 # freq=raman b3lyp/6-31+g(d,p) geom=connectivity
 ------------------------------------------------
 1/10=4,30=1,38=1,57=2/1,3;
 2/12=2,17=6,18=5,40=1/2;
 3/5=1,6=6,7=111,11=2,16=1,25=1,30=1,71=2,74=-5/1,2,3;
 4//1;
 5/5=2,38=5,98=1/2;
 8/6=4,10=90,11=11/1;
 10/13=10,15=4/2;
 11/6=3,8=1,9=11,15=111,16=1/1,2,10;
 10/6=1/2;
 6/7=2,8=2,9=2,10=2,18=1,28=1/1;
 7/8=1,10=1,25=1/1,2,3,16;
 1/10=4,30=1/3;
 99//99;
 ------------
 550 8000.com
 ------------
 Symbolic Z-matrix:
 Charge =  0 Multiplicity = 1
 O                     9.545     7.585     11.452 
 C                     10.301    7.498     12.668 
 C                     10.336    8.881     13.297 
 O                     11.31     9.732     12.677 
 H                     11.2      9.457     11.722 
 C                     10.932    8.911     14.695 
 O                     10.532    10.156    15.286 
 H                     10.799    10.955    14.746 
 C                     9.538     5.138     13.129 
 O                     8.948     4.095     13.918 
 H                     8.646     3.362     13.308 
 C                     9.722     6.537     13.693 
 O                     10.585    6.59      14.839 
 C                     10.589    7.777     15.646 
 O                     11.446    7.805     16.797 
 C                     10.788    7.607     18.057 
 C                     10.279    6.234     18.466 
 O                     9.464     5.59      17.476 
 H                     9.825     5.74      16.556 
 C                     9.535     6.246     19.791 
 O                     9.211     4.883     20.102 
 H                     9.03      4.556     19.175 
 C                     12.354    9.399     18.787 
 O                     11.801    10.549    18.131 
 H                     11.529    10.297    17.202 
 C                     11.718    8.072     19.166 
 O                     10.884    8.13      20.332 
 C                     10.336    6.926     20.89 
 O                     9.675     7.402     22.071 
 H                     10.33087   7.66406   22.7212 
 H                     11.13904   6.2812    21.18026 
 H                     8.62133   6.78697   19.65882 
 H                     11.14217   5.61664   18.60275 
 H                     9.94108   8.26089   18.06392 
 H                     12.48521   7.34119   19.31503 
 H                     13.19045   9.12563   18.17829 
 H                     12.73589   9.78113   19.7106 
 H                     10.14556   7.63845   10.70495 
 H                     10.5053   4.79291   12.82876 
 H                     8.94398   5.23391   12.24421 
 H                     8.76024   6.90366   13.98536 
 H                     11.30071   7.19624   12.43471 
 H                     9.36791   9.33656   13.28415 
 H                     11.99663   8.92882   14.58938 
 H                     9.58808   7.93414   15.99005 
 

 GradGradGradGradGradGradGradGradGradGradGradGradGradGradGradGradGradGrad
 Berny optimization.
 Initialization pass.
 Trust Radius=3.00D-01 FncErr=1.00D-07 GrdErr=1.00D-07
 Number of steps in this run=      2 maximum allowed number of steps=      2.
 GradGradGradGradGradGradGradGradGradGradGradGradGradGradGradGradGradGrad

                          Input orientation:                          
 ---------------------------------------------------------------------
 Center     Atomic      Atomic             Coordinates (Angstroms)
 Number     Number       Type             X           Y           Z
 ---------------------------------------------------------------------
      1          8           0        9.545000    7.585000   11.452000
      2          6           0       10.301000    7.498000   12.668000
      3          6           0       10.336000    8.881000   13.297000
      4          8           0       11.310000    9.732000   12.677000
      5          1           0       11.200000    9.457000   11.722000
      6          6           0       10.932000    8.911000   14.695000
      7          8           0       10.532000   10.156000   15.286000
      8          1           0       10.799000   10.955000   14.746000
      9          6           0        9.538000    5.138000   13.129000
     10          8           0        8.948000    4.095000   13.918000
     11          1           0        8.646000    3.362000   13.308000
     12          6           0        9.722000    6.537000   13.693000
     13          8           0       10.585000    6.590000   14.839000
     14          6           0       10.589000    7.777000   15.646000
     15          8           0       11.446000    7.805000   16.797000
     16          6           0       10.788000    7.607000   18.057000
     17          6           0       10.279000    6.234000   18.466000
     18          8           0        9.464000    5.590000   17.476000
     19          1           0        9.825000    5.740000   16.556000
     20          6           0        9.535000    6.246000   19.791000
     21          8           0        9.211000    4.883000   20.102000
     22          1           0        9.030000    4.556000   19.175000
     23          6           0       12.354000    9.399000   18.787000
     24          8           0       11.801000   10.549000   18.131000
     25          1           0       11.529000   10.297000   17.202000
     26          6           0       11.718000    8.072000   19.166000
     27          8           0       10.884000    8.130000   20.332000
     28          6           0       10.336000    6.926000   20.890000
     29          8           0        9.675000    7.402000   22.071000
     30          1           0       10.330872    7.664061   22.721197
     31          1           0       11.139044    6.281200   21.180265
     32          1           0        8.621334    6.786965   19.658823
     33          1           0       11.142171    5.616639   18.602751
     34          1           0        9.941078    8.260893   18.063925
     35          1           0       12.485210    7.341194   19.315033
     36          1           0       13.190448    9.125633   18.178292
     37          1           0       12.735888    9.781131   19.710600
     38          1           0       10.145556    7.638448   10.704955
     39          1           0       10.505298    4.792906   12.828760
     40          1           0        8.943985    5.233911   12.244214
     41          1           0        8.760237    6.903656   13.985360
     42          1           0       11.300709    7.196244   12.434709
     43          1           0        9.367908    9.336557   13.284154
     44          1           0       11.996626    8.928819   14.589385
     45          1           0        9.588081    7.934145   15.990046
 ---------------------------------------------------------------------
                    Distance matrix (angstroms):
                    1          2          3          4          5
     1  O    0.000000
     2  C    1.434490   0.000000
     3  C    2.389419   1.519722   0.000000
     4  O    3.037344   2.451309   1.434321   0.000000
     5  H    2.513227   2.353890   1.886504   0.999875   0.000000
     6  C    3.768169   2.550188   1.520039   2.211165   3.034579
     7  O    4.720568   3.737947   2.370688   2.755348   3.692820
     8  H    4.876459   4.064103   2.572051   2.457155   3.398438
     9  C    2.966511   2.522754   3.830806   4.944606   4.836905
    10  O    4.314819   3.869563   5.021751   6.236577   6.216507
    11  H    4.699645   4.500569   5.771965   6.933394   6.796127
    12  C    2.480265   1.519667   2.455229   3.709720   3.820435
    13  O    3.680135   2.370308   2.772805   3.882272   4.279440
    14  C    4.326250   3.004874   2.607801   3.627234   4.312018
    15  O    5.677255   4.295802   3.826209   4.550409   5.342775
    16  C    6.720979   5.412058   4.948230   5.807969   6.612448
    17  C    7.180540   5.934221   5.807617   6.841892   7.531103
    18  O    6.346272   5.240028   5.390279   6.602597   7.146741
    19  H    5.434449   4.293447   4.555006   5.760897   6.250942
    20  C    8.445824   7.272647   7.053854   8.118609   8.842596
    21  O    9.068344   7.955544   7.972305   9.113135   9.752025
    22  H    8.311726   7.253403   7.413646   8.614719   9.180191
    23  C    8.061222   6.728356   5.872031   6.207489   7.158862
    24  O    7.647475   6.434514   5.319399   5.536667   6.529085
    25  H    6.659857   5.468047   4.321728   4.565393   5.553759
    26  C    8.029003   6.675430   6.083549   6.710379   7.589446
    27  O    8.996908   7.712082   7.096163   7.832427   8.717390
    28  C    9.493988   8.241947   7.840642   8.733595   9.550114
    29  O   10.621372   9.424304   8.922300   9.815771  10.660697
    30  H   11.296842  10.054613   9.502445  10.301503  11.178209
    31  H    9.943842   8.639535   8.339646   9.178385   9.977384
    32  H    8.297106   7.224850   6.913599   8.040399   8.761950
    33  H    7.586741   6.282385   6.281478   7.216571   7.880130
    34  H    6.658172   5.461461   4.823284   5.749527   6.575376
    35  H    8.398307   6.998458   6.573190   7.152661   7.986398
    36  H    7.804220   6.431285   5.659924   5.845339   6.764274
    37  H    9.121910   7.793561   6.906806   7.176845   8.141360
    38  H    0.960000   1.974192   2.880781   3.102878   2.335244
    39  H    3.257826   2.717556   4.118303   5.006518   4.843686
    40  H    2.552732   2.673422   4.043182   5.100797   4.816305
    41  H    2.738247   2.112495   2.620450   4.026491   4.194617
    42  H    2.049235   1.070000   2.124291   2.547322   2.372576
    43  H    2.540886   2.151883   1.070000   2.072856   2.410683
    44  H    4.202321   2.934980   2.104809   2.184896   3.022496
    45  H    4.551661   3.425560   2.951002   4.144099   4.809738
                    6          7          8          9         10
     6  C    0.000000
     7  O    1.435028   0.000000
     8  H    2.048957   1.000645   0.000000
     9  C    4.316378   5.551667   6.167844   0.000000
    10  O    5.266293   6.412192   7.153418   1.434737   0.000000
    11  H    6.159624   7.323108   8.022275   1.995465   1.000296
    12  C    2.846749   4.036200   4.667704   1.519590   2.571588
    13  O    2.351209   3.594297   4.371232   2.475604   3.122985
    14  C    1.519212   2.406759   3.309650   3.795288   4.385885
    15  O    2.430193   2.940360   3.814146   4.920120   5.319092
    16  C    3.608905   3.773775   4.708710   5.651871   5.731585
    17  C    4.670458   5.055541   6.032963   5.498533   5.199152
    18  O    4.573623   5.175430   6.165902   4.371063   3.893667
    19  H    3.839793   4.649065   5.605444   3.491289   3.230201
    20  C    5.918028   6.047903   7.016010   6.753511   6.281998
    21  O    6.958611   7.262467   8.250919   6.985319   6.239549
    22  H    6.531005   6.981427   7.980765   6.095154   5.277811
    23  C    4.359437   4.018673   4.600961   7.622266   7.964949
    24  O    3.904395   3.139878   3.553458   7.708443   8.218461
    25  H    2.926167   2.164474   2.645336   6.867947   7.477367
    26  C    4.616444   4.561146   5.356552   7.057345   7.143594
    27  O    5.691049   5.448917   6.260291   7.914985   7.821043
    28  C    6.532493   6.471177   7.361790   8.004178   7.651790
    29  O    7.632988   7.372597   8.218443   9.225174   8.828147
    30  H    8.144695   7.844257   8.640208   9.950873   9.599313
    31  H    7.001241   7.079896   7.959887   8.288131   7.894342
    32  H    5.872839   5.841457   6.800777   6.796908   6.349050
    33  H    5.115418   5.654993   6.594725   5.724021   5.392278
    34  H    3.571305   3.414306   4.359228   5.853923   5.960668
    35  H    5.120689   5.288787   6.064566   7.197716   7.223406
    36  H    4.156920   4.061325   4.565768   7.398442   7.839370
    37  H    5.400684   4.957291   5.456809   8.666176   8.957366
    38  H    4.261261   5.241506   5.268449   3.535160   4.930905
    39  H    4.541324   5.899281   6.460145   1.070000   2.024524
    40  H    4.845569   6.000101   6.513898   1.070000   2.024524
    41  H    3.041311   3.925373   4.598752   2.110879   2.815731
    42  H    2.860988   4.181020   4.440949   2.797419   4.165706
    43  H    2.148946   2.456417   2.608520   4.204865   5.296415
    44  H    1.070000   2.033808   2.358865   4.748460   5.754188
    45  H    2.106539   2.514618   3.484184   4.000815   4.409321
                   11         12         13         14         15
    11  H    0.000000
    12  C    3.374408   0.000000
    13  O    4.064931   1.435581   0.000000
    14  C    5.360384   2.470526   1.435352   0.000000
    15  O    6.305027   3.770254   2.459941   1.435282   0.000000
    16  C    6.720208   4.617981   3.380979   2.425164   1.435189
    17  C    6.125360   4.814934   3.657253   3.229450   2.572060
    18  O    4.796387   3.908256   3.034866   3.065533   3.048867
    19  H    4.194571   2.973649   2.061114   2.358212   2.636275
    20  C    7.151019   6.107803   5.073770   4.542676   3.878974
    21  O    6.985063   6.638683   5.700956   5.489085   4.945335
    22  H    5.999565   5.869885   5.035482   5.025849   4.695524
    23  C    8.956231   6.408378   5.158153   3.951201   2.706548
    24  O    9.212401   6.333579   5.290520   3.915119   3.071664
    25  H    8.459855   5.451232   4.496304   3.107271   2.526060
    26  C    8.120188   6.024448   4.712000   3.708378   2.399465
    27  O    8.779467   6.925620   5.712622   4.708527   3.594119
    28  C    8.546632   7.233611   6.065435   5.318623   4.330980
    29  O    9.704154   8.422667   7.334117   6.500511   5.577986
    30  H   10.485933   9.118626   7.959096   7.080805   6.029883
    31  H    8.758399   7.624472   6.372908   5.759171   4.650720
    32  H    7.215536   6.071655   5.208212   4.577623   4.147911
    33  H    6.272851   5.193227   3.927301   3.703449   2.853414
    34  H    6.949475   4.703699   3.688720   2.549571   2.019338
    35  H    8.164433   6.315799   4.920362   4.152992   2.763252
    36  H    8.808588   6.232897   4.936463   3.872835   2.587497
    37  H    9.946141   7.471239   6.208230   5.014643   3.749396
    38  H    5.226138   3.212631   4.287503   4.962838   6.231525
    39  H    2.394610   2.098173   2.697585   4.104712   5.069966
    40  H    2.173589   2.098173   3.356311   4.554726   5.796416
    41  H    3.607658   1.070000   2.038834   2.620082   3.991374
    42  H    4.744633   2.123728   2.580772   3.340089   4.406958
    43  H    6.018061   2.851326   3.382667   3.082467   4.359383
    44  H    6.622546   3.420267   2.743186   2.103457   2.537661
    45  H    5.383809   2.691908   2.031127   1.070000   2.029708
                   16         17         18         19         20
    16  C    0.000000
    17  C    1.520359   0.000000
    18  O    2.481698   1.434943   0.000000
    19  H    2.581871   2.024414   0.999610   0.000000
    20  C    2.535564   1.519640   2.407198   3.287151   0.000000
    21  O    3.753549   2.375357   2.731251   3.699400   1.435084
    22  H    3.694467   2.208702   2.035709   2.982120   1.868310
    23  C    2.489281   3.798143   4.957752   4.976091   4.346974
    24  O    3.112396   4.587803   5.521076   5.432466   5.138693
    25  H    2.918254   4.434880   5.147344   4.907869   5.204763
    26  C    1.520199   2.436999   3.754589   3.979167   2.913827
    27  O    2.336315   2.728149   4.077344   4.592576   2.379483
    28  C    2.948551   2.521485   3.768378   4.522308   1.520461
    29  O    4.170490   3.837325   4.943874   5.761941   2.560144
    30  H    4.686892   4.489373   5.706600   6.478238   3.351173
    31  H    3.411123   2.847654   4.123725   4.837709   2.122322
    32  H    2.816511   2.115763   2.628218   3.488905   1.070000
    33  H    2.093996   1.070000   2.021518   2.437078   2.095478
    34  H    1.070000   2.093836   2.776135   2.939764   2.684675
    35  H    2.129277   2.610383   3.946699   4.153649   3.182724
    36  H    2.844770   4.113496   5.184625   5.041883   4.924979
    37  H    3.354923   4.490820   5.767518   5.895380   4.769622
    38  H    7.380128   7.888226   7.106878   6.159674   9.212378
    39  H    5.944202   5.822923   4.828716   3.905395   7.178144
    40  H    6.543732   6.441511   5.269611   4.429878   7.637251
    41  H    4.602691   4.778202   3.795463   3.015959   5.893914
    42  H    5.660543   6.192437   5.600726   4.613394   7.624678
    43  H    5.271441   6.107985   5.622944   4.883558   7.205450
    44  H    3.902863   5.023986   5.088659   4.330370   6.349324
    45  H    2.412287   3.081917   2.778214   2.278312   4.159315
                   21         22         23         24         25
    21  O    0.000000
    22  H    0.999509   0.000000
    23  C    5.657025   5.886779   0.000000
    24  O    6.534256   6.684641   1.434798   0.000000
    25  H    6.564642   6.564816   1.999813   1.000264   0.000000
    26  C    4.163036   4.425797   1.519561   2.685823   2.973826
    27  O    3.659896   4.189205   2.481589   3.396594   3.861193
    28  C    2.461792   3.203711   3.822390   4.783768   5.136948
    29  O    3.230730   4.111272   4.685051   5.472393   5.960327
    30  H    3.981031   4.891607   4.751943   5.617300   6.231325
    31  H    2.614378   3.383115   4.113941   5.286806   5.666154
    32  H    2.041861   2.319116   4.638491   5.157269   5.177919
    33  H    2.552527   2.431808   3.976020   4.998479   4.900767
    34  H    4.012097   3.973762   2.764112   2.949448   2.722157
    35  H    4.169231   4.440202   2.128521   3.487133   3.757131
    36  H    6.126712   6.259737   1.070000   1.989667   2.255140
    37  H    6.047290   6.428255   1.070000   1.989667   2.831214
    38  H    9.837192   9.082269   8.561321   8.146039   7.154957
    39  H    7.388054   6.519769   7.754639   7.932541   7.104100
    40  H    7.870149   6.964392   8.472557   8.430122   7.542998
    41  H    6.457517   5.702335   6.495970   6.302468   5.433931
    42  H    8.276795   7.586734   6.805377   6.628650   5.691561
    43  H    8.145049   7.594075   6.261147   5.557146   4.576275
    44  H    7.383582   6.996448   4.238957   3.899525   2.986026
    45  H    5.134184   4.676243   4.197506   4.039574   3.289237
                   26         27         28         29         30
    26  C    0.000000
    27  O    1.434739   0.000000
    28  C    2.489059   1.435717   0.000000
    29  O    3.614108   2.239595   1.434663   0.000000
    30  H    3.837964   2.496260   1.974346   0.960000   0.000000
    31  H    2.756704   2.050039   1.070000   2.047688   2.222593
    32  H    3.388736   2.715983   2.115468   2.703160   3.615238
    33  H    2.584110   3.061689   2.756056   4.167596   4.670304
    34  H    2.099452   2.459756   3.150334   4.106720   4.711511
    35  H    1.070000   2.054340   2.696667   3.936538   4.043188
    36  H    2.062477   3.308995   4.509947   5.521092   5.563394
    37  H    2.062477   2.557706   3.911805   4.538809   4.396564
    38  H    8.616834   9.667829  10.211709  11.378238  12.017698
    39  H    7.237659   8.220597   8.340404   9.639282  10.302148
    40  H    7.978787   8.807002   8.919108  10.089634  10.844181
    41  H    6.078850   6.803979   7.082202   8.152467   8.908421
    42  H    6.800835   7.963212   8.514437   9.774629  10.342692
    43  H    6.458959   7.309340   8.037219   9.002527   9.632358
    44  H    4.664459   5.903700   6.816650   7.980958   8.396471
    45  H    3.826518   4.535453   5.058190   6.104813   6.777395
                   31         32         33         34         35
    31  H    0.000000
    32  H    2.984869   0.000000
    33  H    2.661809   2.973142   0.000000
    34  H    3.881479   2.541238   2.953817   0.000000
    35  H    2.532753   3.918533   2.298954   2.980558   0.000000
    36  H    4.616373   5.342110   4.085174   3.364411   2.230194
    37  H    4.118172   5.088935   4.594590   3.582405   2.484473
    38  H   10.609489   9.122501   8.213169   7.388077   8.927250
    39  H    8.506720   7.360391   5.867122   6.304937   7.244692
    40  H    9.261107   7.582382   6.738657   6.635198   8.183972
    41  H    7.603475   5.676363   5.352600   4.457709   6.517076
    42  H    8.794781   7.715853   6.369068   5.888136   6.983044
    43  H    8.649896   6.906099   6.728542   4.932726   7.076055
    44  H    7.154371   6.455954   5.273304   4.091922   5.009094
    45  H    5.663575   3.963654   3.822598   2.128931   4.449774
                   36         37         38         39         40
    36  H    0.000000
    37  H    1.727504   0.000000
    38  H    8.205721   9.612625   0.000000
    39  H    7.389185   8.787357   3.568903   0.000000
    40  H    8.269900   9.529043   3.097562   1.724494   0.000000
    41  H    6.491890   7.540825   3.635944   2.972916   2.419380
    42  H    6.346842   7.853660   2.126493   2.562028   3.072652
    43  H    6.213606   7.269123   3.184427   4.705933   4.253574
    44  H    3.787374   5.244025   4.492250   4.735993   5.335802
    45  H    4.380082   5.211772   5.322631   4.549988   4.662336
                   41         42         43         44         45
    41  H    0.000000
    42  H    2.990673   0.000000
    43  H    2.603836   3.006363   0.000000
    44  H    3.865274   2.851095   2.963113   0.000000
    45  H    2.401249   4.014724   3.055665   2.958431   0.000000
 Stoichiometry    C12H22O11
 Framework group  C1[X(C12H22O11)]
 Deg. of freedom   129
 Full point group                 C1      NOp   1
 Largest Abelian subgroup         C1      NOp   1
 Largest concise Abelian subgroup C1      NOp   1
                         Standard orientation:                         
 ---------------------------------------------------------------------
 Center     Atomic      Atomic             Coordinates (Angstroms)
 Number     Number       Type             X           Y           Z
 ---------------------------------------------------------------------
      1          8           0       -5.124124    0.295281   -0.587269
      2          6           0       -3.874567    0.050805    0.073488
      3          6           0       -3.283944   -1.226405   -0.500493
      4          8           0       -3.884983   -2.400461    0.063088
      5          1           0       -4.835703   -2.097277    0.126023
      6          6           0       -1.862860   -1.512187   -0.042923
      7          8           0       -1.325119   -2.482782   -0.952916
      8          1           0       -1.875401   -3.316286   -1.014157
      9          6           0       -3.380573    2.510794    0.335619
     10          8           0       -2.588716    3.698555    0.191897
     11          1           0       -3.190276    4.495435    0.252738
     12          6           0       -2.848865    1.157599   -0.106312
     13          8           0       -1.668536    0.741857    0.597162
     14          6           0       -0.895958   -0.345578    0.067217
     15          8           0        0.289810   -0.736127    0.775354
     16          6           0        1.525234   -0.292243    0.195301
     17          6           0        1.950423    1.164906    0.281463
     18          8           0        0.944652    2.097001   -0.141246
     19          1           0        0.037272    1.817606    0.171520
     20          6           0        3.241108    1.453045   -0.467146
     21          8           0        3.576154    2.824955   -0.212053
     22          1           0        2.651791    3.204728   -0.193483
     23          6           0        2.271446   -2.578590    0.837411
     24          8           0        1.559913   -3.389587   -0.108448
     25          1           0        0.627496   -3.040185   -0.203556
     26          6           0        2.659879   -1.110257    0.790648
     27          8           0        3.786582   -0.825321   -0.050678
     28          6           0        4.354111    0.493188   -0.077658
     29          8           0        5.491479    0.325934   -0.935958
     30          1           0        6.161799   -0.190034   -0.482031
     31          1           0        4.696957    0.743595    0.904509
     32          1           0        3.054283    1.341839   -1.514824
     33          1           0        2.141788    1.366546    1.314720
     34          1           0        1.477025   -0.534969   -0.845689
     35          1           0        2.862559   -0.765647    1.783152
     36          1           0        1.707479   -2.672961    1.741808
     37          1           0        3.199553   -3.091979    0.978652
     38          1           0       -5.845683    0.002793   -0.025662
     39          1           0       -3.628795    2.424893    1.372878
     40          1           0       -4.292598    2.677285   -0.198601
     41          1           0       -2.608881    1.221649   -1.147084
     42          1           0       -4.055751   -0.088498    1.118796
     43          1           0       -3.351542   -1.238230   -1.568290
     44          1           0       -1.922752   -1.970105    0.922283
     45          1           0       -0.600136   -0.075103   -0.924868
 ---------------------------------------------------------------------
 Rotational constants (GHZ):      0.3883273      0.1518401      0.1140306
 Standard basis: 6-31+G(d,p) (6D, 7F)
 There are   547 symmetry adapted basis functions of A   symmetry.
 Integral buffers will be    131072 words long.
 Raffenetti 2 integral format.
 Two-electron integral symmetry is turned on.
   547 basis functions,   890 primitive gaussians,   547 cartesian basis functions
    91 alpha electrons       91 beta electrons
       nuclear repulsion energy      2286.2134433928 Hartrees.
 NAtoms=   45 NActive=   45 NUniq=   45 SFac= 1.00D+00 NAtFMM=   50 NAOKFM=F Big=F
 One-electron integrals computed using PRISM.
 NBasis=   547 RedAO= T  NBF=   547
 NBsUse=   547 1.00D-06 NBFU=   547
 Harris functional with IExCor=  402 diagonalized for initial guess.
 ExpMin= 4.38D-02 ExpMax= 5.48D+03 ExpMxC= 8.25D+02 IAcc=2 IRadAn=         0 AccDes= 0.00D+00
 HarFok:  IExCor=  402 AccDes= 0.00D+00 IRadAn=         0 IDoV= 1
 ScaDFX=  1.000000  1.000000  1.000000  1.000000
 FoFCou: FMM=F IPFlag=           0 FMFlag=      100000 FMFlg1=           0
         NFxFlg=           0 DoJE=T BraDBF=F KetDBF=T FulRan=T
         Omega=  0.000000  0.000000  1.000000  0.000000  0.000000 ICntrl=     500 IOpCl=  0
         NMat0=    1 NMatS0=    1 NMatT0=    0 NMatD0=    1 NMtDS0=    0 NMtDT0=    0
         I1Cent=           4 NGrid=           0.
 Petite list used in FoFCou.
 Initial guess orbital symmetries:
       Occupied  (A) (A) (A) (A) (A) (A) (A) (A) (A) (A) (A) (A)
                 (A) (A) (A) (A) (A) (A) (A) (A) (A) (A) (A) (A)
                 (A) (A) (A) (A) (A) (A) (A) (A) (A) (A) (A) (A)
                 (A) (A) (A) (A) (A) (A) (A) (A) (A) (A) (A) (A)
                 (A) (A) (A) (A) (A) (A) (A) (A) (A) (A) (A) (A)
                 (A) (A) (A) (A) (A) (A) (A) (A) (A) (A) (A) (A)
                 (A) (A) (A) (A) (A) (A) (A) (A) (A) (A) (A) (A)
                 (A) (A) (A) (A) (A) (A) (A)
       Virtual   (A) (A) (A) (A) (A) (A) (A) (A) (A) (A) (A) (A)
                 (A) (A) (A) (A) (A) (A) (A) (A) (A) (A) (A) (A)
                 (A) (A) (A) (A) (A) (A) (A) (A) (A) (A) (A) (A)
                 (A) (A) (A) (A) (A) (A) (A) (A) (A) (A) (A) (A)
                 (A) (A) (A) (A) (A) (A) (A) (A) (A) (A) (A) (A)
                 (A) (A) (A) (A) (A) (A) (A) (A) (A) (A) (A) (A)
                 (A) (A) (A) (A) (A) (A) (A) (A) (A) (A) (A) (A)
                 (A) (A) (A) (A) (A) (A) (A) (A) (A) (A) (A) (A)
                 (A) (A) (A) (A) (A) (A) (A) (A) (A) (A) (A) (A)
                 (A) (A) (A) (A) (A) (A) (A) (A) (A) (A) (A) (A)
                 (A) (A) (A) (A) (A) (A) (A) (A) (A) (A) (A) (A)
                 (A) (A) (A) (A) (A) (A) (A) (A) (A) (A) (A) (A)
                 (A) (A) (A) (A) (A) (A) (A) (A) (A) (A) (A) (A)
                 (A) (A) (A) (A) (A) (A) (A) (A) (A) (A) (A) (A)
                 (A) (A) (A) (A) (A) (A) (A) (A) (A) (A) (A) (A)
                 (A) (A) (A) (A) (A) (A) (A) (A) (A) (A) (A) (A)
                 (A) (A) (A) (A) (A) (A) (A) (A) (A) (A) (A) (A)
                 (A) (A) (A) (A) (A) (A) (A) (A) (A) (A) (A) (A)
                 (A) (A) (A) (A) (A) (A) (A) (A) (A) (A) (A) (A)
                 (A) (A) (A) (A) (A) (A) (A) (A) (A) (A) (A) (A)
                 (A) (A) (A) (A) (A) (A) (A) (A) (A) (A) (A) (A)
                 (A) (A) (A) (A) (A) (A) (A) (A) (A) (A) (A) (A)
                 (A) (A) (A) (A) (A) (A) (A) (A) (A) (A) (A) (A)
                 (A) (A) (A) (A) (A) (A) (A) (A) (A) (A) (A) (A)
                 (A) (A) (A) (A) (A) (A) (A) (A) (A) (A) (A) (A)
                 (A) (A) (A) (A) (A) (A) (A) (A) (A) (A) (A) (A)
                 (A) (A) (A) (A) (A) (A) (A) (A) (A) (A) (A) (A)
                 (A) (A) (A) (A) (A) (A) (A) (A) (A) (A) (A) (A)
                 (A) (A) (A) (A) (A) (A) (A) (A) (A) (A) (A) (A)
                 (A) (A) (A) (A) (A) (A) (A) (A) (A) (A) (A) (A)
                 (A) (A) (A) (A) (A) (A) (A) (A) (A) (A) (A) (A)
                 (A) (A) (A) (A) (A) (A) (A) (A) (A) (A) (A) (A)
                 (A) (A) (A) (A) (A) (A) (A) (A) (A) (A) (A) (A)
                 (A) (A) (A) (A) (A) (A) (A) (A) (A) (A) (A) (A)
                 (A) (A) (A) (A) (A) (A) (A) (A) (A) (A) (A) (A)
                 (A) (A) (A) (A) (A) (A) (A) (A) (A) (A) (A) (A)
                 (A) (A) (A) (A) (A) (A) (A) (A) (A) (A) (A) (A)
                 (A) (A) (A) (A) (A) (A) (A) (A) (A) (A) (A) (A)
 The electronic state of the initial guess is 1-A.
 Requested convergence on RMS density matrix=1.00D-08 within 128 cycles.
 Requested convergence on MAX density matrix=1.00D-06.
 Requested convergence on             energy=1.00D-06.
 No special actions if energy rises.
 SCF Done:  E(RB3LYP) =  -1297.92390986     A.U. after   14 cycles
             Convg  =    0.4630D-08             -V/T =  2.0087
 Range of M.O.s used for correlation:     1   547
 NBasis=   547 NAE=    91 NBE=    91 NFC=     0 NFV=     0
 NROrb=    547 NOA=    91 NOB=    91 NVA=   456 NVB=   456

 **** Warning!!: The largest alpha MO coefficient is  0.94495269D+02

          Differentiating once with respect to electric field.
                with respect to dipole field.
          Electric field/nuclear overlap derivatives assumed to be zero.
          There are     3 degrees of freedom in the 1st order CPHF.  IDoFFX=0.
      3 vectors produced by pass  0 Test12= 1.38D-12 3.33D-08 XBig12= 1.20D+02 1.11D+00.
 AX will form     3 AO Fock derivatives at one time.
      3 vectors produced by pass  1 Test12= 1.38D-12 3.33D-08 XBig12= 2.13D+01 4.15D-01.
      3 vectors produced by pass  2 Test12= 1.38D-12 3.33D-08 XBig12= 8.41D+00 2.05D-01.
      3 vectors produced by pass  3 Test12= 1.38D-12 3.33D-08 XBig12= 8.72D-01 9.33D-02.
      3 vectors produced by pass  4 Test12= 1.38D-12 3.33D-08 XBig12= 2.56D-01 3.60D-02.
      3 vectors produced by pass  5 Test12= 1.38D-12 3.33D-08 XBig12= 5.56D-02 2.28D-02.
      3 vectors produced by pass  6 Test12= 1.38D-12 3.33D-08 XBig12= 2.00D-02 1.75D-02.
      3 vectors produced by pass  7 Test12= 1.38D-12 3.33D-08 XBig12= 2.54D-03 1.08D-02.
      3 vectors produced by pass  8 Test12= 1.38D-12 3.33D-08 XBig12= 7.15D-04 4.93D-03.
      3 vectors produced by pass  9 Test12= 1.38D-12 3.33D-08 XBig12= 1.81D-04 3.12D-03.
      3 vectors produced by pass 10 Test12= 1.38D-12 3.33D-08 XBig12= 3.38D-05 1.32D-03.
      3 vectors produced by pass 11 Test12= 1.38D-12 3.33D-08 XBig12= 7.52D-06 6.11D-04.
      3 vectors produced by pass 12 Test12= 1.38D-12 3.33D-08 XBig12= 9.21D-07 2.11D-04.
      3 vectors produced by pass 13 Test12= 1.38D-12 3.33D-08 XBig12= 3.59D-07 1.03D-04.
      3 vectors produced by pass 14 Test12= 1.38D-12 3.33D-08 XBig12= 4.13D-08 3.43D-05.
      3 vectors produced by pass 15 Test12= 1.38D-12 3.33D-08 XBig12= 6.30D-09 8.88D-06.
      3 vectors produced by pass 16 Test12= 1.38D-12 3.33D-08 XBig12= 1.00D-09 4.37D-06.
      3 vectors produced by pass 17 Test12= 1.38D-12 3.33D-08 XBig12= 8.71D-11 8.49D-07.
      3 vectors produced by pass 18 Test12= 1.38D-12 3.33D-08 XBig12= 3.52D-11 6.08D-07.
      3 vectors produced by pass 19 Test12= 1.38D-12 3.33D-08 XBig12= 1.07D-11 2.46D-07.
      3 vectors produced by pass 20 Test12= 1.38D-12 3.33D-08 XBig12= 4.79D-12 1.44D-07.
      2 vectors produced by pass 21 Test12= 1.38D-12 3.33D-08 XBig12= 8.15D-12 2.85D-07.
      1 vectors produced by pass 22 Test12= 1.38D-12 3.33D-08 XBig12= 1.86D-12 7.22D-08.
 Inverted reduced A of dimension    66 with in-core refinement.
 End of Minotr Frequency-dependent properties file   721 does not exist.
 End of Minotr Frequency-dependent properties file   722 does not exist.
 Symmetrizing basis deriv contribution to polar:
 IMax=3 JMax=2 DiffMx= 0.00D+00
 G2DrvN: will do    23 centers at a time, making    2 passes doing MaxLOS=2.
 Calling FoFCou, ICntrl=  3107 FMM=F I1Cent=   0 AccDes= 0.00D+00.
 Calling FoFCou, ICntrl=  3107 FMM=F I1Cent=   0 AccDes= 0.00D+00.
 FoFDir/FoFCou used for L=0 through L=2.
 End of G2Drv Frequency-dependent properties file   721 does not exist.
 End of G2Drv Frequency-dependent properties file   722 does not exist.
          IDoAtm=111111111111111111111111111111111111111111111
          Differentiating once with respect to electric field.
                with respect to dipole field.
          Differentiating once with respect to nuclear coordinates.
          There are   138 degrees of freedom in the 1st order CPHF.  IDoFFX=5.
 Will reuse    3 saved solutions.
    135 vectors produced by pass  0 Test12= 4.15D-14 1.00D-09 XBig12= 3.16D-01 8.98D-02.
 AX will form    68 AO Fock derivatives at one time.
    135 vectors produced by pass  1 Test12= 4.15D-14 1.00D-09 XBig12= 2.73D-02 1.71D-02.
    132 vectors produced by pass  2 Test12= 4.15D-14 1.00D-09 XBig12= 1.75D-04 1.61D-03.
    132 vectors produced by pass  3 Test12= 4.15D-14 1.00D-09 XBig12= 5.44D-07 6.52D-05.
    132 vectors produced by pass  4 Test12= 4.15D-14 1.00D-09 XBig12= 8.88D-10 2.26D-06.
    132 vectors produced by pass  5 Test12= 4.15D-14 1.00D-09 XBig12= 5.76D-12 2.26D-07.
     79 vectors produced by pass  6 Test12= 4.15D-14 1.00D-09 XBig12= 1.84D-13 2.19D-08.
 Inverted reduced A of dimension   877 with in-core refinement.
 Isotropic polarizability for W=    0.000000      187.23 Bohr**3.
 End of Minotr Frequency-dependent properties file   721 does not exist.
 End of Minotr Frequency-dependent properties file   722 does not exist.

 **********************************************************************

            Population analysis using the SCF density.

 **********************************************************************

 Orbital symmetries:
       Occupied  (A) (A) (A) (A) (A) (A) (A) (A) (A) (A) (A) (A)
                 (A) (A) (A) (A) (A) (A) (A) (A) (A) (A) (A) (A)
                 (A) (A) (A) (A) (A) (A) (A) (A) (A) (A) (A) (A)
                 (A) (A) (A) (A) (A) (A) (A) (A) (A) (A) (A) (A)
                 (A) (A) (A) (A) (A) (A) (A) (A) (A) (A) (A) (A)
                 (A) (A) (A) (A) (A) (A) (A) (A) (A) (A) (A) (A)
                 (A) (A) (A) (A) (A) (A) (A) (A) (A) (A) (A) (A)
                 (A) (A) (A) (A) (A) (A) (A)
       Virtual   (A) (A) (A) (A) (A) (A) (A) (A) (A) (A) (A) (A)
                 (A) (A) (A) (A) (A) (A) (A) (A) (A) (A) (A) (A)
                 (A) (A) (A) (A) (A) (A) (A) (A) (A) (A) (A) (A)
                 (A) (A) (A) (A) (A) (A) (A) (A) (A) (A) (A) (A)
                 (A) (A) (A) (A) (A) (A) (A) (A) (A) (A) (A) (A)
                 (A) (A) (A) (A) (A) (A) (A) (A) (A) (A) (A) (A)
                 (A) (A) (A) (A) (A) (A) (A) (A) (A) (A) (A) (A)
                 (A) (A) (A) (A) (A) (A) (A) (A) (A) (A) (A) (A)
                 (A) (A) (A) (A) (A) (A) (A) (A) (A) (A) (A) (A)
                 (A) (A) (A) (A) (A) (A) (A) (A) (A) (A) (A) (A)
                 (A) (A) (A) (A) (A) (A) (A) (A) (A) (A) (A) (A)
                 (A) (A) (A) (A) (A) (A) (A) (A) (A) (A) (A) (A)
                 (A) (A) (A) (A) (A) (A) (A) (A) (A) (A) (A) (A)
                 (A) (A) (A) (A) (A) (A) (A) (A) (A) (A) (A) (A)
                 (A) (A) (A) (A) (A) (A) (A) (A) (A) (A) (A) (A)
                 (A) (A) (A) (A) (A) (A) (A) (A) (A) (A) (A) (A)
                 (A) (A) (A) (A) (A) (A) (A) (A) (A) (A) (A) (A)
                 (A) (A) (A) (A) (A) (A) (A) (A) (A) (A) (A) (A)
                 (A) (A) (A) (A) (A) (A) (A) (A) (A) (A) (A) (A)
                 (A) (A) (A) (A) (A) (A) (A) (A) (A) (A) (A) (A)
                 (A) (A) (A) (A) (A) (A) (A) (A) (A) (A) (A) (A)
                 (A) (A) (A) (A) (A) (A) (A) (A) (A) (A) (A) (A)
                 (A) (A) (A) (A) (A) (A) (A) (A) (A) (A) (A) (A)
                 (A) (A) (A) (A) (A) (A) (A) (A) (A) (A) (A) (A)
                 (A) (A) (A) (A) (A) (A) (A) (A) (A) (A) (A) (A)
                 (A) (A) (A) (A) (A) (A) (A) (A) (A) (A) (A) (A)
                 (A) (A) (A) (A) (A) (A) (A) (A) (A) (A) (A) (A)
                 (A) (A) (A) (A) (A) (A) (A) (A) (A) (A) (A) (A)
                 (A) (A) (A) (A) (A) (A) (A) (A) (A) (A) (A) (A)
                 (A) (A) (A) (A) (A) (A) (A) (A) (A) (A) (A) (A)
                 (A) (A) (A) (A) (A) (A) (A) (A) (A) (A) (A) (A)
                 (A) (A) (A) (A) (A) (A) (A) (A) (A) (A) (A) (A)
                 (A) (A) (A) (A) (A) (A) (A) (A) (A) (A) (A) (A)
                 (A) (A) (A) (A) (A) (A) (A) (A) (A) (A) (A) (A)
                 (A) (A) (A) (A) (A) (A) (A) (A) (A) (A) (A) (A)
                 (A) (A) (A) (A) (A) (A) (A) (A) (A) (A) (A) (A)
                 (A) (A) (A) (A) (A) (A) (A) (A) (A) (A) (A) (A)
                 (A) (A) (A) (A) (A) (A) (A) (A) (A) (A) (A) (A)
 The electronic state is 1-A.
 Alpha  occ. eigenvalues --  -19.20976 -19.20713 -19.20513 -19.20023 -19.18691
 Alpha  occ. eigenvalues --  -19.18207 -19.17226 -19.16746 -19.16315 -19.15597
 Alpha  occ. eigenvalues --  -19.14801 -10.32485 -10.30029 -10.28711 -10.28512
 Alpha  occ. eigenvalues --  -10.26980 -10.26478 -10.26226 -10.25432 -10.25333
 Alpha  occ. eigenvalues --  -10.25325 -10.24772 -10.22691  -1.10717  -1.08650
 Alpha  occ. eigenvalues --   -1.07431  -1.06775  -1.05932  -1.04258  -1.03814
 Alpha  occ. eigenvalues --   -1.03778  -1.01209  -1.00930  -1.00021  -0.83601
 Alpha  occ. eigenvalues --   -0.81875  -0.79393  -0.78352  -0.73188  -0.70399
 Alpha  occ. eigenvalues --   -0.68852  -0.65314  -0.65235  -0.62899  -0.61936
 Alpha  occ. eigenvalues --   -0.60444  -0.58129  -0.57510  -0.56112  -0.54828
 Alpha  occ. eigenvalues --   -0.54721  -0.54014  -0.53317  -0.52890  -0.51343
 Alpha  occ. eigenvalues --   -0.50471  -0.50021  -0.49283  -0.47829  -0.47338
 Alpha  occ. eigenvalues --   -0.46380  -0.45785  -0.45515  -0.45146  -0.44335
 Alpha  occ. eigenvalues --   -0.43799  -0.43041  -0.41541  -0.41005  -0.39870
 Alpha  occ. eigenvalues --   -0.39291  -0.38534  -0.38122  -0.37304  -0.37161
 Alpha  occ. eigenvalues --   -0.36041  -0.35649  -0.34949  -0.34093  -0.33661
 Alpha  occ. eigenvalues --   -0.32776  -0.32313  -0.31354  -0.30936  -0.30666
 Alpha  occ. eigenvalues --   -0.29925  -0.29724  -0.28860  -0.27928  -0.27389
 Alpha  occ. eigenvalues --   -0.26048
 Alpha virt. eigenvalues --   -0.04843  -0.02397  -0.00585   0.00055   0.00460
 Alpha virt. eigenvalues --    0.01194   0.01568   0.02006   0.02947   0.03110
 Alpha virt. eigenvalues --    0.03797   0.03984   0.04785   0.05181   0.05587
 Alpha virt. eigenvalues --    0.06038   0.06285   0.06482   0.06999   0.07605
 Alpha virt. eigenvalues --    0.08146   0.08569   0.08910   0.09322   0.09794
 Alpha virt. eigenvalues --    0.10352   0.10711   0.11281   0.11447   0.11702
 Alpha virt. eigenvalues --    0.12038   0.12531   0.12608   0.12801   0.13249
 Alpha virt. eigenvalues --    0.13523   0.13956   0.14421   0.14643   0.15064
 Alpha virt. eigenvalues --    0.15219   0.15505   0.15597   0.15905   0.16116
 Alpha virt. eigenvalues --    0.16895   0.17131   0.17268   0.17805   0.18108
 Alpha virt. eigenvalues --    0.18347   0.18809   0.19044   0.19276   0.19431
 Alpha virt. eigenvalues --    0.19855   0.20346   0.20562   0.20923   0.21302
 Alpha virt. eigenvalues --    0.21333   0.21438   0.21945   0.22366   0.22560
 Alpha virt. eigenvalues --    0.22684   0.23118   0.23645   0.23747   0.24258
 Alpha virt. eigenvalues --    0.24381   0.25028   0.25369   0.25679   0.25823
 Alpha virt. eigenvalues --    0.26079   0.26376   0.26633   0.27074   0.27344
 Alpha virt. eigenvalues --    0.27456   0.27635   0.27927   0.28309   0.28531
 Alpha virt. eigenvalues --    0.28796   0.29405   0.29635   0.30243   0.30346
 Alpha virt. eigenvalues --    0.30775   0.30922   0.31338   0.31747   0.31962
 Alpha virt. eigenvalues --    0.32316   0.32506   0.32750   0.33496   0.33907
 Alpha virt. eigenvalues --    0.34226   0.34418   0.34587   0.35185   0.35652
 Alpha virt. eigenvalues --    0.35736   0.36023   0.36581   0.37149   0.37636
 Alpha virt. eigenvalues --    0.37758   0.38192   0.38573   0.38772   0.39116
 Alpha virt. eigenvalues --    0.39311   0.39850   0.40380   0.40677   0.40891
 Alpha virt. eigenvalues --    0.41504   0.41820   0.41862   0.42635   0.43392
 Alpha virt. eigenvalues --    0.43729   0.44430   0.44872   0.45733   0.46458
 Alpha virt. eigenvalues --    0.46947   0.47199   0.48597   0.49882   0.51248
 Alpha virt. eigenvalues --    0.52424   0.52633   0.53304   0.61966   0.62874
 Alpha virt. eigenvalues --    0.64071   0.65753   0.66765   0.68180   0.68504
 Alpha virt. eigenvalues --    0.69647   0.70751   0.72241   0.72925   0.74504
 Alpha virt. eigenvalues --    0.75054   0.75501   0.76636   0.78202   0.79092
 Alpha virt. eigenvalues --    0.79438   0.80096   0.80848   0.81612   0.81915
 Alpha virt. eigenvalues --    0.83332   0.84552   0.85482   0.86597   0.88737
 Alpha virt. eigenvalues --    0.90037   0.91045   0.92207   0.92875   0.93623
 Alpha virt. eigenvalues --    0.94939   0.97010   0.98288   0.99144   1.00049
 Alpha virt. eigenvalues --    1.00590   1.01759   1.02638   1.02979   1.03204
 Alpha virt. eigenvalues --    1.03971   1.05097   1.05324   1.05938   1.06312
 Alpha virt. eigenvalues --    1.07645   1.08111   1.08195   1.09168   1.10305
 Alpha virt. eigenvalues --    1.11041   1.11864   1.12639   1.13617   1.14599
 Alpha virt. eigenvalues --    1.15677   1.16384   1.17488   1.18421   1.19289
 Alpha virt. eigenvalues --    1.21458   1.22619   1.23249   1.23456   1.24253
 Alpha virt. eigenvalues --    1.24437   1.25036   1.26220   1.26529   1.27205
 Alpha virt. eigenvalues --    1.28182   1.28348   1.28882   1.30299   1.30722
 Alpha virt. eigenvalues --    1.31246   1.32063   1.32712   1.33150   1.34537
 Alpha virt. eigenvalues --    1.34829   1.35958   1.36289   1.37636   1.37919
 Alpha virt. eigenvalues --    1.38374   1.40304   1.40564   1.41349   1.42506
 Alpha virt. eigenvalues --    1.43418   1.43740   1.44673   1.46868   1.47779
 Alpha virt. eigenvalues --    1.50329   1.50762   1.51408   1.52596   1.52859
 Alpha virt. eigenvalues --    1.53615   1.54100   1.54722   1.55349   1.56643
 Alpha virt. eigenvalues --    1.57123   1.58082   1.58651   1.59233   1.59951
 Alpha virt. eigenvalues --    1.61016   1.61562   1.62158   1.62678   1.63658
 Alpha virt. eigenvalues --    1.64249   1.65219   1.65690   1.66689   1.67161
 Alpha virt. eigenvalues --    1.68859   1.69567   1.70551   1.71068   1.72045
 Alpha virt. eigenvalues --    1.73906   1.74463   1.75336   1.75514   1.77313
 Alpha virt. eigenvalues --    1.78031   1.79796   1.80144   1.80701   1.81178
 Alpha virt. eigenvalues --    1.81315   1.82127   1.83155   1.86146   1.86315
 Alpha virt. eigenvalues --    1.87866   1.88198   1.89167   1.89470   1.90343
 Alpha virt. eigenvalues --    1.91131   1.91874   1.92664   1.93146   1.93442
 Alpha virt. eigenvalues --    1.94887   1.95614   1.96319   1.97259   1.97876
 Alpha virt. eigenvalues --    1.98968   1.99530   1.99948   2.00912   2.02016
 Alpha virt. eigenvalues --    2.04461   2.05679   2.05985   2.06235   2.07646
 Alpha virt. eigenvalues --    2.08037   2.08782   2.09079   2.11025   2.11499
 Alpha virt. eigenvalues --    2.11864   2.12496   2.14403   2.14951   2.15958
 Alpha virt. eigenvalues --    2.17035   2.17876   2.19393   2.20100   2.20680
 Alpha virt. eigenvalues --    2.21151   2.22350   2.25237   2.27428   2.28388
 Alpha virt. eigenvalues --    2.28760   2.30348   2.30413   2.32225   2.33874
 Alpha virt. eigenvalues --    2.34047   2.34830   2.35697   2.36127   2.36540
 Alpha virt. eigenvalues --    2.38603   2.39575   2.40463   2.41529   2.43149
 Alpha virt. eigenvalues --    2.44851   2.45151   2.47420   2.47733   2.48508
 Alpha virt. eigenvalues --    2.50233   2.50505   2.51658   2.52573   2.54166
 Alpha virt. eigenvalues --    2.55056   2.55984   2.56518   2.58101   2.59163
 Alpha virt. eigenvalues --    2.60578   2.61012   2.61521   2.63348   2.63683
 Alpha virt. eigenvalues --    2.64202   2.65053   2.65845   2.67822   2.68538
 Alpha virt. eigenvalues --    2.69915   2.70063   2.71890   2.73619   2.74649
 Alpha virt. eigenvalues --    2.74791   2.75491   2.76679   2.77922   2.78489
 Alpha virt. eigenvalues --    2.80404   2.81251   2.82144   2.82922   2.84089
 Alpha virt. eigenvalues --    2.85237   2.87580   2.87953   2.88475   2.89628
 Alpha virt. eigenvalues --    2.91527   2.91939   2.92196   2.92752   2.93692
 Alpha virt. eigenvalues --    2.94311   2.95543   2.96568   2.97788   2.99231
 Alpha virt. eigenvalues --    3.00070   3.01156   3.02653   3.04619   3.05034
 Alpha virt. eigenvalues --    3.07143   3.08892   3.09488   3.11104   3.13305
 Alpha virt. eigenvalues --    3.14835   3.17582   3.22215   3.24045   3.28013
 Alpha virt. eigenvalues --    3.29034   3.35760   3.39572   3.40057   3.41751
 Alpha virt. eigenvalues --    3.43058   3.44263   3.44964   3.45017   3.47989
 Alpha virt. eigenvalues --    3.48886   3.50367   3.51665   3.51913   3.54634
 Alpha virt. eigenvalues --    3.55681   3.57097   3.59579   3.61088   3.62129
 Alpha virt. eigenvalues --    3.64368   3.68533   3.71355   4.29281   4.29962
 Alpha virt. eigenvalues --    4.32509   4.33525   4.36225   4.37715   4.41220
 Alpha virt. eigenvalues --    4.46477   4.47212   4.49940   4.51966   4.52616
 Alpha virt. eigenvalues --    4.56886   4.57504   4.60384   4.62286   4.72470
 Alpha virt. eigenvalues --    4.75789   4.80771   4.84645   4.84876   4.88224
 Alpha virt. eigenvalues --    4.89340
          Condensed to atoms (all electrons):
              1          2          3          4          5          6
     1  O    8.264720   0.262918  -0.018374  -0.022700   0.021746  -0.006834
     2  C    0.262918  10.060794  -0.462752   0.137989  -0.065760  -3.417498
     3  C   -0.018374  -0.462752   8.793387  -0.245792   0.152058  -3.361048
     4  O   -0.022700   0.137989  -0.245792   8.375243   0.166011   0.122141
     5  H    0.021746  -0.065760   0.152058   0.166011   0.470002  -0.091896
     6  C   -0.006834  -3.417498  -3.361048   0.122141  -0.091896  20.904064
     7  O   -0.002150   0.005746   0.034066  -0.015848   0.001779  -0.142679
     8  H   -0.000131   0.021202  -0.003861   0.011912  -0.000409  -0.013566
     9  C   -0.061465   0.646029  -0.627715   0.016979  -0.005334   0.799587
    10  O   -0.000274   0.027447   0.002481   0.000083  -0.000005  -0.008564
    11  H    0.000065  -0.007913   0.000884   0.000001   0.000000   0.002232
    12  C   -0.170934  -3.329994  -0.254108  -0.066779   0.032116   2.556558
    13  O    0.005921   0.077023   0.049607  -0.002072  -0.000053  -0.121049
    14  C    0.039953   1.746798   1.202821   0.084223   0.000736  -9.166959
    15  O    0.000397  -0.026554   0.046111  -0.002330   0.000142  -0.073090
    16  C    0.006248   0.113140   0.285286  -0.010533   0.001329  -0.587305
    17  C    0.000409  -0.084393   0.142705   0.002572  -0.000019  -0.839804
    18  O    0.000067   0.005028  -0.007572   0.000018   0.000000  -0.015436
    19  H   -0.000044   0.001985  -0.002192  -0.000009   0.000000   0.034974
    20  C    0.000128   0.017078   0.020952   0.000146   0.000001  -0.364057
    21  O    0.000000   0.000221  -0.000016   0.000000   0.000000   0.002625
    22  H    0.000000  -0.000003  -0.000031   0.000000   0.000000   0.000734
    23  C    0.000142  -0.006494  -0.055792  -0.000694  -0.000030   0.033733
    24  O   -0.000008   0.002990   0.003938   0.000169  -0.000004  -0.012443
    25  H    0.000001  -0.000750   0.005119  -0.000171   0.000000   0.024489
    26  C    0.000057   0.037911   0.146508   0.001010   0.000025  -0.627958
    27  O    0.000000  -0.000056   0.000445   0.000000   0.000000  -0.004727
    28  C   -0.000003   0.001100   0.002494   0.000025   0.000000  -0.016757
    29  O    0.000000  -0.000005  -0.000025   0.000000   0.000000   0.000776
    30  H    0.000000   0.000000   0.000000   0.000000   0.000000  -0.000005
    31  H    0.000000   0.000001  -0.000011   0.000000   0.000000   0.000712
    32  H    0.000000   0.000023  -0.000238   0.000000   0.000000   0.006353
    33  H    0.000000   0.000221  -0.000873   0.000000   0.000000   0.010498
    34  H   -0.000002   0.000482  -0.001983  -0.000001   0.000000  -0.016584
    35  H    0.000000   0.000015  -0.000353   0.000000   0.000000   0.002521
    36  H    0.000000  -0.000163   0.002513   0.000014   0.000000   0.007982
    37  H    0.000000   0.000033  -0.000220   0.000000   0.000000  -0.000942
    38  H    0.238388   0.050661  -0.060707   0.000145  -0.000459   0.011740
    39  H   -0.001217   0.047398  -0.003147  -0.000023  -0.000001   0.019151
    40  H    0.002716   0.035789  -0.010887  -0.000047  -0.000001  -0.013702
    41  H    0.005407   0.025646  -0.017780   0.000174  -0.000045  -0.023648
    42  H   -0.041809   0.417843  -0.095042   0.004636  -0.002595  -0.025033
    43  H   -0.009290   0.099785   0.377288  -0.038159  -0.003624  -0.278785
    44  H   -0.000327  -0.005079  -0.083027  -0.016962   0.000808   0.476492
    45  H    0.000130   0.002226  -0.022543  -0.000856   0.000006  -0.055522
              7          8          9         10         11         12
     1  O   -0.002150  -0.000131  -0.061465  -0.000274   0.000065  -0.170934
     2  C    0.005746   0.021202   0.646029   0.027447  -0.007913  -3.329994
     3  C    0.034066  -0.003861  -0.627715   0.002481   0.000884  -0.254108
     4  O   -0.015848   0.011912   0.016979   0.000083   0.000001  -0.066779
     5  H    0.001779  -0.000409  -0.005334  -0.000005   0.000000   0.032116
     6  C   -0.142679  -0.013566   0.799587  -0.008564   0.002232   2.556558
     7  O    8.368691   0.211246  -0.001148  -0.000005   0.000000  -0.036513
     8  H    0.211246   0.383428   0.000978   0.000000   0.000000   0.002069
     9  C   -0.001148   0.000978   8.378581   0.161791  -0.004409  -3.075494
    10  O   -0.000005   0.000000   0.161791   8.309593   0.202125  -0.077375
    11  H    0.000000   0.000000  -0.004409   0.202125   0.436633   0.028510
    12  C   -0.036513   0.002069  -3.075494  -0.077375   0.028510  12.692838
    13  O    0.007321  -0.000765  -0.022899   0.012071  -0.000422  -0.178971
    14  C    0.196458   0.009645  -0.850645  -0.011807  -0.001723  -1.573711
    15  O   -0.007435   0.000044  -0.008669   0.000117   0.000002  -0.014029
    16  C    0.002831  -0.008025  -0.203530   0.015161  -0.001301  -0.366560
    17  C    0.013191  -0.000543  -0.064065  -0.002869   0.000336  -0.217466
    18  O    0.000386  -0.000003  -0.006286   0.001529  -0.000042   0.011265
    19  H   -0.000171   0.000001   0.005974   0.002434  -0.000028  -0.001471
    20  C    0.001455  -0.000240  -0.023316   0.001090  -0.000087  -0.029476
    21  O    0.000000   0.000000   0.000256   0.000006   0.000000   0.000269
    22  H   -0.000001   0.000000  -0.000114  -0.000007   0.000000   0.000094
    23  C    0.004981  -0.002217  -0.001655   0.000048  -0.000001  -0.000945
    24  O   -0.002617   0.001178   0.000232  -0.000001   0.000000   0.001275
    25  H    0.005789  -0.001753  -0.000111   0.000000   0.000000  -0.002536
    26  C    0.002314   0.002742  -0.010825   0.000743  -0.000049  -0.114854
    27  O    0.000037  -0.000001  -0.000078  -0.000001   0.000000  -0.000277
    28  C   -0.000435  -0.000002  -0.002674  -0.000036   0.000001   0.005472
    29  O    0.000006   0.000000   0.000023   0.000000   0.000000   0.000029
    30  H    0.000000   0.000000   0.000000   0.000000   0.000000   0.000001
    31  H    0.000001   0.000000   0.000012   0.000000   0.000000   0.000001
    32  H    0.000042   0.000000   0.000214   0.000001   0.000000   0.000293
    33  H    0.000039   0.000000   0.001119  -0.000016   0.000000   0.002527
    34  H   -0.000309   0.000003   0.000620   0.000002   0.000000   0.008046
    35  H   -0.000050   0.000000   0.000091   0.000000   0.000000   0.000239
    36  H    0.000708   0.000009   0.000003   0.000000   0.000000  -0.001498
    37  H   -0.000157   0.000000  -0.000002   0.000000   0.000000  -0.000089
    38  H   -0.000043   0.000000   0.002677   0.000050  -0.000001   0.016641
    39  H    0.000001   0.000000   0.641760  -0.062558  -0.000940  -0.344559
    40  H   -0.000002   0.000000   0.404360  -0.047700  -0.010365  -0.060124
    41  H   -0.000088   0.000009   0.042726   0.004124   0.000010   0.155566
    42  H   -0.000390   0.000008   0.009444  -0.000112  -0.000001  -0.088147
    43  H   -0.000983  -0.000894   0.013374   0.000006   0.000000  -0.076756
    44  H   -0.057227  -0.004723   0.008095  -0.000006   0.000000  -0.002878
    45  H    0.003908   0.000030   0.014905  -0.000263  -0.000001  -0.008805
             13         14         15         16         17         18
     1  O    0.005921   0.039953   0.000397   0.006248   0.000409   0.000067
     2  C    0.077023   1.746798  -0.026554   0.113140  -0.084393   0.005028
     3  C    0.049607   1.202821   0.046111   0.285286   0.142705  -0.007572
     4  O   -0.002072   0.084223  -0.002330  -0.010533   0.002572   0.000018
     5  H   -0.000053   0.000736   0.000142   0.001329  -0.000019   0.000000
     6  C   -0.121049  -9.166959  -0.073090  -0.587305  -0.839804  -0.015436
     7  O    0.007321   0.196458  -0.007435   0.002831   0.013191   0.000386
     8  H   -0.000765   0.009645   0.000044  -0.008025  -0.000543  -0.000003
     9  C   -0.022899  -0.850645  -0.008669  -0.203530  -0.064065  -0.006286
    10  O    0.012071  -0.011807   0.000117   0.015161  -0.002869   0.001529
    11  H   -0.000422  -0.001723   0.000002  -0.001301   0.000336  -0.000042
    12  C   -0.178971  -1.573711  -0.014029  -0.366560  -0.217466   0.011265
    13  O    8.410191   0.282464   0.007518  -0.031328  -0.005057   0.005513
    14  C    0.282464  17.080526   0.226734  -0.137519  -0.885278  -0.009796
    15  O    0.007518   0.226734   8.379133  -0.096495   0.111894  -0.014228
    16  C   -0.031328  -0.137519  -0.096495  20.291919  -4.822538  -0.096076
    17  C   -0.005057  -0.885278   0.111894  -4.822538  11.924453   0.198601
    18  O    0.005513  -0.009796  -0.014228  -0.096076   0.198601   8.291130
    19  H    0.027490   0.008419   0.009777  -0.122401   0.085706   0.187235
    20  C    0.002142  -0.609679   0.038465  -2.819272  -0.592318  -0.009831
    21  O    0.000047   0.008707  -0.000306  -0.039252  -0.042990  -0.010517
    22  H   -0.000030   0.009588  -0.000246   0.088757  -0.083609   0.032460
    23  C    0.003168  -0.248022  -0.041889   0.535965  -0.259450   0.010785
    24  O    0.000144   0.030697   0.008311   0.017348  -0.003396   0.000001
    25  H   -0.000032  -0.028736   0.016038   0.072668   0.000816   0.000007
    26  C   -0.025129  -2.094010  -0.082460  -7.305888   1.782767   0.018908
    27  O   -0.000094  -0.015825   0.010725  -0.301350   0.076735   0.002300
    28  C    0.000827   0.072608   0.019002   0.973231  -0.495165   0.017400
    29  O   -0.000014   0.003176   0.000193   0.006069   0.041054   0.000421
    30  H    0.000000   0.000453   0.000001   0.011685  -0.009349   0.000002
    31  H   -0.000002   0.008343   0.000091   0.129789   0.001042  -0.000702
    32  H    0.000063   0.012063  -0.001782   0.120786  -0.013029  -0.000395
    33  H    0.000266   0.074920  -0.009309   0.134562   0.240364  -0.054405
    34  H    0.001340   0.063876  -0.058521   0.323810  -0.100395  -0.001412
    35  H   -0.000139   0.044062   0.009434   0.100283  -0.019873  -0.000798
    36  H   -0.000549  -0.070679  -0.007888  -0.115924   0.031022  -0.000027
    37  H   -0.000006   0.002720  -0.001096   0.137328  -0.004042   0.000041
    38  H   -0.000766  -0.006985   0.000002   0.000062  -0.000018  -0.000001
    39  H   -0.000498  -0.006926   0.000143  -0.002512   0.000311   0.000045
    40  H    0.006600   0.008101  -0.000027   0.001618  -0.000135  -0.000030
    41  H   -0.060185   0.081418   0.000667   0.011518   0.007030  -0.000201
    42  H    0.002495   0.070426  -0.000311  -0.001670   0.001547   0.000016
    43  H    0.001971   0.162672  -0.000957   0.003683   0.001959   0.000038
    44  H    0.008518  -0.115656  -0.004655   0.048276   0.002336   0.000028
    45  H   -0.065548   0.285397  -0.075238   0.117192  -0.014049   0.000842
             19         20         21         22         23         24
     1  O   -0.000044   0.000128   0.000000   0.000000   0.000142  -0.000008
     2  C    0.001985   0.017078   0.000221  -0.000003  -0.006494   0.002990
     3  C   -0.002192   0.020952  -0.000016  -0.000031  -0.055792   0.003938
     4  O   -0.000009   0.000146   0.000000   0.000000  -0.000694   0.000169
     5  H    0.000000   0.000001   0.000000   0.000000  -0.000030  -0.000004
     6  C    0.034974  -0.364057   0.002625   0.000734   0.033733  -0.012443
     7  O   -0.000171   0.001455   0.000000  -0.000001   0.004981  -0.002617
     8  H    0.000001  -0.000240   0.000000   0.000000  -0.002217   0.001178
     9  C    0.005974  -0.023316   0.000256  -0.000114  -0.001655   0.000232
    10  O    0.002434   0.001090   0.000006  -0.000007   0.000048  -0.000001
    11  H   -0.000028  -0.000087   0.000000   0.000000  -0.000001   0.000000
    12  C   -0.001471  -0.029476   0.000269   0.000094  -0.000945   0.001275
    13  O    0.027490   0.002142   0.000047  -0.000030   0.003168   0.000144
    14  C    0.008419  -0.609679   0.008707   0.009588  -0.248022   0.030697
    15  O    0.009777   0.038465  -0.000306  -0.000246  -0.041889   0.008311
    16  C   -0.122401  -2.819272  -0.039252   0.088757   0.535965   0.017348
    17  C    0.085706  -0.592318  -0.042990  -0.083609  -0.259450  -0.003396
    18  O    0.187235  -0.009831  -0.010517   0.032460   0.010785   0.000001
    19  H    0.355029  -0.000831   0.001035  -0.001017  -0.001265  -0.000023
    20  C   -0.000831   9.483909   0.330212  -0.037841   0.107117  -0.003613
    21  O    0.001035   0.330212   8.196278   0.211005  -0.004734   0.000003
    22  H   -0.001017  -0.037841   0.211005   0.405138   0.001368   0.000001
    23  C   -0.001265   0.107117  -0.004734   0.001368   6.622668   0.315940
    24  O   -0.000023  -0.003613   0.000003   0.000001   0.315940   8.210199
    25  H   -0.000001  -0.000095  -0.000001   0.000000   0.013146   0.232208
    26  C    0.003501   1.366584   0.016685  -0.019340  -1.534869  -0.189890
    27  O    0.000037  -0.103858   0.007309  -0.001092  -0.083319   0.011142
    28  C   -0.002067  -0.594629  -0.162140   0.025799  -0.020071   0.005773
    29  O    0.000023  -0.192859   0.004568   0.000029  -0.004701   0.000127
    30  H    0.000000   0.045484  -0.000542   0.000011   0.001312   0.000003
    31  H    0.000005  -0.193721   0.007271  -0.000112   0.002636   0.000032
    32  H   -0.000164   0.198087  -0.044539  -0.002281   0.004619   0.000059
    33  H   -0.004385  -0.170316   0.001384  -0.001087   0.011458   0.000158
    34  H   -0.000281  -0.012761  -0.000081  -0.000024  -0.030433   0.004068
    35  H    0.000010  -0.037091  -0.000182  -0.000010  -0.039534   0.007065
    36  H    0.000002   0.002290  -0.000009   0.000000   0.370340  -0.067237
    37  H    0.000000  -0.000757  -0.000004   0.000000   0.547645  -0.061549
    38  H    0.000000   0.000000   0.000000   0.000000   0.000002   0.000000
    39  H    0.000082  -0.000075   0.000000   0.000000  -0.000009   0.000000
    40  H   -0.000009   0.000052   0.000000   0.000000   0.000001   0.000000
    41  H    0.000211   0.000224   0.000000   0.000000   0.000093  -0.000004
    42  H   -0.000003   0.000022   0.000000   0.000000   0.000058  -0.000001
    43  H   -0.000004   0.000135   0.000000   0.000000   0.000071  -0.000009
    44  H   -0.000011   0.000691   0.000000   0.000000   0.005912  -0.000525
    45  H   -0.003195   0.008906   0.000008  -0.000001   0.005527  -0.000412
             25         26         27         28         29         30
     1  O    0.000001   0.000057   0.000000  -0.000003   0.000000   0.000000
     2  C   -0.000750   0.037911  -0.000056   0.001100  -0.000005   0.000000
     3  C    0.005119   0.146508   0.000445   0.002494  -0.000025   0.000000
     4  O   -0.000171   0.001010   0.000000   0.000025   0.000000   0.000000
     5  H    0.000000   0.000025   0.000000   0.000000   0.000000   0.000000
     6  C    0.024489  -0.627958  -0.004727  -0.016757   0.000776  -0.000005
     7  O    0.005789   0.002314   0.000037  -0.000435   0.000006   0.000000
     8  H   -0.001753   0.002742  -0.000001  -0.000002   0.000000   0.000000
     9  C   -0.000111  -0.010825  -0.000078  -0.002674   0.000023   0.000000
    10  O    0.000000   0.000743  -0.000001  -0.000036   0.000000   0.000000
    11  H    0.000000  -0.000049   0.000000   0.000001   0.000000   0.000000
    12  C   -0.002536  -0.114854  -0.000277   0.005472   0.000029   0.000001
    13  O   -0.000032  -0.025129  -0.000094   0.000827  -0.000014   0.000000
    14  C   -0.028736  -2.094010  -0.015825   0.072608   0.003176   0.000453
    15  O    0.016038  -0.082460   0.010725   0.019002   0.000193   0.000001
    16  C    0.072668  -7.305888  -0.301350   0.973231   0.006069   0.011685
    17  C    0.000816   1.782767   0.076735  -0.495165   0.041054  -0.009349
    18  O    0.000007   0.018908   0.002300   0.017400   0.000421   0.000002
    19  H   -0.000001   0.003501   0.000037  -0.002067   0.000023   0.000000
    20  C   -0.000095   1.366584  -0.103858  -0.594629  -0.192859   0.045484
    21  O   -0.000001   0.016685   0.007309  -0.162140   0.004568  -0.000542
    22  H    0.000000  -0.019340  -0.001092   0.025799   0.000029   0.000011
    23  C    0.013146  -1.534869  -0.083319  -0.020071  -0.004701   0.001312
    24  O    0.232208  -0.189890   0.011142   0.005773   0.000127   0.000003
    25  H    0.364380  -0.099522  -0.001448  -0.000585  -0.000005   0.000000
    26  C   -0.099522  14.766138   0.426985  -0.740104  -0.053455  -0.013816
    27  O   -0.001448   0.426985   8.461561   0.058301  -0.058066  -0.003924
    28  C   -0.000585  -0.740104   0.058301   5.699630   0.421864  -0.019118
    29  O   -0.000005  -0.053455  -0.058066   0.421864   8.131143   0.236721
    30  H    0.000000  -0.013816  -0.003924  -0.019118   0.236721   0.406017
    31  H    0.000000  -0.067387  -0.074956   0.462923  -0.048353  -0.008909
    32  H    0.000000   0.015463   0.004097  -0.069590  -0.002821  -0.000032
    33  H   -0.000002  -0.055966   0.001771   0.018970  -0.000160   0.000005
    34  H   -0.000675   0.037364  -0.000300   0.019356  -0.001178   0.000007
    35  H    0.000029   0.180982  -0.054186   0.044708  -0.000586  -0.000026
    36  H   -0.007296   0.141375   0.005737  -0.000898   0.000026   0.000000
    37  H    0.006707  -0.291447  -0.009329  -0.005619  -0.000213   0.000005
    38  H    0.000000  -0.000005   0.000000   0.000000   0.000000   0.000000
    39  H    0.000000  -0.000039   0.000000  -0.000009   0.000000   0.000000
    40  H    0.000000   0.000069   0.000000   0.000001   0.000000   0.000000
    41  H    0.000001   0.000694   0.000000  -0.000044   0.000000   0.000000
    42  H    0.000000  -0.000196   0.000000  -0.000003   0.000000   0.000000
    43  H    0.000012  -0.000158   0.000000   0.000002   0.000000   0.000000
    44  H    0.000665  -0.009147   0.000013  -0.000049   0.000000   0.000000
    45  H    0.000148   0.022958   0.000236   0.000550  -0.000003   0.000000
             31         32         33         34         35         36
     1  O    0.000000   0.000000   0.000000  -0.000002   0.000000   0.000000
     2  C    0.000001   0.000023   0.000221   0.000482   0.000015  -0.000163
     3  C   -0.000011  -0.000238  -0.000873  -0.001983  -0.000353   0.002513
     4  O    0.000000   0.000000   0.000000  -0.000001   0.000000   0.000014
     5  H    0.000000   0.000000   0.000000   0.000000   0.000000   0.000000
     6  C    0.000712   0.006353   0.010498  -0.016584   0.002521   0.007982
     7  O    0.000001   0.000042   0.000039  -0.000309  -0.000050   0.000708
     8  H    0.000000   0.000000   0.000000   0.000003   0.000000   0.000009
     9  C    0.000012   0.000214   0.001119   0.000620   0.000091   0.000003
    10  O    0.000000   0.000001  -0.000016   0.000002   0.000000   0.000000
    11  H    0.000000   0.000000   0.000000   0.000000   0.000000   0.000000
    12  C    0.000001   0.000293   0.002527   0.008046   0.000239  -0.001498
    13  O   -0.000002   0.000063   0.000266   0.001340  -0.000139  -0.000549
    14  C    0.008343   0.012063   0.074920   0.063876   0.044062  -0.070679
    15  O    0.000091  -0.001782  -0.009309  -0.058521   0.009434  -0.007888
    16  C    0.129789   0.120786   0.134562   0.323810   0.100283  -0.115924
    17  C    0.001042  -0.013029   0.240364  -0.100395  -0.019873   0.031022
    18  O   -0.000702  -0.000395  -0.054405  -0.001412  -0.000798  -0.000027
    19  H    0.000005  -0.000164  -0.004385  -0.000281   0.000010   0.000002
    20  C   -0.193721   0.198087  -0.170316  -0.012761  -0.037091   0.002290
    21  O    0.007271  -0.044539   0.001384  -0.000081  -0.000182  -0.000009
    22  H   -0.000112  -0.002281  -0.001087  -0.000024  -0.000010   0.000000
    23  C    0.002636   0.004619   0.011458  -0.030433  -0.039534   0.370340
    24  O    0.000032   0.000059   0.000158   0.004068   0.007065  -0.067237
    25  H    0.000000   0.000000  -0.000002  -0.000675   0.000029  -0.007296
    26  C   -0.067387   0.015463  -0.055966   0.037364   0.180982   0.141375
    27  O   -0.074956   0.004097   0.001771  -0.000300  -0.054186   0.005737
    28  C    0.462923  -0.069590   0.018970   0.019356   0.044708  -0.000898
    29  O   -0.048353  -0.002821  -0.000160  -0.001178  -0.000586   0.000026
    30  H   -0.008909  -0.000032   0.000005   0.000007  -0.000026   0.000000
    31  H    0.648747   0.006152   0.003164   0.000012   0.006440   0.000002
    32  H    0.006152   0.607281   0.006593   0.003195  -0.000005   0.000001
    33  H    0.003164   0.006593   0.634206   0.006932   0.005095   0.000000
    34  H    0.000012   0.003195   0.006932   0.584271   0.005405   0.000034
    35  H    0.006440  -0.000005   0.005095   0.005405   0.623252  -0.006581
    36  H    0.000002   0.000001   0.000000   0.000034  -0.006581   0.618254
    37  H   -0.000025   0.000000  -0.000012   0.000074   0.000308  -0.035586
    38  H    0.000000   0.000000   0.000000   0.000000   0.000000   0.000000
    39  H    0.000000   0.000000   0.000000   0.000000   0.000000   0.000000
    40  H    0.000000   0.000000   0.000000   0.000000   0.000000   0.000000
    41  H    0.000000   0.000000  -0.000001  -0.000002   0.000000   0.000000
    42  H    0.000000   0.000000   0.000000   0.000000   0.000000   0.000000
    43  H    0.000000   0.000000   0.000000   0.000002   0.000000   0.000000
    44  H    0.000000   0.000000   0.000000   0.000021   0.000000  -0.000013
    45  H    0.000000  -0.000043   0.000031   0.008669  -0.000013  -0.000012
             37         38         39         40         41         42
     1  O    0.000000   0.238388  -0.001217   0.002716   0.005407  -0.041809
     2  C    0.000033   0.050661   0.047398   0.035789   0.025646   0.417843
     3  C   -0.000220  -0.060707  -0.003147  -0.010887  -0.017780  -0.095042
     4  O    0.000000   0.000145  -0.000023  -0.000047   0.000174   0.004636
     5  H    0.000000  -0.000459  -0.000001  -0.000001  -0.000045  -0.002595
     6  C   -0.000942   0.011740   0.019151  -0.013702  -0.023648  -0.025033
     7  O   -0.000157  -0.000043   0.000001  -0.000002  -0.000088  -0.000390
     8  H    0.000000   0.000000   0.000000   0.000000   0.000009   0.000008
     9  C   -0.000002   0.002677   0.641760   0.404360   0.042726   0.009444
    10  O    0.000000   0.000050  -0.062558  -0.047700   0.004124  -0.000112
    11  H    0.000000  -0.000001  -0.000940  -0.010365   0.000010  -0.000001
    12  C   -0.000089   0.016641  -0.344559  -0.060124   0.155566  -0.088147
    13  O   -0.000006  -0.000766  -0.000498   0.006600  -0.060185   0.002495
    14  C    0.002720  -0.006985  -0.006926   0.008101   0.081418   0.070426
    15  O   -0.001096   0.000002   0.000143  -0.000027   0.000667  -0.000311
    16  C    0.137328   0.000062  -0.002512   0.001618   0.011518  -0.001670
    17  C   -0.004042  -0.000018   0.000311  -0.000135   0.007030   0.001547
    18  O    0.000041  -0.000001   0.000045  -0.000030  -0.000201   0.000016
    19  H    0.000000   0.000000   0.000082  -0.000009   0.000211  -0.000003
    20  C   -0.000757   0.000000  -0.000075   0.000052   0.000224   0.000022
    21  O   -0.000004   0.000000   0.000000   0.000000   0.000000   0.000000
    22  H    0.000000   0.000000   0.000000   0.000000   0.000000   0.000000
    23  C    0.547645   0.000002  -0.000009   0.000001   0.000093   0.000058
    24  O   -0.061549   0.000000   0.000000   0.000000  -0.000004  -0.000001
    25  H    0.006707   0.000000   0.000000   0.000000   0.000001   0.000000
    26  C   -0.291447  -0.000005  -0.000039   0.000069   0.000694  -0.000196
    27  O   -0.009329   0.000000   0.000000   0.000000   0.000000   0.000000
    28  C   -0.005619   0.000000  -0.000009   0.000001  -0.000044  -0.000003
    29  O   -0.000213   0.000000   0.000000   0.000000   0.000000   0.000000
    30  H    0.000005   0.000000   0.000000   0.000000   0.000000   0.000000
    31  H   -0.000025   0.000000   0.000000   0.000000   0.000000   0.000000
    32  H    0.000000   0.000000   0.000000   0.000000   0.000000   0.000000
    33  H   -0.000012   0.000000   0.000000   0.000000  -0.000001   0.000000
    34  H    0.000074   0.000000   0.000000   0.000000  -0.000002   0.000000
    35  H    0.000308   0.000000   0.000000   0.000000   0.000000   0.000000
    36  H   -0.035586   0.000000   0.000000   0.000000   0.000000   0.000000
    37  H    0.574126   0.000000   0.000000   0.000000   0.000000   0.000000
    38  H    0.000000   0.401232  -0.000043  -0.000326  -0.000189  -0.012879
    39  H    0.000000  -0.000043   0.621175  -0.052681   0.007440   0.004126
    40  H    0.000000  -0.000326  -0.052681   0.589016  -0.007379  -0.000175
    41  H    0.000000  -0.000189   0.007440  -0.007379   0.609055   0.006024
    42  H    0.000000  -0.012879   0.004126  -0.000175   0.006024   0.590254
    43  H    0.000000   0.000127   0.000000  -0.000013   0.002726   0.004791
    44  H    0.000001   0.000009  -0.000001   0.000001   0.000055   0.000965
    45  H    0.000001   0.000001   0.000015   0.000006   0.008482  -0.000002
             43         44         45
     1  O   -0.009290  -0.000327   0.000130
     2  C    0.099785  -0.005079   0.002226
     3  C    0.377288  -0.083027  -0.022543
     4  O   -0.038159  -0.016962  -0.000856
     5  H   -0.003624   0.000808   0.000006
     6  C   -0.278785   0.476492  -0.055522
     7  O   -0.000983  -0.057227   0.003908
     8  H   -0.000894  -0.004723   0.000030
     9  C    0.013374   0.008095   0.014905
    10  O    0.000006  -0.000006  -0.000263
    11  H    0.000000   0.000000  -0.000001
    12  C   -0.076756  -0.002878  -0.008805
    13  O    0.001971   0.008518  -0.065548
    14  C    0.162672  -0.115656   0.285397
    15  O   -0.000957  -0.004655  -0.075238
    16  C    0.003683   0.048276   0.117192
    17  C    0.001959   0.002336  -0.014049
    18  O    0.000038   0.000028   0.000842
    19  H   -0.000004  -0.000011  -0.003195
    20  C    0.000135   0.000691   0.008906
    21  O    0.000000   0.000000   0.000008
    22  H    0.000000   0.000000  -0.000001
    23  C    0.000071   0.005912   0.005527
    24  O   -0.000009  -0.000525  -0.000412
    25  H    0.000012   0.000665   0.000148
    26  C   -0.000158  -0.009147   0.022958
    27  O    0.000000   0.000013   0.000236
    28  C    0.000002  -0.000049   0.000550
    29  O    0.000000   0.000000  -0.000003
    30  H    0.000000   0.000000   0.000000
    31  H    0.000000   0.000000   0.000000
    32  H    0.000000   0.000000  -0.000043
    33  H    0.000000   0.000000   0.000031
    34  H    0.000002   0.000021   0.008669
    35  H    0.000000   0.000000  -0.000013
    36  H    0.000000  -0.000013  -0.000012
    37  H    0.000000   0.000001   0.000001
    38  H    0.000127   0.000009   0.000001
    39  H    0.000000  -0.000001   0.000015
    40  H   -0.000013   0.000001   0.000006
    41  H    0.002726   0.000055   0.008482
    42  H    0.004791   0.000965  -0.000002
    43  H    0.564448   0.004301   0.000776
    44  H    0.004301   0.569366   0.005845
    45  H    0.000776   0.005845   0.632785
 Mulliken atomic charges:
              1
     1  O   -0.513856
     2  C   -0.438109
     3  C    0.067426
     4  O   -0.500515
     5  H    0.323477
     6  C    0.268528
     7  O   -0.592742
     8  H    0.392629
     9  C   -0.179397
    10  O   -0.529303
    11  H    0.356485
    12  C    0.580540
    13  O   -0.397090
    14  C    0.015952
    15  O   -0.357429
    16  C   -0.481066
    17  C   -0.107000
    18  O   -0.556306
    19  H    0.415642
    20  C    0.171553
    21  O   -0.482578
    22  H    0.371859
    23  C   -0.262612
    24  O   -0.511332
    25  H    0.401495
    26  C    0.364732
    27  O   -0.354541
    28  C    0.279962
    29  O   -0.483802
    30  H    0.354013
    31  H    0.116802
    32  H    0.149533
    33  H    0.142250
    34  H    0.157356
    35  H    0.129486
    36  H    0.134048
    37  H    0.142105
    38  H    0.360686
    39  H    0.133590
    40  H    0.155273
    41  H    0.140267
    42  H    0.155713
    43  H    0.171466
    44  H    0.167887
    45  H    0.126924
 Sum of Mulliken atomic charges =   0.00000
 Mulliken charges with hydrogens summed into heavy atoms:
              1
     1  O   -0.153170
     2  C   -0.282396
     3  C    0.238892
     4  O   -0.177038
     6  C    0.436416
     7  O   -0.200113
     9  C    0.109465
    10  O   -0.172818
    12  C    0.720807
    13  O   -0.397090
    14  C    0.142876
    15  O   -0.357429
    16  C   -0.323710
    17  C    0.035249
    18  O   -0.140664
    20  C    0.321086
    21  O   -0.110718
    23  C    0.013540
    24  O   -0.109836
    26  C    0.494219
    27  O   -0.354541
    28  C    0.396764
    29  O   -0.129790
 Sum of Mulliken charges with hydrogens summed into heavy atoms =   0.00000
 APT atomic charges:
              1
     1  O   -0.646783
     2  C    0.410419
     3  C    0.346220
     4  O   -0.586774
     5  H    0.231250
     6  C    0.375322
     7  O   -0.657925
     8  H    0.284783
     9  C    0.452414
    10  O   -0.608725
    11  H    0.254310
    12  C    0.488595
    13  O   -0.931316
    14  C    0.940398
    15  O   -0.849610
    16  C    0.423611
    17  C    0.372464
    18  O   -0.713743
    19  H    0.363494
    20  C    0.374318
    21  O   -0.619614
    22  H    0.305611
    23  C    0.430696
    24  O   -0.627713
    25  H    0.333074
    26  C    0.452063
    27  O   -0.828587
    28  C    0.954925
    29  O   -0.678080
    30  H    0.281743
    31  H   -0.091597
    32  H   -0.038871
    33  H   -0.062109
    34  H   -0.027724
    35  H   -0.060947
    36  H   -0.041224
    37  H   -0.021969
    38  H    0.257481
    39  H   -0.054685
    40  H   -0.020494
    41  H   -0.041107
    42  H   -0.037813
    43  H   -0.026936
    44  H   -0.013204
    45  H   -0.045641
 Sum of APT charges=   0.00000
 APT Atomic charges with hydrogens summed into heavy atoms:
              1
[...]
 31,0.00002480,-0.00016463,-0.00003696,-0.00003640,-0.00002740,-0.01483
 080,0.00356970,0.00494128,0.00254195,0.00039934,-0.00103798,0.00001575
 ,-0.00018979,0.00001970,0.00008801,0.00000937,0.00001269,-0.00001509,0
 .00001172,0.00001349,-0.00000680,-0.00000239,-0.00001805,0.00004484,-0
 .00001194,-0.00001707,-0.00006854,0.00000545,0.00005553,-0.00000901,0.
 00000443,0.00000118,0.00001068,-0.00000299,-0.00000217,-0.00000878,0.0
 0000284,0.00000014,-0.00000709,0.00000705,0.00000408,0.00001329,-0.000
 00702,-0.00000143,-0.00001280,0.00000641,0.00000293,-0.00001291,0.0000
 0364,0.00000378,0.00001361,0.00000295,-0.00000778,-0.00000913,-0.00000
 295,0.00000495,0.00000498,-0.00000217,-0.00000411,-0.00000120,0.000000
 48,0.,0.00000250,-0.00000027,0.00000101,0.00000304,-0.00000286,-0.0000
 0245,0.00000775,-0.00000093,0.00000756,0.00000467,-0.00000444,-0.00000
 337,0.00000270,-0.00000268,0.00000168,0.00000411,-0.00000089,-0.000000
 29,-0.00000002,-0.00000034,0.00000020,0.00096371,-0.00022764,-0.000350
 61,0.00039762,-0.00092161,-0.00029179,0.00005478,0.00005271,0.00007056
 ,-0.00008819,-0.00174625,0.00146140,0.34195643,0.00059172,0.00164837,0
 .00192618,0.08378791,-0.07098452,-0.02062570,0.03024956,-0.01249619,-0
 .00933292,-0.00000725,0.00474958,0.00052656,0.00072190,-0.00127445,0.0
 0109917,0.00070481,0.00004700,0.00072606,-0.00083829,-0.00018573,-0.00
 080062,0.00023569,0.00007480,0.00003080,-0.00120841,0.00187330,0.00042
 396,0.00052664,-0.00002932,-0.00020869,-0.00000060,-0.00000589,-0.0000
 5613,-0.02332930,0.00654182,0.00790431,0.00041085,0.00058277,-0.002368
 76,0.00009039,-0.00036657,-0.00007880,0.00005681,0.00009117,-0.0000616
 1,-0.00002714,0.00001855,-0.00000348,-0.00001326,-0.00002244,-0.000022
 57,0.00005420,0.00000488,0.00000173,-0.00010105,-0.00000363,0.00001722
 ,0.00000120,0.00000323,0.00000349,0.00000409,0.00000345,0.00000090,-0.
 00000346,0.00000217,-0.00000475,0.00002317,-0.00003506,0.00001024,-0.0
 0004233,0.00001904,-0.00004953,0.00005446,-0.00000843,0.00008045,0.000
 00357,0.00000778,-0.00000122,0.00000169,0.00000483,-0.00000684,-0.0000
 0443,-0.00000826,0.00000304,0.00000134,0.00000175,-0.00000097,0.000000
 08,-0.00000041,0.00000109,0.00000048,0.00000136,0.00000057,-0.00000024
 ,-0.00000135,-0.00000206,0.00000723,0.00000383,0.00000674,-0.00000391,
 -0.00000408,0.00000821,-0.00000024,0.00000328,-0.00000185,-0.00000608,
 0.00000674,0.00000042,-0.00000439,0.00000547,-0.00000480,0.00062787,0.
 00114839,0.00036995,0.00044553,-0.00035051,-0.00008101,-0.00006938,-0.
 00010973,-0.00007081,-0.00137062,-0.00263253,0.00308586,-0.09018345,0.
 07622376,-0.04088250,0.01063996,-0.00917239,0.07632460,-0.02393474,-0.
 06261618,0.01603326,-0.00387721,-0.00160902,-0.00142388,0.00182763,0.0
 0080692,-0.00026238,0.00010232,0.00026314,0.00064462,0.00019876,0.0003
 7140,-0.00046101,0.00002270,-0.00025070,0.00012073,0.00005061,0.000064
 46,-0.00039423,-0.00150644,0.00011516,-0.00016525,0.00014606,-0.000015
 37,-0.00005901,0.00001665,0.00001315,0.02173052,-0.00463393,-0.0058840
 1,-0.00042716,-0.00032884,0.00218891,0.00024996,-0.00039189,-0.0003805
 4,-0.00009019,0.00005708,-0.00010132,-0.00001761,-0.00002061,-0.000016
 82,0.00003717,0.00000970,0.00004871,-0.00008533,-0.00000141,-0.0000338
 4,0.00012713,0.00000304,-0.00001827,-0.00000340,-0.00000545,0.00000141
 ,-0.00000521,0.00000849,-0.00001293,0.00000411,-0.00000781,0.00001305,
 0.00002226,-0.00001893,-0.00000171,-0.00003214,0.00000674,-0.00002457,
 0.00003462,0.00000386,0.00003671,0.00002315,0.00000300,0.00001050,-0.0
 0001264,0.,-0.00001586,0.00000784,0.00000240,0.00002022,-0.00000138,-0
 .00000246,-0.00001509,0.00000121,-0.00000110,0.00000354,-0.00000302,0.
 00000051,-0.00000302,-0.00000389,0.00000305,0.00000487,-0.00001531,0.0
 0000181,-0.00001583,-0.00000703,0.00000662,0.00001163,-0.00000412,0.00
 000456,-0.00000501,-0.00000681,0.00000458,0.00000158,-0.00000270,-0.00
 000098,-0.00000365,-0.00240781,0.00026136,0.00369250,-0.00024519,0.000
 46195,0.00034529,0.00002240,0.00023493,0.00001411,0.00075116,0.0029182
 5,-0.00286451,-0.06784894,0.02021909,0.07610577,0.00114539,-0.00047598
 ,0.00045608,0.00213142,-0.00135740,-0.00195942,-0.29796815,0.13010802,
 -0.00812925,-0.02536134,-0.00374717,0.00784896,-0.00095547,-0.00029652
 ,-0.00051940,-0.00826931,0.00563750,-0.00165259,0.00236815,-0.00001780
 ,0.00195379,-0.00078967,-0.00025010,-0.00024563,0.00033097,0.00008509,
 -0.00028468,-0.00005165,0.00001813,0.00010500,0.00001131,0.00003120,-0
 .00000842,0.00019652,0.00086118,-0.00005341,0.00029512,-0.00008523,0.0
 0037444,-0.00083297,-0.00067666,-0.00020210,0.00022874,0.00012821,-0.0
 0038640,-0.00009986,0.00007760,0.00002950,-0.00001507,-0.00003279,-0.0
 0006596,0.00002833,0.00000232,0.00005604,-0.00001583,0.00001320,-0.000
 03630,-0.00000621,0.00001530,0.00000776,0.00001056,0.00000221,0.000002
 95,-0.00000456,0.00000315,-0.00000966,-0.00004149,0.00005861,-0.000000
 95,0.00008080,-0.00002631,0.00008457,-0.00010227,0.00001737,-0.0001352
 5,0.00001479,0.00000287,-0.00000284,0.00001082,-0.00000225,-0.00001717
 ,-0.00000896,-0.00000806,-0.00000252,0.00000446,0.00000060,0.00000332,
 -0.00000084,0.00000089,-0.00000097,0.00000229,0.00000008,0.00000140,0.
 00000403,-0.00000165,-0.00000364,0.00000582,-0.00000391,0.00000653,0.0
 0001666,-0.00000485,-0.00001741,0.00000155,-0.00000564,0.00000519,0.00
 001499,-0.00001243,0.00000032,0.00000706,-0.00000986,0.00000729,0.0001
 0207,-0.00020485,-0.00014652,-0.00010442,-0.00013440,-0.00000435,0.000
 01303,0.00000341,0.00000603,0.00032582,0.00015565,-0.00021280,0.000331
 62,-0.00092626,-0.00085052,0.32690052,-0.00114236,0.00309692,0.0020174
 9,0.02789542,-0.01422207,0.00033820,0.13361398,-0.10835168,0.00328372,
 -0.02889898,0.00616928,0.00476333,-0.00029189,-0.00029898,-0.00048078,
 0.00136827,-0.00009090,-0.00267658,-0.00174365,0.00029063,-0.00090381,
 -0.00071957,0.00004342,-0.00015246,-0.00014087,-0.00000055,0.00008044,
 -0.00021321,-0.00016488,0.00000423,0.00000572,-0.00002545,0.00002437,0
 .00204111,0.00154661,-0.00120588,-0.00048804,-0.00039085,0.00053546,0.
 00034570,-0.00029158,-0.00062560,-0.00008417,0.00008500,-0.00000432,0.
 00000661,0.00000872,-0.00001439,-0.00000842,-0.00001675,-0.00001589,-0
 .00002609,0.00002022,0.00005027,0.00005393,0.00000219,-0.00008556,0.00
 001089,-0.00000396,0.00000151,-0.00000532,0.00000413,0.00000339,0.0000
 0651,0.00000017,-0.00000671,-0.00000122,-0.00000522,-0.00000238,0.0000
 1471,0.00000522,0.00001036,-0.00002129,-0.00000047,-0.00001791,0.00000
 291,0.00000246,-0.00000105,-0.00000349,-0.00000018,0.00000275,0.000000
 20,-0.00000151,-0.00000291,-0.00000098,0.00000209,0.00000497,-0.000000
 26,-0.00000008,-0.00000084,-0.00000072,0.00000005,-0.00000049,-0.00000
 160,0.00000173,0.00000134,-0.00000192,0.00000148,-0.00000208,-0.000003
 09,0.00000406,0.00000801,-0.00000161,0.00000038,-0.00000244,0.00000003
 ,-0.00000322,0.00000117,-0.00000054,0.00000164,0.00000087,-0.00012656,
 0.00012668,0.00027990,-0.00017002,0.00020258,0.00014373,-0.00000845,-0
 .00004194,-0.00004002,-0.00074411,-0.00015719,0.00056318,-0.00075702,-
 0.00436949,-0.00234683,-0.12925647,0.11684852,0.00072785,0.00140312,0.
 00176865,0.01176062,-0.01044202,0.00030481,-0.00992953,0.00285627,-0.0
 4334683,0.02216608,-0.00130924,-0.00021403,0.00100595,-0.00034578,0.00
 001036,-0.02963029,0.01307755,-0.00193201,0.00181453,0.00155613,0.0036
 3460,-0.00048356,-0.00052759,-0.00037888,0.00001175,-0.00004034,0.0002
 1059,-0.00009723,-0.00014166,-0.00001821,0.00000043,-0.00001910,0.0000
 2317,-0.00038658,0.00017769,-0.00099888,0.00026825,0.00079961,-0.00022
 509,-0.00109132,-0.00132632,0.00105994,0.00040245,0.00021009,-0.001016
 69,-0.00019105,0.00016421,0.00018137,0.00003218,-0.00006785,-0.0001029
 5,0.00003986,0.00002906,0.00000259,-0.00004308,-0.00002722,0.00001405,
 -0.00002963,0.00002506,0.00002798,0.00002900,0.00002568,-0.00002573,-0
 .00001264,-0.00000856,0.00000278,-0.00004769,0.00008551,-0.00000064,0.
 00010804,-0.00006601,0.00012056,-0.00017400,0.00010279,-0.00015555,0.0
 0005047,0.00001496,0.00004345,0.00001291,-0.00000273,-0.00008062,-0.00
 001339,-0.00001809,0.00004048,0.00001178,-0.00000471,-0.00002786,0.000
 00002,-0.00000009,0.00000512,0.00000115,0.00000170,-0.00000115,0.00000
 492,-0.00000122,-0.00000472,-0.00000059,-0.00000354,0.00000542,0.00003
 479,-0.00000452,-0.00004343,-0.00000177,-0.00000613,0.00000297,0.00003
 188,-0.00001117,0.00001275,0.00001195,-0.00002023,-0.00000064,0.000150
 14,0.00004219,0.00011203,-0.00003579,0.00006919,0.00001841,-0.00000615
 ,0.00001539,-0.00000112,-0.00011835,0.00018527,0.00020285,0.00010777,-
 0.00216310,-0.00101277,0.00475198,-0.00395906,0.04664964,0.00025540,-0
 .00037620,-0.00046971,-0.00063996,0.00128296,0.00000668,-0.01515929,-0
 .00114246,-0.00066907,0.00226084,-0.00185121,0.00407021,0.00073120,-0.
 00024238,0.00092409,-0.35823397,-0.01247335,0.02614065,-0.00574079,0.0
 1014196,0.00549729,0.00044902,0.00002930,0.00039195,0.00001923,0.00000
 463,0.00004811,0.00003327,0.00000450,-0.00001296,-0.00001075,0.0000003
 6,-0.00000011,-0.00016960,0.00007260,-0.00004840,0.00124403,-0.0009490
 2,-0.00057294,-0.00935107,-0.00093564,0.00253984,0.00135659,0.00016863
 ,-0.00075975,0.00013889,0.00006313,0.00030210,0.00006151,-0.00001124,-
 0.00013651,0.00006053,-0.00003551,-0.00006458,-0.00006272,-0.00001712,
 0.00005712,-0.00002346,0.00004581,0.00003414,0.00003014,0.00001487,-0.
 00003023,-0.00001493,-0.00000519,-0.00000195,-0.00012504,0.00016222,-0
 .00001641,0.00018182,-0.00014424,0.00022694,-0.00032541,0.00019935,-0.
 00028762,0.00001259,-0.00001616,0.00005930,0.00000299,-0.00001045,-0.0
 0004975,-0.00000713,0.00000422,0.00002996,0.00000829,-0.00001233,-0.00
 001956,-0.00000065,0.00000317,0.00000190,0.00000320,-0.00000122,0.0000
 0013,0.00000840,-0.00000445,-0.00000443,0.,-0.00001511,0.00001408,0.00
 005308,0.00001155,-0.00022119,0.00000107,-0.00001579,0.00000929,0.0000
 7859,-0.00002730,-0.00000314,0.00002755,-0.00003245,0.00000346,-0.0000
 6363,-0.00010452,-0.00007497,0.00001424,-0.00003881,-0.00002297,0.0000
 0770,0.00001386,0.00000593,0.00015305,0.00006325,-0.00000279,0.0003236
 9,-0.00043496,-0.00026510,-0.00020017,-0.00040632,-0.00157353,0.382062
 14,0.00013610,0.00016418,0.00009609,-0.00013630,-0.00013143,0.00050329
 ,-0.00273763,0.00269369,0.00214210,0.00155770,-0.00021629,0.00299360,-
 0.00002427,-0.00028106,0.00018179,-0.02082942,-0.04228396,0.00340663,0
 .03900942,-0.01731325,-0.01475508,0.00127586,0.00157403,-0.00025307,0.
 00002300,0.00008379,0.00006084,-0.00000037,-0.00004189,-0.00001929,-0.
 00000057,-0.00000020,0.00000102,-0.00008303,-0.00003168,0.00006215,0.0
 0201668,0.00173397,-0.00060542,-0.02981706,-0.00048241,0.00666486,0.00
 160987,0.00105222,-0.00223462,-0.00010185,0.00038715,0.00003785,-0.000
 14137,-0.00007318,-0.00039972,0.00013933,-0.00031191,0.00026764,-0.000
 15426,0.00032721,0.00011164,0.00001267,0.00002177,0.00002199,0.0000136
 4,0.00001820,0.00002633,0.00000830,0.00002191,-0.00005250,0.00005800,-
 0.00011551,0.00006389,-0.00027890,0.00007589,-0.00013088,0.00059136,-0
 .00007657,0.00033456,0.00002833,-0.00000948,-0.00003042,0.00001447,0.0
 0001664,-0.00002334,-0.00002715,-0.00004495,-0.00001250,0.00000546,0.0
 0001921,0.00001984,-0.00000165,-0.00000325,0.00000051,0.00000239,0.000
 00498,0.00000290,0.00000740,-0.00000466,-0.00001183,0.00003551,-0.0000
 0483,0.00003402,0.00014422,-0.00012373,-0.00001167,0.00002056,0.000011
 35,0.00001845,-0.00002093,0.00005278,-0.00001105,-0.00001919,0.0000340
 2,-0.00001609,0.00001285,0.00002318,0.00000467,0.00001134,-0.00004189,
 -0.00002575,-0.00000116,-0.00001214,-0.00000761,0.00016642,0.00005638,
 0.00006089,-0.00013133,-0.00006825,-0.00022577,0.00013110,-0.00000852,
 -0.00067838,0.00765962,0.05722339,0.00031078,-0.00057082,-0.00068193,-
 0.00026090,0.00107291,0.00051185,-0.03203160,0.00102313,-0.00318514,-0
 .00232471,0.00018093,-0.00157976,-0.00047661,0.00012141,0.00016954,0.0
 2926958,0.00253959,-0.04346390,0.01857647,-0.00907132,-0.00296394,-0.0
 0047619,0.00072751,0.00029564,-0.00003576,0.00004942,0.00007478,-0.000
 01803,-0.00005855,0.00000651,0.00000198,-0.00000347,0.00000965,-0.0003
 1133,-0.00010599,-0.00040312,-0.00145778,0.00003975,0.00062437,0.02445
 434,0.00362062,-0.00427991,-0.00053950,-0.00121712,0.00260958,0.000273
 59,-0.00045542,-0.00035235,0.00005693,0.00013805,0.00040631,-0.0001329
 6,0.00017682,-0.00021334,0.00011037,-0.00021188,-0.00003395,0.00002297
 ,-0.00005258,-0.00004267,-0.00004841,-0.00005020,0.00001213,0.00000766
 ,-0.00000499,0.00003132,0.00009312,-0.00003916,-0.00013231,-0.00028357
 ,0.00008336,0.00005924,0.00062853,-0.00022633,-0.00007620,-0.00002991,
 0.00006493,-0.00007560,-0.00008483,-0.00005844,0.00015413,0.00006191,0
 .00008315,-0.00006569,-0.00003292,-0.00000618,0.00004423,0.00000280,0.
 00000253,-0.00001282,-0.00000474,-0.00000728,0.00000019,-0.00001119,0.
 00000364,0.00001123,-0.00002287,0.00001485,-0.00002654,-0.00019370,0.0
 0008949,0.00007563,-0.00002460,-0.00000101,-0.00002503,-0.00009190,0.0
 0001604,-0.00008647,-0.00002512,0.00000952,0.00002677,-0.00002849,-0.0
 0014179,-0.00013172,0.00000710,-0.00002362,-0.00000986,0.00000928,0.00
 001918,-0.00000245,0.00006284,0.00008141,-0.00011396,0.00010448,-0.000
 45214,-0.00020910,-0.00054226,0.00025445,-0.00450176,-0.03529271,-0.00
 041720,0.05964746,0.00007498,-0.00004363,0.00013364,-0.00008818,0.0003
 2193,-0.00004256,-0.00046123,-0.00035725,-0.00007548,0.00022206,-0.000
 17616,0.00026640,-0.00001234,-0.00004222,0.00008734,-0.00727645,0.0001
 9443,0.00562216,0.00101487,0.00027913,-0.00074084,0.00030520,-0.000028
 06,-0.00021423,0.00038310,-0.00029461,0.00006483,0.00002349,0.00002782
 ,-0.00001722,-0.00000394,-0.00000696,0.00000001,0.00185482,-0.00070794
 ,0.00033952,0.00488439,0.00333499,0.00147007,-0.31651217,0.03562288,0.
 09424227,-0.02931935,0.00253985,-0.00924166,-0.00030834,-0.00008306,0.
 00494542,-0.00019983,-0.00012390,-0.00124629,0.00051011,-0.00150506,0.
 00075321,-0.00064964,0.00083135,0.00057774,-0.00000994,0.00013004,0.00
 013016,0.00009826,0.00009373,0.00000995,-0.00000041,0.00003664,-0.0001
 3187,-0.00029228,0.00022329,0.00006436,0.00030217,-0.00015244,0.000046
 64,-0.00035416,0.00011548,-0.00005787,0.00051431,-0.00046695,0.0000448
 8,0.00005300,0.00002093,-0.00040403,-0.00012274,-0.00015340,0.00007015
 ,0.00005456,0.00002288,-0.00003402,-0.00000612,-0.00000180,0.00001299,
 0.00001583,0.00001487,0.00000356,0.00004392,-0.00000950,-0.00003895,0.
 00003142,-0.00013311,0.00015460,0.00148708,-0.00053963,-0.00117280,0.0
 0017817,0.00003845,0.00028715,0.00020435,0.00001360,-0.00004442,0.0000
 5688,-0.00003647,-0.00003834,0.00000988,-0.00000169,-0.00000621,-0.000
 10859,-0.00010480,-0.00012025,-0.00001118,0.00009333,0.00003698,0.0001
 8090,0.00061165,0.00146683,-0.00003126,-0.00002610,-0.00015098,0.00024
 539,-0.00009777,0.00032942,0.00054953,-0.00018516,0.00072784,0.3424694
 4,0.00007031,0.00043918,-0.00024919,-0.00051961,-0.00048870,-0.0000956
 8,-0.00039701,0.00005591,-0.00071395,0.00026064,-0.00013896,0.00075647
 ,0.00018487,-0.00014140,0.00024105,-0.02653953,0.00317168,0.01011819,0
 .00083899,0.00241190,-0.00083210,0.00018690,0.00038801,-0.00019485,-0.
 00014913,0.00018533,-0.00025200,-0.00010698,-0.00013442,0.00009878,0.0
 0000178,0.00002936,0.00001432,0.00478888,0.00043986,0.00327998,0.02808
 583,-0.02083272,-0.02789123,0.03091221,-0.04728570,-0.00447666,0.00324
 645,0.00554449,-0.00038289,-0.00073486,0.00002164,-0.00069291,0.000671
 62,-0.00004449,0.00077357,-0.00056360,0.00041511,-0.00059791,0.0012300
 4,-0.00215389,-0.00018435,-0.00005778,-0.00001421,0.00000163,0.0000115
 8,0.00003310,-0.00009914,-0.00002437,-0.00008334,0.00009684,-0.0000231
 7,0.00013693,-0.00009564,0.00014478,-0.00005366,0.00006705,-0.00013881
 ,-0.00000377,0.00001178,-0.00010437,0.00006162,-0.00001463,0.00000643,
 -0.00005318,-0.00001903,0.00004944,0.00009273,0.00006409,-0.00000675,-
 0.00004117,-0.00006759,0.00000569,0.00000130,0.00000637,-0.00001053,-0
 .00000999,-0.00001045,-0.00000760,0.00001990,0.00003097,-0.00014397,-0
 .00005558,-0.00009114,0.00027264,-0.00000814,0.00004052,-0.00002011,-0
 .00002960,-0.00003969,-0.00002544,-0.00002117,0.00002454,-0.00002000,-
 0.00001963,0.00002294,-0.00003244,-0.00001609,-0.00003401,-0.00006723,
 0.00017056,0.00015822,-0.00014742,-0.00012036,-0.00000217,-0.00128355,
 0.00058166,-0.00012221,-0.00009556,-0.00011049,0.00008870,0.00018289,-
 0.00001871,0.00035316,-0.00064253,-0.00391490,0.00276281,-0.03928962,0
 .06159398,-0.00014755,0.00001640,-0.00026608,-0.00005050,0.00028337,-0
 .00008415,0.00026775,-0.00051346,0.00051321,-0.00034274,0.00018654,-0.
 00019486,-0.00013653,-0.00001553,-0.00007962,0.02399276,0.00069431,-0.
 00552027,-0.00151343,-0.00127885,0.00106469,-0.00020664,-0.00019596,0.
 00005701,-0.00035787,-0.00001128,-0.00010145,-0.00005048,-0.00003439,0
 .00002395,0.00000211,0.00000991,-0.00000442,0.00391859,-0.00071142,0.0
 0298239,0.01390246,-0.01681814,-0.01256883,0.10315037,-0.00717414,-0.0
 7780031,-0.03756521,0.00267029,-0.00860274,-0.00622812,0.00146824,0.00
 313890,0.00000101,0.00019522,-0.00051015,-0.00002142,0.00046008,0.0000
 0858,0.00012722,0.00005628,-0.00047017,0.00000500,0.00009645,0.0000092
 4,0.00003449,0.00001627,-0.00000137,-0.00000460,0.00000810,-0.00001190
 ,-0.00027238,0.00009541,0.00007579,0.00010656,-0.00009428,-0.00000608,
 -0.00005779,0.00017509,-0.00002829,-0.00006391,-0.00014848,0.00017485,
 0.00019813,0.00001693,-0.00016015,-0.00006992,-0.00010078,0.00002773,0
 .00003233,0.00001899,-0.00002309,-0.00000247,-0.00000384,0.00000956,0.
 00000389,0.00000948,0.00000703,0.00003850,-0.00000294,-0.00004558,0.00
 003225,-0.00018714,0.00002850,0.00061574,-0.00079319,-0.00041986,0.000
 14453,-0.00005315,0.00006559,0.00017483,0.00003440,-0.00009028,0.00008
 613,-0.00005083,-0.00005451,-0.00001136,0.00001654,0.00001492,-0.00006
 602,0.00021945,0.00011406,-0.00005230,-0.00008742,-0.00002601,-0.00136
 989,0.00044823,0.00000479,-0.00015992,-0.00004767,0.00014949,-0.000210
 73,0.00017484,-0.00036501,0.00023722,0.00280467,-0.00210108,-0.0981100
 6,0.01814742,0.10106600\\0.00667104,0.00423090,-0.00357145,0.00716147,
 -0.01309161,0.00548986,-0.03632718,0.00944953,-0.02133120,0.01581728,0
 .01211406,0.05993563,-0.01070170,-0.02426865,-0.01970372,0.00584332,-0
 .01674714,-0.01934055,-0.00395291,-0.02235477,-0.00511587,0.00353668,0
 .02996552,-0.01105355,-0.00686654,0.01747270,0.00171555,0.01023698,0.0
 0576171,0.00090249,-0.01042997,-0.02576466,-0.01797740,0.01233027,0.00
 345707,-0.01288927,-0.02153792,0.02947895,-0.01926289,0.01123247,-0.02
 494731,0.00845379,0.00718522,0.02937578,0.03540257,0.00856529,-0.00117
 410,-0.00744568,-0.01632884,0.00047475,0.02875926,0.00263774,-0.008988
 08,0.01200193,0.00471914,0.00987672,-0.02337238,0.01792860,0.00893473,
 -0.01285250,-0.00100766,-0.00128574,0.02729002,0.00170561,0.00550468,-
 0.02682830,-0.02362429,-0.01665141,-0.00661578,0.02771200,0.02349173,0
 .01504236,-0.00375109,-0.00637135,-0.02217039,0.04727755,-0.00966543,0
 .01622732,-0.00962000,-0.01874445,-0.00332219,-0.01283631,-0.03012607,
 -0.00971076,0.01696178,0.02414925,0.03089694,-0.00770776,-0.00042348,0
 .00077238,-0.01606885,0.01462173,-0.00555286,0.01759036,-0.01268483,0.
 00207667,-0.01838357,0.01481467,-0.00336816,0.01377287,-0.01526422,-0.
 00042603,-0.02006540,0.00834004,-0.00314017,-0.01801670,0.00924682,0.0
 0600873,-0.00872637,-0.00938613,-0.01419388,-0.00140543,0.00331746,0.0
 0449451,-0.02074590,0.00503740,0.00716936,0.00751333,-0.01010588,0.015
 52028,0.02083951,-0.00735367,-0.00681435,-0.01838782,0.00730456,0.0011
 8876,0.01756852,-0.00459650,0.00116073,-0.01809883,0.00499813,0.004103
 00,0.01978398,-0.00142342,-0.00855282\\\@


 REALITY IS FOR PEOPLE WHO CAN'T FACE SCIENCE FICTION.
 Job cpu time:  0 days 13 hours  1 minutes 14.5 seconds.
 File lengths (MBytes):  RWF=   1326 Int=      0 D2E=      0 Chk=     19 Scr=      1
 Normal termination of Gaussian 09 at Thu Jan 21 18:16:06 2016.
Gaussian '09 finished on node018 at Thu Jan 21 18:16:06 EST 2016.
