Gaussian '09 started on node002 at Thu Jan 21 04:58:21 EST 2016.
 Entering Gaussian System, Link 0=/usr/local/gaussian/g09/g09
 Initial command:
 /usr/local/gaussian/g09/l1.exe /home/srmcgrat/thesis/gaussian/cellobiose/400/8000/gaussian22455/Gau-22491.inp -scrdir=/home/srmcgrat/thesis/gaussian/cellobiose/400/8000/gaussian22455/
 Entering Link 1 = /usr/local/gaussian/g09/l1.exe PID=     22493.
  
 Copyright (c) 1988,1990,1992,1993,1995,1998,2003,2009,2010,
            Gaussian, Inc.  All Rights Reserved.
  
 This is part of the Gaussian(R) 09 program.  It is based on
 the Gaussian(R) 03 system (copyright 2003, Gaussian, Inc.),
 the Gaussian(R) 98 system (copyright 1998, Gaussian, Inc.),
 the Gaussian(R) 94 system (copyright 1995, Gaussian, Inc.),
 the Gaussian 92(TM) system (copyright 1992, Gaussian, Inc.),
 the Gaussian 90(TM) system (copyright 1990, Gaussian, Inc.),
 the Gaussian 88(TM) system (copyright 1988, Gaussian, Inc.),
 the Gaussian 86(TM) system (copyright 1986, Carnegie Mellon
 University), and the Gaussian 82(TM) system (copyright 1983,
 Carnegie Mellon University). Gaussian is a federally registered
 trademark of Gaussian, Inc.
  
 This software contains proprietary and confidential information,
 including trade secrets, belonging to Gaussian, Inc.
  
 This software is provided under written license and may be
 used, copied, transmitted, or stored only in accord with that
 written license.
  
 The following legend is applicable only to US Government
 contracts under FAR:
  
                    RESTRICTED RIGHTS LEGEND
  
 Use, reproduction and disclosure by the US Government is
 subject to restrictions as set forth in subparagraphs (a)
 and (c) of the Commercial Computer Software - Restricted
 Rights clause in FAR 52.227-19.
  
 Gaussian, Inc.
 340 Quinnipiac St., Bldg. 40, Wallingford CT 06492
  
  
 ---------------------------------------------------------------
 Warning -- This program may not be used in any manner that
 competes with the business of Gaussian, Inc. or will provide
 assistance to any competitor of Gaussian, Inc.  The licensee
 of this program is prohibited from giving any competitor of
 Gaussian, Inc. access to this program.  By using this program,
 the user acknowledges that Gaussian, Inc. is engaged in the
 business of creating and licensing software in the field of
 computational chemistry and represents and warrants to the
 licensee that it is not a competitor of Gaussian, Inc. and that
 it will not use this program in any manner prohibited above.
 ---------------------------------------------------------------
  

 Cite this work as:
 Gaussian 09, Revision B.01,
 M. J. Frisch, G. W. Trucks, H. B. Schlegel, G. E. Scuseria, 
 M. A. Robb, J. R. Cheeseman, G. Scalmani, V. Barone, B. Mennucci, 
 G. A. Petersson, H. Nakatsuji, M. Caricato, X. Li, H. P. Hratchian, 
 A. F. Izmaylov, J. Bloino, G. Zheng, J. L. Sonnenberg, M. Hada, 
 M. Ehara, K. Toyota, R. Fukuda, J. Hasegawa, M. Ishida, T. Nakajima, 
 Y. Honda, O. Kitao, H. Nakai, T. Vreven, J. A. Montgomery, Jr., 
 J. E. Peralta, F. Ogliaro, M. Bearpark, J. J. Heyd, E. Brothers, 
 K. N. Kudin, V. N. Staroverov, T. Keith, R. Kobayashi, J. Normand, 
 K. Raghavachari, A. Rendell, J. C. Burant, S. S. Iyengar, J. Tomasi, 
 M. Cossi, N. Rega, J. M. Millam, M. Klene, J. E. Knox, J. B. Cross, 
 V. Bakken, C. Adamo, J. Jaramillo, R. Gomperts, R. E. Stratmann, 
 O. Yazyev, A. J. Austin, R. Cammi, C. Pomelli, J. W. Ochterski, 
 R. L. Martin, K. Morokuma, V. G. Zakrzewski, G. A. Voth, 
 P. Salvador, J. J. Dannenberg, S. Dapprich, A. D. Daniels, 
 O. Farkas, J. B. Foresman, J. V. Ortiz, J. Cioslowski, 
 and D. J. Fox, Gaussian, Inc., Wallingford CT, 2010.
 
 ******************************************
 Gaussian 09:  EM64L-G09RevB.01 12-Aug-2010
                21-Jan-2016 
 ******************************************
 ------------------------------------------------
 # freq=raman b3lyp/6-31+g(d,p) geom=connectivity
 ------------------------------------------------
 1/10=4,30=1,38=1,57=2/1,3;
 2/12=2,17=6,18=5,40=1/2;
 3/5=1,6=6,7=111,11=2,16=1,25=1,30=1,71=2,74=-5/1,2,3;
 4//1;
 5/5=2,38=5,98=1/2;
 8/6=4,10=90,11=11/1;
 10/13=10,15=4/2;
 11/6=3,8=1,9=11,15=111,16=1/1,2,10;
 10/6=1/2;
 6/7=2,8=2,9=2,10=2,18=1,28=1/1;
 7/8=1,10=1,25=1/1,2,3,16;
 1/10=4,30=1/3;
 99//99;
 ------------
 400 8000.com
 ------------
 Symbolic Z-matrix:
 Charge =  0 Multiplicity = 1
 O                     9.664     7.656     12.094 
 C                     10.342    7.829     13.347 
 C                     10.319    9.252     13.882 
 O                     10.796    10.209    12.925 
 H                     10.448    9.881     12.047 
 C                     10.993    9.461     15.228 
 O                     10.46     10.651    15.825 
 H                     10.838    10.846    16.73 
 C                     10.349    5.399     14.061 
 O                     9.473     4.795     13.098 
 H                     9.433     3.857     13.444 
 C                     10.05     6.835     14.459 
 O                     10.897    7.1       15.587 
 C                     10.541    8.36      16.173 
 O                     11.385    8.255     17.329 
 C                     10.731    8.186     18.605 
 C                     10.537    6.833     19.27 
 O                     9.917     6.005     18.276 
 H                     10.256    6.165     17.349 
 C                     9.829     6.813     20.616 
 O                     9.923     5.528     21.249 
 H                     9.68      5.549     22.219 
 C                     11.697    10.355    19.201 
 O                     10.775    11.229    18.533 
 H                     11.042    12.193    18.554 
 C                     11.389    8.964     19.732 
 O                     10.52     9.128     20.862 
 C                     10.385    7.876     21.549 
 O                     9.505     7.943     22.681 
 H                     10.02386   7.99072   23.48729 
 H                     11.35198   7.56493   21.88529 
 H                     8.79377   7.02601   20.44917 
 H                     11.51475   6.43227   19.4383 
 H                     9.75595   8.60427   18.46632 
 H                     12.29385   8.47861   20.03291 
 H                     12.51948   10.2324   18.52766 
 H                     12.06672   10.9093   20.03823 
 H                     10.31055   7.55894   11.39104 
 H                     10.32523   4.80053   14.94766 
 H                     11.34299   5.36763   13.66617 
 H                     9.02482   6.91863   14.75381 
 H                     11.37006   7.65461   13.10705 
 H                     9.28607   9.4844    14.03675 
 H                     12.0588   9.50056   15.14199 
 H                     9.502     8.41781   16.42208 
 

 GradGradGradGradGradGradGradGradGradGradGradGradGradGradGradGradGradGrad
 Berny optimization.
 Initialization pass.
 Trust Radius=3.00D-01 FncErr=1.00D-07 GrdErr=1.00D-07
 Number of steps in this run=      2 maximum allowed number of steps=      2.
 GradGradGradGradGradGradGradGradGradGradGradGradGradGradGradGradGradGrad

                          Input orientation:                          
 ---------------------------------------------------------------------
 Center     Atomic      Atomic             Coordinates (Angstroms)
 Number     Number       Type             X           Y           Z
 ---------------------------------------------------------------------
      1          8           0        9.664000    7.656000   12.094000
      2          6           0       10.342000    7.829000   13.347000
      3          6           0       10.319000    9.252000   13.882000
      4          8           0       10.796000   10.209000   12.925000
      5          1           0       10.448000    9.881000   12.047000
      6          6           0       10.993000    9.461000   15.228000
      7          8           0       10.460000   10.651000   15.825000
      8          1           0       10.838000   10.846000   16.730000
      9          6           0       10.349000    5.399000   14.061000
     10          8           0        9.473000    4.795000   13.098000
     11          1           0        9.433000    3.857000   13.444000
     12          6           0       10.050000    6.835000   14.459000
     13          8           0       10.897000    7.100000   15.587000
     14          6           0       10.541000    8.360000   16.173000
     15          8           0       11.385000    8.255000   17.329000
     16          6           0       10.731000    8.186000   18.605000
     17          6           0       10.537000    6.833000   19.270000
     18          8           0        9.917000    6.005000   18.276000
     19          1           0       10.256000    6.165000   17.349000
     20          6           0        9.829000    6.813000   20.616000
     21          8           0        9.923000    5.528000   21.249000
     22          1           0        9.680000    5.549000   22.219000
     23          6           0       11.697000   10.355000   19.201000
     24          8           0       10.775000   11.229000   18.533000
     25          1           0       11.042000   12.193000   18.554000
     26          6           0       11.389000    8.964000   19.732000
     27          8           0       10.520000    9.128000   20.862000
     28          6           0       10.385000    7.876000   21.549000
     29          8           0        9.505000    7.943000   22.681000
     30          1           0       10.023861    7.990722   23.487291
     31          1           0       11.351977    7.564933   21.885292
     32          1           0        8.793773    7.026009   20.449170
     33          1           0       11.514745    6.432265   19.438304
     34          1           0        9.755953    8.604272   18.466323
     35          1           0       12.293848    8.478607   20.032907
     36          1           0       12.519485   10.232402   18.527659
     37          1           0       12.066716   10.909302   20.038233
     38          1           0       10.310547    7.558943   11.391037
     39          1           0       10.325234    4.800533   14.947663
     40          1           0       11.342993    5.367626   13.666167
     41          1           0        9.024820    6.918631   14.753808
     42          1           0       11.370062    7.654613   13.107047
     43          1           0        9.286071    9.484402   14.036750
     44          1           0       12.058803    9.500564   15.141988
     45          1           0        9.502002    8.417810   16.422081
 ---------------------------------------------------------------------
                    Distance matrix (angstroms):
                    1          2          3          4          5
     1  O    0.000000
     2  C    1.435138   0.000000
     3  C    2.484590   1.520422   0.000000
     4  O    2.913725   2.459390   1.435001   0.000000
     5  H    2.359553   2.431448   1.944095   0.999786   0.000000
     6  C    3.853080   2.573983   1.519761   2.429428   3.254564
     7  O    4.850155   3.757405   2.398402   2.952670   3.855688
     8  H    5.748641   4.559934   3.304739   3.858181   4.797272
     9  C    3.071215   2.532735   3.857272   4.962500   4.914705
    10  O    3.038062   3.165804   4.603827   5.575989   5.284186
    11  H    4.038349   4.075840   5.484785   6.517287   6.266611
    12  C    2.533034   1.519817   2.499436   3.780681   3.905671
    13  O    3.745727   2.420138   2.805746   4.094182   4.524065
    14  C    4.231192   2.882332   2.468528   3.746109   4.398405
    15  O    5.543092   4.138315   3.743284   4.853891   5.605477
    16  C    6.619102   5.284443   4.859303   6.029855   6.779416
    17  C    7.275605   6.009324   5.910129   7.191904   7.840278
    18  O    6.403666   5.272821   5.478307   6.861447   7.355663
    19  H    5.494413   4.335008   4.642588   6.018082   6.477401
    20  C    8.565183   7.357567   7.178828   8.462824   9.122694
    21  O    9.402632   8.240860   8.264241   9.589727  10.193186
    22  H   10.341921   9.184173   9.144731  10.456553  11.082673
    23  C    7.869380   6.518130   5.604218   6.342026   7.277664
    24  O    7.447239   6.216276   5.074275   5.700044   6.632664
    25  H    8.013417   6.829886   5.567746   5.973476   6.931034
    26  C    7.938862   6.569068   5.954019   6.945281   7.796512
    27  O    8.931816   7.628520   6.983994   8.015030   8.847396
    28  C    9.485002   8.202247   7.789777   8.943444   9.711436
    29  O   10.592083   9.372146   8.932999  10.098563  10.850210
    30  H   11.403886  10.146570   9.692242  10.820303  11.603159
    31  H    9.936144   8.601873   8.244145   9.358794  10.147578
    32  H    8.423957   7.313181   7.099935   8.411508   9.026843
    33  H    7.672130   6.358473   6.344543   7.563296   8.225758
    34  H    6.443149   5.210754   4.663967   5.862005   6.581540
    35  H    8.403512   6.995216   6.506290   7.467271   8.315561
    36  H    7.495573   6.112038   5.233113   5.861803   6.812744
    37  H    8.914475   7.565415   6.610626   7.259699   8.218118
    38  H    0.960000   1.974768   3.011878   3.100243   2.416843
    39  H    4.090760   3.425495   4.577252   5.793471   5.851501
    40  H    3.244593   2.676232   4.022873   4.928228   4.877834
    41  H    2.833168   2.131395   2.807056   4.160306   4.257685
    42  H    1.984166   1.070000   2.063233   2.624420   2.632621
    43  H    2.694469   2.081129   1.070000   2.010203   2.338049
    44  H    4.292753   2.993914   2.162468   2.647941   3.509754
    45  H    4.397600   3.241669   2.795598   4.136710   4.709264
                    6          7          8          9         10
     6  C    0.000000
     7  O    1.434084   0.000000
     8  H    2.048964   0.999967   0.000000
     9  C    4.275099   5.541437   6.085433   0.000000
    10  O    5.349659   6.534786   7.188133   1.435117   0.000000
    11  H    6.084494   7.272024   7.849710   1.896710   1.000580
    12  C    2.894216   4.073808   4.676164   1.519836   2.519296
    13  O    2.390067   3.585696   3.916943   2.349975   3.679120
    14  C    1.519714   2.318695   2.564889   3.642105   4.827574
    15  O    2.454038   2.976316   2.715012   4.462046   5.790398
    16  C    3.619171   3.725328   3.256175   5.344271   6.588512
    17  C    4.842735   5.143061   4.758820   5.406050   6.586283
    18  O    4.732020   5.280868   5.164653   4.280197   5.336002
    19  H    3.988161   4.742192   4.757483   3.377329   4.534423
    20  C    6.115337   6.171068   5.690709   6.725907   7.792264
    21  O    7.270889   7.480192   7.038445   7.201768   8.196255
    22  H    8.117992   8.217180   7.715458   8.186759   9.154453
    23  C    4.132745   3.607653   2.661729   7.266267   8.550227
    24  O    3.754514   2.786857   1.844307   7.359970   8.522370
    25  H    4.304475   3.188092   2.276621   8.174701   9.325240
    26  C    4.548609   4.355876   3.585740   6.778722   8.066075
    27  O    5.663618   5.262556   4.486209   7.758111   8.952698
    28  C    6.544993   6.361637   5.678809   7.887139   9.041223
    29  O    7.750205   7.433036   6.754162   9.027108  10.086864
    30  H    8.444930   8.122684   7.380814   9.781498  10.883633
    31  H    6.931340   6.859050   6.132423   8.180267   9.403169
    32  H    6.166554   6.107358   5.709940   6.773079   7.712227
    33  H    5.212687   5.653864   5.222447   5.598392   6.859213
    34  H    3.570854   3.414874   3.034960   5.480177   6.588589
    35  H    5.073897   5.078264   4.316623   6.995004   8.343804
    36  H    3.716580   3.423605   2.536823   6.929922   8.266051
    37  H    5.137002   4.516591   3.529612   8.309109   9.606190
    38  H    4.336571   5.407696   6.291858   3.434463   3.354786
    39  H    4.716403   5.917419   6.323553   1.070000   2.036563
    40  H    4.395171   5.775317   6.297196   1.070000   2.036563
    41  H    3.249959   4.139779   4.755753   2.131364   2.729904
    42  H    2.811344   4.146543   4.857348   2.653372   3.431663
    43  H    2.081641   2.436575   3.393527   4.221483   4.786093
    44  H    1.070000   2.084749   2.412953   4.573269   5.745137
    45  H    2.176499   2.502280   2.788514   3.924961   4.916819
                   11         12         13         14         15
    11  H    0.000000
    12  C    3.206150   0.000000
    13  O    4.153648   1.435276   0.000000
    14  C    5.380717   2.346168   1.434480   0.000000
    15  O    6.184330   3.469225   2.146330   1.435164   0.000000
    16  C    6.860100   4.413420   3.211740   2.445608   1.435497
    17  C    6.634581   4.835586   3.710172   3.452992   2.551209
    18  O    5.310027   3.908462   3.064335   3.218386   2.848567
    19  H    4.610121   2.973792   2.095173   2.506437   2.375530
    20  C    7.767389   6.161004   5.149159   4.758193   3.912144
    21  O    7.996897   6.915814   5.956350   5.845334   4.994034
    22  H    8.940050   7.874535   6.918823   6.722883   5.843078
    23  C    8.971775   6.131034   4.929099   3.805935   2.830500
    24  O    9.057884   6.035755   5.073701   3.722300   3.265944
    25  H    9.909081   6.816249   5.895996   4.540050   4.138371
    26  C    8.333446   5.842096   4.571388   3.708153   2.505415
    27  O    9.164700   6.817416   5.663968   4.751525   3.740647
    28  C    9.096686   7.173842   6.034050   5.399997   4.353394
    29  O   10.100631   8.314203   7.278266   6.603124   5.681166
    30  H   10.876786   9.102001   7.998147   7.341843   6.312455
    31  H    9.417359   7.574811   6.331797   5.824096   4.608371
    32  H    7.715156   6.123457   5.298088   4.808114   4.237963
    33  H    6.848162   5.205875   3.957274   3.914914   2.790763
    34  H    6.918426   4.390378   3.443156   2.436246   2.017248
    35  H    8.541510   6.229344   4.859818   4.240922   2.861313
    36  H    8.718700   5.847622   4.592589   3.600654   2.575647
    37  H   10.007764   7.196869   5.974320   4.875118   3.853570
    38  H    4.323092   3.162969   4.261532   4.854067   6.074401
    39  H    1.986791   2.110356   2.454225   3.770652   4.327495
    40  H    2.445286   2.110356   2.624811   3.985186   4.664230
    41  H    3.354965   1.070000   2.057222   2.527934   3.740046
    42  H    4.276402   2.059638   2.584870   3.253457   4.264455
    43  H    5.660441   2.789483   3.268599   2.720788   4.093390
    44  H    6.451963   3.406904   2.703799   2.160463   2.605468
    45  H    5.447450   2.580557   2.092846   1.070000   2.096352
                   16         17         18         19         20
    16  C    0.000000
    17  C    1.520023   0.000000
    18  O    2.351084   1.434580   0.000000
    19  H    2.426438   2.053150   0.999925   0.000000
    20  C    2.596701   1.520980   2.477137   3.357904   0.000000
    21  O    3.835175   2.448767   3.011029   3.965685   1.435531
    22  H    4.595581   3.328619   3.976349   4.942482   2.046828
    23  C    2.448047   3.708752   4.790253   4.802342   4.247048
    24  O    3.044170   4.463701   5.300225   5.226405   4.973415
    25  H    4.019374   5.431140   6.295574   6.197306   5.887921
    26  C    1.519334   2.341049   3.611426   3.846658   2.800332
    27  O    2.454778   2.793166   4.099285   4.603285   2.428420
    28  C    2.980428   2.510935   3.798973   4.536977   1.519735
    29  O    4.263320   3.732565   4.830074   5.670583   2.376153
    30  H    4.937099   4.403314   5.577819   6.408258   3.109552
    31  H    3.395829   2.835430   4.185635   4.872261   2.120369
    32  H    2.915371   2.113418   2.650805   3.534190   1.070000
    33  H    2.093857   1.070000   2.021458   2.453785   2.091331
    34  H    1.070000   2.096029   2.611202   2.729195   2.799126
    35  H    2.137061   2.525186   3.854200   4.087659   3.031455
    36  H    2.718900   4.004653   4.970632   4.801704   4.826198
    37  H    3.354798   4.421137   5.637279   5.746222   4.703283
    38  H    7.253361   7.915575   7.069111   6.119099   9.267592
    39  H    5.000215   4.781042   3.563035   2.762785   6.035422
    40  H    5.719252   5.848068   4.867265   3.921813   7.258200
    41  H    4.398745   4.763403   3.746537   2.969644   5.918037
    42  H    5.560419   6.273040   5.617000   4.631873   7.711522
    43  H    4.964129   5.998472   5.520466   4.788548   7.121635
    44  H    3.934919   5.145121   5.160264   4.387139   6.493060
    45  H    2.515811   3.419574   3.070975   2.550067   4.502366
                   21         22         23         24         25
    21  O    0.000000
    22  H    1.000195   0.000000
    23  C    5.535459   6.022811   0.000000
    24  O    6.372124   6.859156   1.435334   0.000000
    25  H    7.275810   7.709086   2.055694   1.000513   0.000000
    26  C    4.031940   4.557200   1.520430   2.635303   3.454639
    27  O    3.669629   3.918710   2.376926   3.146977   3.872154
    28  C    2.411752   2.522073   3.657853   4.526695   5.295107
    29  O    2.838586   2.444444   4.767914   5.442114   6.120212
    30  H    3.329433   2.772870   5.173151   5.966209   6.559963
    31  H    2.568256   2.640238   3.887022   4.999615   5.710744
    32  H    2.039341   2.469667   4.590080   5.026142   5.945081
    33  H    2.574873   3.446552   3.934130   4.937151   5.847354
    34  H    4.151464   4.839736   2.715228   2.816398   3.813210
    35  H    3.975662   4.493752   2.137556   3.481563   4.189391
    36  H    6.023191   6.604765   1.070000   2.009096   2.455117
    37  H    5.917760   6.259791   1.070000   2.009096   2.213792
    38  H   10.072455  11.030967   8.410452   8.043175   8.562566
    39  H    6.355930   7.338179   7.129146   7.374423   8.256391
    40  H    7.716311   8.714895   7.458794   7.639659   8.400431
    41  H    6.702843   7.618021   6.223078   5.993722   6.806573
    42  H    8.538611   9.503558   6.673473   6.524669   7.097456
    43  H    8.250778   9.088002   5.765414   5.047454   5.552057
    44  H    7.592003   8.447346   4.163717   4.016790   4.463734
    45  H    5.641577   6.470396   4.036473   3.738889   4.600949
                   26         27         28         29         30
    26  C    0.000000
    27  O    1.434907   0.000000
    28  C    2.343768   1.434468   0.000000
    29  O    3.645339   2.396500   1.435379   0.000000
    30  H    4.112552   2.903741   1.974982   0.960000   0.000000
    31  H    2.568156   2.045114   1.070000   2.046316   2.124051
    32  H    3.317430   2.751119   2.112845   2.515508   3.416719
    33  H    2.551813   3.206777   2.795663   4.103227   4.587573
    34  H    2.097185   2.568527   3.229393   4.273613   5.065407
    35  H    1.070000   2.062921   2.511050   3.882904   4.162168
    36  H    2.082613   3.266005   4.386018   5.619495   5.987589
    37  H    2.082613   2.498791   3.783055   4.727108   4.958564
    38  H    8.526952   9.602341  10.163182  11.325178  12.107353
    39  H    6.430858   7.331049   7.282837   8.387633   9.121041
    40  H    7.051975   8.160744   8.327590   9.553952  10.250621
    41  H    5.878374   6.665349   6.995804   8.007514   8.855574
    42  H    6.753137   7.939318   8.502114   9.758187  10.472569
    43  H    6.093357   6.945044   7.760702   8.783331   9.596257
    44  H    4.669555   5.935087   6.818404   8.110772   8.721508
    45  H    3.848980   4.610159   5.230539   6.276904   7.097319
                   31         32         33         34         35
    31  H    0.000000
    32  H    2.982833   0.000000
    33  H    2.701330   2.962781   0.000000
    34  H    3.913678   2.710791   2.959005   0.000000
    35  H    2.270078   3.812327   2.268936   2.985111   0.000000
    36  H    4.444341   5.277697   4.034825   3.208064   2.322171
    37  H    3.886808   5.095192   4.550653   3.622663   2.441289
    38  H   10.545805   9.199695   8.214499   7.173559   8.914099
    39  H    7.538355   6.129004   4.923752   5.212819   6.577490
    40  H    8.507776   7.433565   5.872012   6.003005   7.149665
    41  H    7.529371   5.701058   5.327361   4.142307   6.402261
    42  H    8.778722   7.806355   6.449797   5.677063   7.035615
    43  H    8.339781   6.885142   6.592367   4.540543   6.783232
    44  H    7.051129   6.704478   5.307427   4.142180   5.002072
    45  H    5.830650   4.319275   4.134141   2.068377   4.564664
                   36         37         38         39         40
    36  H    0.000000
    37  H    1.716109   0.000000
    38  H    7.934618   9.438381   0.000000
    39  H    6.865589   8.140253   4.500959   0.000000
    40  H    6.977412   8.475682   3.323256   1.731953   0.000000
    41  H    6.118473   7.287231   3.656682   2.492990   2.993745
    42  H    6.111400   7.688932   2.019013   3.553211   2.354498
    43  H    5.584150   6.766101   3.428810   4.883468   4.616937
    44  H    3.494364   5.094882   4.571206   5.013314   4.446528
    45  H    4.102610   5.085454   5.167475   3.992031   4.504213
                   41         42         43         44         45
    41  H    0.000000
    42  H    2.958657   0.000000
    43  H    2.676865   2.924977   0.000000
    44  H    4.002764   2.832470   2.984938   0.000000
    45  H    2.293115   3.880924   2.621841   3.057487   0.000000
 Stoichiometry    C12H22O11
 Framework group  C1[X(C12H22O11)]
 Deg. of freedom   129
 Full point group                 C1      NOp   1
 Largest Abelian subgroup         C1      NOp   1
 Largest concise Abelian subgroup C1      NOp   1
                         Standard orientation:                         
 ---------------------------------------------------------------------
 Center     Atomic      Atomic             Coordinates (Angstroms)
 Number     Number       Type             X           Y           Z
 ---------------------------------------------------------------------
      1          8           0        5.073436   -0.341346   -0.652280
      2          6           0        3.804615   -0.074595   -0.037008
      3          6           0        3.221657    1.290381   -0.366679
      4          8           0        4.137627    2.361423   -0.096318
      5          1           0        5.031767    1.999574   -0.359282
      6          6           0        1.858734    1.588011    0.236256
      7          8           0        1.229914    2.614888   -0.542658
      8          1           0        0.312867    2.852238   -0.222306
      9          6           0        3.174185   -2.472307    0.480952
     10          8           0        4.171116   -3.212653   -0.238476
     11          1           0        3.858105   -4.149849   -0.080844
     12          6           0        2.732078   -1.148195   -0.120022
     13          8           0        1.582329   -0.751118    0.641835
     14          6           0        0.959287    0.382103    0.021059
     15          8           0       -0.205730    0.416206    0.858478
     16          6           0       -1.468049    0.162966    0.223596
     17          6           0       -2.083177   -1.223927    0.316418
     18          8           0       -1.051676   -2.127510   -0.104964
     19          1           0       -0.136209   -1.865147    0.199891
     20          6           0       -3.416263   -1.443362   -0.382230
     21          8           0       -4.006326   -2.701521   -0.022216
     22          1           0       -4.972486   -2.768336   -0.272139
     23          6           0       -2.153240    2.464165    0.701014
     24          8           0       -1.500954    3.146458   -0.380274
     25          1           0       -1.559184    4.143727   -0.324681
     26          6           0       -2.631348    1.020895    0.691644
     27          8           0       -3.752324    0.954905   -0.201673
     28          6           0       -4.393832   -0.321643   -0.072876
     29          8           0       -5.513311   -0.484762   -0.956320
     30          1           0       -6.328920   -0.357684   -0.466184
     31          1           0       -4.734630   -0.432463    0.935328
     32          1           0       -3.240364   -1.449028   -1.437657
     33          1           0       -2.253208   -1.413835    1.355612
     34          1           0       -1.328266    0.369481   -0.816938
     35          1           0       -2.929830    0.727956    1.676528
     36          1           0       -1.489275    2.543888    1.536295
     37          1           0       -3.014734    3.053111    0.937383
     38          1           0        5.768928   -0.272949    0.005909
     39          1           0        2.309016   -3.094413    0.577729
     40          1           0        3.553988   -2.277344    1.462094
     41          1           0        2.450936   -1.295068   -1.141926
     42          1           0        4.034002   -0.017754    1.006568
     43          1           0        3.075505    1.292296   -1.426649
     44          1           0        1.926365    1.856120    1.269911
     45          1           0        0.724943    0.208766   -1.008473
 ---------------------------------------------------------------------
 Rotational constants (GHZ):      0.4190083      0.1424566      0.1105411
 Standard basis: 6-31+G(d,p) (6D, 7F)
 There are   547 symmetry adapted basis functions of A   symmetry.
 Integral buffers will be    131072 words long.
 Raffenetti 2 integral format.
 Two-electron integral symmetry is turned on.
   547 basis functions,   890 primitive gaussians,   547 cartesian basis functions
    91 alpha electrons       91 beta electrons
       nuclear repulsion energy      2285.0582417396 Hartrees.
 NAtoms=   45 NActive=   45 NUniq=   45 SFac= 1.00D+00 NAtFMM=   50 NAOKFM=F Big=F
 One-electron integrals computed using PRISM.
 NBasis=   547 RedAO= T  NBF=   547
 NBsUse=   547 1.00D-06 NBFU=   547
 Harris functional with IExCor=  402 diagonalized for initial guess.
 ExpMin= 4.38D-02 ExpMax= 5.48D+03 ExpMxC= 8.25D+02 IAcc=2 IRadAn=         0 AccDes= 0.00D+00
 HarFok:  IExCor=  402 AccDes= 0.00D+00 IRadAn=         0 IDoV= 1
 ScaDFX=  1.000000  1.000000  1.000000  1.000000
 FoFCou: FMM=F IPFlag=           0 FMFlag=      100000 FMFlg1=           0
         NFxFlg=           0 DoJE=T BraDBF=F KetDBF=T FulRan=T
         Omega=  0.000000  0.000000  1.000000  0.000000  0.000000 ICntrl=     500 IOpCl=  0
         NMat0=    1 NMatS0=    1 NMatT0=    0 NMatD0=    1 NMtDS0=    0 NMtDT0=    0
         I1Cent=           4 NGrid=           0.
 Petite list used in FoFCou.
 Initial guess orbital symmetries:
       Occupied  (A) (A) (A) (A) (A) (A) (A) (A) (A) (A) (A) (A)
                 (A) (A) (A) (A) (A) (A) (A) (A) (A) (A) (A) (A)
                 (A) (A) (A) (A) (A) (A) (A) (A) (A) (A) (A) (A)
                 (A) (A) (A) (A) (A) (A) (A) (A) (A) (A) (A) (A)
                 (A) (A) (A) (A) (A) (A) (A) (A) (A) (A) (A) (A)
                 (A) (A) (A) (A) (A) (A) (A) (A) (A) (A) (A) (A)
                 (A) (A) (A) (A) (A) (A) (A) (A) (A) (A) (A) (A)
                 (A) (A) (A) (A) (A) (A) (A)
       Virtual   (A) (A) (A) (A) (A) (A) (A) (A) (A) (A) (A) (A)
                 (A) (A) (A) (A) (A) (A) (A) (A) (A) (A) (A) (A)
                 (A) (A) (A) (A) (A) (A) (A) (A) (A) (A) (A) (A)
                 (A) (A) (A) (A) (A) (A) (A) (A) (A) (A) (A) (A)
                 (A) (A) (A) (A) (A) (A) (A) (A) (A) (A) (A) (A)
                 (A) (A) (A) (A) (A) (A) (A) (A) (A) (A) (A) (A)
                 (A) (A) (A) (A) (A) (A) (A) (A) (A) (A) (A) (A)
                 (A) (A) (A) (A) (A) (A) (A) (A) (A) (A) (A) (A)
                 (A) (A) (A) (A) (A) (A) (A) (A) (A) (A) (A) (A)
                 (A) (A) (A) (A) (A) (A) (A) (A) (A) (A) (A) (A)
                 (A) (A) (A) (A) (A) (A) (A) (A) (A) (A) (A) (A)
                 (A) (A) (A) (A) (A) (A) (A) (A) (A) (A) (A) (A)
                 (A) (A) (A) (A) (A) (A) (A) (A) (A) (A) (A) (A)
                 (A) (A) (A) (A) (A) (A) (A) (A) (A) (A) (A) (A)
                 (A) (A) (A) (A) (A) (A) (A) (A) (A) (A) (A) (A)
                 (A) (A) (A) (A) (A) (A) (A) (A) (A) (A) (A) (A)
                 (A) (A) (A) (A) (A) (A) (A) (A) (A) (A) (A) (A)
                 (A) (A) (A) (A) (A) (A) (A) (A) (A) (A) (A) (A)
                 (A) (A) (A) (A) (A) (A) (A) (A) (A) (A) (A) (A)
                 (A) (A) (A) (A) (A) (A) (A) (A) (A) (A) (A) (A)
                 (A) (A) (A) (A) (A) (A) (A) (A) (A) (A) (A) (A)
                 (A) (A) (A) (A) (A) (A) (A) (A) (A) (A) (A) (A)
                 (A) (A) (A) (A) (A) (A) (A) (A) (A) (A) (A) (A)
                 (A) (A) (A) (A) (A) (A) (A) (A) (A) (A) (A) (A)
                 (A) (A) (A) (A) (A) (A) (A) (A) (A) (A) (A) (A)
                 (A) (A) (A) (A) (A) (A) (A) (A) (A) (A) (A) (A)
                 (A) (A) (A) (A) (A) (A) (A) (A) (A) (A) (A) (A)
                 (A) (A) (A) (A) (A) (A) (A) (A) (A) (A) (A) (A)
                 (A) (A) (A) (A) (A) (A) (A) (A) (A) (A) (A) (A)
                 (A) (A) (A) (A) (A) (A) (A) (A) (A) (A) (A) (A)
                 (A) (A) (A) (A) (A) (A) (A) (A) (A) (A) (A) (A)
                 (A) (A) (A) (A) (A) (A) (A) (A) (A) (A) (A) (A)
                 (A) (A) (A) (A) (A) (A) (A) (A) (A) (A) (A) (A)
                 (A) (A) (A) (A) (A) (A) (A) (A) (A) (A) (A) (A)
                 (A) (A) (A) (A) (A) (A) (A) (A) (A) (A) (A) (A)
                 (A) (A) (A) (A) (A) (A) (A) (A) (A) (A) (A) (A)
                 (A) (A) (A) (A) (A) (A) (A) (A) (A) (A) (A) (A)
                 (A) (A) (A) (A) (A) (A) (A) (A) (A) (A) (A) (A)
 The electronic state of the initial guess is 1-A.
 Requested convergence on RMS density matrix=1.00D-08 within 128 cycles.
 Requested convergence on MAX density matrix=1.00D-06.
 Requested convergence on             energy=1.00D-06.
 No special actions if energy rises.
 SCF Done:  E(RB3LYP) =  -1297.91638199     A.U. after   14 cycles
             Convg  =    0.3309D-08             -V/T =  2.0087
 Range of M.O.s used for correlation:     1   547
 NBasis=   547 NAE=    91 NBE=    91 NFC=     0 NFV=     0
 NROrb=    547 NOA=    91 NOB=    91 NVA=   456 NVB=   456

 **** Warning!!: The largest alpha MO coefficient is  0.69209433D+02

          Differentiating once with respect to electric field.
                with respect to dipole field.
          Electric field/nuclear overlap derivatives assumed to be zero.
          There are     3 degrees of freedom in the 1st order CPHF.  IDoFFX=0.
      3 vectors produced by pass  0 Test12= 1.38D-12 3.33D-08 XBig12= 1.22D+02 1.08D+00.
 AX will form     3 AO Fock derivatives at one time.
      3 vectors produced by pass  1 Test12= 1.38D-12 3.33D-08 XBig12= 2.53D+01 3.84D-01.
      3 vectors produced by pass  2 Test12= 1.38D-12 3.33D-08 XBig12= 9.62D+00 2.18D-01.
      3 vectors produced by pass  3 Test12= 1.38D-12 3.33D-08 XBig12= 1.01D+00 9.69D-02.
      3 vectors produced by pass  4 Test12= 1.38D-12 3.33D-08 XBig12= 3.46D-01 4.47D-02.
      3 vectors produced by pass  5 Test12= 1.38D-12 3.33D-08 XBig12= 5.96D-02 2.58D-02.
      3 vectors produced by pass  6 Test12= 1.38D-12 3.33D-08 XBig12= 1.88D-02 1.63D-02.
      3 vectors produced by pass  7 Test12= 1.38D-12 3.33D-08 XBig12= 2.56D-03 8.59D-03.
      3 vectors produced by pass  8 Test12= 1.38D-12 3.33D-08 XBig12= 5.67D-04 3.25D-03.
      3 vectors produced by pass  9 Test12= 1.38D-12 3.33D-08 XBig12= 1.36D-04 1.85D-03.
      3 vectors produced by pass 10 Test12= 1.38D-12 3.33D-08 XBig12= 3.56D-05 8.46D-04.
      3 vectors produced by pass 11 Test12= 1.38D-12 3.33D-08 XBig12= 7.47D-06 3.85D-04.
      3 vectors produced by pass 12 Test12= 1.38D-12 3.33D-08 XBig12= 9.84D-07 1.21D-04.
      3 vectors produced by pass 13 Test12= 1.38D-12 3.33D-08 XBig12= 3.13D-07 6.66D-05.
      3 vectors produced by pass 14 Test12= 1.38D-12 3.33D-08 XBig12= 4.39D-08 1.92D-05.
      3 vectors produced by pass 15 Test12= 1.38D-12 3.33D-08 XBig12= 1.01D-08 7.63D-06.
      3 vectors produced by pass 16 Test12= 1.38D-12 3.33D-08 XBig12= 1.25D-09 4.37D-06.
      3 vectors produced by pass 17 Test12= 1.38D-12 3.33D-08 XBig12= 1.81D-10 9.26D-07.
      3 vectors produced by pass 18 Test12= 1.38D-12 3.33D-08 XBig12= 6.52D-11 5.64D-07.
      3 vectors produced by pass 19 Test12= 1.38D-12 3.33D-08 XBig12= 1.98D-11 3.74D-07.
      3 vectors produced by pass 20 Test12= 1.38D-12 3.33D-08 XBig12= 5.78D-12 2.08D-07.
      2 vectors produced by pass 21 Test12= 1.38D-12 3.33D-08 XBig12= 1.11D-12 6.68D-08.
 Inverted reduced A of dimension    65 with in-core refinement.
 End of Minotr Frequency-dependent properties file   721 does not exist.
 End of Minotr Frequency-dependent properties file   722 does not exist.
 Symmetrizing basis deriv contribution to polar:
 IMax=3 JMax=2 DiffMx= 0.00D+00
 G2DrvN: will do    23 centers at a time, making    2 passes doing MaxLOS=2.
 Calling FoFCou, ICntrl=  3107 FMM=F I1Cent=   0 AccDes= 0.00D+00.
 Calling FoFCou, ICntrl=  3107 FMM=F I1Cent=   0 AccDes= 0.00D+00.
 FoFDir/FoFCou used for L=0 through L=2.
 End of G2Drv Frequency-dependent properties file   721 does not exist.
 End of G2Drv Frequency-dependent properties file   722 does not exist.
          IDoAtm=111111111111111111111111111111111111111111111
          Differentiating once with respect to electric field.
                with respect to dipole field.
          Differentiating once with respect to nuclear coordinates.
          There are   138 degrees of freedom in the 1st order CPHF.  IDoFFX=5.
 Will reuse    3 saved solutions.
    135 vectors produced by pass  0 Test12= 4.15D-14 1.00D-09 XBig12= 2.85D-01 1.17D-01.
 AX will form    68 AO Fock derivatives at one time.
    135 vectors produced by pass  1 Test12= 4.15D-14 1.00D-09 XBig12= 3.71D-02 1.46D-02.
    132 vectors produced by pass  2 Test12= 4.15D-14 1.00D-09 XBig12= 2.49D-04 1.62D-03.
    132 vectors produced by pass  3 Test12= 4.15D-14 1.00D-09 XBig12= 9.77D-07 7.54D-05.
    132 vectors produced by pass  4 Test12= 4.15D-14 1.00D-09 XBig12= 1.54D-09 2.70D-06.
    132 vectors produced by pass  5 Test12= 4.15D-14 1.00D-09 XBig12= 5.79D-12 1.75D-07.
     80 vectors produced by pass  6 Test12= 4.15D-14 1.00D-09 XBig12= 2.41D-13 2.91D-08.
 Inverted reduced A of dimension   878 with in-core refinement.
 Isotropic polarizability for W=    0.000000      187.36 Bohr**3.
 End of Minotr Frequency-dependent properties file   721 does not exist.
 End of Minotr Frequency-dependent properties file   722 does not exist.

 **********************************************************************

            Population analysis using the SCF density.

 **********************************************************************

 Orbital symmetries:
       Occupied  (A) (A) (A) (A) (A) (A) (A) (A) (A) (A) (A) (A)
                 (A) (A) (A) (A) (A) (A) (A) (A) (A) (A) (A) (A)
                 (A) (A) (A) (A) (A) (A) (A) (A) (A) (A) (A) (A)
                 (A) (A) (A) (A) (A) (A) (A) (A) (A) (A) (A) (A)
                 (A) (A) (A) (A) (A) (A) (A) (A) (A) (A) (A) (A)
                 (A) (A) (A) (A) (A) (A) (A) (A) (A) (A) (A) (A)
                 (A) (A) (A) (A) (A) (A) (A) (A) (A) (A) (A) (A)
                 (A) (A) (A) (A) (A) (A) (A)
       Virtual   (A) (A) (A) (A) (A) (A) (A) (A) (A) (A) (A) (A)
                 (A) (A) (A) (A) (A) (A) (A) (A) (A) (A) (A) (A)
                 (A) (A) (A) (A) (A) (A) (A) (A) (A) (A) (A) (A)
                 (A) (A) (A) (A) (A) (A) (A) (A) (A) (A) (A) (A)
                 (A) (A) (A) (A) (A) (A) (A) (A) (A) (A) (A) (A)
                 (A) (A) (A) (A) (A) (A) (A) (A) (A) (A) (A) (A)
                 (A) (A) (A) (A) (A) (A) (A) (A) (A) (A) (A) (A)
                 (A) (A) (A) (A) (A) (A) (A) (A) (A) (A) (A) (A)
                 (A) (A) (A) (A) (A) (A) (A) (A) (A) (A) (A) (A)
                 (A) (A) (A) (A) (A) (A) (A) (A) (A) (A) (A) (A)
                 (A) (A) (A) (A) (A) (A) (A) (A) (A) (A) (A) (A)
                 (A) (A) (A) (A) (A) (A) (A) (A) (A) (A) (A) (A)
                 (A) (A) (A) (A) (A) (A) (A) (A) (A) (A) (A) (A)
                 (A) (A) (A) (A) (A) (A) (A) (A) (A) (A) (A) (A)
                 (A) (A) (A) (A) (A) (A) (A) (A) (A) (A) (A) (A)
                 (A) (A) (A) (A) (A) (A) (A) (A) (A) (A) (A) (A)
                 (A) (A) (A) (A) (A) (A) (A) (A) (A) (A) (A) (A)
                 (A) (A) (A) (A) (A) (A) (A) (A) (A) (A) (A) (A)
                 (A) (A) (A) (A) (A) (A) (A) (A) (A) (A) (A) (A)
                 (A) (A) (A) (A) (A) (A) (A) (A) (A) (A) (A) (A)
                 (A) (A) (A) (A) (A) (A) (A) (A) (A) (A) (A) (A)
                 (A) (A) (A) (A) (A) (A) (A) (A) (A) (A) (A) (A)
                 (A) (A) (A) (A) (A) (A) (A) (A) (A) (A) (A) (A)
                 (A) (A) (A) (A) (A) (A) (A) (A) (A) (A) (A) (A)
                 (A) (A) (A) (A) (A) (A) (A) (A) (A) (A) (A) (A)
                 (A) (A) (A) (A) (A) (A) (A) (A) (A) (A) (A) (A)
                 (A) (A) (A) (A) (A) (A) (A) (A) (A) (A) (A) (A)
                 (A) (A) (A) (A) (A) (A) (A) (A) (A) (A) (A) (A)
                 (A) (A) (A) (A) (A) (A) (A) (A) (A) (A) (A) (A)
                 (A) (A) (A) (A) (A) (A) (A) (A) (A) (A) (A) (A)
                 (A) (A) (A) (A) (A) (A) (A) (A) (A) (A) (A) (A)
                 (A) (A) (A) (A) (A) (A) (A) (A) (A) (A) (A) (A)
                 (A) (A) (A) (A) (A) (A) (A) (A) (A) (A) (A) (A)
                 (A) (A) (A) (A) (A) (A) (A) (A) (A) (A) (A) (A)
                 (A) (A) (A) (A) (A) (A) (A) (A) (A) (A) (A) (A)
                 (A) (A) (A) (A) (A) (A) (A) (A) (A) (A) (A) (A)
                 (A) (A) (A) (A) (A) (A) (A) (A) (A) (A) (A) (A)
                 (A) (A) (A) (A) (A) (A) (A) (A) (A) (A) (A) (A)
 The electronic state is 1-A.
 Alpha  occ. eigenvalues --  -19.19962 -19.19597 -19.19297 -19.19274 -19.19234
 Alpha  occ. eigenvalues --  -19.18286 -19.17100 -19.16908 -19.16369 -19.14909
 Alpha  occ. eigenvalues --  -19.14626 -10.31622 -10.31165 -10.27194 -10.25944
 Alpha  occ. eigenvalues --  -10.25835 -10.25765 -10.25643 -10.25435 -10.25217
 Alpha  occ. eigenvalues --  -10.25108 -10.24597 -10.24336  -1.10732  -1.09542
 Alpha  occ. eigenvalues --   -1.05672  -1.05231  -1.04286  -1.04059  -1.03030
 Alpha  occ. eigenvalues --   -1.02736  -1.02490  -1.00931  -1.00556  -0.82960
 Alpha  occ. eigenvalues --   -0.80408  -0.79530  -0.78687  -0.72163  -0.70319
 Alpha  occ. eigenvalues --   -0.67958  -0.65609  -0.63468  -0.62448  -0.62099
 Alpha  occ. eigenvalues --   -0.60703  -0.56940  -0.56191  -0.55391  -0.54845
 Alpha  occ. eigenvalues --   -0.54393  -0.53864  -0.53198  -0.52632  -0.52162
 Alpha  occ. eigenvalues --   -0.50889  -0.50220  -0.49230  -0.48667  -0.46264
 Alpha  occ. eigenvalues --   -0.46114  -0.46006  -0.44689  -0.44245  -0.43686
 Alpha  occ. eigenvalues --   -0.42769  -0.42117  -0.41403  -0.40716  -0.39684
 Alpha  occ. eigenvalues --   -0.39053  -0.38471  -0.36749  -0.36424  -0.35697
 Alpha  occ. eigenvalues --   -0.35386  -0.35221  -0.34712  -0.34001  -0.33731
 Alpha  occ. eigenvalues --   -0.33195  -0.31766  -0.31607  -0.30661  -0.30075
 Alpha  occ. eigenvalues --   -0.29721  -0.28917  -0.28430  -0.28160  -0.26756
 Alpha  occ. eigenvalues --   -0.26039
 Alpha virt. eigenvalues --   -0.02459  -0.02155  -0.02053  -0.00593   0.00162
 Alpha virt. eigenvalues --    0.01183   0.01692   0.02136   0.02775   0.03224
 Alpha virt. eigenvalues --    0.03586   0.03957   0.04465   0.05074   0.05640
 Alpha virt. eigenvalues --    0.06209   0.06995   0.07325   0.07499   0.07771
 Alpha virt. eigenvalues --    0.08285   0.08692   0.09118   0.09760   0.10068
 Alpha virt. eigenvalues --    0.10907   0.11098   0.11223   0.11431   0.11941
 Alpha virt. eigenvalues --    0.12318   0.12544   0.12971   0.13275   0.13405
 Alpha virt. eigenvalues --    0.13700   0.14496   0.14826   0.15279   0.15498
 Alpha virt. eigenvalues --    0.15780   0.16099   0.16238   0.16543   0.16693
 Alpha virt. eigenvalues --    0.16990   0.17295   0.17531   0.18086   0.18424
 Alpha virt. eigenvalues --    0.18477   0.18916   0.19025   0.19761   0.20043
 Alpha virt. eigenvalues --    0.20519   0.20689   0.20896   0.21140   0.21451
 Alpha virt. eigenvalues --    0.21851   0.22031   0.22450   0.22869   0.23264
 Alpha virt. eigenvalues --    0.23465   0.23790   0.24233   0.24392   0.24605
 Alpha virt. eigenvalues --    0.24828   0.25001   0.25324   0.25849   0.26038
 Alpha virt. eigenvalues --    0.26560   0.26685   0.26843   0.27004   0.27168
 Alpha virt. eigenvalues --    0.27462   0.27665   0.27820   0.28342   0.28779
 Alpha virt. eigenvalues --    0.29288   0.29447   0.29758   0.30351   0.30466
 Alpha virt. eigenvalues --    0.30647   0.31172   0.31391   0.31801   0.32388
 Alpha virt. eigenvalues --    0.32790   0.33224   0.33401   0.33780   0.34024
 Alpha virt. eigenvalues --    0.34385   0.34556   0.34775   0.35253   0.35989
 Alpha virt. eigenvalues --    0.36137   0.36325   0.36688   0.36829   0.37659
 Alpha virt. eigenvalues --    0.37886   0.38275   0.38826   0.39272   0.39827
 Alpha virt. eigenvalues --    0.40378   0.40635   0.41245   0.41459   0.41745
 Alpha virt. eigenvalues --    0.42300   0.42473   0.43093   0.43262   0.44015
 Alpha virt. eigenvalues --    0.44379   0.44922   0.45056   0.46003   0.47001
 Alpha virt. eigenvalues --    0.47249   0.48174   0.48678   0.49539   0.50370
 Alpha virt. eigenvalues --    0.51274   0.52830   0.55616   0.62540   0.64321
 Alpha virt. eigenvalues --    0.64984   0.66430   0.67615   0.68747   0.70627
 Alpha virt. eigenvalues --    0.71412   0.71598   0.73150   0.73486   0.74349
 Alpha virt. eigenvalues --    0.74980   0.75226   0.76785   0.78451   0.79287
 Alpha virt. eigenvalues --    0.79818   0.80528   0.81565   0.82358   0.83054
 Alpha virt. eigenvalues --    0.84817   0.85346   0.87681   0.88865   0.89319
 Alpha virt. eigenvalues --    0.90266   0.90835   0.92577   0.92957   0.93996
 Alpha virt. eigenvalues --    0.94636   0.96177   0.98063   0.98803   0.99513
 Alpha virt. eigenvalues --    0.99922   1.00041   1.01104   1.03723   1.04336
 Alpha virt. eigenvalues --    1.05187   1.06053   1.06319   1.07004   1.07576
 Alpha virt. eigenvalues --    1.08115   1.08741   1.09170   1.09420   1.09948
 Alpha virt. eigenvalues --    1.10870   1.11339   1.12588   1.13841   1.13998
 Alpha virt. eigenvalues --    1.15250   1.17692   1.18809   1.20263   1.21147
 Alpha virt. eigenvalues --    1.21992   1.22417   1.23278   1.24100   1.25134
 Alpha virt. eigenvalues --    1.25406   1.26076   1.27128   1.27389   1.28318
 Alpha virt. eigenvalues --    1.28994   1.29666   1.29984   1.30224   1.31196
 Alpha virt. eigenvalues --    1.31648   1.31851   1.33307   1.33799   1.34548
 Alpha virt. eigenvalues --    1.35214   1.35799   1.35954   1.36791   1.38053
 Alpha virt. eigenvalues --    1.38724   1.39297   1.41179   1.41552   1.43618
 Alpha virt. eigenvalues --    1.44375   1.44967   1.45223   1.47562   1.47996
 Alpha virt. eigenvalues --    1.49576   1.51023   1.51151   1.52516   1.53405
 Alpha virt. eigenvalues --    1.54464   1.55460   1.56293   1.56825   1.57402
 Alpha virt. eigenvalues --    1.57940   1.58879   1.59231   1.60432   1.60607
 Alpha virt. eigenvalues --    1.61521   1.61885   1.62291   1.63483   1.64172
 Alpha virt. eigenvalues --    1.64782   1.66096   1.66668   1.67573   1.68161
 Alpha virt. eigenvalues --    1.70714   1.71278   1.71950   1.72593   1.73976
 Alpha virt. eigenvalues --    1.74662   1.74911   1.76175   1.76851   1.77303
 Alpha virt. eigenvalues --    1.78208   1.79684   1.80267   1.81576   1.82492
 Alpha virt. eigenvalues --    1.82844   1.84099   1.84929   1.85617   1.86372
 Alpha virt. eigenvalues --    1.87270   1.88090   1.88760   1.89830   1.90479
 Alpha virt. eigenvalues --    1.91768   1.92495   1.92949   1.93275   1.94463
 Alpha virt. eigenvalues --    1.94841   1.95373   1.97571   1.97975   1.98839
 Alpha virt. eigenvalues --    1.99107   2.00112   2.00741   2.01468   2.03562
 Alpha virt. eigenvalues --    2.04274   2.04677   2.05070   2.05656   2.05936
 Alpha virt. eigenvalues --    2.07445   2.09161   2.09902   2.10506   2.12369
 Alpha virt. eigenvalues --    2.12621   2.13623   2.14732   2.16399   2.17004
 Alpha virt. eigenvalues --    2.18305   2.19395   2.20370   2.20698   2.22551
 Alpha virt. eigenvalues --    2.23239   2.24096   2.25270   2.26210   2.28155
 Alpha virt. eigenvalues --    2.29636   2.30650   2.31330   2.33557   2.34035
 Alpha virt. eigenvalues --    2.35990   2.36727   2.37860   2.38395   2.39157
 Alpha virt. eigenvalues --    2.40346   2.41109   2.41460   2.43075   2.43889
 Alpha virt. eigenvalues --    2.45028   2.45541   2.47287   2.48328   2.49022
 Alpha virt. eigenvalues --    2.49568   2.50686   2.51712   2.52188   2.53917
 Alpha virt. eigenvalues --    2.56378   2.56697   2.57623   2.58751   2.59403
 Alpha virt. eigenvalues --    2.59852   2.61432   2.62597   2.63466   2.63929
 Alpha virt. eigenvalues --    2.65755   2.66370   2.67204   2.69297   2.69776
 Alpha virt. eigenvalues --    2.71874   2.72240   2.72541   2.73270   2.74325
 Alpha virt. eigenvalues --    2.75253   2.76051   2.76889   2.78453   2.79149
 Alpha virt. eigenvalues --    2.80282   2.81602   2.82338   2.83259   2.84870
 Alpha virt. eigenvalues --    2.86351   2.87552   2.88270   2.88583   2.89368
 Alpha virt. eigenvalues --    2.90625   2.91654   2.92445   2.92957   2.93615
 Alpha virt. eigenvalues --    2.94979   2.96275   2.97035   2.97847   2.99657
 Alpha virt. eigenvalues --    3.00609   3.02601   3.04465   3.05265   3.05982
 Alpha virt. eigenvalues --    3.06918   3.07763   3.08039   3.10547   3.12794
 Alpha virt. eigenvalues --    3.15227   3.17325   3.22799   3.23568   3.28875
 Alpha virt. eigenvalues --    3.32289   3.36850   3.37705   3.40163   3.41841
 Alpha virt. eigenvalues --    3.43664   3.44071   3.46332   3.46846   3.48219
 Alpha virt. eigenvalues --    3.48708   3.49614   3.51591   3.52129   3.53050
 Alpha virt. eigenvalues --    3.54778   3.56524   3.59354   3.60212   3.63980
 Alpha virt. eigenvalues --    3.65255   3.69125   3.69604   4.31552   4.32630
 Alpha virt. eigenvalues --    4.34191   4.37192   4.38642   4.39756   4.45579
 Alpha virt. eigenvalues --    4.47877   4.48640   4.49052   4.51307   4.55782
 Alpha virt. eigenvalues --    4.56672   4.58115   4.59986   4.63975   4.72945
 Alpha virt. eigenvalues --    4.75201   4.80834   4.84828   4.88729   4.90149
 Alpha virt. eigenvalues --    4.91573
          Condensed to atoms (all electrons):
              1          2          3          4          5          6
     1  O    8.210869   0.475323  -0.189216  -0.016676   0.031782   0.049785
     2  C    0.475323  11.004418  -2.915360   0.071146  -0.038353  -2.963975
     3  C   -0.189216  -2.915360  10.037359   0.084804  -0.009464   1.443558
     4  O   -0.016676   0.071146   0.084804   8.255935   0.191481  -0.102165
     5  H    0.031782  -0.038353  -0.009464   0.191481   0.440123   0.008749
     6  C    0.049785  -2.963975   1.443558  -0.102165   0.008749  13.242482
     7  O   -0.000906   0.069424  -0.108461   0.010236  -0.000498   0.030536
     8  H    0.000021  -0.017525   0.006591  -0.001333   0.000012   0.132668
     9  C   -0.010065  -0.001864  -0.285088   0.005688  -0.003213   0.485763
    10  O    0.000156   0.011903   0.013616   0.000034   0.000002  -0.001585
    11  H    0.000154  -0.015555  -0.003170   0.000002   0.000000   0.000406
    12  C   -0.233943  -2.393140   0.006180   0.000094   0.030581   0.367533
    13  O    0.004148  -0.050702   0.014273  -0.002463  -0.000138   0.022893
    14  C   -0.004636   2.018247  -1.519413   0.040400   0.009095  -5.052879
    15  O    0.000570   0.009204  -0.054350  -0.000028   0.000065   0.054270
    16  C    0.004191   0.224732  -0.402119   0.002939   0.001620  -0.581771
    17  C    0.000384   0.024999  -0.081924   0.002102   0.000064  -0.378586
    18  O    0.000007  -0.007398   0.001457  -0.000014   0.000000   0.021028
    19  H   -0.000017   0.008075   0.002905   0.000001   0.000000  -0.002038
    20  C    0.000037   0.021036  -0.020664   0.000088   0.000003  -0.036447
    21  O    0.000000   0.000018  -0.000029   0.000000   0.000000  -0.000135
    22  H    0.000000   0.000000   0.000000   0.000000   0.000000  -0.000074
    23  C    0.000127   0.008608  -0.032765   0.000938  -0.000067  -0.082593
    24  O   -0.000015   0.006703  -0.011434  -0.000368  -0.000002   0.019295
    25  H    0.000000  -0.000307   0.001043   0.000004   0.000000  -0.006931
    26  C   -0.000262   0.050187  -0.016234   0.000048   0.000068  -0.398178
    27  O    0.000000   0.000023   0.000238   0.000002   0.000000  -0.004393
    28  C   -0.000005  -0.003283   0.005682  -0.000003   0.000000  -0.006236
    29  O    0.000000   0.000003  -0.000001   0.000000   0.000000  -0.000076
    30  H    0.000000   0.000000   0.000000   0.000000   0.000000   0.000007
    31  H    0.000000  -0.000002   0.000012   0.000000   0.000000   0.000298
    32  H    0.000000   0.000064  -0.000005   0.000000   0.000000   0.001733
    33  H    0.000000  -0.000704   0.000634   0.000000   0.000000   0.007791
    34  H   -0.000003   0.000380   0.003802   0.000008   0.000000  -0.015729
    35  H    0.000000  -0.000095   0.000282   0.000000   0.000000   0.000423
    36  H    0.000000   0.000480  -0.000732   0.000010   0.000000  -0.004068
    37  H    0.000000   0.000056  -0.000546   0.000000   0.000000   0.000169
    38  H    0.247592  -0.001285  -0.015432   0.002085  -0.002863   0.001310
    39  H    0.000194  -0.032439  -0.002267   0.000034   0.000000  -0.004943
    40  H    0.002023  -0.001675  -0.012030  -0.000074   0.000001   0.020565
    41  H    0.006951   0.095453  -0.096458  -0.000035  -0.000019  -0.000678
    42  H   -0.055156   0.529440  -0.166625   0.001660  -0.001173  -0.018744
    43  H   -0.007808   0.201617   0.231678  -0.043855  -0.003051  -0.381651
    44  H   -0.000887   0.064636  -0.124563   0.007159   0.000024   0.121597
    45  H   -0.000126   0.017531  -0.018181  -0.000228   0.000004  -0.121873
              7          8          9         10         11         12
     1  O   -0.000906   0.000021  -0.010065   0.000156   0.000154  -0.233943
     2  C    0.069424  -0.017525  -0.001864   0.011903  -0.015555  -2.393140
     3  C   -0.108461   0.006591  -0.285088   0.013616  -0.003170   0.006180
     4  O    0.010236  -0.001333   0.005688   0.000034   0.000002   0.000094
     5  H   -0.000498   0.000012  -0.003213   0.000002   0.000000   0.030581
     6  C    0.030536   0.132668   0.485763  -0.001585   0.000406   0.367533
     7  O    8.303381   0.188568   0.000383   0.000021   0.000001   0.019326
     8  H    0.188568   0.365299   0.000835   0.000000   0.000000   0.006228
     9  C    0.000383   0.000835   8.392447   0.063227   0.046630  -2.615896
    10  O    0.000021   0.000000   0.063227   8.303858   0.187195  -0.002991
    11  H    0.000001   0.000000   0.046630   0.187195   0.457227   0.006372
    12  C    0.019326   0.006228  -2.615896  -0.002991   0.006372  12.644869
    13  O    0.006586   0.000419   0.071494   0.000000  -0.000411  -0.118922
    14  C    0.006811  -0.089690  -0.857280   0.011734  -0.005765  -1.111174
    15  O   -0.006089   0.013304  -0.025087   0.000097   0.000014  -0.010877
    16  C    0.055429  -0.000857  -0.193215  -0.001865  -0.000285  -0.193634
    17  C    0.010436   0.002274  -0.077216  -0.000717   0.000010  -0.267940
    18  O   -0.000032  -0.000051   0.005743  -0.000198  -0.000015   0.011951
    19  H   -0.000055  -0.000009  -0.009849   0.000061   0.000001  -0.013747
    20  C    0.003564   0.000034  -0.017454  -0.000022   0.000009  -0.031731
    21  O   -0.000009   0.000000   0.000055   0.000000   0.000000  -0.000143
    22  H    0.000000   0.000000  -0.000006   0.000000   0.000000   0.000031
    23  C    0.008667  -0.000058   0.000228  -0.000007  -0.000002  -0.025680
    24  O   -0.046993   0.019417  -0.000180   0.000000   0.000000  -0.001223
    25  H    0.003821  -0.004607   0.000000   0.000000   0.000000   0.000183
    26  C   -0.008755  -0.026932  -0.049470  -0.000134   0.000007   0.021725
    27  O    0.000566  -0.000024   0.000029   0.000000   0.000000  -0.000824
    28  C    0.000251  -0.000264   0.004574   0.000015   0.000000   0.009327
    29  O   -0.000005   0.000000   0.000001   0.000000   0.000000  -0.000033
    30  H    0.000000   0.000000   0.000000   0.000000   0.000000  -0.000001
    31  H    0.000000   0.000000   0.000006   0.000000   0.000000  -0.000032
    32  H    0.000001   0.000000   0.000039   0.000000   0.000000   0.000053
    33  H   -0.000005   0.000001   0.000804  -0.000001   0.000000   0.001956
    34  H   -0.002210  -0.000259  -0.000429   0.000000   0.000000   0.008673
    35  H    0.000013  -0.000005   0.000082   0.000000   0.000000   0.000127
    36  H    0.003816  -0.000424   0.000026   0.000000   0.000000  -0.000494
    37  H   -0.000725   0.000437  -0.000003   0.000000   0.000000  -0.000199
    38  H   -0.000051   0.000000  -0.008237  -0.001206  -0.000001   0.027217
    39  H   -0.000014   0.000000   0.386855  -0.038731  -0.017842   0.014880
    40  H   -0.000002   0.000000   0.691277  -0.068379   0.001308  -0.338756
    41  H   -0.000041   0.000005   0.069306   0.007515  -0.000068   0.060875
    42  H    0.000152   0.000007   0.028101   0.000021  -0.000011  -0.201117
    43  H    0.006172   0.000057   0.014268   0.000117   0.000000  -0.066679
    44  H   -0.035900  -0.006890   0.006650   0.000011   0.000000   0.015181
    45  H   -0.000937  -0.001215   0.007674   0.000092   0.000001   0.017420
             13         14         15         16         17         18
     1  O    0.004148  -0.004636   0.000570   0.004191   0.000384   0.000007
     2  C   -0.050702   2.018247   0.009204   0.224732   0.024999  -0.007398
     3  C    0.014273  -1.519413  -0.054350  -0.402119  -0.081924   0.001457
     4  O   -0.002463   0.040400  -0.000028   0.002939   0.002102  -0.000014
     5  H   -0.000138   0.009095   0.000065   0.001620   0.000064   0.000000
     6  C    0.022893  -5.052879   0.054270  -0.581771  -0.378586   0.021028
     7  O    0.006586   0.006811  -0.006089   0.055429   0.010436  -0.000032
     8  H    0.000419  -0.089690   0.013304  -0.000857   0.002274  -0.000051
     9  C    0.071494  -0.857280  -0.025087  -0.193215  -0.077216   0.005743
    10  O    0.000000   0.011734   0.000097  -0.001865  -0.000717  -0.000198
    11  H   -0.000411  -0.005765   0.000014  -0.000285   0.000010  -0.000015
    12  C   -0.118922  -1.111174  -0.010877  -0.193634  -0.267940   0.011951
    13  O    8.508198   0.252064  -0.051376  -0.107145  -0.030291   0.011236
    14  C    0.252064  15.368621   0.202496  -0.374755  -1.498427   0.077635
    15  O   -0.051376   0.202496   8.320125  -0.064687   0.095278  -0.019383
    16  C   -0.107145  -0.374755  -0.064687  19.751980  -5.741807  -0.044376
    17  C   -0.030291  -1.498427   0.095278  -5.741807  13.412248   0.240402
    18  O    0.011236   0.077635  -0.019383  -0.044376   0.240402   8.265287
    19  H    0.017506  -0.042127   0.027412  -0.131121   0.114193   0.182737
    20  C   -0.006978  -0.664854   0.043230  -2.649017  -0.037811  -0.162551
    21  O    0.000111  -0.001807  -0.000359   0.027027  -0.139171   0.017164
    22  H    0.000001  -0.000864   0.000016  -0.022806   0.012770  -0.000744
    23  C    0.004750  -0.121056  -0.099398   0.674064  -0.350212   0.009844
    24  O    0.000875   0.073876  -0.001535   0.189688  -0.027003   0.000382
    25  H    0.000040   0.002932   0.000505  -0.002552   0.000695  -0.000002
    26  C   -0.074785  -2.004183   0.039352  -7.103102   1.543576  -0.031594
    27  O    0.000283  -0.041138   0.006244  -0.120112  -0.009885  -0.002091
    28  C    0.007790   0.218080   0.015432   1.748751  -0.554332   0.011777
    29  O   -0.000015  -0.003087   0.000033  -0.051362   0.092748  -0.000908
    30  H    0.000000   0.000280  -0.000003  -0.000649   0.002870   0.000004
    31  H    0.000000   0.006556   0.000209   0.167927  -0.047106  -0.000542
    32  H    0.000089   0.009175  -0.001213   0.216671  -0.349130   0.006561
    33  H    0.001067   0.110600  -0.012336   0.378195   0.058011  -0.047925
    34  H    0.001662   0.085421  -0.061775   0.430069  -0.175227  -0.004246
    35  H   -0.000034   0.044883   0.008501   0.143046  -0.030255  -0.000642
    36  H   -0.000879  -0.021301  -0.000805  -0.087069   0.003507  -0.000108
    37  H   -0.000014  -0.000179  -0.001832   0.072749  -0.001989   0.000080
    38  H   -0.000462   0.001262   0.000006   0.000368  -0.000022   0.000000
    39  H   -0.002311   0.003245  -0.000373   0.003542   0.004718   0.000004
    40  H    0.007165  -0.007472  -0.000170  -0.003575   0.000095  -0.000002
    41  H   -0.039865   0.111723   0.000580   0.016872   0.005965   0.000046
    42  H    0.008456   0.090813  -0.000992  -0.001401   0.001024   0.000032
    43  H    0.002608   0.247539  -0.000777   0.013958   0.002029   0.000063
    44  H    0.008745   0.158173  -0.007799   0.030959   0.003211   0.000084
    45  H   -0.056373   0.309278  -0.062180   0.072454   0.021556  -0.001579
             19         20         21         22         23         24
     1  O   -0.000017   0.000037   0.000000   0.000000   0.000127  -0.000015
     2  C    0.008075   0.021036   0.000018   0.000000   0.008608   0.006703
     3  C    0.002905  -0.020664  -0.000029   0.000000  -0.032765  -0.011434
     4  O    0.000001   0.000088   0.000000   0.000000   0.000938  -0.000368
     5  H    0.000000   0.000003   0.000000   0.000000  -0.000067  -0.000002
     6  C   -0.002038  -0.036447  -0.000135  -0.000074  -0.082593   0.019295
     7  O   -0.000055   0.003564  -0.000009   0.000000   0.008667  -0.046993
     8  H   -0.000009   0.000034   0.000000   0.000000  -0.000058   0.019417
     9  C   -0.009849  -0.017454   0.000055  -0.000006   0.000228  -0.000180
    10  O    0.000061  -0.000022   0.000000   0.000000  -0.000007   0.000000
    11  H    0.000001   0.000009   0.000000   0.000000  -0.000002   0.000000
    12  C   -0.013747  -0.031731  -0.000143   0.000031  -0.025680  -0.001223
    13  O    0.017506  -0.006978   0.000111   0.000001   0.004750   0.000875
    14  C   -0.042127  -0.664854  -0.001807  -0.000864  -0.121056   0.073876
    15  O    0.027412   0.043230  -0.000359   0.000016  -0.099398  -0.001535
    16  C   -0.131121  -2.649017   0.027027  -0.022806   0.674064   0.189688
    17  C    0.114193  -0.037811  -0.139171   0.012770  -0.350212  -0.027003
    18  O    0.182737  -0.162551   0.017164  -0.000744   0.009844   0.000382
    19  H    0.382002   0.031061  -0.000934   0.000008  -0.003408  -0.000111
    20  C    0.031061   9.475300   0.207162   0.038887   0.124099  -0.003951
    21  O   -0.000934   0.207162   8.275009   0.197290   0.005672   0.000039
    22  H    0.000008   0.038887   0.197290   0.420212   0.000059   0.000000
    23  C   -0.003408   0.124099   0.005672   0.000059   6.792386   0.239493
    24  O   -0.000111  -0.003951   0.000039   0.000000   0.239493   8.498316
    25  H    0.000000  -0.000421   0.000000   0.000000  -0.042484   0.212166
    26  C    0.050538   1.615910   0.000558   0.002859  -1.695108  -0.439060
    27  O    0.000220  -0.157944   0.004698   0.000316  -0.099860   0.021857
    28  C   -0.008552  -1.837821  -0.018582  -0.020138  -0.176764   0.009260
    29  O    0.000032  -0.203575  -0.015352   0.020086  -0.003512  -0.000458
    30  H    0.000000   0.017748   0.000315  -0.003070   0.001886  -0.000011
    31  H    0.000004  -0.166389   0.004733  -0.001636   0.006678   0.000063
    32  H    0.000001   0.404530  -0.047167  -0.002884   0.016929   0.000117
    33  H   -0.003263  -0.148512   0.002455  -0.000078   0.029392   0.000201
    34  H   -0.000956   0.003337  -0.000214   0.000005   0.009574   0.007846
    35  H    0.000002  -0.047056  -0.000273   0.000009  -0.027652   0.007376
    36  H    0.000001   0.002416   0.000000   0.000000   0.518295  -0.093102
    37  H    0.000000  -0.000948  -0.000001   0.000000   0.510217  -0.045844
    38  H    0.000000   0.000000   0.000000   0.000000   0.000003   0.000000
    39  H    0.000806  -0.000019   0.000002   0.000000   0.000030   0.000000
    40  H    0.000031  -0.000042   0.000000   0.000000   0.000011   0.000000
    41  H   -0.000210   0.000467   0.000000   0.000000   0.000554   0.000002
    42  H   -0.000004   0.000028   0.000000   0.000000   0.000283   0.000002
    43  H   -0.000003   0.000108   0.000000   0.000000   0.001000   0.000068
    44  H   -0.000004   0.000540   0.000000   0.000000   0.004017   0.000050
    45  H   -0.000848   0.008041   0.000023   0.000000  -0.000579  -0.000412
             25         26         27         28         29         30
     1  O    0.000000  -0.000262   0.000000  -0.000005   0.000000   0.000000
     2  C   -0.000307   0.050187   0.000023  -0.003283   0.000003   0.000000
     3  C    0.001043  -0.016234   0.000238   0.005682  -0.000001   0.000000
     4  O    0.000004   0.000048   0.000002  -0.000003   0.000000   0.000000
     5  H    0.000000   0.000068   0.000000   0.000000   0.000000   0.000000
     6  C   -0.006931  -0.398178  -0.004393  -0.006236  -0.000076   0.000007
     7  O    0.003821  -0.008755   0.000566   0.000251  -0.000005   0.000000
     8  H   -0.004607  -0.026932  -0.000024  -0.000264   0.000000   0.000000
     9  C    0.000000  -0.049470   0.000029   0.004574   0.000001   0.000000
    10  O    0.000000  -0.000134   0.000000   0.000015   0.000000   0.000000
    11  H    0.000000   0.000007   0.000000   0.000000   0.000000   0.000000
    12  C    0.000183   0.021725  -0.000824   0.009327  -0.000033  -0.000001
    13  O    0.000040  -0.074785   0.000283   0.007790  -0.000015   0.000000
    14  C    0.002932  -2.004183  -0.041138   0.218080  -0.003087   0.000280
    15  O    0.000505   0.039352   0.006244   0.015432   0.000033  -0.000003
    16  C   -0.002552  -7.103102  -0.120112   1.748751  -0.051362  -0.000649
    17  C    0.000695   1.543576  -0.009885  -0.554332   0.092748   0.002870
    18  O   -0.000002  -0.031594  -0.002091   0.011777  -0.000908   0.000004
    19  H    0.000000   0.050538   0.000220  -0.008552   0.000032   0.000000
    20  C   -0.000421   1.615910  -0.157944  -1.837821  -0.203575   0.017748
    21  O    0.000000   0.000558   0.004698  -0.018582  -0.015352   0.000315
    22  H    0.000000   0.002859   0.000316  -0.020138   0.020086  -0.003070
    23  C   -0.042484  -1.695108  -0.099860  -0.176764  -0.003512   0.001886
    24  O    0.212166  -0.439060   0.021857   0.009260  -0.000458  -0.000011
    25  H    0.391419   0.054139  -0.000861   0.001870  -0.000014   0.000000
    26  C    0.054139  15.931475   0.276285  -1.593032  -0.036128   0.009298
    27  O   -0.000861   0.276285   8.347531   0.213398  -0.026171  -0.004093
    28  C    0.001870  -1.593032   0.213398   6.845872   0.381553  -0.020933
    29  O   -0.000014  -0.036128  -0.026171   0.381553   8.237790   0.232542
    30  H    0.000000   0.009298  -0.004093  -0.020933   0.232542   0.412355
    31  H    0.000000  -0.139429  -0.070179   0.514940  -0.059146  -0.008911
    32  H    0.000000  -0.041420   0.006618   0.031562  -0.009789   0.000304
    33  H    0.000001  -0.191895   0.002677   0.027495  -0.001109   0.000018
    34  H    0.000028  -0.085328   0.004620   0.025772  -0.000877   0.000002
    35  H   -0.000101   0.090624  -0.040404   0.087943  -0.001052  -0.000023
    36  H    0.000398  -0.039943   0.010520   0.000015   0.000018   0.000000
    37  H   -0.009865  -0.181320  -0.015256  -0.010299  -0.000077   0.000000
    38  H    0.000000  -0.000004   0.000000   0.000000   0.000000   0.000000
    39  H    0.000000   0.000456   0.000000  -0.000035   0.000000   0.000000
    40  H    0.000000  -0.000412   0.000000   0.000010   0.000000   0.000000
    41  H    0.000000  -0.001641   0.000001   0.000018   0.000000   0.000000
    42  H    0.000000  -0.000620   0.000000   0.000002   0.000000   0.000000
    43  H    0.000000  -0.000559   0.000000  -0.000005   0.000000   0.000000
    44  H    0.000023  -0.000259   0.000007  -0.000031   0.000000   0.000000
    45  H    0.000010   0.037398   0.000209  -0.000562  -0.000001   0.000000
             31         32         33         34         35         36
     1  O    0.000000   0.000000   0.000000  -0.000003   0.000000   0.000000
     2  C   -0.000002   0.000064  -0.000704   0.000380  -0.000095   0.000480
     3  C    0.000012  -0.000005   0.000634   0.003802   0.000282  -0.000732
     4  O    0.000000   0.000000   0.000000   0.000008   0.000000   0.000010
     5  H    0.000000   0.000000   0.000000   0.000000   0.000000   0.000000
     6  C    0.000298   0.001733   0.007791  -0.015729   0.000423  -0.004068
     7  O    0.000000   0.000001  -0.000005  -0.002210   0.000013   0.003816
     8  H    0.000000   0.000000   0.000001  -0.000259  -0.000005  -0.000424
     9  C    0.000006   0.000039   0.000804  -0.000429   0.000082   0.000026
    10  O    0.000000   0.000000  -0.000001   0.000000   0.000000   0.000000
    11  H    0.000000   0.000000   0.000000   0.000000   0.000000   0.000000
    12  C   -0.000032   0.000053   0.001956   0.008673   0.000127  -0.000494
    13  O    0.000000   0.000089   0.001067   0.001662  -0.000034  -0.000879
    14  C    0.006556   0.009175   0.110600   0.085421   0.044883  -0.021301
    15  O    0.000209  -0.001213  -0.012336  -0.061775   0.008501  -0.000805
    16  C    0.167927   0.216671   0.378195   0.430069   0.143046  -0.087069
    17  C   -0.047106  -0.349130   0.058011  -0.175227  -0.030255   0.003507
    18  O   -0.000542   0.006561  -0.047925  -0.004246  -0.000642  -0.000108
    19  H    0.000004   0.000001  -0.003263  -0.000956   0.000002   0.000001
    20  C   -0.166389   0.404530  -0.148512   0.003337  -0.047056   0.002416
    21  O    0.004733  -0.047167   0.002455  -0.000214  -0.000273   0.000000
    22  H   -0.001636  -0.002884  -0.000078   0.000005   0.000009   0.000000
    23  C    0.006678   0.016929   0.029392   0.009574  -0.027652   0.518295
    24  O    0.000063   0.000117   0.000201   0.007846   0.007376  -0.093102
    25  H    0.000000   0.000000   0.000001   0.000028  -0.000101   0.000398
    26  C   -0.139429  -0.041420  -0.191895  -0.085328   0.090624  -0.039943
    27  O   -0.070179   0.006618   0.002677   0.004620  -0.040404   0.010520
    28  C    0.514940   0.031562   0.027495   0.025772   0.087943   0.000015
    29  O   -0.059146  -0.009789  -0.001109  -0.000877  -0.001052   0.000018
    30  H   -0.008911   0.000304   0.000018   0.000002  -0.000023   0.000000
    31  H    0.649689   0.005733   0.002631   0.000046   0.009525  -0.000001
    32  H    0.005733   0.587720   0.007049   0.002651   0.000091   0.000002
    33  H    0.002631   0.007049   0.627735   0.006753   0.004363   0.000031
    34  H    0.000046   0.002651   0.006753   0.591298   0.006070   0.000410
    35  H    0.009525   0.000091   0.004363   0.006070   0.612270  -0.002186
    36  H   -0.000001   0.000002   0.000031   0.000410  -0.002186   0.607374
    37  H   -0.000030   0.000001  -0.000003   0.000020  -0.003120  -0.043201
    38  H    0.000000   0.000000   0.000000   0.000000   0.000000   0.000000
    39  H    0.000000   0.000000  -0.000002   0.000000   0.000000   0.000000
    40  H    0.000000   0.000000   0.000000   0.000000   0.000000   0.000000
    41  H    0.000000   0.000000  -0.000002  -0.000021   0.000000   0.000000
    42  H    0.000000   0.000000   0.000000   0.000000   0.000000   0.000000
    43  H    0.000000   0.000000   0.000000  -0.000001   0.000000   0.000000
    44  H    0.000000   0.000000  -0.000002  -0.000001  -0.000001  -0.000006
    45  H    0.000000  -0.000027  -0.000061   0.010605  -0.000006  -0.000005
             37         38         39         40         41         42
     1  O    0.000000   0.247592   0.000194   0.002023   0.006951  -0.055156
     2  C    0.000056  -0.001285  -0.032439  -0.001675   0.095453   0.529440
     3  C   -0.000546  -0.015432  -0.002267  -0.012030  -0.096458  -0.166625
     4  O    0.000000   0.002085   0.000034  -0.000074  -0.000035   0.001660
     5  H    0.000000  -0.002863   0.000000   0.000001  -0.000019  -0.001173
     6  C    0.000169   0.001310  -0.004943   0.020565  -0.000678  -0.018744
     7  O   -0.000725  -0.000051  -0.000014  -0.000002  -0.000041   0.000152
     8  H    0.000437   0.000000   0.000000   0.000000   0.000005   0.000007
     9  C   -0.000003  -0.008237   0.386855   0.691277   0.069306   0.028101
    10  O    0.000000  -0.001206  -0.038731  -0.068379   0.007515   0.000021
    11  H    0.000000  -0.000001  -0.017842   0.001308  -0.000068  -0.000011
    12  C   -0.000199   0.027217   0.014880  -0.338756   0.060875  -0.201117
    13  O   -0.000014  -0.000462  -0.002311   0.007165  -0.039865   0.008456
    14  C   -0.000179   0.001262   0.003245  -0.007472   0.111723   0.090813
    15  O   -0.001832   0.000006  -0.000373  -0.000170   0.000580  -0.000992
    16  C    0.072749   0.000368   0.003542  -0.003575   0.016872  -0.001401
    17  C   -0.001989  -0.000022   0.004718   0.000095   0.005965   0.001024
    18  O    0.000080   0.000000   0.000004  -0.000002   0.000046   0.000032
    19  H    0.000000   0.000000   0.000806   0.000031  -0.000210  -0.000004
    20  C   -0.000948   0.000000  -0.000019  -0.000042   0.000467   0.000028
    21  O   -0.000001   0.000000   0.000002   0.000000   0.000000   0.000000
    22  H    0.000000   0.000000   0.000000   0.000000   0.000000   0.000000
    23  C    0.510217   0.000003   0.000030   0.000011   0.000554   0.000283
    24  O   -0.045844   0.000000   0.000000   0.000000   0.000002   0.000002
    25  H   -0.009865   0.000000   0.000000   0.000000   0.000000   0.000000
    26  C   -0.181320  -0.000004   0.000456  -0.000412  -0.001641  -0.000620
    27  O   -0.015256   0.000000   0.000000   0.000000   0.000001   0.000000
    28  C   -0.010299   0.000000  -0.000035   0.000010   0.000018   0.000002
    29  O   -0.000077   0.000000   0.000000   0.000000   0.000000   0.000000
    30  H    0.000000   0.000000   0.000000   0.000000   0.000000   0.000000
    31  H   -0.000030   0.000000   0.000000   0.000000   0.000000   0.000000
    32  H    0.000001   0.000000   0.000000   0.000000   0.000000   0.000000
    33  H   -0.000003   0.000000  -0.000002   0.000000  -0.000002   0.000000
    34  H    0.000020   0.000000   0.000000   0.000000  -0.000021   0.000000
    35  H   -0.003120   0.000000   0.000000   0.000000   0.000000   0.000000
    36  H   -0.043201   0.000000   0.000000   0.000000   0.000000   0.000000
    37  H    0.600433   0.000000   0.000000   0.000000   0.000000   0.000000
    38  H    0.000000   0.392976  -0.000007   0.000009  -0.000171  -0.014154
    39  H    0.000000  -0.000007   0.610498  -0.049365  -0.006545   0.000149
    40  H    0.000000   0.000009  -0.049365   0.613665   0.006447   0.006922
    41  H    0.000000  -0.000171  -0.006545   0.006447   0.609127   0.007471
    42  H    0.000000  -0.014154   0.000149   0.006922   0.007471   0.649506
    43  H    0.000000  -0.000018   0.000006   0.000007   0.003591   0.008202
    44  H    0.000002   0.000010   0.000002  -0.000013  -0.000022   0.002433
    45  H    0.000000   0.000002   0.000000  -0.000019   0.006741   0.000042
             43         44         45
     1  O   -0.007808  -0.000887  -0.000126
     2  C    0.201617   0.064636   0.017531
     3  C    0.231678  -0.124563  -0.018181
     4  O   -0.043855   0.007159  -0.000228
     5  H   -0.003051   0.000024   0.000004
     6  C   -0.381651   0.121597  -0.121873
     7  O    0.006172  -0.035900  -0.000937
     8  H    0.000057  -0.006890  -0.001215
     9  C    0.014268   0.006650   0.007674
    10  O    0.000117   0.000011   0.000092
    11  H    0.000000   0.000000   0.000001
    12  C   -0.066679   0.015181   0.017420
    13  O    0.002608   0.008745  -0.056373
    14  C    0.247539   0.158173   0.309278
    15  O   -0.000777  -0.007799  -0.062180
    16  C    0.013958   0.030959   0.072454
    17  C    0.002029   0.003211   0.021556
    18  O    0.000063   0.000084  -0.001579
    19  H   -0.000003  -0.000004  -0.000848
    20  C    0.000108   0.000540   0.008041
    21  O    0.000000   0.000000   0.000023
    22  H    0.000000   0.000000   0.000000
    23  C    0.001000   0.004017  -0.000579
    24  O    0.000068   0.000050  -0.000412
    25  H    0.000000   0.000023   0.000010
    26  C   -0.000559  -0.000259   0.037398
    27  O    0.000000   0.000007   0.000209
    28  C   -0.000005  -0.000031  -0.000562
    29  O    0.000000   0.000000  -0.000001
    30  H    0.000000   0.000000   0.000000
    31  H    0.000000   0.000000   0.000000
    32  H    0.000000   0.000000  -0.000027
    33  H    0.000000  -0.000002  -0.000061
    34  H   -0.000001  -0.000001   0.010605
    35  H    0.000000  -0.000001  -0.000006
    36  H    0.000000  -0.000006  -0.000005
    37  H    0.000000   0.000002   0.000000
    38  H   -0.000018   0.000010   0.000002
    39  H    0.000006   0.000002   0.000000
    40  H    0.000007  -0.000013  -0.000019
    41  H    0.003591  -0.000022   0.006741
    42  H    0.008202   0.002433   0.000042
    43  H    0.616796   0.006439   0.002327
    44  H    0.006439   0.594696   0.004021
    45  H    0.002327   0.004021   0.599589
 Mulliken atomic charges:
              1
     1  O   -0.514593
     2  C   -0.470046
     3  C    0.232413
     4  O   -0.509656
     5  H    0.345166
     6  C    0.132889
     7  O   -0.516471
     8  H    0.413965
     9  C   -0.127636
    10  O   -0.483840
    11  H    0.343787
    12  C    0.358398
    13  O   -0.409294
    14  C   -0.038856
    15  O   -0.353519
    16  C   -0.347949
    17  C    0.143886
    18  O   -0.539126
    19  H    0.399658
    20  C    0.196573
    21  O   -0.518154
    22  H    0.359750
    23  C   -0.206596
    24  O   -0.635388
    25  H    0.398866
    26  C    0.435284
    27  O   -0.303108
    28  C    0.089486
    29  O   -0.552057
    30  H    0.360066
    31  H    0.124350
    32  H    0.153941
    33  H    0.136039
    34  H    0.148220
    35  H    0.137278
    36  H    0.147000
    37  H    0.131291
    38  H    0.371073
    39  H    0.129473
    40  H    0.132454
    41  H    0.136067
    42  H    0.125250
    43  H    0.145757
    44  H    0.147710
    45  H    0.150196
 Sum of Mulliken atomic charges =   0.00000
 Mulliken charges with hydrogens summed into heavy atoms:
              1
     1  O   -0.143520
     2  C   -0.344795
     3  C    0.378170
     4  O   -0.164490
     6  C    0.280599
     7  O   -0.102505
     9  C    0.134291
    10  O   -0.140052
    12  C    0.494464
    13  O   -0.409294
    14  C    0.111340
    15  O   -0.353519
    16  C   -0.199729
    17  C    0.279925
    18  O   -0.139468
    20  C    0.350514
    21  O   -0.158404
    23  C    0.071695
    24  O   -0.236522
    26  C    0.572561
    27  O   -0.303108
    28  C    0.213837
    29  O   -0.191990
 Sum of Mulliken charges with hydrogens summed into heavy atoms =   0.00000
 APT atomic charges:
              1
     1  O   -0.635118
     2  C    0.419290
     3  C    0.394670
     4  O   -0.625115
     5  H    0.258889
     6  C    0.361922
     7  O   -0.725262
     8  H    0.428025
     9  C    0.478500
    10  O   -0.588523
    11  H    0.242680
    12  C    0.401113
    13  O   -0.817396
    14  C    0.917086
    15  O   -0.854419
    16  C    0.432529
    17  C    0.383951
    18  O   -0.708308
    19  H    0.344808
    20  C    0.404816
    21  O   -0.638683
    22  H    0.275083
    23  C    0.432237
    24  O   -0.684325
    25  H    0.286927
    26  C    0.463682
    27  O   -0.796545
    28  C    0.924627
    29  O   -0.674412
    30  H    0.266645
    31  H   -0.085768
    32  H   -0.033167
    33  H   -0.063256
    34  H   -0.016279
    35  H   -0.039956
    36  H   -0.030426
    37  H   -0.051934
    38  H    0.263194
    39  H   -0.044973
    40  H   -0.054502
    41  H   -0.047764
    42  H   -0.058993
    43  H   -0.048465
    44  H   -0.024892
    45  H   -0.032195
 Sum of APT charges=   0.00000
 APT Atomic charges with hydrogens summed into heavy atoms:
              1
     1  O   -0.371924
     2  C    0.360297
     3  C    0.346204
     4  O   -0.366226
[...]
 0048237,0.00574247,0.00251041,0.00062562,-0.00063791,-0.00015410,-0.00
 001948,-0.00005660,0.00012214,-0.00001738,0.00015370,0.00000247,0.0000
 1272,-0.00003383,-0.00000920,0.00001194,-0.00000587,0.00004401,-0.0000
 3261,-0.00001683,-0.00005052,0.00002765,0.00004173,-0.00000887,0.00000
 416,-0.00000917,0.00000952,-0.00001154,0.00001044,-0.00000393,0.000000
 95,-0.00000245,-0.00003672,0.00002990,-0.00001167,0.00002244,-0.000012
 86,0.00006365,-0.00000576,-0.00000163,-0.00000273,-0.00001553,-0.00000
 376,-0.00000914,0.00001164,-0.00000546,0.00001043,-0.00000638,0.000008
 69,-0.00001227,0.00000254,-0.00000341,0.00000464,-0.00000140,0.0000012
 9,-0.00000168,0.00000397,-0.00000115,0.00000254,0.00000445,-0.00000149
 ,-0.00000205,0.00000959,-0.00000050,0.00000938,0.00000783,-0.00000400,
 -0.00000732,0.00000438,-0.00000302,0.00000764,0.00000480,-0.00000302,-
 0.00000556,0.00000536,-0.00000073,0.00000630,0.00120492,-0.00007447,-0
 .00055989,0.00056877,0.00008872,-0.00021628,0.00079917,-0.00091229,-0.
 00035521,0.00048951,-0.00124215,0.00128944,0.35396835,-0.00590078,0.00
 355446,-0.00194706,0.05170570,-0.05219511,-0.01171844,0.03653408,-0.01
 257882,-0.01268302,-0.00181131,0.00473608,0.00013457,0.00082551,-0.000
 52508,0.00057212,0.00090633,0.00084806,0.00080079,-0.00044705,-0.00026
 966,-0.00009958,-0.00019513,0.00003355,0.00002534,-0.00295036,0.001239
 67,0.00050309,0.00049735,-0.00004925,0.00010550,-0.00006420,-0.0000617
 4,-0.00001624,-0.02548207,0.00053457,0.01118392,0.00070606,0.00066578,
 -0.00218323,0.00000980,-0.00043556,-0.00007245,0.00002359,0.00006138,-
 0.00009322,-0.00003703,0.00001870,0.00001666,0.00000433,-0.00003228,-0
 .00002965,0.00006341,0.00002084,-0.00000107,-0.00011942,-0.00001512,0.
 00002673,-0.00000279,0.00000379,0.00000399,0.00000230,0.00000547,-0.00
 000302,-0.00000036,-0.00000077,0.00000025,0.00003897,-0.00003492,0.000
 02478,-0.00001215,0.00001229,-0.00009093,0.00000464,0.00000618,0.00000
 633,-0.00000147,0.00000328,0.00000327,0.00000145,0.00000921,-0.0000140
 9,-0.00000158,-0.00001538,0.00001017,0.00000213,0.00000316,-0.00000438
 ,0.00000011,-0.00000050,0.00000119,-0.00000026,0.00000226,-0.00000015,
 -0.00000018,-0.00000239,-0.00000175,0.00000703,0.00000746,0.00000778,-
 0.00000105,-0.00000894,0.00000511,-0.00000040,0.00000289,-0.00000276,-
 0.00000336,0.00000358,0.00000573,-0.00000621,0.00000278,-0.00000604,-0
 .00025105,0.00155579,0.00027518,0.00022685,0.00025562,-0.00014651,0.00
 082162,-0.00043806,-0.00024505,-0.00077968,-0.00273716,0.00378760,-0.0
 5342951,0.06234587,-0.04626082,0.00256707,-0.01636606,0.08014107,-0.01
 259506,-0.05847429,0.01535135,-0.00441081,-0.00295009,-0.00187123,0.00
 075530,0.00117087,-0.00033584,-0.00015378,-0.00006756,0.00084227,0.000
 06107,0.00034467,-0.00030250,-0.00002379,-0.00003858,-0.00004746,0.000
 05648,0.00002160,0.00050370,-0.00166401,0.00063873,-0.00024141,0.00006
 500,0.00005655,0.00003841,-0.00000499,0.00003884,0.02606438,0.00028502
 ,-0.00908829,-0.00069784,-0.00004498,0.00256839,0.00034368,-0.00056774
 ,-0.00029867,-0.00003561,0.00008171,-0.00015484,-0.00000583,-0.0000252
 0,-0.00001099,0.00002787,0.00002779,0.00004636,-0.00009670,-0.00000765
 ,-0.00003236,0.00014695,0.00001535,-0.00003241,0.00000149,-0.00001551,
 0.00001373,-0.00000672,0.00001568,-0.00001911,0.00000251,-0.00000236,0
 .00000325,0.00003569,-0.00001952,0.00000569,-0.00001859,0.00000443,-0.
 00004277,0.00000413,0.00000391,0.00000206,0.00001061,0.00001181,0.0000
 1701,-0.00000817,0.00000149,-0.00002145,0.00000303,-0.00000205,0.00002
 535,0.00000295,-0.00000091,-0.00001826,0.00000079,-0.00000064,0.000003
 67,-0.00000342,0.00000037,-0.00000398,-0.00000526,0.00000178,0.0000054
 0,-0.00001652,-0.00000510,-0.00002041,-0.00000777,0.00000488,0.0000140
 3,-0.00000453,0.00000190,-0.00000734,-0.00000375,0.00000250,0.00000409
 ,-0.00000493,-0.00000309,-0.00000541,-0.00414285,0.00064775,0.00315324
 ,-0.00022931,-0.00024857,0.00003657,-0.00070711,0.00042148,0.00039556,
 0.00017059,0.00293617,-0.00352941,-0.06746752,0.01461532,0.08325854,0.
 00119493,0.00056676,0.00100780,-0.00296298,0.00268130,0.00004829,-0.32
 901969,0.07324256,0.03315541,-0.01118818,-0.00918596,0.01469553,-0.000
 55837,-0.00062906,-0.00023950,-0.01956237,0.00552114,-0.00132011,0.002
 31656,0.00084828,0.00212185,0.00060084,0.00001022,0.00010754,0.0003561
 1,0.00018223,-0.00031517,0.00002704,0.00000319,0.00000472,-0.00000746,
 0.00000507,0.00000432,-0.00018802,0.00030243,0.00034988,0.00036732,0.0
 0016632,-0.00015259,-0.00153560,-0.00089450,0.00107872,0.00054764,0.00
 005560,-0.00049250,-0.00010430,0.00015190,-0.00004590,0.00002270,-0.00
 003086,-0.00008105,0.00005696,-0.00001631,0.00002393,-0.00006284,0.000
 01451,0.00002901,-0.00002134,0.00003153,0.00000034,0.00001454,-0.00000
 885,0.00000179,-0.00000370,0.00000401,-0.00000410,-0.00011890,0.000091
 69,-0.00002546,0.00004174,-0.00002061,0.00020311,-0.00001765,-0.000007
 74,-0.00000039,0.00000577,0.00000051,0.00000261,0.00002157,-0.00000670
 ,-0.00001033,-0.00000769,0.00000253,-0.00000986,0.00000417,-0.00000209
 ,0.00000534,-0.00000089,0.00000094,-0.00000263,0.00000441,-0.00000124,
 0.00000344,0.00000793,-0.00000247,-0.00000388,0.00000888,-0.00000824,0
 .00001245,0.00002395,-0.00000592,-0.00004770,0.00000407,-0.00000648,0.
 00001214,0.00002785,-0.00000533,-0.00000657,0.00001992,-0.00000851,0.0
 0000853,0.00023000,-0.00021906,-0.00014280,-0.00002462,0.00010965,0.00
 002165,-0.00000196,-0.00021713,0.00000589,0.00040933,0.00058731,-0.000
 48557,0.00105519,-0.00024260,-0.00062756,0.35768893,-0.00234575,0.0026
 9149,0.00144911,0.03640712,-0.01436641,-0.00686402,0.07727435,-0.05698
 572,-0.01332217,-0.03119408,-0.00314426,0.01782980,-0.00055236,0.00007
 208,-0.00052804,-0.00486561,0.00239469,-0.00161609,-0.00094411,0.00020
 648,0.00022037,-0.00004113,-0.00014749,-0.00002373,0.00006985,-0.00024
 456,-0.00008313,-0.00011804,-0.00001729,-0.00003866,0.00000350,0.00001
 466,0.00000552,0.00114200,0.00238982,-0.00109684,-0.00034617,-0.000295
 11,0.00045833,0.00071420,-0.00025792,0.00001960,-0.00004955,0.00004656
 ,-0.00022513,-0.00003802,0.00004169,0.00003480,0.00001384,-0.00001436,
 -0.00002646,-0.00002432,0.00001672,0.00001577,0.00003376,-0.00000595,-
 0.00004423,0.00000433,0.00000648,0.00000844,-0.00000213,0.00000021,-0.
 00000735,0.00000125,0.00000169,0.00000038,-0.00005373,0.00005758,-0.00
 003044,0.00003392,-0.00003823,0.00011170,-0.00001485,0.00000146,-0.000
 02160,0.00002004,0.00002039,0.00000536,-0.00000441,-0.00001540,-0.0000
 0375,0.00000292,0.00000996,0.00000154,-0.00000079,-0.00000320,-0.00000
 036,0.,0.00000040,-0.00000070,-0.00000054,-0.00000156,-0.00000082,-0.0
 0000100,0.00000110,-0.00000026,-0.00000361,-0.00000247,-0.00000264,0.0
 0000533,0.00001247,0.00000497,-0.00000423,-0.00000638,-0.00000071,0.00
 001169,-0.00000414,0.00000202,0.00001222,-0.00000868,0.00000639,0.0000
 1361,0.00024212,0.00051967,-0.00015786,-0.00004610,0.00005065,-0.00030
 975,0.00017130,0.00013512,-0.00082896,-0.00024319,0.00063331,0.0002495
 6,-0.00622741,-0.00267731,-0.07350065,0.07369444,-0.00022128,0.0014877
 3,0.00168007,0.01341584,-0.00762114,-0.00006612,0.03371435,-0.01408916
 ,-0.04615753,0.03170146,0.00966206,-0.01483964,0.00155421,0.00004772,0
 .00010080,-0.03310051,0.00609195,0.00022419,0.00107624,0.00114718,0.00
 230233,0.00001242,0.00013148,0.00004162,-0.00006901,-0.00018764,0.0001
 5696,-0.00002983,0.00001757,-0.00000843,-0.00000127,0.00001180,-0.0000
 0026,-0.00039602,0.00034722,-0.00028863,0.00012287,0.00034153,-0.00042
 944,-0.00119058,-0.00039840,0.00109821,0.00033385,-0.00000857,-0.00025
 182,0.00001274,0.00009345,0.00006175,0.00003404,-0.00002146,-0.0000414
 5,0.00001225,0.00001207,-0.00000701,-0.00002135,-0.00002327,0.00001252
 ,-0.00001587,0.00001036,0.00001503,0.00000503,0.00000819,-0.00001803,0
 .00000021,0.00000234,0.00000046,-0.00011949,0.00009808,-0.00001557,0.0
 0004110,-0.00004094,0.00020687,-0.00000686,0.00000433,-0.00001223,0.00
 000349,0.00000449,0.00002924,0.00001364,-0.00000194,-0.00003803,-0.000
 00343,-0.00000405,0.00001895,0.00000723,-0.00000270,-0.00001459,0.0000
 0039,0.00000150,0.00000230,0.00000016,0.00000060,0.00000026,0.00000223
 ,0.00000036,-0.00000013,-0.00000071,-0.00000305,0.00000390,0.00002518,
 0.00000372,-0.00004406,-0.00000105,-0.00000567,0.00000581,0.00003821,0
 .00000190,0.00001201,0.00002654,-0.00001636,-0.00000109,0.00007649,0.0
 0039454,0.00012804,-0.00005717,-0.00010122,0.00001354,-0.00007825,0.00
 012276,0.00001044,-0.00010838,-0.00008439,0.00031451,0.00058066,-0.002
 27738,-0.00061806,-0.04586711,0.00568496,0.06186387,0.00030850,-0.0001
 9722,-0.00019472,-0.00065830,0.00111796,0.00015857,-0.01369713,-0.0021
 2065,0.00129287,0.00191361,0.00019705,0.00056231,0.00023019,-0.0000178
 9,0.00013807,-0.36223701,-0.02231457,0.02099634,-0.00764204,0.00909763
 ,0.00645705,0.00028001,0.00030216,-0.00084686,-0.00005196,-0.00003840,
 0.00004528,0.00005225,0.00002730,0.00001816,-0.00000628,-0.00000140,0.
 00000404,-0.00007406,-0.00004291,-0.00012149,0.00142551,-0.00066102,-0
 .00045327,-0.00811911,0.00099653,-0.00043357,0.00112225,0.00027602,-0.
 00075697,0.00007785,0.00018449,0.00023300,0.00010316,-0.00000539,-0.00
 008283,0.00005165,-0.00001966,-0.00006110,-0.00004537,-0.00003501,0.00
 004075,-0.00002570,0.00003511,0.00002455,0.00001646,-0.00000538,-0.000
 02252,-0.00000309,0.00000620,-0.00000167,-0.00036269,0.00028419,-0.000
 07499,0.00013755,-0.00015523,0.00053681,-0.00001472,-0.00001285,-0.000
 05159,0.00000684,0.00001178,0.00004863,0.00002053,-0.00002687,-0.00003
 474,-0.00000329,0.00002274,0.00000935,0.00000779,-0.00001239,-0.000011
 70,-0.00000051,0.00000358,0.00000006,0.00000266,-0.00000316,0.00000189
 ,0.00000812,-0.00000056,-0.00000431,-0.00000099,-0.00001870,0.00001648
 ,0.00006038,0.00002176,-0.00020626,-0.00000201,-0.00001879,0.00001632,
 0.00011826,0.00000485,-0.00002990,0.00007685,-0.00004020,0.00001168,-0
 .00005860,-0.00008038,-0.00005420,0.00000538,-0.00002078,-0.00001297,0
 .00003268,-0.00002957,-0.00002390,0.00010909,0.00010252,0.00000845,0.0
 0040056,-0.00057161,-0.00035784,-0.00032567,-0.00060597,-0.00173588,0.
 38649136,0.00011627,-0.00001768,-0.00002916,-0.00024924,0.00029548,0.0
 0056018,-0.00488145,0.00179229,0.00177346,0.00087690,0.00023161,-0.000
 40916,-0.00005229,-0.00006595,0.00002118,-0.02269666,-0.04291551,0.002
 97603,0.03650349,-0.00990233,-0.00981851,0.00062897,0.00136256,0.00155
 771,-0.00004359,0.00006371,0.00007333,0.00001267,-0.00002806,-0.000013
 44,0.00000087,0.00000602,-0.00000209,-0.00020629,-0.00002655,-0.000060
 76,0.00108808,0.00168686,-0.00013241,-0.02704673,-0.00088185,0.0013539
 5,0.00118044,0.00100178,-0.00159908,0.00004990,0.00037032,-0.00000152,
 0.00000045,-0.00011281,-0.00023575,0.00014288,-0.00008492,0.00014683,-
 0.00014381,0.00013564,0.00002725,-0.00000245,0.00003395,0.00000960,0.0
 0001122,0.00001322,-0.00000118,-0.00000172,-0.00000057,-0.00000249,0.0
 0030254,-0.00032281,0.00012778,-0.00024031,0.00010298,-0.00066490,0.00
 005914,0.00000785,0.00000821,-0.00002574,-0.00005778,0.00003040,0.0000
 1407,0.00004773,-0.00001680,-0.00001817,-0.00005785,0.00002097,0.00000
 551,0.00001772,0.00000116,-0.00000049,-0.00000252,0.00000222,-0.000000
 16,0.00000655,-0.00000031,0.00000543,-0.00000364,-0.00000854,0.0000243
 6,-0.00000328,0.00003304,0.00013874,-0.00011500,-0.00005555,0.00002108
 ,0.00002925,0.00001163,-0.00007700,0.00007392,0.00000094,-0.00007630,0
 .00004489,-0.00003641,0.00000198,0.00003438,-0.00001799,0.00000124,-0.
 00002659,-0.00000670,0.00002977,-0.00004479,-0.00003086,0.00016503,0.0
 0003357,0.00000369,0.00005329,-0.00015911,-0.00020621,-0.00001984,-0.0
 0004057,-0.00120718,0.01467470,0.05060498,0.00053898,-0.00018428,-0.00
 064072,-0.00082495,0.00189123,0.00107177,-0.03212337,-0.00252901,0.002
 44018,0.00216371,-0.00032548,0.00300386,0.00012291,-0.00027201,0.00043
 816,0.01943146,0.00396122,-0.04550799,0.01530313,-0.00796397,-0.002187
 45,0.00101490,0.00020701,0.00081728,-0.00006485,-0.00001566,0.00009134
 ,0.00001494,-0.00000171,0.00000878,0.00000686,-0.00000076,0.00000621,-
 0.00034184,-0.00014177,-0.00047699,-0.00135891,-0.00035983,0.00033495,
 0.02329552,0.00340364,-0.00214432,-0.00039088,-0.00121784,0.00234290,0
 .00029750,-0.00040410,-0.00027791,-0.00007107,0.00009277,0.00025453,-0
 .00012325,0.00005515,-0.00010614,0.00011403,-0.00007307,0.00001679,0.0
 0002206,-0.00005954,-0.00002536,-0.00001768,-0.00001520,0.00002132,0.0
 0000193,-0.00000356,0.00000302,0.00030897,-0.00021388,-0.00005659,-0.0
 0021889,0.00008526,-0.00029973,0.00004361,-0.00004248,0.00000021,-0.00
 003396,0.00008065,-0.00005325,-0.00006286,-0.00003859,0.00009622,0.000
 02117,0.00005019,-0.00003477,-0.00001713,-0.00000622,0.00002056,0.0000
 0058,-0.00000173,-0.00000349,-0.00000187,-0.00000292,-0.00000192,-0.00
 000956,0.00000220,0.00000847,-0.00002229,0.00002530,-0.00003318,-0.000
 23350,0.00006431,0.00006800,-0.00001955,0.00000172,-0.00003403,-0.0001
 1445,-0.00002227,-0.00009288,-0.00006772,0.00002599,0.00001668,-0.0000
 2712,-0.00019966,-0.00009813,0.00000799,-0.00004834,0.00000599,0.00000
 494,-0.00001144,-0.00000586,0.00002497,-0.00002458,-0.00010293,0.00048
 977,-0.00049908,-0.00022787,-0.00251391,-0.00086711,-0.00505823,-0.025
 29866,0.00318040,0.04847675,0.00005742,-0.00000161,0.00007711,-0.00015
 709,0.00018668,0.00009181,-0.00063549,-0.00013689,-0.00029206,0.000340
 39,-0.00002328,-0.00004304,-0.00000462,-0.00002028,0.00007902,-0.00678
 126,0.00232513,0.00271636,0.00200938,0.00099429,-0.00157811,-0.0003172
 9,-0.00024844,-0.00002614,0.00069028,-0.00001133,-0.00008695,-0.000052
 41,0.00011076,0.00005156,0.00000139,0.00001415,0.00001114,0.00152370,-
 0.00083285,-0.00039182,-0.00243135,0.00589260,0.00247006,-0.34784136,0
 .00710732,0.07442652,-0.01970374,0.00196890,-0.00539853,-0.00015568,-0
 .00018995,0.00418510,0.00027038,-0.00011766,-0.00054698,0.00054039,-0.
 00051766,0.00021306,-0.00080369,0.00046498,0.00030696,0.00002502,0.000
 13017,0.00006423,0.00002088,0.00000391,-0.00002766,-0.00000304,0.00001
 148,-0.00000636,-0.00029894,0.00015647,-0.00003097,0.00015798,-0.00002
 836,0.00013462,0.00002408,0.00000878,0.00002236,0.00043054,-0.00025873
 ,-0.00000516,0.00003649,-0.00004358,-0.00022239,-0.00003100,-0.0000670
 3,0.00003622,0.00001028,0.00001333,-0.00000257,-0.00000086,0.00000214,
 0.00000058,0.00000308,0.00000553,0.00000188,0.00002637,-0.00000373,-0.
 00003092,0.00002396,-0.00016651,0.00019830,0.00148048,-0.00033880,-0.0
 0081310,0.00009012,0.00008849,0.00023138,0.00011757,0.00006560,-0.0000
 1485,0.00005457,-0.00002100,-0.00001031,0.00000162,0.00000339,0.000006
 05,-0.00000790,-0.00003143,0.00000488,0.00000273,-0.00026359,-0.000125
 23,0.00061253,0.00038341,0.00082475,-0.00000132,-0.00006965,-0.0001843
 7,0.00065387,-0.00000585,0.00021321,0.00026905,-0.00032678,0.00072833,
 0.36975251,0.00002687,0.00035835,-0.00018378,-0.00047868,-0.00058264,-
 0.00008374,-0.00107231,0.00018950,-0.00098600,0.00043329,-0.00009426,0
 .00041564,0.00011093,-0.00011735,0.00004951,-0.02237826,0.00157181,0.0
 0662627,0.00021326,0.00277353,-0.00020175,-0.00036780,-0.00028422,0.00
 006228,0.00013982,0.00012134,0.00010059,-0.00024360,-0.00017639,-0.000
 10209,0.00001180,0.00002151,-0.00002327,0.00476705,0.00122600,0.003463
 75,0.03101817,-0.01386954,-0.01650844,0.00328235,-0.04370651,0.0005177
 2,0.00156448,0.00331703,0.00081890,-0.00022848,0.00022696,0.00019535,0
 .00035887,0.00018309,0.00033334,-0.00048439,0.00025975,-0.00036909,0.0
 0106574,-0.00061650,-0.00043879,-0.00003156,-0.00001160,0.00003837,-0.
 00000200,0.00002555,-0.00006739,0.00000173,0.00000057,0.00000596,-0.00
 011196,0.00010988,-0.00008378,0.00011125,-0.00007805,-0.00000368,-0.00
 002058,0.00001237,0.00003233,-0.00008916,0.00004532,0.00003144,0.00001
 816,-0.00002827,-0.00001644,0.00001027,0.00006079,0.00004355,0.0000154
 2,-0.00002531,-0.00005117,0.00000187,0.00000172,0.00000560,-0.00000245
 ,-0.00000680,-0.00000470,-0.00000829,0.00001034,0.00001482,-0.00007960
 ,-0.00006989,-0.00005668,0.00005132,0.00024525,-0.00017089,-0.00000701
 ,-0.00002237,-0.00000778,0.00002636,-0.00000965,0.00002177,0.00001053,
 -0.00003181,0.00001714,-0.00000964,-0.00000106,-0.00000957,0.00005717,
 0.00003258,-0.00000330,-0.00021348,0.00007349,0.00008211,-0.00132476,0
 .00017246,-0.00006040,-0.00008064,-0.00014548,0.00009506,0.00046048,0.
 00002263,0.00036462,-0.00031000,-0.00312712,0.00241907,-0.01621252,0.0
 5194302,-0.00006745,0.00000003,-0.00024751,-0.00021265,0.00008420,-0.0
 0010779,0.00133246,-0.00036625,0.00090538,-0.00047956,0.00001763,0.000
 03784,-0.00004421,-0.00002877,-0.00001751,0.02076085,-0.00069950,-0.00
 097455,-0.00212163,-0.00160013,0.00138664,-0.00009612,0.00023480,-0.00
 004952,0.00001328,-0.00000606,-0.00000862,-0.00015970,-0.00012329,-0.0
 0009459,0.00001353,0.00000924,-0.00001364,0.00386018,-0.00031125,0.002
 17238,0.01153885,-0.00879321,-0.00466872,0.08170496,0.00192860,-0.0661
 4558,-0.03222759,0.00306779,-0.00770436,-0.00649126,0.00044033,0.00411
 738,-0.00010080,-0.00000259,-0.00054207,0.00020105,0.00003080,0.000303
 55,-0.00025699,0.00025339,-0.00041770,-0.00001436,0.00008165,0.0000521
 7,0.00003022,0.00003255,-0.00001886,-0.00000078,0.00000176,-0.00000474
 ,-0.00024658,0.00011897,0.00004417,0.00012714,-0.00010456,0.00004610,0
 .00000679,0.00002325,0.00000292,0.00015936,-0.00016383,0.00001311,0.00
 014642,-0.00000236,-0.00024111,-0.00004951,-0.00011767,0.00007914,0.00
 002864,0.00002114,-0.00002858,-0.00000004,-0.00000042,0.00000671,0.000
 00209,0.00000912,0.00000617,0.00003623,0.00000057,-0.00004671,0.000136
 80,-0.00014251,0.00004977,0.00087965,-0.00045643,-0.00094688,0.0001414
 3,0.00002881,0.00011708,0.00013316,0.00008100,-0.00005967,0.00006146,-
 0.00003162,-0.00003781,-0.00002385,0.00000057,-0.00000674,0.00000848,0
 .00005286,-0.00000221,-0.00015237,0.00006762,0.00003042,-0.00091920,-0
 .00025422,-0.00005184,-0.00014211,0.00001966,0.00020406,-0.00050959,0.
 00028377,-0.00039331,0.00025130,0.00263702,-0.00207424,-0.07725800,0.0
 0367756,0.07532988\\0.01852896,-0.00989923,-0.01692965,-0.03858702,-0.
 00277440,0.00673726,0.01515248,-0.01679978,0.01432995,0.00141724,0.019
 37643,0.02155956,-0.00772287,-0.01303823,-0.02322724,0.02853210,-0.012
 36564,-0.02610697,-0.00976112,-0.01323846,-0.00005677,0.00917720,0.009
 41755,0.01746477,0.00462804,0.00201063,0.00627290,0.00290531,0.0253562
 0,-0.01929062,0.00611459,-0.02695313,0.02016412,0.00768480,0.01606562,
 0.01730096,0.02515159,0.00610721,0.01815564,-0.06281404,0.03496906,-0.
 00403701,0.00413426,-0.01458381,-0.02250836,0.02238733,-0.00124858,-0.
 03215595,-0.00994961,0.02875839,0.05648461,0.01484088,0.01485760,0.007
 73080,-0.00125134,-0.00071949,-0.02916993,0.00962606,0.00518795,-0.008
 48533,-0.00587108,0.00461241,-0.01162904,-0.00235025,-0.00991790,0.031
 84626,-0.03875278,-0.02937539,-0.01474255,0.01969134,-0.00564942,0.007
 65572,0.00189570,0.03472746,-0.00816087,0.03224884,-0.05509647,0.03201
 069,0.00585793,0.01611817,-0.00661277,0.01822368,-0.00350117,-0.003792
 53,-0.00769116,-0.00395838,0.02296283,-0.00372206,-0.00529770,-0.00357
 037,-0.02033957,0.00472000,-0.00707712,0.01974484,-0.00664746,0.002697
 29,-0.02192597,0.01020344,-0.00536676,0.01658782,-0.00951260,-0.000566
 45,-0.02084259,0.00123655,-0.00446143,-0.01654242,0.00545393,0.0099949
 2,-0.00923702,-0.00829673,-0.01628097,-0.00288099,0.00415875,0.0001199
 0,-0.00216418,0.00578769,-0.01782413,-0.02058995,-0.00017689,0.0048093
 9,0.02097002,0.00040586,-0.00688842,-0.02365402,0.00504578,0.00032782,
 0.02257503,-0.00605823,-0.00685353,-0.01795386,0.00267256,0.00138129,0
 .01652784,-0.00214014,-0.00421191\\\@


 EVERYTHING'S GOT A MORAL, IF ONLY YOU CAN FIND IT.

                                    -- LEWIS CARROL, ALICE IN WONDERLAND
 Job cpu time:  0 days 12 hours 48 minutes 10.9 seconds.
 File lengths (MBytes):  RWF=   1327 Int=      0 D2E=      0 Chk=     19 Scr=      1
 Normal termination of Gaussian 09 at Thu Jan 21 17:46:45 2016.
Gaussian '09 finished on node002 at Thu Jan 21 17:46:45 EST 2016.
