Gaussian '09 started on node031 at Sun Oct 18 17:29:15 EDT 2015.
 Entering Gaussian System, Link 0=/usr/local/gaussian/g09/g09
 Initial command:
 /usr/local/gaussian/g09/l1.exe /home/srmcgrat/data/gaussian/cellobiose/450/6-31gdp/10000ps/gaussian31200/Gau-31236.inp -scrdir=/home/srmcgrat/data/gaussian/cellobiose/450/6-31gdp/10000ps/gaussian31200/
 Entering Link 1 = /usr/local/gaussian/g09/l1.exe PID=     31238.
  
 Copyright (c) 1988,1990,1992,1993,1995,1998,2003,2009,2010,
            Gaussian, Inc.  All Rights Reserved.
  
 This is part of the Gaussian(R) 09 program.  It is based on
 the Gaussian(R) 03 system (copyright 2003, Gaussian, Inc.),
 the Gaussian(R) 98 system (copyright 1998, Gaussian, Inc.),
 the Gaussian(R) 94 system (copyright 1995, Gaussian, Inc.),
 the Gaussian 92(TM) system (copyright 1992, Gaussian, Inc.),
 the Gaussian 90(TM) system (copyright 1990, Gaussian, Inc.),
 the Gaussian 88(TM) system (copyright 1988, Gaussian, Inc.),
 the Gaussian 86(TM) system (copyright 1986, Carnegie Mellon
 University), and the Gaussian 82(TM) system (copyright 1983,
 Carnegie Mellon University). Gaussian is a federally registered
 trademark of Gaussian, Inc.
  
 This software contains proprietary and confidential information,
 including trade secrets, belonging to Gaussian, Inc.
  
 This software is provided under written license and may be
 used, copied, transmitted, or stored only in accord with that
 written license.
  
 The following legend is applicable only to US Government
 contracts under FAR:
  
                    RESTRICTED RIGHTS LEGEND
  
 Use, reproduction and disclosure by the US Government is
 subject to restrictions as set forth in subparagraphs (a)
 and (c) of the Commercial Computer Software - Restricted
 Rights clause in FAR 52.227-19.
  
 Gaussian, Inc.
 340 Quinnipiac St., Bldg. 40, Wallingford CT 06492
  
  
 ---------------------------------------------------------------
 Warning -- This program may not be used in any manner that
 competes with the business of Gaussian, Inc. or will provide
 assistance to any competitor of Gaussian, Inc.  The licensee
 of this program is prohibited from giving any competitor of
 Gaussian, Inc. access to this program.  By using this program,
 the user acknowledges that Gaussian, Inc. is engaged in the
 business of creating and licensing software in the field of
 computational chemistry and represents and warrants to the
 licensee that it is not a competitor of Gaussian, Inc. and that
 it will not use this program in any manner prohibited above.
 ---------------------------------------------------------------
  

 Cite this work as:
 Gaussian 09, Revision B.01,
 M. J. Frisch, G. W. Trucks, H. B. Schlegel, G. E. Scuseria, 
 M. A. Robb, J. R. Cheeseman, G. Scalmani, V. Barone, B. Mennucci, 
 G. A. Petersson, H. Nakatsuji, M. Caricato, X. Li, H. P. Hratchian, 
 A. F. Izmaylov, J. Bloino, G. Zheng, J. L. Sonnenberg, M. Hada, 
 M. Ehara, K. Toyota, R. Fukuda, J. Hasegawa, M. Ishida, T. Nakajima, 
 Y. Honda, O. Kitao, H. Nakai, T. Vreven, J. A. Montgomery, Jr., 
 J. E. Peralta, F. Ogliaro, M. Bearpark, J. J. Heyd, E. Brothers, 
 K. N. Kudin, V. N. Staroverov, T. Keith, R. Kobayashi, J. Normand, 
 K. Raghavachari, A. Rendell, J. C. Burant, S. S. Iyengar, J. Tomasi, 
 M. Cossi, N. Rega, J. M. Millam, M. Klene, J. E. Knox, J. B. Cross, 
 V. Bakken, C. Adamo, J. Jaramillo, R. Gomperts, R. E. Stratmann, 
 O. Yazyev, A. J. Austin, R. Cammi, C. Pomelli, J. W. Ochterski, 
 R. L. Martin, K. Morokuma, V. G. Zakrzewski, G. A. Voth, 
 P. Salvador, J. J. Dannenberg, S. Dapprich, A. D. Daniels, 
 O. Farkas, J. B. Foresman, J. V. Ortiz, J. Cioslowski, 
 and D. J. Fox, Gaussian, Inc., Wallingford CT, 2010.
 
 ******************************************
 Gaussian 09:  EM64L-G09RevB.01 12-Aug-2010
                18-Oct-2015 
 ******************************************
 -------------------------------
 ## freq=raman b3lyp/6-31+g(d,p)
 -------------------------------
 1/10=4,30=1,38=1/1,3;
 2/12=2,17=6,18=5,40=1/2;
 3/5=1,6=6,7=111,11=2,16=1,25=1,30=1,71=2,74=-5/1,2,3;
 4//1;
 5/5=2,38=5,98=1/2;
 8/6=4,10=90,11=11/1;
 10/13=10,15=4/2;
 11/6=3,8=1,9=11,15=111,16=1/1,2,10;
 10/6=1/2;
 6/7=2,8=2,9=2,10=2,18=1,28=1/1;
 7/8=1,10=1,25=1/1,2,3,16;
 1/10=4,30=1/3;
 99//99;
 ------------------------------
 450K 10000ps Cellobiose Unit 1
 ------------------------------
 Symbolic Z-matrix:
 Charge =  0 Multiplicity = 1
 O(PDBName=O1,ResName=GLC,ResNum=6)  10.497    7.94      32.167 
 C(PDBName=C4,ResName=GLC,ResNum=7)  11.332    7.742     33.317 
 C(PDBName=C3,ResName=GLC,ResNum=7)  11.905    9.131     33.542 
 O(PDBName=O3,ResName=GLC,ResNum=7)  13.068    9.306     32.72 
 H(PDBName=HO3,ResName=GLC,ResNum=7)  12.783    9.431     31.77 
 C(PDBName=C2,ResName=GLC,ResNum=7)  12.423    9.275     34.964 
 O(PDBName=O2,ResName=GLC,ResNum=7)  12.165    10.655    35.258 
 H(PDBName=HO2,ResName=GLC,ResNum=7)  12.765    11.308    34.795 
 C(PDBName=C6,ResName=GLC,ResNum=7)  10.202    5.833     34.237 
 O(PDBName=O6,ResName=GLC,ResNum=7)  9.705     4.904     35.211 
 H(PDBName=HO6,ResName=GLC,ResNum=7)  9.789     3.98      34.836 
 C(PDBName=C5,ResName=GLC,ResNum=7)  10.493    7.3       34.505 
 O(PDBName=O5,ResName=GLC,ResNum=7)  11.28     7.263     35.704 
 C(PDBName=C1,ResName=GLC,ResNum=7)  11.599    8.616     36.058 
 O(PDBName=O1,ResName=GLC,ResNum=7)  12.097    8.329     37.373 
 C(PDBName=C4,ResName=GLC,ResNum=8)  11.405    8.319     38.63 
 C(PDBName=C3,ResName=GLC,ResNum=8)  10.933    6.985     39.185 
 O(PDBName=O3,ResName=GLC,ResNum=8)  10.437    6.186     38.101 
 H(PDBName=HO3,ResName=GLC,ResNum=8)  10.917    6.46      37.268 
 C(PDBName=C2,ResName=GLC,ResNum=8)  10.06     7.179     40.414 
 O(PDBName=O2,ResName=GLC,ResNum=8)  9.077     6.219     40.827 
 H(PDBName=HO2,ResName=GLC,ResNum=8)  8.278     6.14      40.23 
 C(PDBName=C6,ResName=GLC,ResNum=8)  12.518    10.228    39.344 
 O(PDBName=O6,ResName=GLC,ResNum=8)  13.315    11.079    40.18 
 H(PDBName=HO6,ResName=GLC,ResNum=8)  14.223    10.757    40.45 
 C(PDBName=C5,ResName=GLC,ResNum=8)  12.305    8.783     39.764 
 O(PDBName=O5,ResName=GLC,ResNum=8)  11.681    8.829     41.055 
 C(PDBName=C1,ResName=GLC,ResNum=8)  11.027    7.63      41.497 
 O(PDBName=O1,ResName=GLC,ResNum=8)  10.46     7.954     42.774 
 H                     11.16487   8.11428   43.40572 
 H                     11.04685   8.07353   31.39148 
 
 Residue   4                        charge    0.00000000 ave dist*************
 Residue   2 PDB Number     7_0 GLC charge    0.00000000 ave dist*************
 Residue   3 PDB Number     8_0 GLC charge    0.00000000 ave dist*************
 Residue   1 PDB Number     6_0 GLC charge    0.00000000 ave dist*************

 GradGradGradGradGradGradGradGradGradGradGradGradGradGradGradGradGradGrad
 Berny optimization.
 Initialization pass.
 Trust Radius=3.00D-01 FncErr=1.00D-07 GrdErr=1.00D-07
 Number of steps in this run=      2 maximum allowed number of steps=      2.
 GradGradGradGradGradGradGradGradGradGradGradGradGradGradGradGradGradGrad

                          Input orientation:                          
 ---------------------------------------------------------------------
 Center     Atomic      Atomic             Coordinates (Angstroms)
 Number     Number       Type             X           Y           Z
 ---------------------------------------------------------------------
      1          8           0       10.497000    7.940000   32.167000
      2          6           0       11.332000    7.742000   33.317000
      3          6           0       11.905000    9.131000   33.542000
      4          8           0       13.068000    9.306000   32.720000
      5          1           0       12.783000    9.431000   31.770000
      6          6           0       12.423000    9.275000   34.964000
      7          8           0       12.165000   10.655000   35.258000
      8          1           0       12.765000   11.308000   34.795000
      9          6           0       10.202000    5.833000   34.237000
     10          8           0        9.705000    4.904000   35.211000
     11          1           0        9.789000    3.980000   34.836000
     12          6           0       10.493000    7.300000   34.505000
     13          8           0       11.280000    7.263000   35.704000
     14          6           0       11.599000    8.616000   36.058000
     15          8           0       12.097000    8.329000   37.373000
     16          6           0       11.405000    8.319000   38.630000
     17          6           0       10.933000    6.985000   39.185000
     18          8           0       10.437000    6.186000   38.101000
     19          1           0       10.917000    6.460000   37.268000
     20          6           0       10.060000    7.179000   40.414000
     21          8           0        9.077000    6.219000   40.827000
     22          1           0        8.278000    6.140000   40.230000
     23          6           0       12.518000   10.228000   39.344000
     24          8           0       13.315000   11.079000   40.180000
     25          1           0       14.223000   10.757000   40.450000
     26          6           0       12.305000    8.783000   39.764000
     27          8           0       11.681000    8.829000   41.055000
     28          6           0       11.027000    7.630000   41.497000
     29          8           0       10.460000    7.954000   42.774000
     30          1           0       11.164870    8.114279   43.405718
     31          1           0       11.046849    8.073525   31.391476
 ---------------------------------------------------------------------
                    Distance matrix (angstroms):
                    1          2          3          4          5
     1  O    0.000000
     2  C    1.434897   0.000000
     3  C    2.300341   1.519301   0.000000
     4  O    2.963411   2.411680   1.434879   0.000000
     5  H    2.757986   2.711334   2.000217   0.999675   0.000000
     6  C    3.648960   2.500596   1.520245   2.335064   3.218007
     7  O    4.439339   3.598186   2.309726   3.012749   3.747832
     8  H    4.836696   4.117563   2.654984   2.899213   3.560067
     9  C    2.968396   2.401579   3.776247   4.751523   5.068851
    10  O    4.371555   3.780028   5.049068   6.073916   6.465933
    11  H    4.827673   4.340605   5.717053   6.602694   6.933815
    12  C    2.424017   1.520075   2.504730   3.720334   4.155176
    13  O    3.685348   2.435141   2.924772   4.034235   4.736622
    14  C    4.100154   2.889333   2.586333   3.711645   4.522502
    15  O    5.460198   4.169044   3.918754   4.852605   5.751401
    16  C    6.537467   5.344738   5.176590   6.218347   7.084845
    17  C    7.096087   5.930065   6.115026   7.193156   8.024191
    18  O    6.188091   5.109679   5.622502   6.753645   7.491015
    19  H    5.327945   4.174464   4.689719   5.780209   6.522024
    20  C    8.293558   7.232037   7.378259   8.530523   9.338360
    21  O    8.942809   7.987782   8.339578   9.548879  10.299545
    22  H    8.554293   7.725470   8.174996   9.453452  10.133968
    23  C    7.799277   6.626577   5.936529   6.710437   7.620427
    24  O    9.055529   7.884708   7.060159   7.671775   8.586444
    25  H    9.509293   8.266063   7.465753   7.949360   8.897993
    26  C    7.854548   6.602592   6.244549   7.104480   8.034452
    27  O    9.010478   7.821765   7.522403   8.463068   9.369527
    28  C    9.350182   8.186450   8.142844   9.165718  10.046973
    29  O   10.607074   9.499483   9.418236  10.474373  11.343098
    30  H   11.259894  10.096968   9.943563  10.919097  11.821254
    31  H    0.960000   1.974554   2.545473   2.714595   2.236122
                    6          7          8          9         10
     6  C    0.000000
     7  O    1.434364   0.000000
     8  H    2.068481   1.000389   0.000000
     9  C    4.160377   5.305421   6.070911   0.000000
    10  O    5.153074   6.255223   7.109703   1.434826   0.000000
    11  H    5.915350   7.097823   7.909351   1.990723   1.000728
    12  C    2.799322   3.823430   4.616292   1.519406   2.619198
    13  O    2.429443   3.533809   4.403809   2.314967   2.878985
    14  C    1.519899   2.262273   3.193993   3.607317   4.252480
    15  O    2.608538   3.144539   3.995841   4.433457   4.703885
    16  C    3.922986   4.171916   5.048856   5.189013   5.122674
    17  C    5.028026   5.514350   6.427803   5.132657   4.650938
    18  O    4.829792   5.571409   6.525650   3.887201   3.245219
    19  H    3.937090   4.816184   5.747516   3.176683   2.849795
    20  C    6.299165   6.564902   7.479226   6.323544   5.689715
    21  O    7.410103   7.760644   8.711159   6.696471   5.801988
    22  H    7.398649   7.759818   8.739601   6.301752   5.362312
    23  C    4.483485   4.123389   4.681966   7.124699   7.303399
    24  O    5.590772   5.072313   5.417856   8.516486   8.709402
    25  H    5.960916   5.585932   5.865867   8.889071   9.061846
    26  C    4.826592   4.881395   5.592690   6.608543   6.521997
    27  O    6.152216   6.097027   6.819685   7.592666   7.311808
    28  C    6.880039   7.026435   7.839970   7.524456   6.978005
    29  O    8.160546   8.166559   8.956940   8.800317   8.189719
    30  H    8.613523   8.593069   9.322271   9.497197   8.921352
    31  H    4.012513   4.781661   4.999785   3.718969   5.141518
                   11         12         13         14         15
    11  H    0.000000
    12  C    3.409923   0.000000
    13  O    3.708719   1.434691   0.000000
    14  C    5.124635   2.316657   1.434464   0.000000
    15  O    5.538685   3.443411   2.142290   1.435130   0.000000
    16  C    5.986052   4.345772   3.113236   2.596349   1.434926
    17  C    5.408564   4.711181   3.509281   3.589129   2.538617
    18  O    3.993315   3.765016   2.759744   3.380679   2.806783
    19  H    3.652042   2.918826   1.795181   2.564675   2.212823
    20  C    6.435925   5.926079   4.866164   4.838205   3.836607
    21  O    6.435227   6.568204   5.673471   5.903343   5.050011
    22  H    6.003662   6.247195   5.545972   5.879218   5.247755
    23  C    8.173555   6.007473   4.855252   3.773712   2.769166
    24  O    9.559645   7.379034   6.223958   5.099207   4.114034
    25  H    9.854191   7.823476   6.587397   5.546073   4.459035
    26  C    7.326954   5.756710   4.454731   3.776342   2.442593
    27  O    8.109773   6.830204   5.589844   5.002210   3.739008
    28  C    7.695717   7.020123   5.810125   5.557167   4.317508
    29  O    8.902514   8.294888   7.150859   6.843992   5.656076
    30  H    9.613811   8.963105   7.749477   7.377612   6.108082
    31  H    5.495805   3.255629   4.394221   4.730285   6.078381
                   16         17         18         19         20
    16  C    0.000000
    17  C    1.519988   0.000000
    18  O    2.401365   1.435086   0.000000
    19  H    2.355646   1.987654   0.999682   0.000000
    20  C    2.508243   1.519936   2.545220   3.338971   0.000000
    21  O    3.828367   2.593773   3.046599   4.013747   1.434733
    22  H    4.133542   2.975748   3.032497   3.979970   2.070966
    23  C    2.322250   3.613109   4.713107   4.590294   4.059934
    24  O    3.697053   4.839916   6.045376   5.963666   5.085251
    25  H    4.146971   5.162587   6.383231   6.286411   5.489440
    26  C    1.520280   2.334615   3.605468   3.681425   2.834668
    27  O    2.493371   2.730703   4.154407   4.531802   2.400213
    28  C    2.972759   2.402125   3.737118   4.389242   1.520322
    29  O    4.266027   3.747481   4.996327   5.723366   2.515994
    30  H    4.786132   4.375329   5.691054   6.361577   3.323532
    31  H    7.251535   7.869998   6.996598   6.095397   9.120306
                   21         22         23         24         25
    21  O    0.000000
    22  H    1.000525   0.000000
    23  C    5.487427   5.956034   0.000000
    24  O    6.480652   7.054615   1.434680   0.000000
    25  H    6.871455   7.530479   2.100024   1.000524   0.000000
    26  C    4.257235   4.839353   1.519801   2.542592   2.836546
    27  O    3.693900   4.414947   2.363322   2.915147   3.247302
    28  C    2.498464   3.373780   3.688915   4.343390   4.592249
    29  O    2.951902   3.810991   4.601232   4.964422   5.236216
    30  H    3.821135   4.724086   4.774550   4.880357   5.007235
    31  H    9.815736   9.461741   8.369509   9.561148   9.967238
                   26         27         28         29         30
    26  C    0.000000
    27  O    1.434633   0.000000
    28  C    2.442536   1.435507   0.000000
    29  O    3.626481   2.282855   1.434292   0.000000
    30  H    3.874170   2.510596   1.974016   0.960000   0.000000
    31  H    8.496203   9.713732  10.115272  11.398269  12.014891
                   31
    31  H    0.000000
 Stoichiometry    C12H8O11
 Framework group  C1[X(C12H8O11)]
 Deg. of freedom    87
 Full point group                 C1      NOp   1
 Largest Abelian subgroup         C1      NOp   1
 Largest concise Abelian subgroup C1      NOp   1
                         Standard orientation:                         
 ---------------------------------------------------------------------
 Center     Atomic      Atomic             Coordinates (Angstroms)
 Number     Number       Type             X           Y           Z
 ---------------------------------------------------------------------
      1          8           0       -5.036363   -0.686537    0.808314
      2          6           0       -3.929902   -0.351958   -0.041821
      3          6           0       -3.728975    1.124067    0.256932
      4          8           0       -4.607105    1.901739   -0.569502
      5          1           0       -5.541362    1.820981   -0.223103
      6          6           0       -2.333969    1.570049   -0.150747
      7          8           0       -2.022905    2.573293    0.826055
      8          1           0       -2.512931    3.438722    0.717959
      9          6           0       -2.961336   -2.542129   -0.222422
     10          8           0       -1.966981   -3.564977   -0.376579
     11          1           0       -2.348780   -4.291079   -0.949695
     12          6           0       -2.703203   -1.159041    0.351189
     13          8           0       -1.544880   -0.717109   -0.370839
     14          6           0       -1.202625    0.589636    0.111825
     15          8           0        0.085064    0.665373   -0.517238
     16          6           0        1.374826    0.299789   -0.005501
     17          6           0        1.948104   -1.054369   -0.390174
     18          8           0        0.887394   -2.020974   -0.383683
     19          1           0        0.032514   -1.545627   -0.590059
     20          6           0        3.219569   -1.353743    0.386973
     21          8           0        3.677642   -2.689502    0.640696
     22          1           0        3.120781   -3.218928    1.281528
     23          6           0        2.039081    2.521525    0.119002
     24          8           0        2.837329    3.694060   -0.096095
     25          1           0        3.060842    3.945012   -1.038492
     26          6           0        2.464297    1.217780   -0.536158
     27          8           0        3.784829    0.937568   -0.050515
     28          6           0        4.254733   -0.410124   -0.204125
     29          8           0        5.559383   -0.428826    0.391468
     30          1           0        6.155865    0.115761   -0.127411
     31          1           0       -5.837775   -0.286615    0.462769
 ---------------------------------------------------------------------
 Rotational constants (GHZ):      0.4183833      0.1508683      0.1140217
 Standard basis: 6-31+G(d,p) (6D, 7F)
 There are   477 symmetry adapted basis functions of A   symmetry.
 Integral buffers will be    131072 words long.
 Raffenetti 2 integral format.
 Two-electron integral symmetry is turned on.
   477 basis functions,   792 primitive gaussians,   477 cartesian basis functions
    84 alpha electrons       84 beta electrons
       nuclear repulsion energy      1916.6671816902 Hartrees.
 NAtoms=   31 NActive=   31 NUniq=   31 SFac= 1.00D+00 NAtFMM=   50 NAOKFM=F Big=F
 One-electron integrals computed using PRISM.
 NBasis=   477 RedAO= T  NBF=   477
 NBsUse=   477 1.00D-06 NBFU=   477
 Harris functional with IExCor=  402 diagonalized for initial guess.
 ExpMin= 4.38D-02 ExpMax= 5.48D+03 ExpMxC= 8.25D+02 IAcc=2 IRadAn=         0 AccDes= 0.00D+00
 HarFok:  IExCor=  402 AccDes= 0.00D+00 IRadAn=         0 IDoV= 1
 ScaDFX=  1.000000  1.000000  1.000000  1.000000
 FoFCou: FMM=F IPFlag=           0 FMFlag=      100000 FMFlg1=           0
         NFxFlg=           0 DoJE=T BraDBF=F KetDBF=T FulRan=T
         Omega=  0.000000  0.000000  1.000000  0.000000  0.000000 ICntrl=     500 IOpCl=  0
         NMat0=    1 NMatS0=    1 NMatT0=    0 NMatD0=    1 NMtDS0=    0 NMtDT0=    0
         I1Cent=           4 NGrid=           0.
 Petite list used in FoFCou.
 Initial guess orbital symmetries:
       Occupied  (A) (A) (A) (A) (A) (A) (A) (A) (A) (A) (A) (A)
                 (A) (A) (A) (A) (A) (A) (A) (A) (A) (A) (A) (A)
                 (A) (A) (A) (A) (A) (A) (A) (A) (A) (A) (A) (A)
                 (A) (A) (A) (A) (A) (A) (A) (A) (A) (A) (A) (A)
                 (A) (A) (A) (A) (A) (A) (A) (A) (A) (A) (A) (A)
                 (A) (A) (A) (A) (A) (A) (A) (A) (A) (A) (A) (A)
                 (A) (A) (A) (A) (A) (A) (A) (A) (A) (A) (A) (A)
       Virtual   (A) (A) (A) (A) (A) (A) (A) (A) (A) (A) (A) (A)
                 (A) (A) (A) (A) (A) (A) (A) (A) (A) (A) (A) (A)
                 (A) (A) (A) (A) (A) (A) (A) (A) (A) (A) (A) (A)
                 (A) (A) (A) (A) (A) (A) (A) (A) (A) (A) (A) (A)
                 (A) (A) (A) (A) (A) (A) (A) (A) (A) (A) (A) (A)
                 (A) (A) (A) (A) (A) (A) (A) (A) (A) (A) (A) (A)
                 (A) (A) (A) (A) (A) (A) (A) (A) (A) (A) (A) (A)
                 (A) (A) (A) (A) (A) (A) (A) (A) (A) (A) (A) (A)
                 (A) (A) (A) (A) (A) (A) (A) (A) (A) (A) (A) (A)
                 (A) (A) (A) (A) (A) (A) (A) (A) (A) (A) (A) (A)
                 (A) (A) (A) (A) (A) (A) (A) (A) (A) (A) (A) (A)
                 (A) (A) (A) (A) (A) (A) (A) (A) (A) (A) (A) (A)
                 (A) (A) (A) (A) (A) (A) (A) (A) (A) (A) (A) (A)
                 (A) (A) (A) (A) (A) (A) (A) (A) (A) (A) (A) (A)
                 (A) (A) (A) (A) (A) (A) (A) (A) (A) (A) (A) (A)
                 (A) (A) (A) (A) (A) (A) (A) (A) (A) (A) (A) (A)
                 (A) (A) (A) (A) (A) (A) (A) (A) (A) (A) (A) (A)
                 (A) (A) (A) (A) (A) (A) (A) (A) (A) (A) (A) (A)
                 (A) (A) (A) (A) (A) (A) (A) (A) (A) (A) (A) (A)
                 (A) (A) (A) (A) (A) (A) (A) (A) (A) (A) (A) (A)
                 (A) (A) (A) (A) (A) (A) (A) (A) (A) (A) (A) (A)
                 (A) (A) (A) (A) (A) (A) (A) (A) (A) (A) (A) (A)
                 (A) (A) (A) (A) (A) (A) (A) (A) (A) (A) (A) (A)
                 (A) (A) (A) (A) (A) (A) (A) (A) (A) (A) (A) (A)
                 (A) (A) (A) (A) (A) (A) (A) (A) (A) (A) (A) (A)
                 (A) (A) (A) (A) (A) (A) (A) (A) (A) (A) (A) (A)
                 (A) (A) (A) (A) (A) (A) (A) (A) (A) (A) (A) (A)
                 (A) (A) (A) (A) (A) (A) (A) (A) (A) (A) (A) (A)
                 (A) (A) (A) (A) (A) (A) (A) (A) (A) (A) (A) (A)
                 (A) (A) (A) (A) (A) (A) (A) (A) (A) (A) (A) (A)
                 (A) (A) (A) (A) (A) (A) (A) (A) (A) (A) (A) (A)
                 (A) (A) (A) (A) (A) (A) (A) (A) (A) (A) (A) (A)
                 (A) (A) (A) (A) (A) (A) (A) (A) (A)
 The electronic state of the initial guess is 1-A.
 Requested convergence on RMS density matrix=1.00D-08 within 128 cycles.
 Requested convergence on MAX density matrix=1.00D-06.
 Requested convergence on             energy=1.00D-06.
 No special actions if energy rises.
 Rare condition: small coef for last iteration:  0.000D+00
 EnCoef did   100 forward-backward iterations
 EnCoef did   100 forward-backward iterations
 EnCoef did     3 forward-backward iterations
 EnCoef did     7 forward-backward iterations
 EnCoef did     5 forward-backward iterations
 EnCoef did    14 forward-backward iterations
 Restarting incremental Fock formation.
 SCF Done:  E(RB3LYP) =  -1288.75665870     A.U. after   31 cycles
             Convg  =    0.3504D-08             -V/T =  2.0105
 Range of M.O.s used for correlation:     1   477
 NBasis=   477 NAE=    84 NBE=    84 NFC=     0 NFV=     0
 NROrb=    477 NOA=    84 NOB=    84 NVA=   393 NVB=   393

 **** Warning!!: The largest alpha MO coefficient is  0.73138017D+02


 **** Warning!!: The smallest alpha delta epsilon is  0.20778389D-01

          Differentiating once with respect to electric field.
                with respect to dipole field.
          Electric field/nuclear overlap derivatives assumed to be zero.
          There are     3 degrees of freedom in the 1st order CPHF.  IDoFFX=0.
      3 vectors produced by pass  0 Test12= 1.10D-12 3.33D-08 XBig12= 4.86D+04 2.17D+02.
 AX will form     3 AO Fock derivatives at one time.
      3 vectors produced by pass  1 Test12= 1.10D-12 3.33D-08 XBig12= 6.01D+04 7.50D+01.
      3 vectors produced by pass  2 Test12= 1.10D-12 3.33D-08 XBig12= 8.11D+04 1.13D+02.
      3 vectors produced by pass  3 Test12= 1.10D-12 3.33D-08 XBig12= 5.65D+04 8.96D+01.
      3 vectors produced by pass  4 Test12= 1.10D-12 3.33D-08 XBig12= 5.96D+04 7.96D+01.
      3 vectors produced by pass  5 Test12= 1.10D-12 3.33D-08 XBig12= 2.56D+04 4.93D+01.
      3 vectors produced by pass  6 Test12= 1.10D-12 3.33D-08 XBig12= 3.12D+04 7.29D+01.
      3 vectors produced by pass  7 Test12= 1.10D-12 3.33D-08 XBig12= 1.13D+04 3.05D+01.
      3 vectors produced by pass  8 Test12= 1.10D-12 3.33D-08 XBig12= 4.77D+03 1.56D+01.
      3 vectors produced by pass  9 Test12= 1.10D-12 3.33D-08 XBig12= 2.93D+03 1.15D+01.
      3 vectors produced by pass 10 Test12= 1.10D-12 3.33D-08 XBig12= 7.83D+02 6.01D+00.
      3 vectors produced by pass 11 Test12= 1.10D-12 3.33D-08 XBig12= 1.59D+02 2.52D+00.
      3 vectors produced by pass 12 Test12= 1.10D-12 3.33D-08 XBig12= 1.13D+02 1.49D+00.
      3 vectors produced by pass 13 Test12= 1.10D-12 3.33D-08 XBig12= 2.26D+01 8.79D-01.
      3 vectors produced by pass 14 Test12= 1.10D-12 3.33D-08 XBig12= 3.46D+00 2.96D-01.
      3 vectors produced by pass 15 Test12= 1.10D-12 3.33D-08 XBig12= 2.83D+00 2.95D-01.
      3 vectors produced by pass 16 Test12= 1.10D-12 3.33D-08 XBig12= 3.90D-01 1.21D-01.
      3 vectors produced by pass 17 Test12= 1.10D-12 3.33D-08 XBig12= 3.18D-02 3.86D-02.
      3 vectors produced by pass 18 Test12= 1.10D-12 3.33D-08 XBig12= 2.22D-03 7.59D-03.
      3 vectors produced by pass 19 Test12= 1.10D-12 3.33D-08 XBig12= 1.25D-04 2.13D-03.
      3 vectors produced by pass 20 Test12= 1.10D-12 3.33D-08 XBig12= 5.89D-06 4.17D-04.
      3 vectors produced by pass 21 Test12= 1.10D-12 3.33D-08 XBig12= 3.13D-07 1.12D-04.
      3 vectors produced by pass 22 Test12= 1.10D-12 3.33D-08 XBig12= 1.31D-08 1.82D-05.
      3 vectors produced by pass 23 Test12= 1.10D-12 3.33D-08 XBig12= 4.90D-10 3.12D-06.
      2 vectors produced by pass 24 Test12= 1.10D-12 3.33D-08 XBig12= 2.72D-11 7.21D-07.
      2 vectors produced by pass 25 Test12= 1.10D-12 3.33D-08 XBig12= 4.02D-12 1.80D-07.
      1 vectors produced by pass 26 Test12= 1.10D-12 3.33D-08 XBig12= 2.60D-12 1.38D-07.
 Inverted reduced A of dimension    77 with in-core refinement.
 End of Minotr Frequency-dependent properties file   721 does not exist.
 End of Minotr Frequency-dependent properties file   722 does not exist.
 Symmetrizing basis deriv contribution to polar:
 IMax=3 JMax=2 DiffMx= 0.00D+00
 G2DrvN: will do    32 centers at a time, making    1 passes doing MaxLOS=2.
 Calling FoFCou, ICntrl=  3107 FMM=F I1Cent=   0 AccDes= 0.00D+00.
 FoFDir/FoFCou used for L=0 through L=2.
 End of G2Drv Frequency-dependent properties file   721 does not exist.
 End of G2Drv Frequency-dependent properties file   722 does not exist.
          IDoAtm=1111111111111111111111111111111
          Differentiating once with respect to electric field.
                with respect to dipole field.
          Differentiating once with respect to nuclear coordinates.
          There are    96 degrees of freedom in the 1st order CPHF.  IDoFFX=5.
 Will reuse    3 saved solutions.
     90 vectors produced by pass  0 Test12= 3.44D-14 1.04D-09 XBig12= 1.26D+00 9.09D-01.
 AX will form    90 AO Fock derivatives at one time.
     90 vectors produced by pass  1 Test12= 3.44D-14 1.04D-09 XBig12= 3.12D-01 7.95D-02.
     90 vectors produced by pass  2 Test12= 3.44D-14 1.04D-09 XBig12= 2.01D-03 6.89D-03.
     90 vectors produced by pass  3 Test12= 3.44D-14 1.04D-09 XBig12= 3.61D-05 5.80D-04.
     90 vectors produced by pass  4 Test12= 3.44D-14 1.04D-09 XBig12= 1.86D-07 3.75D-05.
     90 vectors produced by pass  5 Test12= 3.44D-14 1.04D-09 XBig12= 4.83D-10 1.96D-06.
     76 vectors produced by pass  6 Test12= 3.44D-14 1.04D-09 XBig12= 2.29D-12 1.37D-07.
     53 vectors produced by pass  7 Test12= 3.44D-14 1.04D-09 XBig12= 1.20D-13 2.49D-08.
      5 vectors produced by pass  8 Test12= 3.44D-14 1.04D-09 XBig12= 6.67D-16 2.36D-09.
      2 vectors produced by pass  9 Test12= 3.44D-14 1.04D-09 XBig12= 1.95D-16 1.16D-09.
 Inverted reduced A of dimension   676 with in-core refinement.
 Isotropic polarizability for W=    0.000000      400.84 Bohr**3.
 End of Minotr Frequency-dependent properties file   721 does not exist.
 End of Minotr Frequency-dependent properties file   722 does not exist.

 **********************************************************************

            Population analysis using the SCF density.

 **********************************************************************

 Orbital symmetries:
       Occupied  (A) (A) (A) (A) (A) (A) (A) (A) (A) (A) (A) (A)
                 (A) (A) (A) (A) (A) (A) (A) (A) (A) (A) (A) (A)
                 (A) (A) (A) (A) (A) (A) (A) (A) (A) (A) (A) (A)
                 (A) (A) (A) (A) (A) (A) (A) (A) (A) (A) (A) (A)
                 (A) (A) (A) (A) (A) (A) (A) (A) (A) (A) (A) (A)
                 (A) (A) (A) (A) (A) (A) (A) (A) (A) (A) (A) (A)
                 (A) (A) (A) (A) (A) (A) (A) (A) (A) (A) (A) (A)
       Virtual   (A) (A) (A) (A) (A) (A) (A) (A) (A) (A) (A) (A)
                 (A) (A) (A) (A) (A) (A) (A) (A) (A) (A) (A) (A)
                 (A) (A) (A) (A) (A) (A) (A) (A) (A) (A) (A) (A)
                 (A) (A) (A) (A) (A) (A) (A) (A) (A) (A) (A) (A)
                 (A) (A) (A) (A) (A) (A) (A) (A) (A) (A) (A) (A)
                 (A) (A) (A) (A) (A) (A) (A) (A) (A) (A) (A) (A)
                 (A) (A) (A) (A) (A) (A) (A) (A) (A) (A) (A) (A)
                 (A) (A) (A) (A) (A) (A) (A) (A) (A) (A) (A) (A)
                 (A) (A) (A) (A) (A) (A) (A) (A) (A) (A) (A) (A)
                 (A) (A) (A) (A) (A) (A) (A) (A) (A) (A) (A) (A)
                 (A) (A) (A) (A) (A) (A) (A) (A) (A) (A) (A) (A)
                 (A) (A) (A) (A) (A) (A) (A) (A) (A) (A) (A) (A)
                 (A) (A) (A) (A) (A) (A) (A) (A) (A) (A) (A) (A)
                 (A) (A) (A) (A) (A) (A) (A) (A) (A) (A) (A) (A)
                 (A) (A) (A) (A) (A) (A) (A) (A) (A) (A) (A) (A)
                 (A) (A) (A) (A) (A) (A) (A) (A) (A) (A) (A) (A)
                 (A) (A) (A) (A) (A) (A) (A) (A) (A) (A) (A) (A)
                 (A) (A) (A) (A) (A) (A) (A) (A) (A) (A) (A) (A)
                 (A) (A) (A) (A) (A) (A) (A) (A) (A) (A) (A) (A)
                 (A) (A) (A) (A) (A) (A) (A) (A) (A) (A) (A) (A)
                 (A) (A) (A) (A) (A) (A) (A) (A) (A) (A) (A) (A)
                 (A) (A) (A) (A) (A) (A) (A) (A) (A) (A) (A) (A)
                 (A) (A) (A) (A) (A) (A) (A) (A) (A) (A) (A) (A)
                 (A) (A) (A) (A) (A) (A) (A) (A) (A) (A) (A) (A)
                 (A) (A) (A) (A) (A) (A) (A) (A) (A) (A) (A) (A)
                 (A) (A) (A) (A) (A) (A) (A) (A) (A) (A) (A) (A)
                 (A) (A) (A) (A) (A) (A) (A) (A) (A) (A) (A) (A)
                 (A) (A) (A) (A) (A) (A) (A) (A) (A) (A) (A) (A)
                 (A) (A) (A) (A) (A) (A) (A) (A) (A) (A) (A) (A)
                 (A) (A) (A) (A) (A) (A) (A) (A) (A) (A) (A) (A)
                 (A) (A) (A) (A) (A) (A) (A) (A) (A) (A) (A) (A)
                 (A) (A) (A) (A) (A) (A) (A) (A) (A) (A) (A) (A)
                 (A) (A) (A) (A) (A) (A) (A) (A) (A)
 The electronic state is 1-A.
 Alpha  occ. eigenvalues --  -19.25933 -19.23817 -19.23054 -19.22914 -19.22042
 Alpha  occ. eigenvalues --  -19.21766 -19.21653 -19.20967 -19.20073 -19.19641
 Alpha  occ. eigenvalues --  -19.18302 -10.36802 -10.33685 -10.32960 -10.32685
 Alpha  occ. eigenvalues --  -10.31643 -10.29557 -10.29373 -10.28832 -10.28733
 Alpha  occ. eigenvalues --  -10.26825 -10.26710 -10.26626  -1.13075  -1.12000
 Alpha  occ. eigenvalues --   -1.07514  -1.07020  -1.06700  -1.05860  -1.05351
 Alpha  occ. eigenvalues --   -1.05256  -1.04734  -1.04417  -1.03207  -0.83377
 Alpha  occ. eigenvalues --   -0.80863  -0.78558  -0.76773  -0.70224  -0.68994
 Alpha  occ. eigenvalues --   -0.66869  -0.64332  -0.62761  -0.61460  -0.58683
 Alpha  occ. eigenvalues --   -0.57873  -0.56510  -0.55011  -0.54515  -0.52967
 Alpha  occ. eigenvalues --   -0.51679  -0.50545  -0.49787  -0.48852  -0.48350
 Alpha  occ. eigenvalues --   -0.48046  -0.45728  -0.45288  -0.45029  -0.44104
 Alpha  occ. eigenvalues --   -0.43886  -0.42770  -0.42171  -0.41214  -0.40639
 Alpha  occ. eigenvalues --   -0.40469  -0.40176  -0.39194  -0.38005  -0.37807
 Alpha  occ. eigenvalues --   -0.37365  -0.36834  -0.36300  -0.35719  -0.32705
 Alpha  occ. eigenvalues --   -0.32397  -0.30926  -0.30042  -0.28901  -0.27024
 Alpha  occ. eigenvalues --   -0.25073  -0.22995  -0.20219  -0.17242
 Alpha virt. eigenvalues --   -0.15164  -0.13298  -0.10366  -0.09881  -0.08794
 Alpha virt. eigenvalues --   -0.07711  -0.04498  -0.02473  -0.02024  -0.01346
 Alpha virt. eigenvalues --   -0.00058   0.00075   0.01433   0.02536   0.04059
 Alpha virt. eigenvalues --    0.04654   0.05012   0.05736   0.05911   0.06736
 Alpha virt. eigenvalues --    0.07227   0.07468   0.07763   0.08311   0.08715
 Alpha virt. eigenvalues --    0.09158   0.09339   0.09720   0.10051   0.10510
 Alpha virt. eigenvalues --    0.11031   0.11540   0.11972   0.12485   0.12783
 Alpha virt. eigenvalues --    0.13038   0.13281   0.13750   0.14279   0.14873
 Alpha virt. eigenvalues --    0.15128   0.15344   0.15777   0.15907   0.16167
 Alpha virt. eigenvalues --    0.16617   0.17040   0.17358   0.17729   0.17950
 Alpha virt. eigenvalues --    0.18416   0.18694   0.18918   0.19231   0.19551
 Alpha virt. eigenvalues --    0.20042   0.20045   0.20154   0.20568   0.21159
 Alpha virt. eigenvalues --    0.21541   0.21892   0.22068   0.22361   0.22521
 Alpha virt. eigenvalues --    0.22885   0.23252   0.23570   0.23745   0.23959
 Alpha virt. eigenvalues --    0.24422   0.24749   0.24949   0.25208   0.25715
 Alpha virt. eigenvalues --    0.25886   0.26317   0.26873   0.27412   0.27546
 Alpha virt. eigenvalues --    0.27674   0.28193   0.28554   0.28633   0.28880
 Alpha virt. eigenvalues --    0.29009   0.29580   0.29661   0.30143   0.30289
 Alpha virt. eigenvalues --    0.30978   0.31019   0.31451   0.31575   0.31837
 Alpha virt. eigenvalues --    0.32227   0.32440   0.33035   0.33508   0.33689
 Alpha virt. eigenvalues --    0.33968   0.34281   0.34847   0.35205   0.35424
 Alpha virt. eigenvalues --    0.35846   0.36093   0.36508   0.36973   0.37573
 Alpha virt. eigenvalues --    0.38096   0.38446   0.39083   0.39573   0.40628
 Alpha virt. eigenvalues --    0.41135   0.41361   0.41858   0.42111   0.43008
 Alpha virt. eigenvalues --    0.43484   0.43857   0.44819   0.45496   0.45749
 Alpha virt. eigenvalues --    0.46281   0.47980   0.48535   0.49603   0.51838
 Alpha virt. eigenvalues --    0.52675   0.63831   0.67050   0.67516   0.68996
 Alpha virt. eigenvalues --    0.70446   0.70990   0.72578   0.73088   0.73538
 Alpha virt. eigenvalues --    0.74449   0.75198   0.75847   0.76709   0.77004
 Alpha virt. eigenvalues --    0.78706   0.78996   0.79412   0.80647   0.81384
 Alpha virt. eigenvalues --    0.81673   0.82502   0.83987   0.85442   0.86419
 Alpha virt. eigenvalues --    0.87173   0.87902   0.89302   0.90172   0.91245
 Alpha virt. eigenvalues --    0.91882   0.93177   0.94684   0.95859   0.96695
 Alpha virt. eigenvalues --    0.97061   0.97308   0.99680   0.99745   1.00322
 Alpha virt. eigenvalues --    1.02387   1.02693   1.05157   1.06783   1.09352
 Alpha virt. eigenvalues --    1.10983   1.11003   1.13191   1.13270   1.14583
 Alpha virt. eigenvalues --    1.15721   1.16515   1.17548   1.18058   1.18489
 Alpha virt. eigenvalues --    1.19836   1.20030   1.20573   1.22066   1.22328
 Alpha virt. eigenvalues --    1.22900   1.23228   1.23496   1.24480   1.24824
 Alpha virt. eigenvalues --    1.25455   1.25869   1.26900   1.27331   1.27866
 Alpha virt. eigenvalues --    1.28241   1.28540   1.29209   1.30047   1.30535
 Alpha virt. eigenvalues --    1.31577   1.32461   1.32947   1.33429   1.34957
 Alpha virt. eigenvalues --    1.36862   1.37315   1.38109   1.38598   1.39981
 Alpha virt. eigenvalues --    1.40651   1.42085   1.43154   1.44073   1.44725
 Alpha virt. eigenvalues --    1.46394   1.47346   1.48808   1.48986   1.50279
 Alpha virt. eigenvalues --    1.51657   1.52070   1.52841   1.54147   1.55341
 Alpha virt. eigenvalues --    1.56450   1.57142   1.58059   1.59111   1.59700
 Alpha virt. eigenvalues --    1.60451   1.61191   1.61497   1.63090   1.64368
 Alpha virt. eigenvalues --    1.64854   1.65407   1.66498   1.67181   1.67731
 Alpha virt. eigenvalues --    1.68318   1.69255   1.69787   1.70644   1.71720
 Alpha virt. eigenvalues --    1.72026   1.73811   1.74402   1.74704   1.75985
 Alpha virt. eigenvalues --    1.76803   1.77928   1.79050   1.80522   1.81289
 Alpha virt. eigenvalues --    1.82421   1.83770   1.85032   1.85442   1.86171
 Alpha virt. eigenvalues --    1.86486   1.88328   1.88816   1.89802   1.91158
 Alpha virt. eigenvalues --    1.91328   1.92360   1.93210   1.94503   1.94586
 Alpha virt. eigenvalues --    1.95037   1.95483   1.98453   1.98963   1.99711
 Alpha virt. eigenvalues --    2.00308   2.01194   2.02121   2.03203   2.03680
 Alpha virt. eigenvalues --    2.04049   2.05769   2.06387   2.08850   2.09375
 Alpha virt. eigenvalues --    2.10933   2.11692   2.13318   2.13768   2.17883
 Alpha virt. eigenvalues --    2.19709   2.22335   2.23096   2.24248   2.26104
 Alpha virt. eigenvalues --    2.27589   2.29606   2.31544   2.32380   2.34681
 Alpha virt. eigenvalues --    2.35419   2.36711   2.39093   2.39525   2.40458
 Alpha virt. eigenvalues --    2.40780   2.41641   2.43254   2.44023   2.46149
 Alpha virt. eigenvalues --    2.47619   2.48487   2.49036   2.50386   2.51108
 Alpha virt. eigenvalues --    2.52420   2.53340   2.55591   2.57319   2.58580
 Alpha virt. eigenvalues --    2.59404   2.60735   2.61020   2.61658   2.62997
 Alpha virt. eigenvalues --    2.63155   2.64770   2.65559   2.66393   2.67385
 Alpha virt. eigenvalues --    2.68675   2.69709   2.71275   2.72922   2.77107
 Alpha virt. eigenvalues --    2.81953   2.84165   2.85974   2.87279   2.87406
 Alpha virt. eigenvalues --    2.88549   2.91362   2.92745   2.94514   2.95240
 Alpha virt. eigenvalues --    2.97314   2.98818   3.00605   3.02326   3.02612
 Alpha virt. eigenvalues --    3.03388   3.05270   3.06113   3.10878   3.12637
 Alpha virt. eigenvalues --    3.16283   3.24785   3.39370   3.41244   3.42048
 Alpha virt. eigenvalues --    3.44107   3.46797   3.46858   3.51260   3.64250
 Alpha virt. eigenvalues --    4.17193   4.20374   4.23505   4.25241   4.27174
 Alpha virt. eigenvalues --    4.28505   4.30869   4.32074   4.33075   4.34658
 Alpha virt. eigenvalues --    4.36605   4.39620   4.41058   4.44371   4.49588
 Alpha virt. eigenvalues --    4.54733   4.57660   4.60044   4.63313   4.64903
 Alpha virt. eigenvalues --    4.67511   4.71353   4.75077
          Condensed to atoms (all electrons):
              1          2          3          4          5          6
     1  O    8.166903   0.281541  -0.170588   0.001583   0.003689  -0.001204
     2  C    0.281541   9.556889  -3.648791  -0.190613   0.007781   2.042900
     3  C   -0.170588  -3.648791  12.852881   0.081094  -0.029159  -3.506286
     4  O    0.001583  -0.190613   0.081094   8.252977   0.193291   0.078278
     5  H    0.003689   0.007781  -0.029159   0.193291   0.462367   0.012131
     6  C   -0.001204   2.042900  -3.506286   0.078278   0.012131  15.761578
     7  O    0.000252   0.071493  -0.243197  -0.006252   0.000481  -0.108248
     8  H   -0.000126   0.009053  -0.065067   0.005461  -0.000522   0.102299
     9  C    0.018695   0.085873  -1.166796  -0.005097   0.002752   1.384224
    10  O   -0.001068   0.040656  -0.002376  -0.000023   0.000001  -0.001628
    11  H   -0.000056   0.003114   0.002403  -0.000002   0.000000  -0.000834
    12  C   -0.153930  -1.123317   0.494555   0.084579  -0.012053  -0.685609
    13  O    0.005053   0.101699  -0.285755  -0.000951   0.000342   0.406123
    14  C    0.079279  -1.467784   1.105493  -0.005405   0.015486  -8.006712
    15  O    0.000643  -0.035055   0.048732  -0.000683   0.000002  -0.188761
    16  C    0.002880  -0.074909   0.159248  -0.000897   0.000456  -0.251311
    17  C    0.000516  -0.019920   0.017195   0.000146   0.000031  -0.067155
    18  O    0.000009   0.004708  -0.000735  -0.000019   0.000000   0.010757
    19  H    0.000010  -0.003535  -0.001121   0.000018   0.000000   0.019329
    20  C    0.000099   0.020679  -0.014278  -0.000049   0.000001   0.071223
    21  O    0.000000  -0.000084  -0.000032   0.000000   0.000000  -0.000093
    22  H    0.000000  -0.000035   0.000019   0.000000   0.000000   0.000143
    23  C    0.000218   0.027281  -0.116838  -0.000485  -0.000034   0.266454
    24  O    0.000000  -0.000067   0.000671   0.000012   0.000000  -0.012244
    25  H    0.000000   0.000028  -0.000114   0.000000   0.000000   0.002811
    26  C   -0.000065  -0.117984   0.214642   0.000170  -0.000007  -1.127953
    27  O    0.000000   0.000099  -0.000326   0.000000   0.000000  -0.001016
    28  C   -0.000009  -0.003927   0.006181   0.000011   0.000000  -0.011367
    29  O    0.000000   0.000010  -0.000021   0.000000   0.000000   0.000325
    30  H    0.000000   0.000000   0.000000   0.000000   0.000000   0.000013
    31  H    0.210935  -0.031613  -0.042562   0.009240   0.004597  -0.001703
              7          8          9         10         11         12
     1  O    0.000252  -0.000126   0.018695  -0.001068  -0.000056  -0.153930
     2  C    0.071493   0.009053   0.085873   0.040656   0.003114  -1.123317
     3  C   -0.243197  -0.065067  -1.166796  -0.002376   0.002403   0.494555
     4  O   -0.006252   0.005461  -0.005097  -0.000023  -0.000002   0.084579
     5  H    0.000481  -0.000522   0.002752   0.000001   0.000000  -0.012053
     6  C   -0.108248   0.102299   1.384224  -0.001628  -0.000834  -0.685609
     7  O    8.316597   0.182116   0.007294   0.000043   0.000001   0.023750
     8  H    0.182116   0.426420   0.000187   0.000001   0.000000   0.002809
     9  C    0.007294   0.000187  11.822655   0.140145  -0.146594  -3.973541
    10  O    0.000043   0.000001   0.140145   8.126588   0.221419  -0.073623
    11  H    0.000001   0.000000  -0.146594   0.221419   0.413063   0.111027
    12  C    0.023750   0.002809  -3.973541  -0.073623   0.111027  10.708833
    13  O    0.016674  -0.001408   0.306836   0.018921  -0.003032  -0.283743
    14  C    0.108112  -0.010789  -1.678759  -0.006364   0.005138   0.597076
    15  O    0.008452  -0.001647  -0.003569  -0.002951  -0.000077   0.012263
    16  C    0.077123  -0.013567  -0.270319   0.005733   0.001155   0.104673
    17  C    0.006370   0.000048   0.037365   0.005556  -0.002050  -0.161897
    18  O    0.000258  -0.000002  -0.001218  -0.002804  -0.000273  -0.017329
    19  H    0.000013   0.000001   0.007414   0.001156  -0.000125   0.012059
    20  C    0.003380  -0.000094  -0.020528  -0.000698   0.000278   0.007923
    21  O   -0.000004   0.000000  -0.000292   0.000081  -0.000002  -0.000151
    22  H    0.000000   0.000000  -0.000015  -0.000004   0.000000  -0.000217
    23  C    0.009625  -0.000631  -0.002663   0.000050   0.000013  -0.023726
    24  O   -0.000213  -0.000005   0.000055   0.000000   0.000000   0.000378
    25  H    0.000030   0.000000   0.000003   0.000000   0.000000  -0.000021
    26  C   -0.008000   0.000441  -0.067112  -0.003368   0.000026   0.067468
    27  O    0.000075  -0.000001  -0.000481  -0.000004   0.000000  -0.000630
    28  C   -0.000077   0.000015  -0.003274   0.000278   0.000002   0.000711
    29  O   -0.000001   0.000000   0.000050   0.000000   0.000000   0.000014
    30  H    0.000000   0.000000   0.000001   0.000000   0.000000   0.000000
    31  H    0.000108  -0.000005  -0.003041  -0.000035  -0.000001   0.055867
             13         14         15         16         17         18
     1  O    0.005053   0.079279   0.000643   0.002880   0.000516   0.000009
     2  C    0.101699  -1.467784  -0.035055  -0.074909  -0.019920   0.004708
     3  C   -0.285755   1.105493   0.048732   0.159248   0.017195  -0.000735
     4  O   -0.000951  -0.005405  -0.000683  -0.000897   0.000146  -0.000019
     5  H    0.000342   0.015486   0.000002   0.000456   0.000031   0.000000
     6  C    0.406123  -8.006712  -0.188761  -0.251311  -0.067155   0.010757
     7  O    0.016674   0.108112   0.008452   0.077123   0.006370   0.000258
     8  H   -0.001408  -0.010789  -0.001647  -0.013567   0.000048  -0.000002
     9  C    0.306836  -1.678759  -0.003569  -0.270319   0.037365  -0.001218
    10  O    0.018921  -0.006364  -0.002951   0.005733   0.005556  -0.002804
    11  H   -0.003032   0.005138  -0.000077   0.001155  -0.002050  -0.000273
    12  C   -0.283743   0.597076   0.012263   0.104673  -0.161897  -0.017329
    13  O    8.541182  -0.321520  -0.150159   0.055430  -0.018688   0.021735
    14  C   -0.321520  15.559829   0.350425  -0.781136   0.132422  -0.028205
    15  O   -0.150159   0.350425   8.287520  -0.058391  -0.053276   0.003472
    16  C    0.055430  -0.781136  -0.058391  17.775932  -3.823084  -0.133895
    17  C   -0.018688   0.132422  -0.053276  -3.823084  10.251444   0.462576
    18  O    0.021735  -0.028205   0.003472  -0.133895   0.462576   8.091273
    19  H    0.028158  -0.021336   0.026087  -0.076129  -0.032057   0.195572
    20  C   -0.019808  -0.278084   0.110507  -1.491883  -2.210919  -0.227538
    21  O   -0.000139   0.003307  -0.000918  -0.080087  -0.052572   0.011617
    22  H    0.000010   0.002658  -0.000101   0.002653  -0.004587   0.003910
    23  C    0.022368  -0.446653  -0.065220   2.884556  -1.197284   0.004091
    24  O   -0.000133   0.027821  -0.004765  -0.145568   0.022178   0.000236
    25  H   -0.000001  -0.005022  -0.000596   0.078280  -0.000516   0.000002
    26  C   -0.126726   0.595194   0.023507  -9.354754   2.094665   0.000264
    27  O    0.000654  -0.030722   0.003041   0.055837  -0.224746   0.006129
    28  C    0.005628   0.089126  -0.019954   0.884385   0.636664   0.032847
    29  O   -0.000009   0.001612   0.000196   0.024318   0.012969  -0.000494
    30  H    0.000000   0.000335   0.000010   0.012401  -0.007785   0.000008
    31  H   -0.000691   0.021607   0.000011   0.000298  -0.000046  -0.000001
             19         20         21         22         23         24
     1  O    0.000010   0.000099   0.000000   0.000000   0.000218   0.000000
     2  C   -0.003535   0.020679  -0.000084  -0.000035   0.027281  -0.000067
     3  C   -0.001121  -0.014278  -0.000032   0.000019  -0.116838   0.000671
     4  O    0.000018  -0.000049   0.000000   0.000000  -0.000485   0.000012
     5  H    0.000000   0.000001   0.000000   0.000000  -0.000034   0.000000
     6  C    0.019329   0.071223  -0.000093   0.000143   0.266454  -0.012244
     7  O    0.000013   0.003380  -0.000004   0.000000   0.009625  -0.000213
     8  H    0.000001  -0.000094   0.000000   0.000000  -0.000631  -0.000005
     9  C    0.007414  -0.020528  -0.000292  -0.000015  -0.002663   0.000055
    10  O    0.001156  -0.000698   0.000081  -0.000004   0.000050   0.000000
    11  H   -0.000125   0.000278  -0.000002   0.000000   0.000013   0.000000
    12  C    0.012059   0.007923  -0.000151  -0.000217  -0.023726   0.000378
    13  O    0.028158  -0.019808  -0.000139   0.000010   0.022368  -0.000133
    14  C   -0.021336  -0.278084   0.003307   0.002658  -0.446653   0.027821
    15  O    0.026087   0.110507  -0.000918  -0.000101  -0.065220  -0.004765
    16  C   -0.076129  -1.491883  -0.080087   0.002653   2.884556  -0.145568
    17  C   -0.032057  -2.210919  -0.052572  -0.004587  -1.197284   0.022178
    18  O    0.195572  -0.227538   0.011617   0.003910   0.004091   0.000236
    19  H    0.326412   0.065941  -0.000637  -0.000053  -0.000339  -0.000007
    20  C    0.065941  11.076893   0.489624  -0.045834   0.703056  -0.038249
    21  O   -0.000637   0.489624   8.047692   0.228637  -0.008879   0.000072
    22  H   -0.000053  -0.045834   0.228637   0.375132  -0.000979   0.000001
    23  C   -0.000339   0.703056  -0.008879  -0.000979  11.898096  -0.409054
    24  O   -0.000007  -0.038249   0.000072   0.000001  -0.409054   8.224242
    25  H    0.000000   0.000335  -0.000001   0.000000   0.130403   0.198365
    26  C    0.018189   0.726161   0.025076  -0.008759  -6.879385   0.494582
    27  O   -0.000056   0.034742   0.004820  -0.000492   0.286428  -0.008167
    28  C   -0.006314  -2.736057  -0.237770   0.060559  -0.801870   0.042188
    29  O    0.000023  -0.134209   0.010180  -0.000881   0.018235  -0.000772
    30  H    0.000000   0.044364  -0.001132  -0.000001   0.003247  -0.000074
    31  H    0.000000   0.000000   0.000000   0.000000   0.000009   0.000000
             25         26         27         28         29         30
     1  O    0.000000  -0.000065   0.000000  -0.000009   0.000000   0.000000
     2  C    0.000028  -0.117984   0.000099  -0.003927   0.000010   0.000000
     3  C   -0.000114   0.214642  -0.000326   0.006181  -0.000021   0.000000
     4  O    0.000000   0.000170   0.000000   0.000011   0.000000   0.000000
     5  H    0.000000  -0.000007   0.000000   0.000000   0.000000   0.000000
     6  C    0.002811  -1.127953  -0.001016  -0.011367   0.000325   0.000013
     7  O    0.000030  -0.008000   0.000075  -0.000077  -0.000001   0.000000
     8  H    0.000000   0.000441  -0.000001   0.000015   0.000000   0.000000
     9  C    0.000003  -0.067112  -0.000481  -0.003274   0.000050   0.000001
    10  O    0.000000  -0.003368  -0.000004   0.000278   0.000000   0.000000
    11  H    0.000000   0.000026   0.000000   0.000002   0.000000   0.000000
    12  C   -0.000021   0.067468  -0.000630   0.000711   0.000014   0.000000
    13  O   -0.000001  -0.126726   0.000654   0.005628  -0.000009   0.000000
    14  C   -0.005022   0.595194  -0.030722   0.089126   0.001612   0.000335
    15  O   -0.000596   0.023507   0.003041  -0.019954   0.000196   0.000010
    16  C    0.078280  -9.354754   0.055837   0.884385   0.024318   0.012401
    17  C   -0.000516   2.094665  -0.224746   0.636664   0.012969  -0.007785
    18  O    0.000002   0.000264   0.006129   0.032847  -0.000494   0.000008
    19  H    0.000000   0.018189  -0.000056  -0.006314   0.000023   0.000000
    20  C    0.000335   0.726161   0.034742  -2.736057  -0.134209   0.044364
    21  O   -0.000001   0.025076   0.004820  -0.237770   0.010180  -0.001132
    22  H    0.000000  -0.008759  -0.000492   0.060559  -0.000881  -0.000001
    23  C    0.130403  -6.879385   0.286428  -0.801870   0.018235   0.003247
    24  O    0.198365   0.494582  -0.008167   0.042188  -0.000772  -0.000074
    25  H    0.418983  -0.173264   0.001308  -0.009137   0.000102   0.000005
    26  C   -0.173264  20.084193  -0.064565  -0.399147  -0.036154  -0.012464
    27  O    0.001308  -0.064565   8.289353  -0.071664  -0.068179  -0.002360
    28  C   -0.009137  -0.399147  -0.071664   7.833745   0.293221  -0.027210
    29  O    0.000102  -0.036154  -0.068179   0.293221   8.087098   0.229272
    30  H    0.000005  -0.012464  -0.002360  -0.027210   0.229272   0.393260
    31  H    0.000000  -0.000005   0.000000   0.000000   0.000000   0.000000
             31
     1  O    0.210935
     2  C   -0.031613
     3  C   -0.042562
     4  O    0.009240
     5  H    0.004597
     6  C   -0.001703
     7  O    0.000108
     8  H   -0.000005
     9  C   -0.003041
    10  O   -0.000035
    11  H   -0.000001
    12  C    0.055867
    13  O   -0.000691
    14  C    0.021607
    15  O    0.000011
    16  C    0.000298
    17  C   -0.000046
    18  O   -0.000001
    19  H    0.000000
    20  C    0.000000
    21  O    0.000000
    22  H    0.000000
    23  C    0.000009
    24  O    0.000000
    25  H    0.000000
    26  C   -0.000005
    27  O    0.000000
    28  C    0.000000
    29  O    0.000000
    30  H    0.000000
    31  H    0.443125
 Mulliken atomic charges:
              1
     1  O   -0.445258
     2  C    0.463831
     3  C    0.310927
     4  O   -0.496385
     5  H    0.338366
     6  C   -0.186460
     7  O   -0.466254
     8  H    0.365014
     9  C   -0.470246
    10  O   -0.465683
    11  H    0.395408
    12  C    0.225802
    13  O   -0.318049
    14  C    0.393570
    15  O   -0.288745
    16  C    0.430572
    17  C    0.196435
    18  O   -0.436952
    19  H    0.441326
    20  C   -0.136976
    21  O   -0.438312
    22  H    0.388237
    23  C   -0.300092
    24  O   -0.391481
    25  H    0.358019
    26  C    0.035134
    27  O   -0.209076
    28  C    0.442215
    29  O   -0.436905
    30  H    0.368110
    31  H    0.333907
 Sum of Mulliken atomic charges =   0.00000
 Mulliken charges with hydrogens summed into heavy atoms:
              1
     1  O   -0.111351
     2  C    0.463831
     3  C    0.310927
     4  O   -0.158018
     6  C   -0.186460
     7  O   -0.101240
     9  C   -0.470246
    10  O   -0.070274
    12  C    0.225802
    13  O   -0.318049
    14  C    0.393570
    15  O   -0.288745
    16  C    0.430572
    17  C    0.196435
    18  O    0.004374
    20  C   -0.136976
    21  O   -0.050076
    23  C   -0.300092
    24  O   -0.033462
    26  C    0.035134
    27  O   -0.209076
    28  C    0.442215
    29  O   -0.068796
 Sum of Mulliken charges with hydrogens summed into heavy atoms =   0.00000
 APT atomic charges:
              1
     1  O   -0.638644
     2  C    0.657323
     3  C    0.243848
     4  O   -0.687024
     5  H    0.284334
     6  C    0.306242
     7  O   -0.401504
     8  H    0.235094
     9  C   -0.227898
    10  O   -0.194099
    11  H    0.346766
    12  C   -0.418555
    13  O    0.218560
    14  C   -0.203725
    15  O    0.066680
    16  C   -0.042697
    17  C    0.339671
    18  O   -0.068477
    19  H    0.054427
    20  C    0.330932
    21  O   -0.656554
    22  H    0.295032
    23  C    1.142631
    24  O   -1.213474
    25  H    0.312425
    26  C   -0.006031
    27  O   -0.597758
    28  C    0.751620
    29  O   -0.897759
    30  H    0.382032
    31  H    0.286581
 Sum of APT charges=   0.00000
 APT Atomic charges with hydrogens summed into heavy atoms:
              1
     1  O   -0.352063
     2  C    0.657323
     3  C    0.243848
     4  O   -0.402690
     5  H    0.000000
     6  C    0.306242
     7  O   -0.166410
     8  H    0.000000
     9  C   -0.227898
    10  O    0.152667
    11  H    0.000000
    12  C   -0.418555
    13  O    0.218560
    14  C   -0.203725
    15  O    0.066680
    16  C   -0.042697
    17  C    0.339671
    18  O   -0.014050
    19  H    0.000000
    20  C    0.330932
    21  O   -0.361522
    22  H    0.000000
    23  C    1.142631
    24  O   -0.901049
    25  H    0.000000
    26  C   -0.006031
    27  O   -0.597758
    28  C    0.751620
    29  O   -0.515727
    30  H    0.000000
    31  H    0.000000
 Sum of APT charges=   0.00000
 Electronic spatial extent (au):  <R**2>=           8646.9009
 Charge=              0.0000 electrons
 Dipole moment (field-independent basis, Debye):
    X=              1.3524    Y=              0.8112    Z=             -2.7741  Tot=              3.1910
 Quadrupole moment (field-independent basis, Debye-Ang):
   XX=            -99.1169   YY=           -123.5987   ZZ=           -132.7276
   XY=             -5.4978   XZ=             -6.1174   YZ=             -6.1193
 Traceless Quadrupole moment (field-independent basis, Debye-Ang):
   XX=             19.3642   YY=             -5.1176   ZZ=            -14.2466
   XY=             -5.4978   XZ=             -6.1174   YZ=             -6.1193
 Octapole moment (field-independent basis, Debye-Ang**2):
  XXX=            -53.6309  YYY=            -28.8818  ZZZ=             -1.3333  XYY=            -10.6245
  XXY=            106.8901  XXZ=            -51.3000  XZZ=             28.3207  YZZ=            -10.3082
  YYZ=            -29.6056  XYZ=            -58.0629
 Hexadecapole moment (field-independent basis, Debye-Ang**3):
 XXXX=          -5938.3338 YYYY=          -2322.2039 ZZZZ=           -283.2067 XXXY=           -130.7947
 XXXZ=           -255.5999 YYYX=             -5.0206 YYYZ=            -59.2223 ZZZX=             25.4109
 ZZZY=            -18.0581 XXYY=          -1762.9554 XXZZ=          -1415.0382 YYZZ=           -440.1441
 XXYZ=             -7.4841 YYXZ=            -13.6378 ZZXY=              8.1820
 N-N= 1.916667181690D+03 E-N=-6.851941765576D+03  KE= 1.275415871587D+03
  Exact polarizability: 705.933  81.075 366.690 -20.183  -0.457 129.885
 Approx polarizability:4581.8521481.4761475.844-301.333 -63.598 283.275
 Calling FoFJK, ICntrl=    100127 FMM=F ISym2X=0 I1Cent= 0 IOpClX= 0 NMat=1 NMatS=1 NMatT=0.
 Full mass-weighted force constant matrix:
 Low frequencies --- -452.0990 -397.9861 -184.5335  -93.3012  -59.1721   -0.0007
 Low frequencies ---   -0.0005    0.0007    7.4390
 ******    5 imaginary frequencies (negative Signs) ****** 
 Harmonic frequencies (cm**-1), IR intensities (KM/Mole), Raman scattering
 activities (A**4/AMU), depolarization ratios for plane and unpolarized
 incident light, reduced masses (AMU), force constants (mDyne/A),
 and normal coordinates:
                     1                      2                      3
                     A                      A                      A
 Frequencies --  -452.0459              -397.8888              -183.9126
 Red. masses --     1.2658                 1.1007                 9.8037
 Frc consts  --     0.1524                 0.1027                 0.1954
 IR Inten    --    89.5764                77.7755               124.2829
 Raman Activ --    55.3381                17.1086               196.7897
 Depolar (P) --     0.6601                 0.5950                 0.5610
 Depolar (U) --     0.7952                 0.7461                 0.7188
  Atom  AN      X      Y      Z        X      Y      Z        X      Y      Z
     1   8    -0.01   0.07   0.06     0.00   0.00   0.00     0.02   0.02   0.00
     2   6     0.02   0.01  -0.04     0.00   0.00   0.00     0.04  -0.03  -0.03
     3   6     0.02  -0.02  -0.07     0.00   0.00   0.00    -0.04   0.05   0.16
     4   8     0.00   0.00   0.05     0.00   0.00   0.00    -0.05  -0.06  -0.07
     5   1     0.00  -0.11   0.05     0.00   0.00   0.00    -0.04   0.04  -0.01
     6   6     0.00   0.00  -0.01     0.00   0.00   0.00    -0.05   0.00   0.23
     7   8    -0.01   0.00   0.01     0.00   0.00   0.00     0.11   0.25  -0.32
     8   1     0.00   0.00   0.00    -0.01   0.00   0.00    -0.35   0.02  -0.13
     9   6     0.00   0.00   0.00     0.00   0.00   0.00    -0.09  -0.09  -0.16
    10   8     0.00   0.00   0.00     0.00   0.00   0.00    -0.01  -0.03  -0.04
    11   1     0.00   0.00   0.00     0.00   0.00   0.00     0.04  -0.05  -0.04
    12   6     0.00   0.01   0.01     0.00   0.00   0.00    -0.04  -0.01  -0.15
    13   8     0.00   0.00  -0.01     0.00   0.00  -0.01    -0.02  -0.04   0.04
    14   6     0.01   0.00   0.01     0.00   0.00   0.01     0.04  -0.07   0.53
    15   8     0.00   0.00   0.01     0.01   0.00   0.00     0.05  -0.09   0.14
    16   6     0.00   0.00   0.00     0.00   0.00  -0.01     0.01   0.03  -0.15
    17   6     0.00   0.00   0.00    -0.01   0.00   0.00     0.02  -0.01  -0.04
    18   8     0.00   0.00   0.00     0.00   0.00   0.00    -0.01   0.03   0.03
    19   1     0.00   0.00   0.00    -0.01   0.00   0.00    -0.04   0.03   0.09
    20   6     0.00   0.00   0.00     0.01   0.01  -0.01    -0.01   0.00  -0.02
    21   8     0.00   0.00   0.00     0.00   0.01   0.01     0.00   0.03   0.01
    22   1     0.00   0.00   0.00    -0.03   0.00  -0.02    -0.03   0.01  -0.03
    23   6     0.00   0.00   0.00     0.00   0.00   0.01     0.06   0.01   0.10
    24   8     0.00   0.00   0.00    -0.01   0.00   0.00    -0.03  -0.01   0.02
    25   1     0.00   0.00   0.00     0.01  -0.01   0.01     0.16  -0.13   0.03
    26   6     0.00   0.00   0.00     0.01   0.00   0.01     0.02  -0.01  -0.07
    27   8     0.00   0.00   0.00    -0.01   0.01  -0.01    -0.01  -0.01  -0.06
    28   6     0.00   0.00   0.00     0.01  -0.01  -0.03     0.01   0.01  -0.02
    29   8     0.00   0.00   0.00     0.00   0.04   0.05     0.00   0.01  -0.01
    30   1    -0.01   0.03   0.02     0.29  -0.81  -0.50    -0.02   0.11   0.07
    31   1    -0.22  -0.82  -0.50    -0.01  -0.04  -0.02    -0.01  -0.19  -0.18
                     4                      5                      6
                     A                      A                      A
 Frequencies --   -92.4153               -49.8993                53.1258
 Red. masses --     7.6814                 8.7639                 9.4139
 Frc consts  --     0.0387                 0.0129                 0.0157
 IR Inten    --   104.1551                26.4916                 2.4780
 Raman Activ --    88.3855               159.2032               107.3419
 Depolar (P) --     0.5471                 0.5425                 0.4693
 Depolar (U) --     0.7073                 0.7034                 0.6388
  Atom  AN      X      Y      Z        X      Y      Z        X      Y      Z
     1   8    -0.02  -0.02   0.03     0.01   0.03   0.11    -0.16   0.11  -0.23
     2   6     0.00   0.02   0.11     0.03   0.04   0.16    -0.06   0.06  -0.09
     3   6    -0.03   0.06   0.21    -0.01   0.07   0.07     0.06   0.03   0.01
     4   8     0.04  -0.07  -0.11     0.09  -0.08  -0.30     0.13   0.20   0.14
     5   1     0.02   0.00  -0.15     0.06  -0.01  -0.37     0.12   0.22   0.15
     6   6     0.02  -0.01   0.08     0.05   0.00  -0.05     0.09  -0.05   0.07
     7   8     0.15  -0.02   0.03     0.12   0.01  -0.09     0.12  -0.12   0.15
     8   1     0.18   0.00   0.04     0.08  -0.01  -0.07     0.15  -0.10   0.17
     9   6    -0.13  -0.01  -0.28    -0.05   0.05   0.14    -0.13   0.02   0.00
    10   8    -0.11   0.00  -0.16    -0.03   0.06   0.07    -0.16  -0.03   0.03
    11   1    -0.05   0.02  -0.22    -0.05   0.06   0.08    -0.17  -0.01   0.01
    12   6    -0.09  -0.03  -0.07     0.00   0.03   0.15    -0.10  -0.01  -0.01
    13   8     0.01  -0.06   0.28     0.04  -0.03   0.18    -0.05  -0.07   0.00
    14   6    -0.02   0.05  -0.14     0.01   0.00  -0.12     0.03  -0.14   0.07
    15   8    -0.09   0.01   0.01     0.01  -0.04  -0.21     0.05  -0.21  -0.08
    16   6    -0.02  -0.01   0.22     0.01  -0.04  -0.17     0.06  -0.07  -0.16
    17   6     0.02   0.03   0.08     0.02  -0.03  -0.13     0.09  -0.06  -0.01
    18   8     0.07  -0.03  -0.01     0.02  -0.06  -0.13     0.07  -0.08   0.10
    19   1     0.10  -0.04  -0.03     0.03  -0.06  -0.12     0.08  -0.10   0.04
    20   6     0.04   0.02   0.05     0.00   0.00  -0.08     0.09   0.04   0.00
    21   8     0.04  -0.02   0.00     0.00   0.02  -0.04     0.14   0.08   0.07
    22   1     0.11   0.02   0.08    -0.05  -0.01  -0.11     0.09   0.04  -0.01
    23   6    -0.04   0.01  -0.21    -0.08  -0.03   0.24    -0.14  -0.02  -0.03
    24   8     0.07   0.04  -0.15    -0.16  -0.03   0.24    -0.20  -0.01  -0.03
    25   1    -0.21   0.19  -0.17     0.02  -0.10   0.26    -0.03  -0.09  -0.01
    26   6    -0.02   0.02   0.04    -0.04   0.01   0.06    -0.03  -0.01  -0.08
    27   8     0.01   0.02   0.01    -0.04   0.03   0.08    -0.02   0.07   0.02
    28   6     0.00   0.02   0.05     0.00   0.01  -0.05     0.06   0.08  -0.03
    29   8     0.02   0.03   0.02     0.00   0.02  -0.03     0.06   0.14   0.00
    30   1     0.04  -0.08  -0.08    -0.02   0.09   0.02     0.02   0.19   0.01
    31   1    -0.09  -0.39  -0.23    -0.06  -0.33  -0.14    -0.08   0.25  -0.27
                     7                      8                      9
                     A                      A                      A
 Frequencies --    89.9512               100.9680               104.5912
 Red. masses --     7.2279                 9.3649                 7.4092
 Frc consts  --     0.0345                 0.0562                 0.0478
 IR Inten    --    27.4761                27.5868                 0.7931
 Raman Activ --    64.9339               106.7862                 5.6292
 Depolar (P) --     0.4441                 0.6292                 0.6511
 Depolar (U) --     0.6150                 0.7724                 0.7887
  Atom  AN      X      Y      Z        X      Y      Z        X      Y      Z
     1   8     0.03   0.04   0.17     0.18  -0.03   0.23     0.07   0.12   0.32
     2   6    -0.02   0.01   0.05     0.07   0.01   0.08    -0.06   0.01  -0.01
     3   6     0.04  -0.02   0.02     0.04   0.04   0.12    -0.02   0.02  -0.16
     4   8    -0.06   0.08   0.32     0.05   0.00   0.02     0.02   0.00  -0.22
     5   1    -0.02   0.02   0.39     0.05  -0.01   0.00    -0.01  -0.04  -0.30
     6   6     0.00  -0.03  -0.18     0.06   0.02   0.07    -0.01  -0.02  -0.04
     7   8     0.09   0.08  -0.35     0.12  -0.04   0.13    -0.03  -0.08   0.06
     8   1     0.07   0.06  -0.39     0.10  -0.04   0.20     0.02  -0.05   0.07
     9   6    -0.03  -0.03  -0.06     0.09   0.02  -0.15    -0.11  -0.03  -0.06
    10   8    -0.06  -0.04  -0.05     0.12   0.07  -0.20    -0.11  -0.02  -0.08
    11   1    -0.05  -0.03  -0.07     0.13   0.07  -0.21    -0.13  -0.02  -0.06
    12   6    -0.02  -0.03  -0.01     0.09   0.02  -0.09    -0.06   0.00  -0.10
    13   8    -0.04  -0.06  -0.07     0.03   0.05  -0.17    -0.11  -0.02  -0.20
    14   6    -0.02  -0.03  -0.17     0.03   0.01  -0.04    -0.03  -0.06   0.01
    15   8    -0.03  -0.07  -0.08     0.04   0.02  -0.15     0.00  -0.09   0.11
    16   6    -0.01  -0.03   0.06    -0.01   0.00  -0.24     0.01  -0.01   0.10
    17   6     0.03   0.00  -0.01    -0.06  -0.05  -0.01     0.04   0.00   0.10
    18   8     0.06  -0.02  -0.09    -0.10  -0.03   0.12     0.03   0.00   0.15
    19   1     0.07  -0.02  -0.11    -0.09  -0.04   0.05     0.03   0.00   0.10
    20   6     0.02   0.00   0.03    -0.10   0.00   0.08     0.07   0.02   0.02
    21   8     0.05  -0.01  -0.01    -0.11   0.03   0.17     0.11   0.03   0.02
    22   1     0.10   0.00   0.04    -0.17   0.02   0.10     0.11   0.02   0.02
    23   6    -0.05  -0.02   0.01    -0.08  -0.01  -0.05     0.02  -0.01   0.07
    24   8    -0.01   0.01   0.07    -0.19  -0.03  -0.11     0.03   0.00   0.09
    25   1    -0.11   0.08   0.07     0.07  -0.17  -0.09    -0.01   0.03   0.09
    26   6    -0.02   0.01   0.06    -0.03  -0.04  -0.17     0.00   0.01   0.04
    27   8     0.00   0.02   0.06    -0.06  -0.01   0.02     0.02   0.02  -0.06
    28   6     0.01   0.04   0.09    -0.07  -0.01   0.09     0.04   0.03  -0.07
    29   8     0.00   0.05   0.10    -0.10  -0.01   0.16     0.07   0.05  -0.14
    30   1     0.03  -0.01   0.06    -0.08   0.03   0.21     0.03   0.07  -0.17
    31   1     0.05   0.23   0.36     0.08  -0.19   0.27     0.02   0.22   0.55
                    10                     11                     12
                     A                      A                      A
 Frequencies --   123.6217               141.3744               154.9630
 Red. masses --     8.5440                 8.5282                 8.9734
 Frc consts  --     0.0769                 0.1004                 0.1270
 IR Inten    --     3.3532                 7.6738                17.3799
 Raman Activ --     2.1706                93.2562               150.0018
 Depolar (P) --     0.7048                 0.4089                 0.4703
 Depolar (U) --     0.8269                 0.5805                 0.6397
  Atom  AN      X      Y      Z        X      Y      Z        X      Y      Z
     1   8     0.00  -0.08  -0.15    -0.05  -0.07   0.00     0.04   0.04  -0.05
     2   6     0.04   0.00   0.00    -0.04  -0.03   0.04     0.07  -0.02  -0.07
     3   6     0.02   0.00   0.07    -0.06  -0.03   0.08     0.10   0.03   0.06
     4   8    -0.02   0.00   0.10    -0.06  -0.05   0.04     0.16   0.03  -0.03
     5   1     0.00   0.01   0.15    -0.06  -0.04   0.06     0.14   0.06  -0.06
     6   6     0.01   0.01  -0.07    -0.04  -0.04   0.01     0.11  -0.07   0.08
     7   8     0.05   0.04  -0.13     0.00  -0.09   0.06     0.36  -0.08   0.00
     8   1     0.06   0.05  -0.16     0.01  -0.08   0.10     0.39  -0.05   0.06
     9   6     0.05   0.03  -0.07    -0.11  -0.03   0.01     0.01  -0.14   0.06
    10   8     0.05   0.02  -0.09    -0.14  -0.06  -0.02     0.00  -0.18   0.20
    11   1     0.05   0.03  -0.10    -0.18  -0.05  -0.01     0.00  -0.21   0.24
    12   6     0.04  -0.01   0.00    -0.05  -0.03   0.01     0.01  -0.06  -0.12
    13   8     0.07   0.01   0.05    -0.04  -0.04   0.00    -0.01  -0.09  -0.18
    14   6     0.00   0.06  -0.15    -0.03  -0.04  -0.07    -0.01  -0.08  -0.08
    15   8    -0.01   0.08  -0.06    -0.03  -0.02  -0.18    -0.06   0.07   0.12
    16   6    -0.02   0.01   0.04     0.01   0.08  -0.20    -0.07   0.06   0.15
    17   6    -0.07  -0.01   0.17     0.02   0.06  -0.07    -0.09   0.07   0.00
    18   8    -0.06  -0.04   0.36     0.01   0.06  -0.02    -0.07   0.10  -0.13
    19   1    -0.08  -0.08   0.32     0.01   0.05  -0.06    -0.09   0.10  -0.08
    20   6    -0.01   0.02   0.05    -0.04   0.09   0.06    -0.12   0.04   0.02
    21   8    -0.02   0.05   0.15    -0.06   0.13   0.19    -0.15   0.03   0.03
    22   1    -0.11   0.03   0.06    -0.11   0.14   0.16    -0.14   0.06   0.07
    23   6    -0.03  -0.04   0.12     0.24   0.05   0.08     0.00   0.06   0.06
    24   8    -0.04  -0.03   0.17     0.38  -0.06   0.13     0.00   0.08   0.04
    25   1    -0.04   0.00   0.18     0.50  -0.12   0.14    -0.14   0.15   0.02
    26   6    -0.03   0.00   0.03     0.04   0.06  -0.18    -0.06   0.06   0.07
    27   8    -0.02  -0.02  -0.09     0.05   0.02  -0.14    -0.06   0.02  -0.09
    28   6    -0.02  -0.05  -0.17     0.00   0.04   0.03    -0.10   0.02  -0.02
    29   8     0.04  -0.05  -0.33    -0.01   0.05   0.06    -0.10   0.00  -0.05
    30   1    -0.05   0.01  -0.37     0.01   0.03   0.07    -0.10  -0.02  -0.06
    31   1     0.00  -0.16  -0.25    -0.06  -0.14  -0.06     0.05  -0.02  -0.13
                    13                     14                     15
                     A                      A                      A
 Frequencies --   177.2086               185.0975               199.9214
 Red. masses --     9.4210                 9.3885                 9.0948
 Frc consts  --     0.1743                 0.1895                 0.2142
 IR Inten    --     2.9744                16.3952                35.8571
 Raman Activ --    49.0908               174.7995               163.5861
 Depolar (P) --     0.5767                 0.3809                 0.4973
 Depolar (U) --     0.7315                 0.5517                 0.6643
  Atom  AN      X      Y      Z        X      Y      Z        X      Y      Z
     1   8     0.02  -0.04  -0.01    -0.04   0.05  -0.05    -0.12  -0.05   0.00
     2   6     0.03  -0.02   0.01    -0.01   0.04  -0.01    -0.12   0.03   0.02
     3   6     0.03  -0.03  -0.01    -0.03   0.07   0.04    -0.14   0.09   0.21
     4   8     0.05  -0.03  -0.03    -0.05   0.00  -0.03    -0.13  -0.01  -0.03
     5   1     0.05  -0.02  -0.04    -0.05   0.02  -0.02    -0.13   0.03  -0.03
     6   6     0.04  -0.04  -0.03    -0.03   0.05   0.01    -0.08   0.06   0.08
     7   8     0.05  -0.03  -0.05     0.10   0.02   0.02     0.11   0.02   0.03
     8   1     0.05  -0.03  -0.06     0.15   0.05   0.04     0.03  -0.01   0.16
     9   6    -0.05  -0.02   0.05     0.07   0.00   0.00     0.11  -0.03  -0.10
    10   8    -0.13  -0.09   0.03     0.20   0.11   0.07     0.22   0.06   0.23
    11   1    -0.18  -0.07   0.03     0.27   0.06   0.09     0.38   0.01   0.17
    12   6     0.03  -0.03   0.03    -0.04   0.04  -0.03    -0.11   0.07  -0.14
    13   8     0.03  -0.04  -0.01    -0.03   0.03  -0.01    -0.19   0.07  -0.21
    14   6     0.02  -0.03  -0.03    -0.06   0.04  -0.09    -0.09   0.00  -0.10
    15   8     0.02   0.02  -0.07    -0.08   0.06   0.11    -0.02  -0.16  -0.16
    16   6     0.01   0.09  -0.11    -0.08  -0.08   0.09     0.01   0.00  -0.04
    17   6    -0.06   0.06   0.11    -0.02  -0.08   0.04     0.05   0.00   0.02
    18   8    -0.10   0.07   0.39     0.02  -0.12   0.05     0.01   0.01   0.05
    19   1    -0.11   0.03   0.34     0.01  -0.14   0.06     0.05   0.04  -0.05
    20   6    -0.01   0.00  -0.13     0.02   0.00   0.01     0.06  -0.04  -0.02
    21   8    -0.03  -0.10  -0.44     0.16  -0.04  -0.17     0.06  -0.04  -0.04
    22   1     0.07  -0.10  -0.36     0.38   0.00   0.06     0.04  -0.07  -0.08
    23   6     0.04   0.10  -0.03     0.02  -0.16   0.07     0.03   0.05  -0.01
    24   8     0.08   0.05   0.00     0.04  -0.21   0.13     0.09   0.02  -0.04
    25   1     0.22  -0.02   0.01     0.07  -0.19   0.13     0.07   0.00  -0.05
    26   6     0.02   0.07  -0.08    -0.10  -0.11  -0.22     0.03   0.02   0.12
    27   8    -0.01   0.04   0.15    -0.04  -0.04  -0.31     0.01  -0.01   0.23
    28   6    -0.02   0.06   0.08    -0.05   0.09   0.10     0.05  -0.03   0.00
    29   8    -0.05   0.02   0.15    -0.07   0.22   0.18     0.08  -0.06  -0.08
    30   1     0.01  -0.02   0.19    -0.04   0.12   0.11     0.06  -0.06  -0.12
    31   1     0.02  -0.07  -0.04    -0.03   0.01  -0.12    -0.17  -0.28  -0.14
                    16                     17                     18
                     A                      A                      A
 Frequencies --   208.1535               227.1106               240.8691
 Red. masses --     7.9213                10.6638                 9.4089
 Frc consts  --     0.2022                 0.3241                 0.3216
 IR Inten    --   110.5948               209.3892                11.4017
 Raman Activ --     1.2045                42.6963                16.5499
 Depolar (P) --     0.7253                 0.7483                 0.6866
 Depolar (U) --     0.8408                 0.8560                 0.8142
  Atom  AN      X      Y      Z        X      Y      Z        X      Y      Z
     1   8    -0.10   0.18   0.08     0.19  -0.05   0.05     0.14  -0.18  -0.04
     2   6    -0.06  -0.02  -0.02     0.06   0.04  -0.12     0.05  -0.01  -0.02
     3   6     0.08  -0.06  -0.12     0.01   0.06  -0.02    -0.01   0.02   0.02
     4   8     0.17   0.09  -0.01     0.00   0.07   0.02     0.07   0.07  -0.01
     5   1     0.14   0.09  -0.08    -0.01   0.02  -0.01     0.05   0.06  -0.06
     6   6     0.05  -0.07   0.00    -0.01   0.13   0.02     0.02  -0.01   0.04
     7   8    -0.06  -0.03  -0.02    -0.17   0.11   0.10     0.02   0.03  -0.04
     8   1    -0.04  -0.03  -0.09    -0.15   0.12   0.06    -0.05  -0.01  -0.02
     9   6     0.16  -0.08  -0.17     0.07  -0.04  -0.33    -0.05   0.09   0.18
    10   8     0.28   0.02  -0.02    -0.16  -0.34   0.34    -0.09   0.08  -0.07
    11   1     0.42   0.03  -0.13    -0.06  -0.26   0.17    -0.20   0.07   0.01
    12   6    -0.05  -0.08   0.10     0.04   0.03  -0.18     0.08   0.04  -0.02
    13   8    -0.03  -0.07   0.19     0.06   0.08   0.09     0.04   0.01  -0.12
    14   6     0.02  -0.06   0.10     0.06   0.17   0.00     0.00  -0.02   0.07
    15   8    -0.04  -0.13  -0.05    -0.01   0.06  -0.12     0.01   0.04   0.05
    16   6    -0.04  -0.01  -0.06     0.00  -0.06  -0.06    -0.09  -0.08  -0.01
    17   6    -0.05   0.01  -0.02    -0.01  -0.04  -0.05    -0.06  -0.09  -0.03
    18   8    -0.06  -0.02   0.03    -0.02  -0.09  -0.01    -0.05  -0.12  -0.04
    19   1    -0.05  -0.03   0.02     0.02  -0.05  -0.03    -0.07  -0.13  -0.01
    20   6    -0.07   0.03  -0.04     0.01   0.01  -0.03    -0.02   0.00  -0.01
    21   8    -0.11   0.04  -0.01     0.03   0.02   0.00     0.08   0.07   0.03
    22   1    -0.16   0.03  -0.06     0.03   0.03   0.01     0.02  -0.03  -0.10
    23   6    -0.09   0.03  -0.11    -0.16  -0.10  -0.10    -0.10  -0.02  -0.06
    24   8     0.22  -0.04   0.07     0.02  -0.08   0.16     0.28  -0.22  -0.11
    25   1     0.01   0.10   0.06    -0.17   0.11   0.17     0.07  -0.22  -0.15
    26   6    -0.07   0.05   0.05    -0.01  -0.01   0.00    -0.14  -0.05   0.22
    27   8    -0.07   0.05   0.05     0.01   0.03  -0.01    -0.18   0.05   0.22
    28   6    -0.07   0.03  -0.05     0.00   0.02  -0.03    -0.07   0.08  -0.03
    29   8    -0.07   0.04  -0.04     0.00   0.03   0.01    -0.04   0.23  -0.09
    30   1    -0.07   0.01  -0.07     0.01  -0.01   0.00    -0.12   0.21  -0.22
    31   1    -0.03   0.40   0.17     0.10  -0.09   0.22     0.04  -0.34  -0.01
                    19                     20                     21
                     A                      A                      A
 Frequencies --   269.4619               275.1880               290.2609
 Red. masses --     6.3982                 5.0028                 8.1805
 Frc consts  --     0.2737                 0.2232                 0.4061
 IR Inten    --     2.6993               121.8178                10.7400
 Raman Activ --     5.3042                42.3319                 8.8492
 Depolar (P) --     0.1658                 0.7187                 0.7332
 Depolar (U) --     0.2845                 0.8363                 0.8461
  Atom  AN      X      Y      Z        X      Y      Z        X      Y      Z
     1   8     0.05  -0.28   0.07    -0.02   0.07   0.02    -0.19   0.04   0.00
     2   6    -0.14  -0.04  -0.08     0.00   0.00  -0.02    -0.04  -0.05   0.16
     3   6    -0.10   0.03   0.04     0.01   0.00  -0.01     0.09  -0.08   0.15
     4   8     0.23   0.33  -0.02     0.03   0.04   0.01     0.27  -0.02  -0.04
     5   1     0.15   0.33  -0.24     0.03   0.05   0.00     0.22   0.10  -0.14
     6   6    -0.03  -0.10   0.02    -0.01   0.00  -0.02     0.04   0.02   0.10
     7   8    -0.10  -0.03  -0.08    -0.04   0.00   0.02    -0.14   0.16  -0.04
     8   1    -0.19  -0.09  -0.11    -0.03   0.01  -0.01    -0.27   0.07  -0.14
     9   6    -0.02   0.03   0.03     0.02  -0.05  -0.08     0.08  -0.09   0.06
    10   8     0.05   0.08   0.05     0.01  -0.11   0.00    -0.02  -0.19  -0.12
    11   1     0.09   0.05   0.06     0.01  -0.08  -0.03    -0.14  -0.13  -0.11
    12   6    -0.06   0.02  -0.06     0.00  -0.03   0.00     0.02  -0.07   0.07
    13   8    -0.01  -0.04   0.05     0.03  -0.01   0.05    -0.11   0.11  -0.13
    14   6    -0.03  -0.03  -0.01    -0.02   0.02  -0.02    -0.02   0.09  -0.08
    15   8    -0.03   0.00   0.01    -0.03   0.07  -0.03     0.00   0.05  -0.03
    16   6     0.01   0.03   0.04    -0.03   0.05  -0.02     0.00   0.00   0.03
    17   6     0.01   0.03   0.02     0.01   0.01   0.05    -0.05  -0.02   0.01
    18   8     0.04   0.02   0.00     0.04   0.03  -0.06    -0.14   0.07  -0.02
    19   1     0.03   0.00   0.00     0.04   0.03  -0.06    -0.10   0.15  -0.03
    20   6     0.01   0.00   0.01    -0.01  -0.03   0.14     0.02   0.00  -0.02
    21   8    -0.02  -0.02  -0.02     0.00  -0.11  -0.03     0.28   0.09   0.04
[...]
 939,0.01040097,-0.01755114,0.00891264,-0.01868242,0.01602134,-0.003396
 54,0.03450159,-0.08004812,-0.04361762,-0.03193628,-0.01552388,-0.01271
 155,-0.01532129,0.00486182,-0.00472175,0.00559143,0.00029588,0.0017579
 1,-0.00552263,-0.00251023,0.00095998,0.00272953,0.00378995,0.00550928,
 -0.00069280,-0.00045969,-0.00069010,-0.00087038,-0.04667966,-0.0321713
 1,-0.01497059,0.00259635,-0.02289781,0.00471796,0.00252837,0.00326517,
 -0.00082412,0.19149835,-0.00015389,-0.00075010,-0.00096340,0.00242483,
 -0.00028922,0.00215591,-0.00648290,0.00243704,-0.00358149,0.00515183,-
 0.00059277,-0.00168214,-0.00041175,0.00036255,0.00078848,0.00141706,-0
 .00380960,0.00480958,0.00039233,0.00136789,0.00110899,-0.00031375,-0.0
 0050670,-0.00097872,0.00021881,0.00595789,-0.00482421,-0.00008712,-0.0
 0330145,0.00457491,-0.00015708,0.00078493,0.00011346,-0.00627507,-0.00
 004677,-0.00211948,0.00887789,-0.00179080,0.00808380,-0.01075719,0.003
 46781,-0.01405908,0.00559353,0.00281923,0.01892326,-0.03035049,-0.0554
 5571,-0.02982081,-0.03891998,-0.02458740,-0.01732081,0.00195438,-0.005
 54839,0.00688981,0.00034819,0.00163122,-0.00414908,-0.00258845,-0.0022
 2117,0.00529490,0.00265740,0.00087007,-0.00011776,-0.00008591,-0.00029
 511,-0.00049646,-0.03081567,-0.06956645,0.01680519,-0.00950384,-0.0429
 1341,-0.02488446,0.00457236,-0.00120053,0.00998431,0.14686753,0.256505
 67,-0.00048309,-0.00167589,-0.00056192,0.00125524,0.00469496,-0.003272
 76,-0.00121883,-0.00041346,-0.00377486,-0.00040897,0.00013453,0.001874
 03,0.00009327,-0.00037465,0.00006820,-0.00000619,-0.00151271,0.0086356
 2,-0.00234376,0.00006674,-0.00273608,0.00009929,-0.00008666,0.00022125
 ,0.00075974,0.00276857,0.00512501,0.00013543,0.00081757,-0.00324902,0.
 00017666,-0.00089884,0.00045016,-0.00147224,-0.00226208,0.00283883,-0.
 00336436,0.00066487,-0.00194864,0.00158474,-0.00230146,-0.00597585,0.0
 0059091,-0.00039992,-0.03842790,-0.01896344,-0.02858419,-0.08459647,-0
 .01812765,-0.01022818,0.02051321,0.00358494,0.00587155,-0.00230378,-0.
 00060869,-0.00072554,0.00000915,-0.00246906,-0.00648985,0.00234484,-0.
 00259390,-0.00509198,-0.00042854,0.00020020,0.00043744,0.00081321,0.00
 120639,0.04450407,-0.05777945,-0.01323317,-0.03173718,-0.00309746,0.00
 419539,-0.00340415,0.00186327,-0.00342550,0.01599363,0.31394182,-0.000
 00038,-0.00065427,0.00033069,-0.00084519,0.00255273,-0.00315609,0.0024
 6527,-0.00145557,-0.00082078,-0.00295150,0.00047751,0.00219325,0.00025
 289,-0.00033156,-0.00037175,0.00004052,0.00102146,0.00263997,-0.001170
 93,-0.00100597,-0.00222426,0.00018584,0.00024745,0.00044130,0.00032821
 ,-0.00214087,0.00586861,0.00012386,0.00282973,-0.00473818,0.00028670,-
 0.00109002,0.00029230,0.00237722,-0.00044748,0.00249540,-0.00514034,0.
 00230935,-0.00419836,0.00450542,-0.00206709,0.00062788,-0.00195995,0.0
 0091205,-0.00299423,0.01095292,0.00089270,0.00060545,-0.00442451,0.000
 51487,0.00464175,-0.00113309,-0.00082402,-0.00582815,-0.00082538,-0.00
 112911,0.00316606,-0.02707917,-0.04082606,-0.00108515,-0.00250528,-0.0
 0587922,-0.00380515,0.00100878,-0.00224395,0.00000151,-0.00197358,0.00
 277305,0.00957955,-0.00014770,-0.00010072,0.00051983,-0.00105008,-0.00
 154759,0.00279149,-0.04314537,-0.02082882,0.03099451,0.15285725,0.0001
 6172,0.00148573,0.00048897,-0.00054489,-0.00308954,0.00245867,0.002276
 81,-0.00107672,0.00424350,-0.00054992,0.00012285,-0.00156348,0.0000029
 7,0.00018489,-0.00020554,-0.00118537,0.00228492,-0.00812251,0.00190259
 ,0.00013340,0.00220966,-0.00006965,0.00011217,0.00014824,-0.00092076,-
 0.00142332,-0.00271583,0.00008945,-0.00071171,0.00193074,-0.00024380,0
 .00058802,-0.00033818,0.00140843,-0.00008836,-0.00208965,0.00006148,-0
 .00233152,-0.00141736,0.00301041,-0.00085034,0.01008885,-0.00495347,0.
 00599547,-0.01307348,0.00557489,0.00314235,-0.00404440,-0.00199806,-0.
 00809306,0.01082942,0.00271093,0.00422034,0.00265277,-0.00072129,0.000
 78618,-0.00064019,-0.02313159,-0.02674585,-0.00674099,-0.00530433,-0.0
 1017681,-0.00093689,0.00007649,0.00185064,0.00199522,-0.01870257,-0.01
 434397,0.02117794,0.00796906,0.00521439,0.01246057,-0.00091645,0.00218
 294,-0.00150967,-0.01838472,-0.06572491,-0.01277056,0.10637827,0.18897
 329,-0.00014941,0.00043198,-0.00077531,0.00102756,-0.00249880,0.003217
 20,-0.00376080,0.00240598,0.00008508,0.00380405,-0.00051424,-0.0022938
 8,-0.00032953,0.00037634,0.00049819,0.00089554,-0.00261254,-0.00213106
 ,0.00087767,0.00138763,0.00195871,-0.00024661,-0.00034228,-0.00060642,
 0.00005056,0.00236253,-0.00685487,-0.00026921,-0.00319590,0.00529712,-
 0.00024591,0.00124263,-0.00028006,-0.00271799,0.00067264,-0.00230288,0
 .00492488,-0.00209374,0.00400862,-0.00370911,-0.00060429,-0.00184635,-
 0.00563528,-0.00151572,0.00093160,0.01495168,-0.00048444,-0.04921720,0
 .00240687,0.00129779,-0.00151985,-0.00063305,0.00230418,0.00483931,0.0
 0113940,0.00109610,-0.00327005,-0.00709310,-0.01047516,0.01307811,-0.0
 0192084,0.00726765,-0.00363185,-0.00114454,-0.00251188,-0.00076512,0.0
 0921742,0.02178230,-0.01712643,-0.00027694,-0.00271570,-0.00269639,0.0
 0153284,0.00114514,-0.00102199,0.00557751,-0.01908859,-0.11389701,-0.0
 6175928,0.00357084,0.26818860,-0.00055086,-0.00012854,-0.00097750,0.00
 079106,0.00020694,0.00076294,-0.00205091,0.00051024,-0.00014869,0.0012
 9274,-0.00010737,-0.00043658,-0.00012899,-0.00007134,0.00019699,0.0006
 7803,-0.00188156,0.00111785,-0.00080152,0.00181632,-0.00016854,0.00000
 923,-0.00034730,0.00009397,0.00030930,0.00098730,-0.00258142,-0.000246
 95,-0.00117593,0.00209951,-0.00004958,0.00049852,-0.00006012,-0.000769
 88,-0.00027227,-0.00013262,0.00038847,-0.00010313,0.00124929,-0.000240
 02,0.00056664,-0.00026365,0.00455983,-0.00300425,-0.00214878,0.0020513
 1,-0.00115649,-0.00596320,0.01409451,0.02405780,0.00258133,-0.00442562
 ,-0.00254761,0.00901118,0.00239731,0.00145581,-0.00028382,-0.06853396,
 -0.01045344,-0.00360492,-0.02801490,-0.02438073,-0.00746222,-0.0005968
 1,0.00320481,0.00346296,0.00224637,0.00205284,0.00214292,0.00090588,0.
 00114754,0.00019131,-0.00021457,0.00033474,-0.00048506,-0.02127053,-0.
 02116889,0.01733356,-0.06762301,-0.05768757,0.01381460,0.24316294,0.00
 001561,-0.00181179,-0.00005259,0.00057332,0.00434611,-0.00377338,-0.00
 134336,0.00074986,-0.00537931,-0.00026710,-0.00005488,0.00223620,0.000
 11754,-0.00029507,0.00011273,0.00010730,-0.00139829,0.00973121,-0.0020
 1495,-0.00122792,-0.00259000,0.00012187,0.00003994,-0.00022568,0.00094
 601,0.00169021,0.00558102,0.00015501,0.00146450,-0.00400933,0.00026655
 ,-0.00108576,0.00045702,-0.00142608,-0.00044168,0.00311516,-0.00162874
 ,0.00195029,-0.00005158,-0.00119215,0.00016155,-0.00975651,0.00244992,
 -0.00504380,0.00403587,0.01007749,-0.00143594,0.00296419,0.00682042,0.
 01130374,-0.02932227,-0.00464176,-0.00310637,-0.00387967,0.00030637,-0
 .00081756,0.00130743,-0.02283120,-0.07849790,0.00628594,-0.02261069,0.
 01040704,-0.02204482,-0.00228306,-0.00648883,-0.00117772,0.01094987,-0
 .00490044,0.00856866,-0.00677451,-0.00064301,-0.00883365,-0.00014060,-
 0.00031233,-0.00127802,-0.03010821,0.00509575,0.03581432,-0.01983817,-
 0.07996009,-0.03655872,0.09802413,0.21056979,0.00013613,-0.00048974,0.
 00057536,-0.00084939,0.00201315,-0.00257079,0.00235578,-0.00142536,-0.
 00043665,-0.00271980,0.00034632,0.00192834,0.00024492,-0.00029042,-0.0
 0034638,-0.00023265,0.00093417,0.00211934,-0.00095696,-0.00049817,-0.0
 0143810,0.00017568,0.00020633,0.00038029,0.00024176,-0.00174854,0.0039
 5893,0.00012759,0.00221025,-0.00301499,0.00015500,-0.00084889,0.000165
 17,0.00178380,-0.00036889,0.00158921,-0.00401116,0.00146380,-0.0020764
 3,0.00246638,-0.00004962,0.00139242,0.00624143,-0.00247832,-0.00143966
 ,-0.00418828,0.00046155,0.00089875,-0.00813250,0.00457829,-0.04298185,
 0.00152746,-0.00033686,0.00145487,0.00186652,-0.00127308,0.00059387,-0
 .02761118,-0.03311456,-0.10165443,0.00901435,0.00643496,0.01067273,0.0
 0175009,0.00431108,-0.00083015,-0.00008711,0.00235796,-0.00237810,-0.0
 0033917,-0.00250708,-0.00051496,0.00079053,-0.00005582,0.00093171,0.02
 555381,0.02591585,-0.03814576,-0.00425890,-0.03368482,-0.05682933,-0.0
 2452978,0.07627613,0.39388524,0.00037277,0.00007015,0.00064366,-0.0005
 0032,-0.00008299,-0.00046333,0.00120061,-0.00026673,0.00002511,-0.0007
 9517,0.00005126,0.00030373,0.00008509,0.00003165,-0.00011946,-0.000446
 76,0.00095282,-0.00060880,0.00046166,-0.00091347,0.00025447,-0.0000021
 1,0.00019922,-0.00009588,-0.00024343,-0.00074082,0.00161532,0.00021518
 ,0.00085278,-0.00129452,0.00002104,-0.00033254,0.00004752,0.00047735,0
 .00023039,0.00002532,-0.00033229,-0.00005278,-0.00057644,0.00005220,-0
 .00017746,0.00005820,-0.00201988,0.00118534,0.00064333,-0.00197461,-0.
 00139205,0.00004896,-0.00479114,-0.00512846,-0.00300005,0.00178142,0.0
 0090114,-0.00251658,-0.00053003,-0.00077944,0.00024690,0.01149527,-0.0
 0926178,-0.01705084,0.00229026,0.00833958,-0.00295285,-0.00039564,-0.0
 0127954,-0.00064338,0.00283440,-0.00198525,0.00263090,-0.00198596,0.00
 010664,-0.00124545,-0.00031460,0.00013603,-0.00056242,-0.00008991,-0.0
 0152993,0.00614192,-0.01250207,0.00377925,0.02928172,-0.09106749,-0.01
 939478,0.00551393,0.41804603,-0.00023863,0.00048592,-0.00037996,0.0000
 8344,-0.00112020,0.00123628,-0.00020933,-0.00013679,0.00155603,0.00040
 980,0.00001529,-0.00075059,-0.00007098,0.00003834,0.00001791,0.0002158
 1,-0.00014433,-0.00245418,0.00022134,0.00097917,0.00055739,-0.00001936
 ,-0.00013801,0.00013778,-0.00016238,-0.00025832,-0.00214023,-0.0001519
 0,-0.00069875,0.00156524,-0.00006280,0.00043583,-0.00013058,0.00039169
 ,-0.00000319,-0.00075706,0.00024883,-0.00024772,-0.00014401,0.00088982
 ,-0.00022074,0.00356947,0.00088983,0.00024765,-0.00301792,-0.00255421,
 0.00323719,-0.00129224,-0.00296482,-0.00080858,0.00426649,0.00101960,0
 .00098225,0.00085442,-0.00000040,0.00028622,-0.00029289,0.00586785,0.0
 0216034,-0.01473095,-0.00006062,-0.00477464,0.00366546,0.00068516,0.00
 114912,0.00035365,-0.00259722,0.00060598,-0.00364807,0.00270064,0.0015
 1041,0.00396751,-0.00008954,0.00008990,0.00021855,0.00346236,-0.002818
 72,-0.00547904,-0.02076211,-0.00486918,0.03954726,-0.00457234,-0.05026
 852,-0.03700419,0.08446795,0.06160231,-0.00052996,0.00033238,-0.001055
 00,0.00077305,-0.00115155,0.00191828,-0.00216329,0.00078767,0.00085186
 ,0.00194972,-0.00017791,-0.00131510,-0.00020675,0.00008903,0.00025099,
 0.00067331,-0.00154078,-0.00119743,-0.00007128,0.00163949,0.00053596,-
 0.00007292,-0.00033075,0.00001155,0.00007983,0.00106591,-0.00381846,-0
 .00036134,-0.00186001,0.00290608,-0.00008361,0.00081881,-0.00016553,-0
 .00070079,-0.00001254,-0.00085441,0.00174930,-0.00018882,0.00085177,-0
 .00055849,-0.00022005,0.00098992,0.00022696,0.00038280,-0.00155709,0.0
 0109878,0.00338780,-0.00040308,-0.00541130,-0.00556914,0.00366634,0.00
 165974,0.00080639,-0.00167562,-0.00059026,0.00005437,-0.00056240,0.014
 65871,-0.00597160,-0.03836907,-0.00228226,-0.00335299,0.00421932,0.000
 67762,0.00060555,0.00025871,-0.00190942,-0.00168472,-0.00252728,0.0022
 1024,0.00151661,0.00251760,0.00002775,-0.00003344,-0.00016238,0.000818
 40,0.00196789,0.00125163,0.02956564,0.01308294,-0.03800598,0.01984436,
 -0.01686443,-0.13825276,0.20928905,0.07211681,0.44943067,0.00002104,-0
 .00004513,0.00004187,-0.00001145,0.00011655,-0.00013068,0.00005727,-0.
 00001020,-0.00014191,-0.00007336,0.00000485,0.00008674,0.00001049,-0.0
 0000704,-0.00000607,-0.00003366,0.00004372,0.00022661,-0.00002673,-0.0
 0010195,-0.00006539,0.00000845,0.00001335,-0.00000500,0.00001664,0.000
 01806,0.00020481,0.00001217,0.00007437,-0.00015037,0.00000896,-0.00004
 577,0.00001347,-0.00003340,-0.00000951,0.00008009,-0.00005393,0.000008
 61,0.00002633,-0.00004826,0.00003762,-0.00028106,0.00003229,-0.0000836
 5,0.00027498,0.00018853,-0.00037736,-0.00002542,0.00097886,0.00048575,
 -0.00023141,-0.00027703,-0.00003164,0.00035561,0.00005526,0.00005744,0
 .00001666,-0.00174505,-0.00036924,0.00385630,0.00026631,0.00028676,-0.
 00044198,-0.00003364,0.00002052,-0.00005271,0.00018764,0.00039161,0.00
 046055,-0.00027740,-0.00025179,-0.00056676,-0.00002255,-0.00007117,0.0
 0014310,-0.00074311,-0.00015240,0.00047317,-0.00076134,-0.00019192,0.0
 0024609,0.01365529,0.00571915,0.01810136,-0.32130895,-0.06709539,-0.27
 046056,0.30995537,0.00005509,-0.00006888,0.00007150,0.00000987,0.00009
 896,-0.00012404,-0.00003548,0.00007803,-0.00027527,0.00002620,-0.00002
 103,0.00006125,0.00000483,0.00001150,0.00001140,-0.00005702,0.00003853
 ,0.00035560,0.00003477,-0.00022163,-0.00002951,-0.00000526,0.00003289,
 -0.00004185,0.00001628,0.00014616,0.00017631,0.00002631,0.00002415,-0.
 00009632,0.00000450,-0.00003650,0.00001245,-0.00014394,0.00001867,0.00
 006063,0.00011465,-0.00003362,0.00014181,-0.00031091,0.00007167,-0.000
 75078,-0.00028355,0.00004116,0.00074948,0.00023960,-0.00096375,-0.0001
 3267,-0.00125306,0.00114214,-0.00190845,0.00002889,-0.00025763,-0.0003
 1937,0.00011731,-0.00021204,-0.00003108,0.00280602,0.00029015,0.001792
 79,0.00042472,0.00154768,-0.00072513,-0.00006502,-0.00035178,-0.000183
 61,0.00073656,0.00067574,0.00143316,-0.00070026,-0.00052874,-0.0015149
 6,-0.00009035,-0.00001619,0.00008989,-0.00187996,0.00000288,0.00278031
 ,0.00238392,0.00215984,-0.00182740,-0.00577165,-0.00992000,-0.01121009
 ,-0.05799450,-0.00732330,-0.05973636,0.06156839,0.01356705,0.00015021,
 -0.00001108,0.00029283,-0.00025868,0.00012944,-0.00038397,0.00066983,-
 0.00022660,-0.00001490,-0.00053489,0.00005272,0.00027166,0.00005388,-0
 .00001120,-0.00007689,-0.00018869,0.00043151,-0.00009204,0.00009456,-0
 .00038014,-0.00002236,0.00001585,0.00009083,-0.00000357,-0.00005838,-0
 .00039463,0.00088862,0.00007935,0.00046464,-0.00069947,0.00001875,-0.0
 0018690,0.00002391,0.00030090,0.00004255,0.00013170,-0.00041739,0.0000
 6669,-0.00036521,0.00021327,-0.00005179,0.00017496,-0.00037624,0.00031
 954,0.00008978,-0.00082029,-0.00046188,0.00039948,-0.00094243,-0.00126
 164,-0.00131297,0.00039682,0.00028516,-0.00056131,-0.00016123,-0.00022
 491,0.00016120,0.00365885,-0.00103991,-0.00241293,0.00034563,0.0015379
 8,-0.00016947,-0.00016109,-0.00032858,-0.00001209,0.00086019,-0.000783
 99,0.00050835,-0.00061882,-0.00001770,-0.00019422,-0.00003605,0.000082
 60,-0.00015826,0.00137754,0.00026751,0.00026905,-0.00124730,0.00252760
 ,0.00260429,-0.02484571,-0.01058580,-0.02735055,-0.22550858,-0.0615037
 5,-0.24001226,0.24796231,0.07117913,0.26810023,-0.21114878,-0.04150747
 ,0.25896422,0.01444120,0.00741886,-0.02537145,0.00119679,-0.00352625,-
 0.00166861,-0.00154357,0.00178903,0.00172911,-0.00104576,-0.00285122,-
 0.00028061,-0.00082998,0.00049902,0.00024046,0.00009083,0.00017460,0.0
 0021394,0.00002593,-0.00007373,-0.00006089,0.00001339,-0.00070515,0.00
 031341,-0.00015857,0.00008233,0.00005113,0.00005033,0.00003170,0.00000
 882,-0.00226704,-0.00056783,-0.00130133,0.00045296,-0.00008809,-0.0019
 6327,0.00012735,0.00058396,0.00010294,-0.00005807,-0.00017876,-0.00007
 024,-0.00007842,-0.00005989,0.00015309,0.00010786,0.00013386,0.0000050
 7,-0.00005163,-0.00007512,-0.00027270,-0.00005396,-0.00009439,0.000212
 62,0.00007679,0.00012375,0.00005842,-0.00008167,-0.00007904,0.00000929
 ,0.00002280,0.00000845,0.00000630,-0.00004740,-0.00014533,-0.00015674,
 0.00006194,0.00007700,0.00012323,-0.00001516,-0.00001165,-0.00000562,0
 .00016941,0.00010699,-0.00010650,-0.00014601,0.00010360,0.00014320,0.0
 0004335,-0.00015521,-0.00012963,-0.00003287,0.00005794,0.00009979,-0.0
 0000469,-0.00000692,-0.00002218,0.20068263,-0.03917157,-0.00108078,0.0
 5461989,0.00194325,-0.00392210,0.01517974,0.00295033,-0.00574597,-0.00
 268864,-0.00280940,0.00194248,0.00196892,-0.00281843,-0.00101810,-0.00
 044789,0.00048785,0.00081475,0.00061756,-0.00047267,-0.00004688,-0.000
 23026,0.00000668,0.00003844,-0.00012156,-0.00029388,-0.00072067,-0.000
 00972,-0.00042330,0.00008118,-0.00013591,0.00022486,-0.00000548,0.0001
 2903,0.00254722,0.00332109,-0.00079218,-0.00046077,-0.00077516,0.00114
 664,-0.00045920,-0.00019278,-0.00034193,-0.00006189,0.00009947,-0.0003
 3627,-0.00020020,-0.00006325,0.00027481,0.00009510,0.00014132,-0.00013
 502,-0.00009913,-0.00012553,-0.00005236,0.00002712,0.00007010,-0.00003
 050,0.00003246,0.00007436,0.00013621,-0.00004299,-0.00005636,-0.000006
 09,0.00000840,0.00001152,0.00000749,0.00000643,-0.00014023,-0.00011739
 ,0.00002794,0.00005362,0.00009133,-0.00001518,-0.00000435,-0.00000415,
 0.00018402,0.00011627,-0.00011220,-0.00012048,0.00004795,0.00014839,-0
 .00003322,-0.00006859,-0.00012541,0.00000832,0.00000509,0.00004064,-0.
 00000258,0.00000789,-0.00000741,0.03893495,0.00714071,0.21592163,0.064
 41265,-0.35124898,0.02000143,0.00783322,-0.02531562,0.00087115,-0.0039
 2192,-0.00101191,-0.00038739,0.00062987,0.00076601,-0.00108431,-0.0011
 8197,0.00167955,-0.00001738,0.00078692,-0.00078642,0.00001174,0.000408
 21,0.00075973,-0.00002618,-0.00013050,-0.00000769,0.00070241,0.0011492
 0,-0.00079829,-0.00002017,-0.00042801,0.00021198,-0.00007097,0.0000961
 9,0.00003359,-0.00497944,-0.00255085,-0.00180092,0.00059348,0.00124869
 ,-0.00104000,-0.00054453,0.00046471,0.00058034,0.00005595,-0.00015244,
 -0.00019144,-0.00030967,-0.00007951,-0.00003788,0.00023823,0.00029147,
 0.00005017,-0.00011025,-0.00017309,-0.00034175,-0.00007893,-0.00006562
 ,0.00024973,0.00017648,0.00023653,0.00002221,-0.00023577,-0.00025891,0
 .00004766,0.00005768,0.00004012,0.00002188,-0.00028411,-0.00065841,-0.
 00039166,0.00024603,0.00031026,0.00042502,-0.00005980,-0.00002182,-0.0
 0004622,0.00057789,0.00040900,-0.00002378,-0.00026759,-0.00001240,0.00
 036519,0.00018985,-0.00010237,-0.00028535,-0.00013147,0.00009542,0.000
 27318,-0.00001074,-0.00000886,-0.00007359,-0.23102527,-0.06866578,0.37
 791527\\-0.01036383,0.04767514,-0.00662330,0.09920382,-0.10536521,-0.0
 2506972,-0.09563668,0.09869862,-0.02626995,0.02288703,-0.03358795,0.03
 526153,-0.00882727,-0.00009618,-0.02542237,0.11077104,-0.04934338,-0.0
 3824617,-0.05244067,-0.03192428,0.00047409,0.01203978,0.02442311,-0.00
 876273,0.03953337,0.02043546,-0.00182724,-0.02842415,-0.03800953,0.027
 70161,0.00147441,-0.03195442,-0.00302218,-0.04182881,0.11792953,0.0268
 5382,0.02271329,-0.04830386,0.01406827,-0.06757901,0.07459215,-0.00121
 329,0.02044030,-0.04712501,-0.01095487,-0.07153897,0.08076072,-0.05211
 304,0.09301230,-0.03924621,0.11075610,-0.02176406,-0.00804558,-0.05446
 174,0.00912409,0.00514512,-0.00933126,-0.04959216,0.07425315,-0.047400
 91,-0.01371819,-0.03225810,0.02334576,-0.02996962,-0.00646552,-0.00690
 356,-0.05691738,-0.01842032,-0.04978605,0.01034224,0.03158769,0.034425
 94,0.02719792,0.00429419,0.00015973,0.05612090,-0.10496935,0.03311802,
 -0.04236327,0.06227308,0.00631737,0.09428747,-0.07517775,0.00535898,-0
 .01393230,0.03095428,0.04646296,-0.00913010,-0.00315698,-0.00409690,-0
 .00512148,0.00042739,0.00720108\\\@


 I WOULD TAKE COUNSEL OF MYSELF.
 I WOULD STOP AND LOOK WITHIN
 AND LOOKING WITHIN, LOOK BACK, ALSO
 THAT I MAY LOOK AHEAD WITH CLEARER UNDERSTANDING
 OF THE WAY I HAVE BEEN MOVING, AND IN WHAT DIRECTION.
 I NEED TO KNOW IF I AM GOING FORWARD OR RETREATING,
 WHETHER I HAVE BEEN WASTING, OR ENJOYING
 THE PRECIOUS MOMENTS OF LIFE.  THERE HAVE BEEN FRICTIONS,
 ANNOYANCES AND SOMETIMES WRATH,
 BUT WERE THEY BECAUSE I WAS RIGHT AND OTHERS WRONG.....
 HAVE I HAD MY THOUGHTS TOO SHARPLY FOCUSED
 ON THAT WHICH PLEASED ME, SERVED MY SELF-ESTEEM,
 UNDERGIRDED MY SECURITY,
 OF WHICH I DID NOT INQUIRE WHETHER IT SERVED OR HAMPERED OTHERS.....
 HAVE I BEEN TRYING TO STOP THE CLOCK
 TO HOLD THE WORLD
 IN PERPETUATION OF WHAT WAS AN IS ALREADY SLIPPING AWAY.....
 HAVE I BEEN CRITICAL OF OTHERS FOR WHAT REALLY NEEDED CHANGING IN ME...
 LET ME INDEED TAKE COUNSEL OF MYSELF
 AND SET MY DIRECTIONS STRAIGHT.

                          R.T. WESTON AS ADAPTED BY D. OSBORN 1967
 Job cpu time:  0 days  7 hours  1 minutes 23.6 seconds.
 File lengths (MBytes):  RWF=    792 Int=      0 D2E=      0 Chk=     14 Scr=      1
 Normal termination of Gaussian 09 at Mon Oct 19 00:30:54 2015.
Gaussian '09 finished on node031 at Mon Oct 19 00:30:55 EDT 2015.
