Gaussian '09 started on node013 at Thu Jan 21 04:59:24 EST 2016.
 Entering Gaussian System, Link 0=/usr/local/gaussian/g09/g09
 Initial command:
 /usr/local/gaussian/g09/l1.exe /home/srmcgrat/thesis/gaussian/cellobiose/400/9000/gaussian21853/Gau-21889.inp -scrdir=/home/srmcgrat/thesis/gaussian/cellobiose/400/9000/gaussian21853/
 Entering Link 1 = /usr/local/gaussian/g09/l1.exe PID=     21891.
  
 Copyright (c) 1988,1990,1992,1993,1995,1998,2003,2009,2010,
            Gaussian, Inc.  All Rights Reserved.
  
 This is part of the Gaussian(R) 09 program.  It is based on
 the Gaussian(R) 03 system (copyright 2003, Gaussian, Inc.),
 the Gaussian(R) 98 system (copyright 1998, Gaussian, Inc.),
 the Gaussian(R) 94 system (copyright 1995, Gaussian, Inc.),
 the Gaussian 92(TM) system (copyright 1992, Gaussian, Inc.),
 the Gaussian 90(TM) system (copyright 1990, Gaussian, Inc.),
 the Gaussian 88(TM) system (copyright 1988, Gaussian, Inc.),
 the Gaussian 86(TM) system (copyright 1986, Carnegie Mellon
 University), and the Gaussian 82(TM) system (copyright 1983,
 Carnegie Mellon University). Gaussian is a federally registered
 trademark of Gaussian, Inc.
  
 This software contains proprietary and confidential information,
 including trade secrets, belonging to Gaussian, Inc.
  
 This software is provided under written license and may be
 used, copied, transmitted, or stored only in accord with that
 written license.
  
 The following legend is applicable only to US Government
 contracts under FAR:
  
                    RESTRICTED RIGHTS LEGEND
  
 Use, reproduction and disclosure by the US Government is
 subject to restrictions as set forth in subparagraphs (a)
 and (c) of the Commercial Computer Software - Restricted
 Rights clause in FAR 52.227-19.
  
 Gaussian, Inc.
 340 Quinnipiac St., Bldg. 40, Wallingford CT 06492
  
  
 ---------------------------------------------------------------
 Warning -- This program may not be used in any manner that
 competes with the business of Gaussian, Inc. or will provide
 assistance to any competitor of Gaussian, Inc.  The licensee
 of this program is prohibited from giving any competitor of
 Gaussian, Inc. access to this program.  By using this program,
 the user acknowledges that Gaussian, Inc. is engaged in the
 business of creating and licensing software in the field of
 computational chemistry and represents and warrants to the
 licensee that it is not a competitor of Gaussian, Inc. and that
 it will not use this program in any manner prohibited above.
 ---------------------------------------------------------------
  

 Cite this work as:
 Gaussian 09, Revision B.01,
 M. J. Frisch, G. W. Trucks, H. B. Schlegel, G. E. Scuseria, 
 M. A. Robb, J. R. Cheeseman, G. Scalmani, V. Barone, B. Mennucci, 
 G. A. Petersson, H. Nakatsuji, M. Caricato, X. Li, H. P. Hratchian, 
 A. F. Izmaylov, J. Bloino, G. Zheng, J. L. Sonnenberg, M. Hada, 
 M. Ehara, K. Toyota, R. Fukuda, J. Hasegawa, M. Ishida, T. Nakajima, 
 Y. Honda, O. Kitao, H. Nakai, T. Vreven, J. A. Montgomery, Jr., 
 J. E. Peralta, F. Ogliaro, M. Bearpark, J. J. Heyd, E. Brothers, 
 K. N. Kudin, V. N. Staroverov, T. Keith, R. Kobayashi, J. Normand, 
 K. Raghavachari, A. Rendell, J. C. Burant, S. S. Iyengar, J. Tomasi, 
 M. Cossi, N. Rega, J. M. Millam, M. Klene, J. E. Knox, J. B. Cross, 
 V. Bakken, C. Adamo, J. Jaramillo, R. Gomperts, R. E. Stratmann, 
 O. Yazyev, A. J. Austin, R. Cammi, C. Pomelli, J. W. Ochterski, 
 R. L. Martin, K. Morokuma, V. G. Zakrzewski, G. A. Voth, 
 P. Salvador, J. J. Dannenberg, S. Dapprich, A. D. Daniels, 
 O. Farkas, J. B. Foresman, J. V. Ortiz, J. Cioslowski, 
 and D. J. Fox, Gaussian, Inc., Wallingford CT, 2010.
 
 ******************************************
 Gaussian 09:  EM64L-G09RevB.01 12-Aug-2010
                21-Jan-2016 
 ******************************************
 ------------------------------------------------
 # freq=raman b3lyp/6-31+g(d,p) geom=connectivity
 ------------------------------------------------
 1/10=4,30=1,38=1,57=2/1,3;
 2/12=2,17=6,18=5,40=1/2;
 3/5=1,6=6,7=111,11=2,16=1,25=1,30=1,71=2,74=-5/1,2,3;
 4//1;
 5/5=2,38=5,98=1/2;
 8/6=4,10=90,11=11/1;
 10/13=10,15=4/2;
 11/6=3,8=1,9=11,15=111,16=1/1,2,10;
 10/6=1/2;
 6/7=2,8=2,9=2,10=2,18=1,28=1/1;
 7/8=1,10=1,25=1/1,2,3,16;
 1/10=4,30=1/3;
 99//99;
 ------------
 400 9000.com
 ------------
 Symbolic Z-matrix:
 Charge =  0 Multiplicity = 1
 O                     10.077    7.258     11.792 
 C                     10.558    7.546     13.113 
 C                     10.278    8.979     13.537 
 O                     11.097    9.916     12.823 
 H                     11.215    9.53      11.908 
 C                     10.569    9.286     14.997 
 O                     10.107    10.578    15.415 
 H                     10.408    10.572    16.369 
 C                     10.163    5.176     13.914 
 O                     9.966     4.544     12.641 
 H                     9.765     3.577     12.794 
 C                     9.918     6.655     14.165 
 O                     10.34     6.909     15.513 
 C                     9.993     8.237     15.933 
 O                     10.851    8.322     17.081 
 C                     10.385    8.223     18.434 
 C                     10.738    6.806     18.857 
 O                     10.576    5.707     17.949 
 H                     10.672    6.004     16.999 
 C                     10.091    6.55      20.209 
 O                     10.521    5.296     20.758 
 H                     10.027    5.068     21.597 
 C                     10.665    10.671    19.044 
 O                     10.897    11.301    17.776 
 H                     10.976    12.297    17.817 
 C                     11.       9.23      19.392 
 O                     10.438    8.991     20.691 
 C                     10.478    7.645     21.189 
 O                     9.762     7.75      22.428 
 H                     10.38667   7.81156   23.15436 
 H                     11.49763   7.45212   21.44987 
 H                     9.02721   6.53878   20.09447 
 H                     11.78953   6.83658   19.05259 
 H                     9.32106   8.33611   18.44559 
 H                     12.0616   9.10037   19.42528 
 H                     11.17682   11.27203   19.76629 
 H                     9.61858   10.78215   19.23779 
 H                     10.82248   7.12916   11.20102 
 H                     9.54793   4.64648   14.61128 
 H                     11.17994   4.9885    14.18892 
 H                     8.8615    6.81895   14.12228 
 H                     11.61595   7.38684   13.13053 
 H                     9.25005   9.19971   13.33824 
 H                     11.63204   9.273     15.11814 
 H                     8.95622   8.36849   16.16254 
 

 GradGradGradGradGradGradGradGradGradGradGradGradGradGradGradGradGradGrad
 Berny optimization.
 Initialization pass.
 Trust Radius=3.00D-01 FncErr=1.00D-07 GrdErr=1.00D-07
 Number of steps in this run=      2 maximum allowed number of steps=      2.
 GradGradGradGradGradGradGradGradGradGradGradGradGradGradGradGradGradGrad

                          Input orientation:                          
 ---------------------------------------------------------------------
 Center     Atomic      Atomic             Coordinates (Angstroms)
 Number     Number       Type             X           Y           Z
 ---------------------------------------------------------------------
      1          8           0       10.077000    7.258000   11.792000
      2          6           0       10.558000    7.546000   13.113000
      3          6           0       10.278000    8.979000   13.537000
      4          8           0       11.097000    9.916000   12.823000
      5          1           0       11.215000    9.530000   11.908000
      6          6           0       10.569000    9.286000   14.997000
      7          8           0       10.107000   10.578000   15.415000
      8          1           0       10.408000   10.572000   16.369000
      9          6           0       10.163000    5.176000   13.914000
     10          8           0        9.966000    4.544000   12.641000
     11          1           0        9.765000    3.577000   12.794000
     12          6           0        9.918000    6.655000   14.165000
     13          8           0       10.340000    6.909000   15.513000
     14          6           0        9.993000    8.237000   15.933000
     15          8           0       10.851000    8.322000   17.081000
     16          6           0       10.385000    8.223000   18.434000
     17          6           0       10.738000    6.806000   18.857000
     18          8           0       10.576000    5.707000   17.949000
     19          1           0       10.672000    6.004000   16.999000
     20          6           0       10.091000    6.550000   20.209000
     21          8           0       10.521000    5.296000   20.758000
     22          1           0       10.027000    5.068000   21.597000
     23          6           0       10.665000   10.671000   19.044000
     24          8           0       10.897000   11.301000   17.776000
     25          1           0       10.976000   12.297000   17.817000
     26          6           0       11.000000    9.230000   19.392000
     27          8           0       10.438000    8.991000   20.691000
     28          6           0       10.478000    7.645000   21.189000
     29          8           0        9.762000    7.750000   22.428000
     30          1           0       10.386674    7.811556   23.154357
     31          1           0       11.497629    7.452121   21.449871
     32          1           0        9.027206    6.538780   20.094475
     33          1           0       11.789528    6.836580   19.052587
     34          1           0        9.321059    8.336114   18.445591
     35          1           0       12.061597    9.100369   19.425277
     36          1           0       11.176817   11.272034   19.766290
     37          1           0        9.618581   10.782147   19.237788
     38          1           0       10.822482    7.129157   11.201021
     39          1           0        9.547934    4.646480   14.611282
     40          1           0       11.179938    4.988504   14.188923
     41          1           0        8.861498    6.818949   14.122283
     42          1           0       11.615951    7.386836   13.130530
     43          1           0        9.250049    9.199709   13.338242
     44          1           0       11.632041    9.272996   15.118135
     45          1           0        8.956215    8.368491   16.162537
 ---------------------------------------------------------------------
                    Distance matrix (angstroms):
                    1          2          3          4          5
     1  O    0.000000
     2  C    1.435042   0.000000
     3  C    2.459119   1.520416   0.000000
     4  O    3.027924   2.447758   1.434756   0.000000
     5  H    2.543715   2.412453   1.958369   1.000072   0.000000
     6  C    3.824510   2.564601   1.520043   2.324212   3.165245
     7  O    4.914207   3.833488   2.472433   2.852509   3.824267
     8  H    5.660485   4.447551   3.251888   3.671399   4.651616
     9  C    2.974055   2.532691   3.823371   4.952801   4.907958
    10  O    2.845860   3.096006   4.535348   5.492783   5.192060
    11  H    3.827677   4.059996   5.476935   6.477498   6.190776
    12  C    2.453573   1.519929   2.434124   3.718215   3.878387
    13  O    3.746573   2.492648   2.862398   4.105021   4.542168
    14  C    4.255981   2.957889   2.524402   3.702696   4.400654
    15  O    5.450201   4.053770   3.649646   4.553231   5.324630
    16  C    6.718798   5.366684   4.956167   5.903941   6.707147
    17  C    7.110236   5.794268   5.765061   6.797804   7.479058
    18  O    6.368929   5.173890   5.500957   6.653044   7.177557
    19  H    5.388821   4.182315   4.581627   5.737887   6.216575
    20  C    8.446736   7.180760   7.102858   8.178936   8.891028
    21  O    9.188892   7.969310   8.109647   9.200022   9.835186
    22  H   10.046722   8.854417   8.962283  10.081224  10.733010
    23  C    8.036530   6.704762   5.774052   6.281520   7.247543
    24  O    7.268184   5.996542   4.872778   5.146886   6.137670
    25  H    7.905716   6.698831   5.460286   5.533881   6.529142
    26  C    7.905739   6.515908   5.904685   6.605435   7.493096
    27  O    9.073357   7.715472   7.155799   7.949549   8.833761
    28  C    9.413510   8.077003   7.769985   8.690832   9.499124
    29  O   10.652032   9.351174   8.990360   9.936287  10.768009
    30  H   11.380047  10.046328   9.688565  10.567411  11.407003
    31  H    9.763726   8.390181   8.150606   8.980763   9.769584
    32  H    8.399430   7.217951   7.107717   8.280339   8.986223
    33  H    7.471711   6.107260   6.107076   6.983565   7.657004
    34  H    6.782628   5.530898   5.042153   6.104387   6.910316
    35  H    8.099374   6.672459   6.153678   6.722035   7.576989
    36  H    8.995074   7.650655   6.698502   7.074918   8.049152
    37  H    8.250425   6.990578   6.015410   6.639687   7.605407
    38  H    0.960000   1.974683   3.029056   3.236151   2.533365
    39  H    3.879214   3.416475   4.523031   5.776279   5.825428
    40  H    3.480276   2.843449   4.142772   5.113985   5.082227
    41  H    2.664663   2.103657   2.648557   4.034517   4.218035
    42  H    2.043681   1.070000   2.119036   2.600107   2.499699
    43  H    2.616285   2.120430   1.070000   2.046894   2.452696
    44  H    4.188262   2.855984   2.102344   2.442820   3.247298
    45  H    4.646605   3.541452   3.002213   4.257963   4.955027
                    6          7          8          9         10
     6  C    0.000000
     7  O    1.434375   0.000000
     8  H    1.887353   1.000376   0.000000
     9  C    4.269640   5.606937   5.933285   0.000000
    10  O    5.329250   6.642598   7.101418   1.434839   0.000000
    11  H    6.171896   7.483355   7.881884   1.992387   0.999449
    12  C    2.835169   4.121668   4.521129   1.520022   2.604074
    13  O    2.443118   3.677697   3.762304   2.364618   3.739182
    14  C    1.519300   2.400334   2.411337   3.670829   4.947347
    15  O    2.313412   2.901487   2.401186   4.516697   5.896618
    16  C    3.602332   3.838967   3.127708   5.455629   6.875278
    17  C    4.591139   5.145241   4.525682   5.236485   6.659676
    18  O    4.639353   5.510695   5.117895   4.090691   5.468047
    19  H    3.845795   4.873372   4.618790   3.234485   4.649968
    20  C    5.905855   6.261587   5.569791   6.443608   7.830344
    21  O    7.007962   7.524531   6.863838   6.854407   8.170631
    22  H    7.851451   8.281523   7.600734   7.684963   8.971523
    23  C    4.278510   3.672826   2.689140   7.534184   8.889721
    24  O    3.448282   2.592518   1.658376   7.278010   8.537683
    25  H    4.145379   3.078916   2.322704   8.161067   9.376571
    26  C    4.416438   4.293144   3.360053   6.866147   8.282738
    27  O    5.703141   5.519448   4.602189   7.781875   9.208751
    28  C    6.406405   6.486849   5.639559   7.689006   9.107505
    29  O    7.630878   7.569596   6.715094   8.903621  10.300749
    30  H    8.291544   8.223690   7.325406   9.611471  11.017466
    31  H    6.772371   6.937192   6.061038   7.984442   9.402088
    32  H    5.992378   6.275248   5.661503   6.430044   7.772694
    33  H    4.892559   5.482806   4.802460   5.639875   7.049086
    34  H    3.788459   3.850745   3.239268   5.588425   6.963429
    35  H    4.676744   4.699592   3.773713   7.027056   8.436731
    36  H    5.201913   4.534304   3.552844   8.511095   9.874324
    37  H    4.596307   3.859267   2.982833   7.750354   9.085857
    38  H    4.373292   5.492181   6.223582   3.407344   3.080606
    39  H    4.766183   6.011776   6.240278   1.070000   2.016753
    40  H    4.415281   5.822107   6.043514   1.070000   2.016753
    41  H    3.125226   4.165676   4.639483   2.106316   2.930787
    42  H    2.861230   4.204671   4.700223   2.759110   3.323206
    43  H    2.120980   2.635711   3.522715   4.165959   4.761760
    44  H    1.070000   2.029019   2.179530   4.515905   5.592432
    45  H    2.191204   2.600971   2.646840   4.087083   5.296000
                   11         12         13         14         15
    11  H    0.000000
    12  C    3.373001   0.000000
    13  O    4.338872   1.435167   0.000000
    14  C    5.623247   2.373641   1.435407   0.000000
    15  O    6.486354   3.486034   2.171708   1.435720   0.000000
    16  C    7.333438   4.571769   3.203258   2.531573   1.434422
    17  C    6.937805   4.765508   3.369176   3.339545   2.337777
    18  O    5.636368   3.956049   2.726646   3.287103   2.768984
    19  H    4.939130   3.003976   1.771283   2.565869   2.326347
    20  C    7.995451   6.047387   4.716280   4.597798   3.674502
    21  O    8.182408   6.758560   5.490406   5.675288   4.773458
    22  H    8.932219   7.600334   6.364142   6.490348   5.626877
    23  C    9.497228   6.363246   5.169742   4.006777   3.066882
    24  O    9.260773   5.965155   4.972030   3.688084   3.059343
    25  H   10.135850   6.803575   5.894358   4.582504   4.044496
    26  C    8.775833   5.926456   4.568291   3.736948   2.487446
    27  O    9.598278   6.950969   5.581757   4.837882   3.694622
    28  C    9.355908   7.115495   5.725183   5.311424   4.180086
    29  O   10.498947   8.336698   6.989892   6.517327   5.486667
    30  H   11.209591   9.075561   7.694616   7.244582   6.112431
    31  H    9.640678   7.496664   6.073016   5.771985   4.501317
    32  H    7.912864   5.997140   4.780209   4.597236   3.948054
    33  H    7.341218   5.236802   3.825578   3.862708   2.640921
    34  H    7.401806   4.637450   3.416868   2.602776   2.050129
    35  H    8.930610   6.184282   4.803322   4.149759   2.750825
    36  H   10.479484   7.367229   6.150349   5.030602   4.002454
    37  H    9.667367   6.546463   5.421785   4.188029   3.496128
    38  H    4.034063   3.134978   4.344470   4.930211   5.999820
    39  H    2.119769   2.090519   2.561144   3.851864   4.615944
    40  H    2.437253   2.090519   2.479311   3.873417   4.425439
    41  H    3.618132   1.070000   2.031790   2.563174   3.869275
    42  H    4.249014   2.118667   2.744547   3.348221   4.131088
    43  H    5.672410   2.757758   3.341394   2.865581   4.164331
    44  H    6.428983   3.271132   2.722823   2.103271   2.316734
    45  H    5.912661   2.802005   2.113498   1.070000   2.106169
                   16         17         18         19         20
    16  C    0.000000
    17  C    1.520338   0.000000
    18  O    2.569428   1.434751   0.000000
    19  H    2.658111   2.024778   0.999962   0.000000
    20  C    2.456825   1.520542   2.460381   3.307533   0.000000
    21  O    3.739893   2.437415   2.839441   3.828073   1.434858
    22  H    4.481825   3.321711   3.744012   4.736425   2.031493
    23  C    2.538347   3.870210   5.084117   5.095386   4.320803
    24  O    3.188917   4.625891   5.605872   5.358410   5.398252
    25  H    4.162625   5.593686   6.603448   6.353219   6.287519
    26  C    1.519881   2.496126   3.830608   4.030026   2.945534
    27  O    2.384676   2.868411   4.280451   4.754765   2.512213
    28  C    2.816515   2.491936   3.776645   4.504067   1.519603
    29  O    4.069876   3.820439   4.989778   5.775003   2.544052
    30  H    4.738254   4.427397   5.617894   6.421611   3.217774
    31  H    3.305704   2.778037   4.018824   4.752786   2.081391
    32  H    2.727156   2.128278   2.773749   3.545885   1.070000
    33  H    2.068214   1.070000   1.991608   2.481789   2.074709
    34  H    1.070000   2.125612   2.955287   3.058827   2.625381
    35  H    2.136208   2.709055   3.987649   4.171966   3.316905
    36  H    3.420318   4.578736   5.884991   5.972011   4.865449
    37  H    2.789750   4.148233   5.323039   5.380757   4.367779
    38  H    7.328292   7.663262   6.900616   5.908061   9.056168
    39  H    5.301448   4.909776   3.649929   2.967757   5.937403
    40  H    5.395792   5.028872   3.875456   3.030803   6.313904
    41  H    4.783652   5.093032   4.338169   3.495363   6.215475
    42  H    5.508285   5.822424   5.207782   4.215250   7.289067
    43  H    5.311198   6.196816   5.934328   5.063166   7.411846
    44  H    3.694938   4.567766   4.673901   3.891743   5.975485
    45  H    2.687404   3.588351   3.591474   3.038816   4.579138
                   21         22         23         24         25
    21  O    0.000000
    22  H    0.999970   0.000000
    23  C    5.643506   6.190191   0.000000
    24  O    6.715186   7.362556   1.434764   0.000000
    25  H    7.607267   8.212639   2.060613   0.999969   0.000000
    26  C    4.191867   4.809470   1.519806   2.628898   3.447853
    27  O    3.696539   4.047182   2.363586   3.747533   4.413497
    28  C    2.388600   2.647790   3.713848   5.019010   5.767104
    29  O    3.063837   2.820268   4.560604   5.961454   6.588651
    30  H    3.476865   3.175189   5.014870   6.431436   6.996706
    31  H    2.466039   2.805072   4.103982   5.354620   6.078051
    32  H    2.053336   2.328168   4.567396   5.616956   6.491671
    33  H    2.625068   3.564887   3.995925   4.728354   5.657269
    34  H    4.003672   4.594595   2.759704   3.423813   4.338499
    35  H    4.315416   5.011583   2.136056   2.986499   3.739455
    36  H    6.093157   6.569902   1.070000   2.010072   2.211473
    37  H    5.763958   6.195495   1.070000   2.010072   2.481130
    38  H    9.735872  10.628148   8.607077   7.787180   8.396508
    39  H    6.257066   7.014801   7.562517   7.491199   8.417034
    40  H    6.609201   7.497679   7.491842   7.266002   8.162025
    41  H    7.007572   7.765025   6.504938   6.130392   6.937658
    42  H    7.984285   8.920923   6.830751   6.117022   6.817789
    43  H    8.479803   9.267241   6.059905   5.178954   5.712389
    44  H    6.989920   7.888843   4.278084   3.423059   4.105955
    45  H    5.745175   6.447729   4.065012   3.869046   4.716987
                   26         27         28         29         30
    26  C    0.000000
    27  O    1.435398   0.000000
    28  C    2.452329   1.435730   0.000000
    29  O    3.597268   2.239247   1.434853   0.000000
    30  H    4.067368   2.731638   1.974515   0.960000   0.000000
    31  H    2.764656   2.016643   1.070000   2.014417   2.066080
    32  H    3.409993   2.891291   2.127560   2.729893   3.582037
    33  H    2.543033   3.025319   2.633991   4.042106   4.443320
    34  H    2.124516   2.591968   3.056541   4.049388   4.856251
    35  H    1.070000   2.061573   2.781474   4.015967   4.286309
    36  H    2.083569   2.569835   3.958260   4.635853   4.906958
    37  H    2.083569   2.447749   3.793088   4.403627   4.975327
    38  H    8.457966   9.678532  10.007222  11.294031  11.980727
    39  H    6.780296   7.525293   7.288520   8.413010   9.149061
    40  H    6.715258   7.671210   7.520025   8.804477   9.432810
    41  H    6.177077   7.095859   7.296159   8.406111   9.213565
    42  H    6.556115   7.818031   8.142513   9.487463  10.107848
    43  H    6.301684   7.451029   8.096875   9.218864   9.978727
    44  H    4.320561   5.706319   6.390429   7.697447   8.262421
    45  H    3.917740   4.805225   5.301377   6.347271   7.158347
                   31         32         33         34         35
    31  H    0.000000
    32  H    2.962142   0.000000
    33  H    2.492201   2.967261   0.000000
    34  H    3.813739   2.456741   2.951336   0.000000
    35  H    2.670911   4.027045   2.310338   3.009056   0.000000
    36  H    4.186777   5.208860   4.534097   3.715873   2.369653
    37  H    4.417375   4.369187   4.507195   2.588276   2.971844
    38  H   10.276140   9.092034   7.916304   7.496320   8.547483
    39  H    7.644556   5.823861   5.435666   5.326049   7.023544
    40  H    7.674094   6.474037   5.238532   5.725482   6.715963
    41  H    7.813043   5.981056   5.734245   4.604778   6.600550
    42  H    8.320438   7.477788   5.950098   5.866645   6.539008
    43  H    8.596755   7.264770   6.684838   5.180333   6.705718
    44  H    6.589729   6.247004   4.630425   4.158167   4.331950
    45  H    5.937543   4.337397   4.327447   2.312249   4.563388
                   36         37         38         39         40
    36  H    0.000000
    37  H    1.716800   0.000000
    38  H    9.521177   8.909733   0.000000
    39  H    8.551335   7.684787   4.406590   0.000000
    40  H    8.401773   7.841886   3.692929   1.720117   0.000000
    41  H    7.552846   6.515252   3.532061   2.330222   2.954680
    42  H    7.702006   7.267477   2.102141   3.738833   2.657499
    43  H    7.023301   6.119197   3.365627   4.737221   4.709817
    44  H    5.080229   4.827329   4.538195   5.099515   4.407347
    45  H    5.133095   3.965052   5.443853   4.075523   4.501601
                   41         42         43         44         45
    41  H    0.000000
    42  H    2.982126   0.000000
    43  H    2.536476   2.987832   0.000000
    44  H    3.832751   2.740151   2.974437   0.000000
    45  H    2.563726   4.151012   2.958699   3.011470   0.000000
 Stoichiometry    C12H22O11
 Framework group  C1[X(C12H22O11)]
 Deg. of freedom   129
 Full point group                 C1      NOp   1
 Largest Abelian subgroup         C1      NOp   1
 Largest concise Abelian subgroup C1      NOp   1
                         Standard orientation:                         
 ---------------------------------------------------------------------
 Center     Atomic      Atomic             Coordinates (Angstroms)
 Number     Number       Type             X           Y           Z
 ---------------------------------------------------------------------
      1          8           0       -5.088017   -0.293359    0.248669
      2          6           0       -3.743780   -0.059263   -0.195824
      3          6           0       -3.222931    1.308998    0.214352
      4          8           0       -3.857996    2.363973   -0.522022
      5          1           0       -4.796447    2.056675   -0.680208
      6          6           0       -1.741180    1.535087   -0.038287
      7          8           0       -1.238678    2.747509    0.540467
      8          1           0       -0.283671    2.699858    0.246455
      9          6           0       -3.118021   -2.506362   -0.009664
     10          8           0       -4.435077   -3.060379    0.121447
     11          1           0       -4.353644   -4.049906    0.235926
     12          6           0       -2.766006   -1.076872    0.368635
     13          8           0       -1.398017   -0.883741   -0.019967
     14          6           0       -0.889473    0.374534    0.447495
     15          8           0        0.272724    0.452921   -0.391818
     16          6           0        1.609127    0.215997    0.072360
     17          6           0        1.935158   -1.190666   -0.403487
     18          8           0        0.949500   -2.231704   -0.346701
     19          1           0        0.024275   -1.859924   -0.421957
     20          6           0        3.257079   -1.599593    0.226872
     21          8           0        3.721341   -2.846517   -0.310213
     22          1           0        4.535571   -3.177194    0.166886
     23          6           0        2.394732    2.629080    0.017056
     24          8           0        1.177710    3.366602   -0.165889
     25          1           0        1.290243    4.360159   -0.154979
     26          6           0        2.644023    1.202356   -0.443511
     27          8           0        3.915393    0.821685    0.103366
     28          6           0        4.317193   -0.547676   -0.053886
     29          8           0        5.551104   -0.595999    0.676820
     30          1           0        6.288058   -0.531399    0.064998
     31          1           0        4.576970   -0.667292   -1.084957
     32          1           0        3.128224   -1.697171    1.284593
     33          1           0        2.146078   -1.080764   -1.446720
     34          1           0        1.614872    0.232873    1.142211
     35          1           0        2.681827    1.165643   -1.512213
     36          1           0        3.164408    3.219871   -0.434013
     37          1           0        2.582289    2.632484    1.070484
     38          1           0       -5.676899   -0.312611   -0.509254
     39          1           0       -2.468091   -3.137184    0.560033
     40          1           0       -2.843882   -2.621880   -1.037479
     41          1           0       -2.810727   -1.004935    1.435277
     42          1           0       -3.723822   -0.124510   -1.263646
     43          1           0       -3.418892    1.451063    1.256618
     44          1           0       -1.607459    1.608058   -1.097388
     45          1           0       -0.664693    0.396439    1.493389
 ---------------------------------------------------------------------
 Rotational constants (GHZ):      0.4079358      0.1463692      0.1103224
 Standard basis: 6-31+G(d,p) (6D, 7F)
 There are   547 symmetry adapted basis functions of A   symmetry.
 Integral buffers will be    131072 words long.
 Raffenetti 2 integral format.
 Two-electron integral symmetry is turned on.
   547 basis functions,   890 primitive gaussians,   547 cartesian basis functions
    91 alpha electrons       91 beta electrons
       nuclear repulsion energy      2287.1778894408 Hartrees.
 NAtoms=   45 NActive=   45 NUniq=   45 SFac= 1.00D+00 NAtFMM=   50 NAOKFM=F Big=F
 One-electron integrals computed using PRISM.
 NBasis=   547 RedAO= T  NBF=   547
 NBsUse=   547 1.00D-06 NBFU=   547
 Harris functional with IExCor=  402 diagonalized for initial guess.
 ExpMin= 4.38D-02 ExpMax= 5.48D+03 ExpMxC= 8.25D+02 IAcc=2 IRadAn=         0 AccDes= 0.00D+00
 HarFok:  IExCor=  402 AccDes= 0.00D+00 IRadAn=         0 IDoV= 1
 ScaDFX=  1.000000  1.000000  1.000000  1.000000
 FoFCou: FMM=F IPFlag=           0 FMFlag=      100000 FMFlg1=           0
         NFxFlg=           0 DoJE=T BraDBF=F KetDBF=T FulRan=T
         Omega=  0.000000  0.000000  1.000000  0.000000  0.000000 ICntrl=     500 IOpCl=  0
         NMat0=    1 NMatS0=    1 NMatT0=    0 NMatD0=    1 NMtDS0=    0 NMtDT0=    0
         I1Cent=           4 NGrid=           0.
 Petite list used in FoFCou.
 Initial guess orbital symmetries:
       Occupied  (A) (A) (A) (A) (A) (A) (A) (A) (A) (A) (A) (A)
                 (A) (A) (A) (A) (A) (A) (A) (A) (A) (A) (A) (A)
                 (A) (A) (A) (A) (A) (A) (A) (A) (A) (A) (A) (A)
                 (A) (A) (A) (A) (A) (A) (A) (A) (A) (A) (A) (A)
                 (A) (A) (A) (A) (A) (A) (A) (A) (A) (A) (A) (A)
                 (A) (A) (A) (A) (A) (A) (A) (A) (A) (A) (A) (A)
                 (A) (A) (A) (A) (A) (A) (A) (A) (A) (A) (A) (A)
                 (A) (A) (A) (A) (A) (A) (A)
       Virtual   (A) (A) (A) (A) (A) (A) (A) (A) (A) (A) (A) (A)
                 (A) (A) (A) (A) (A) (A) (A) (A) (A) (A) (A) (A)
                 (A) (A) (A) (A) (A) (A) (A) (A) (A) (A) (A) (A)
                 (A) (A) (A) (A) (A) (A) (A) (A) (A) (A) (A) (A)
                 (A) (A) (A) (A) (A) (A) (A) (A) (A) (A) (A) (A)
                 (A) (A) (A) (A) (A) (A) (A) (A) (A) (A) (A) (A)
                 (A) (A) (A) (A) (A) (A) (A) (A) (A) (A) (A) (A)
                 (A) (A) (A) (A) (A) (A) (A) (A) (A) (A) (A) (A)
                 (A) (A) (A) (A) (A) (A) (A) (A) (A) (A) (A) (A)
                 (A) (A) (A) (A) (A) (A) (A) (A) (A) (A) (A) (A)
                 (A) (A) (A) (A) (A) (A) (A) (A) (A) (A) (A) (A)
                 (A) (A) (A) (A) (A) (A) (A) (A) (A) (A) (A) (A)
                 (A) (A) (A) (A) (A) (A) (A) (A) (A) (A) (A) (A)
                 (A) (A) (A) (A) (A) (A) (A) (A) (A) (A) (A) (A)
                 (A) (A) (A) (A) (A) (A) (A) (A) (A) (A) (A) (A)
                 (A) (A) (A) (A) (A) (A) (A) (A) (A) (A) (A) (A)
                 (A) (A) (A) (A) (A) (A) (A) (A) (A) (A) (A) (A)
                 (A) (A) (A) (A) (A) (A) (A) (A) (A) (A) (A) (A)
                 (A) (A) (A) (A) (A) (A) (A) (A) (A) (A) (A) (A)
                 (A) (A) (A) (A) (A) (A) (A) (A) (A) (A) (A) (A)
                 (A) (A) (A) (A) (A) (A) (A) (A) (A) (A) (A) (A)
                 (A) (A) (A) (A) (A) (A) (A) (A) (A) (A) (A) (A)
                 (A) (A) (A) (A) (A) (A) (A) (A) (A) (A) (A) (A)
                 (A) (A) (A) (A) (A) (A) (A) (A) (A) (A) (A) (A)
                 (A) (A) (A) (A) (A) (A) (A) (A) (A) (A) (A) (A)
                 (A) (A) (A) (A) (A) (A) (A) (A) (A) (A) (A) (A)
                 (A) (A) (A) (A) (A) (A) (A) (A) (A) (A) (A) (A)
                 (A) (A) (A) (A) (A) (A) (A) (A) (A) (A) (A) (A)
                 (A) (A) (A) (A) (A) (A) (A) (A) (A) (A) (A) (A)
                 (A) (A) (A) (A) (A) (A) (A) (A) (A) (A) (A) (A)
                 (A) (A) (A) (A) (A) (A) (A) (A) (A) (A) (A) (A)
                 (A) (A) (A) (A) (A) (A) (A) (A) (A) (A) (A) (A)
                 (A) (A) (A) (A) (A) (A) (A) (A) (A) (A) (A) (A)
                 (A) (A) (A) (A) (A) (A) (A) (A) (A) (A) (A) (A)
                 (A) (A) (A) (A) (A) (A) (A) (A) (A) (A) (A) (A)
                 (A) (A) (A) (A) (A) (A) (A) (A) (A) (A) (A) (A)
                 (A) (A) (A) (A) (A) (A) (A) (A) (A) (A) (A) (A)
                 (A) (A) (A) (A) (A) (A) (A) (A) (A) (A) (A) (A)
 The electronic state of the initial guess is 1-A.
 Requested convergence on RMS density matrix=1.00D-08 within 128 cycles.
 Requested convergence on MAX density matrix=1.00D-06.
 Requested convergence on             energy=1.00D-06.
 No special actions if energy rises.
 SCF Done:  E(RB3LYP) =  -1297.91786594     A.U. after   14 cycles
             Convg  =    0.2368D-08             -V/T =  2.0087
 Range of M.O.s used for correlation:     1   547
 NBasis=   547 NAE=    91 NBE=    91 NFC=     0 NFV=     0
 NROrb=    547 NOA=    91 NOB=    91 NVA=   456 NVB=   456

 **** Warning!!: The largest alpha MO coefficient is  0.72413036D+02

          Differentiating once with respect to electric field.
                with respect to dipole field.
          Electric field/nuclear overlap derivatives assumed to be zero.
          There are     3 degrees of freedom in the 1st order CPHF.  IDoFFX=0.
      3 vectors produced by pass  0 Test12= 1.38D-12 3.33D-08 XBig12= 1.21D+02 1.26D+00.
 AX will form     3 AO Fock derivatives at one time.
      3 vectors produced by pass  1 Test12= 1.38D-12 3.33D-08 XBig12= 2.10D+01 3.35D-01.
      3 vectors produced by pass  2 Test12= 1.38D-12 3.33D-08 XBig12= 8.11D+00 1.89D-01.
      3 vectors produced by pass  3 Test12= 1.38D-12 3.33D-08 XBig12= 8.75D-01 9.12D-02.
      3 vectors produced by pass  4 Test12= 1.38D-12 3.33D-08 XBig12= 2.78D-01 3.97D-02.
      3 vectors produced by pass  5 Test12= 1.38D-12 3.33D-08 XBig12= 5.07D-02 2.33D-02.
      3 vectors produced by pass  6 Test12= 1.38D-12 3.33D-08 XBig12= 1.74D-02 1.71D-02.
      3 vectors produced by pass  7 Test12= 1.38D-12 3.33D-08 XBig12= 2.47D-03 8.69D-03.
      3 vectors produced by pass  8 Test12= 1.38D-12 3.33D-08 XBig12= 6.01D-04 3.74D-03.
      3 vectors produced by pass  9 Test12= 1.38D-12 3.33D-08 XBig12= 1.07D-04 1.66D-03.
      3 vectors produced by pass 10 Test12= 1.38D-12 3.33D-08 XBig12= 2.42D-05 6.12D-04.
      3 vectors produced by pass 11 Test12= 1.38D-12 3.33D-08 XBig12= 6.34D-06 3.79D-04.
      3 vectors produced by pass 12 Test12= 1.38D-12 3.33D-08 XBig12= 9.32D-07 1.28D-04.
      3 vectors produced by pass 13 Test12= 1.38D-12 3.33D-08 XBig12= 2.76D-07 4.56D-05.
      3 vectors produced by pass 14 Test12= 1.38D-12 3.33D-08 XBig12= 3.11D-08 1.51D-05.
      3 vectors produced by pass 15 Test12= 1.38D-12 3.33D-08 XBig12= 5.77D-09 7.48D-06.
      3 vectors produced by pass 16 Test12= 1.38D-12 3.33D-08 XBig12= 8.11D-10 2.62D-06.
      3 vectors produced by pass 17 Test12= 1.38D-12 3.33D-08 XBig12= 6.49D-11 5.37D-07.
      3 vectors produced by pass 18 Test12= 1.38D-12 3.33D-08 XBig12= 1.67D-11 2.41D-07.
      3 vectors produced by pass 19 Test12= 1.38D-12 3.33D-08 XBig12= 1.39D-11 3.68D-07.
      3 vectors produced by pass 20 Test12= 1.38D-12 3.33D-08 XBig12= 1.01D-11 2.45D-07.
      2 vectors produced by pass 21 Test12= 1.38D-12 3.33D-08 XBig12= 2.60D-12 1.49D-07.
      1 vectors produced by pass 22 Test12= 1.38D-12 3.33D-08 XBig12= 7.59D-13 5.58D-08.
 Inverted reduced A of dimension    66 with in-core refinement.
 End of Minotr Frequency-dependent properties file   721 does not exist.
 End of Minotr Frequency-dependent properties file   722 does not exist.
 Symmetrizing basis deriv contribution to polar:
 IMax=3 JMax=2 DiffMx= 0.00D+00
 G2DrvN: will do    23 centers at a time, making    2 passes doing MaxLOS=2.
 Calling FoFCou, ICntrl=  3107 FMM=F I1Cent=   0 AccDes= 0.00D+00.
 Calling FoFCou, ICntrl=  3107 FMM=F I1Cent=   0 AccDes= 0.00D+00.
 FoFDir/FoFCou used for L=0 through L=2.
 End of G2Drv Frequency-dependent properties file   721 does not exist.
 End of G2Drv Frequency-dependent properties file   722 does not exist.
          IDoAtm=111111111111111111111111111111111111111111111
          Differentiating once with respect to electric field.
                with respect to dipole field.
          Differentiating once with respect to nuclear coordinates.
          There are   138 degrees of freedom in the 1st order CPHF.  IDoFFX=5.
 Will reuse    3 saved solutions.
    135 vectors produced by pass  0 Test12= 4.15D-14 1.00D-09 XBig12= 2.35D-01 1.16D-01.
 AX will form    68 AO Fock derivatives at one time.
    135 vectors produced by pass  1 Test12= 4.15D-14 1.00D-09 XBig12= 3.10D-02 1.75D-02.
    132 vectors produced by pass  2 Test12= 4.15D-14 1.00D-09 XBig12= 2.19D-04 2.52D-03.
    132 vectors produced by pass  3 Test12= 4.15D-14 1.00D-09 XBig12= 6.16D-07 7.16D-05.
    132 vectors produced by pass  4 Test12= 4.15D-14 1.00D-09 XBig12= 9.00D-10 2.37D-06.
    132 vectors produced by pass  5 Test12= 4.15D-14 1.00D-09 XBig12= 3.21D-12 1.72D-07.
     78 vectors produced by pass  6 Test12= 4.15D-14 1.00D-09 XBig12= 8.93D-14 1.73D-08.
 Inverted reduced A of dimension   876 with in-core refinement.
 Isotropic polarizability for W=    0.000000      188.42 Bohr**3.
 End of Minotr Frequency-dependent properties file   721 does not exist.
 End of Minotr Frequency-dependent properties file   722 does not exist.

 **********************************************************************

            Population analysis using the SCF density.

 **********************************************************************

 Orbital symmetries:
       Occupied  (A) (A) (A) (A) (A) (A) (A) (A) (A) (A) (A) (A)
                 (A) (A) (A) (A) (A) (A) (A) (A) (A) (A) (A) (A)
                 (A) (A) (A) (A) (A) (A) (A) (A) (A) (A) (A) (A)
                 (A) (A) (A) (A) (A) (A) (A) (A) (A) (A) (A) (A)
                 (A) (A) (A) (A) (A) (A) (A) (A) (A) (A) (A) (A)
                 (A) (A) (A) (A) (A) (A) (A) (A) (A) (A) (A) (A)
                 (A) (A) (A) (A) (A) (A) (A) (A) (A) (A) (A) (A)
                 (A) (A) (A) (A) (A) (A) (A)
       Virtual   (A) (A) (A) (A) (A) (A) (A) (A) (A) (A) (A) (A)
                 (A) (A) (A) (A) (A) (A) (A) (A) (A) (A) (A) (A)
                 (A) (A) (A) (A) (A) (A) (A) (A) (A) (A) (A) (A)
                 (A) (A) (A) (A) (A) (A) (A) (A) (A) (A) (A) (A)
                 (A) (A) (A) (A) (A) (A) (A) (A) (A) (A) (A) (A)
                 (A) (A) (A) (A) (A) (A) (A) (A) (A) (A) (A) (A)
                 (A) (A) (A) (A) (A) (A) (A) (A) (A) (A) (A) (A)
                 (A) (A) (A) (A) (A) (A) (A) (A) (A) (A) (A) (A)
                 (A) (A) (A) (A) (A) (A) (A) (A) (A) (A) (A) (A)
                 (A) (A) (A) (A) (A) (A) (A) (A) (A) (A) (A) (A)
                 (A) (A) (A) (A) (A) (A) (A) (A) (A) (A) (A) (A)
                 (A) (A) (A) (A) (A) (A) (A) (A) (A) (A) (A) (A)
                 (A) (A) (A) (A) (A) (A) (A) (A) (A) (A) (A) (A)
                 (A) (A) (A) (A) (A) (A) (A) (A) (A) (A) (A) (A)
                 (A) (A) (A) (A) (A) (A) (A) (A) (A) (A) (A) (A)
                 (A) (A) (A) (A) (A) (A) (A) (A) (A) (A) (A) (A)
                 (A) (A) (A) (A) (A) (A) (A) (A) (A) (A) (A) (A)
                 (A) (A) (A) (A) (A) (A) (A) (A) (A) (A) (A) (A)
                 (A) (A) (A) (A) (A) (A) (A) (A) (A) (A) (A) (A)
                 (A) (A) (A) (A) (A) (A) (A) (A) (A) (A) (A) (A)
                 (A) (A) (A) (A) (A) (A) (A) (A) (A) (A) (A) (A)
                 (A) (A) (A) (A) (A) (A) (A) (A) (A) (A) (A) (A)
                 (A) (A) (A) (A) (A) (A) (A) (A) (A) (A) (A) (A)
                 (A) (A) (A) (A) (A) (A) (A) (A) (A) (A) (A) (A)
                 (A) (A) (A) (A) (A) (A) (A) (A) (A) (A) (A) (A)
                 (A) (A) (A) (A) (A) (A) (A) (A) (A) (A) (A) (A)
                 (A) (A) (A) (A) (A) (A) (A) (A) (A) (A) (A) (A)
                 (A) (A) (A) (A) (A) (A) (A) (A) (A) (A) (A) (A)
                 (A) (A) (A) (A) (A) (A) (A) (A) (A) (A) (A) (A)
                 (A) (A) (A) (A) (A) (A) (A) (A) (A) (A) (A) (A)
                 (A) (A) (A) (A) (A) (A) (A) (A) (A) (A) (A) (A)
                 (A) (A) (A) (A) (A) (A) (A) (A) (A) (A) (A) (A)
                 (A) (A) (A) (A) (A) (A) (A) (A) (A) (A) (A) (A)
                 (A) (A) (A) (A) (A) (A) (A) (A) (A) (A) (A) (A)
                 (A) (A) (A) (A) (A) (A) (A) (A) (A) (A) (A) (A)
                 (A) (A) (A) (A) (A) (A) (A) (A) (A) (A) (A) (A)
                 (A) (A) (A) (A) (A) (A) (A) (A) (A) (A) (A) (A)
                 (A) (A) (A) (A) (A) (A) (A) (A) (A) (A) (A) (A)
 The electronic state is 1-A.
 Alpha  occ. eigenvalues --  -19.20005 -19.19635 -19.18768 -19.18705 -19.18294
 Alpha  occ. eigenvalues --  -19.17912 -19.16941 -19.16863 -19.15975 -19.14490
 Alpha  occ. eigenvalues --  -19.13835 -10.31243 -10.31044 -10.27222 -10.26264
 Alpha  occ. eigenvalues --  -10.26173 -10.25887 -10.25762 -10.25642 -10.24621
 Alpha  occ. eigenvalues --  -10.24290 -10.24101 -10.23835  -1.10567  -1.09120
 Alpha  occ. eigenvalues --   -1.05502  -1.05257  -1.03987  -1.03247  -1.02767
 Alpha  occ. eigenvalues --   -1.02447  -1.02217  -1.00347  -0.99828  -0.82832
 Alpha  occ. eigenvalues --   -0.80501  -0.80033  -0.78106  -0.72336  -0.69990
 Alpha  occ. eigenvalues --   -0.67615  -0.64974  -0.63666  -0.62658  -0.61426
 Alpha  occ. eigenvalues --   -0.60199  -0.56381  -0.56137  -0.55844  -0.54735
 Alpha  occ. eigenvalues --   -0.53974  -0.53630  -0.52994  -0.51827  -0.51533
 Alpha  occ. eigenvalues --   -0.51062  -0.49967  -0.49422  -0.48773  -0.47036
 Alpha  occ. eigenvalues --   -0.46247  -0.45167  -0.44316  -0.43660  -0.43202
 Alpha  occ. eigenvalues --   -0.42535  -0.41786  -0.40949  -0.40733  -0.39405
 Alpha  occ. eigenvalues --   -0.38350  -0.37247  -0.36931  -0.36064  -0.35937
 Alpha  occ. eigenvalues --   -0.35083  -0.34610  -0.34329  -0.33655  -0.33585
 Alpha  occ. eigenvalues --   -0.33029  -0.31585  -0.30946  -0.30352  -0.29785
 Alpha  occ. eigenvalues --   -0.29109  -0.28443  -0.28150  -0.27473  -0.26608
 Alpha  occ. eigenvalues --   -0.26202
 Alpha virt. eigenvalues --   -0.02235  -0.02103  -0.01674  -0.00640   0.00183
 Alpha virt. eigenvalues --    0.01034   0.01788   0.02521   0.02764   0.03138
 Alpha virt. eigenvalues --    0.03855   0.04500   0.04638   0.05070   0.05762
 Alpha virt. eigenvalues --    0.06081   0.06559   0.07026   0.07881   0.08153
 Alpha virt. eigenvalues --    0.08640   0.08816   0.09226   0.09485   0.09881
 Alpha virt. eigenvalues --    0.10405   0.10807   0.10888   0.11451   0.12171
 Alpha virt. eigenvalues --    0.12393   0.13066   0.13320   0.13642   0.13830
 Alpha virt. eigenvalues --    0.14185   0.14480   0.14593   0.14830   0.15066
 Alpha virt. eigenvalues --    0.15823   0.16273   0.16418   0.16627   0.17344
 Alpha virt. eigenvalues --    0.17465   0.17595   0.17907   0.18355   0.18558
 Alpha virt. eigenvalues --    0.18667   0.18953   0.19380   0.20016   0.20379
 Alpha virt. eigenvalues --    0.20526   0.20575   0.20827   0.21322   0.21568
 Alpha virt. eigenvalues --    0.22072   0.22420   0.22697   0.23151   0.23555
 Alpha virt. eigenvalues --    0.23906   0.23961   0.24346   0.24408   0.24871
 Alpha virt. eigenvalues --    0.24977   0.25295   0.25492   0.25852   0.25942
 Alpha virt. eigenvalues --    0.26304   0.26609   0.26761   0.27131   0.27452
 Alpha virt. eigenvalues --    0.27733   0.27917   0.28547   0.29096   0.29196
 Alpha virt. eigenvalues --    0.29378   0.29459   0.29857   0.30762   0.30913
 Alpha virt. eigenvalues --    0.31122   0.31387   0.31861   0.32314   0.32679
 Alpha virt. eigenvalues --    0.32836   0.33019   0.33759   0.33976   0.34011
 Alpha virt. eigenvalues --    0.34499   0.34797   0.35298   0.35509   0.35864
 Alpha virt. eigenvalues --    0.36458   0.36971   0.37113   0.37205   0.37687
 Alpha virt. eigenvalues --    0.38065   0.38301   0.38789   0.39443   0.39484
 Alpha virt. eigenvalues --    0.40285   0.41020   0.41144   0.41499   0.42351
 Alpha virt. eigenvalues --    0.42803   0.42950   0.43351   0.43690   0.44524
 Alpha virt. eigenvalues --    0.44961   0.45680   0.46580   0.47014   0.47420
 Alpha virt. eigenvalues --    0.48001   0.48074   0.48834   0.50033   0.50978
 Alpha virt. eigenvalues --    0.52361   0.53404   0.56545   0.62218   0.63092
 Alpha virt. eigenvalues --    0.65435   0.66001   0.69137   0.69414   0.69702
 Alpha virt. eigenvalues --    0.70343   0.70908   0.71926   0.73585   0.73662
 Alpha virt. eigenvalues --    0.74901   0.76954   0.77603   0.77888   0.78533
 Alpha virt. eigenvalues --    0.80188   0.80300   0.81220   0.82451   0.84210
 Alpha virt. eigenvalues --    0.86041   0.86626   0.87909   0.88850   0.89246
 Alpha virt. eigenvalues --    0.90616   0.92158   0.92824   0.93992   0.94979
 Alpha virt. eigenvalues --    0.95322   0.96168   0.97596   1.00455   1.01345
 Alpha virt. eigenvalues --    1.02097   1.02390   1.02614   1.03611   1.04179
 Alpha virt. eigenvalues --    1.04607   1.05242   1.05722   1.06524   1.07377
 Alpha virt. eigenvalues --    1.08136   1.08581   1.09804   1.10140   1.11435
 Alpha virt. eigenvalues --    1.12642   1.13702   1.14040   1.14408   1.16423
 Alpha virt. eigenvalues --    1.16872   1.18017   1.19040   1.20513   1.21008
 Alpha virt. eigenvalues --    1.21370   1.22406   1.23142   1.24742   1.25166
 Alpha virt. eigenvalues --    1.25313   1.25940   1.27526   1.28499   1.28701
 Alpha virt. eigenvalues --    1.28845   1.29744   1.29995   1.30730   1.31084
 Alpha virt. eigenvalues --    1.32488   1.32833   1.33924   1.34669   1.35089
 Alpha virt. eigenvalues --    1.35614   1.36329   1.37475   1.37880   1.38330
 Alpha virt. eigenvalues --    1.39037   1.40790   1.41216   1.42305   1.43687
 Alpha virt. eigenvalues --    1.44644   1.45437   1.46247   1.47178   1.48612
 Alpha virt. eigenvalues --    1.49764   1.50368   1.51023   1.52272   1.52807
 Alpha virt. eigenvalues --    1.53766   1.55256   1.56034   1.56470   1.57445
 Alpha virt. eigenvalues --    1.58271   1.59097   1.59496   1.60105   1.61891
 Alpha virt. eigenvalues --    1.62084   1.63054   1.64176   1.64499   1.64905
 Alpha virt. eigenvalues --    1.65835   1.67133   1.68463   1.69066   1.69495
 Alpha virt. eigenvalues --    1.70539   1.70965   1.72928   1.73104   1.74341
 Alpha virt. eigenvalues --    1.74617   1.75652   1.76712   1.77047   1.77183
 Alpha virt. eigenvalues --    1.78256   1.79565   1.79906   1.81503   1.82439
 Alpha virt. eigenvalues --    1.83543   1.84822   1.85672   1.86651   1.86911
 Alpha virt. eigenvalues --    1.87802   1.89615   1.90370   1.91315   1.91589
 Alpha virt. eigenvalues --    1.92161   1.92451   1.92567   1.93782   1.94558
 Alpha virt. eigenvalues --    1.95779   1.96244   1.97205   1.97969   1.99018
 Alpha virt. eigenvalues --    1.99545   2.00546   2.00744   2.02002   2.02529
 Alpha virt. eigenvalues --    2.02966   2.03178   2.04637   2.05298   2.06830
 Alpha virt. eigenvalues --    2.07632   2.08430   2.09766   2.11135   2.11658
 Alpha virt. eigenvalues --    2.12165   2.13013   2.14186   2.14833   2.16615
 Alpha virt. eigenvalues --    2.17435   2.18062   2.18557   2.19689   2.20250
 Alpha virt. eigenvalues --    2.21240   2.22794   2.23761   2.24476   2.27517
 Alpha virt. eigenvalues --    2.29259   2.30831   2.31300   2.31960   2.34739
 Alpha virt. eigenvalues --    2.35764   2.36858   2.37853   2.39601   2.40452
 Alpha virt. eigenvalues --    2.41187   2.41747   2.42037   2.44550   2.46821
 Alpha virt. eigenvalues --    2.46836   2.47972   2.48650   2.49271   2.49598
 Alpha virt. eigenvalues --    2.51371   2.52274   2.53869   2.54205   2.55942
 Alpha virt. eigenvalues --    2.57106   2.57615   2.58122   2.59835   2.60985
 Alpha virt. eigenvalues --    2.61192   2.61918   2.63520   2.63805   2.64072
 Alpha virt. eigenvalues --    2.65313   2.65969   2.67776   2.68286   2.69324
 Alpha virt. eigenvalues --    2.70386   2.71309   2.72400   2.74048   2.74764
 Alpha virt. eigenvalues --    2.76076   2.78671   2.79469   2.79883   2.80982
 Alpha virt. eigenvalues --    2.81485   2.82990   2.84024   2.85148   2.86241
 Alpha virt. eigenvalues --    2.86788   2.87968   2.88584   2.89202   2.89337
 Alpha virt. eigenvalues --    2.90138   2.91528   2.92657   2.93483   2.95350
 Alpha virt. eigenvalues --    2.96225   2.97181   2.97630   2.98359   2.98968
 Alpha virt. eigenvalues --    3.00425   3.03009   3.04235   3.05485   3.06965
 Alpha virt. eigenvalues --    3.07903   3.09138   3.09974   3.12291   3.13465
 Alpha virt. eigenvalues --    3.16174   3.19224   3.23675   3.25443   3.27250
 Alpha virt. eigenvalues --    3.33091   3.36598   3.37501   3.39084   3.41378
 Alpha virt. eigenvalues --    3.43441   3.44828   3.46068   3.46474   3.48210
 Alpha virt. eigenvalues --    3.49743   3.50050   3.51552   3.52980   3.53306
 Alpha virt. eigenvalues --    3.56188   3.56604   3.60834   3.61593   3.64840
 Alpha virt. eigenvalues --    3.65937   3.71750   3.75419   4.27722   4.31579
 Alpha virt. eigenvalues --    4.34151   4.36405   4.40414   4.44315   4.46996
 Alpha virt. eigenvalues --    4.49552   4.50401   4.52345   4.53334   4.56413
 Alpha virt. eigenvalues --    4.58516   4.61078   4.61604   4.67535   4.72582
 Alpha virt. eigenvalues --    4.76311   4.82064   4.85466   4.86586   4.87803
 Alpha virt. eigenvalues --    4.96832
          Condensed to atoms (all electrons):
              1          2          3          4          5          6
     1  O    8.244495   0.225551  -0.032712  -0.016827   0.021942   0.112660
     2  C    0.225551  10.986143  -1.450187   0.099767  -0.055307  -4.163818
     3  C   -0.032712  -1.450187  10.424679   0.093777   0.072788  -2.136620
     4  O   -0.016827   0.099767   0.093777   8.295992   0.174554  -0.217483
     5  H    0.021942  -0.055307   0.072788   0.174554   0.465539  -0.021459
     6  C    0.112660  -4.163818  -2.136620  -0.217483  -0.021459  14.983422
     7  O   -0.001430   0.070803  -0.166153   0.008870  -0.000660   0.299336
     8  H    0.000031  -0.015834   0.046063  -0.000625   0.000017  -0.012863
     9  C   -0.029907   0.148824  -0.415053   0.019185  -0.003280   0.291513
    10  O   -0.017574   0.023129   0.019854   0.000137  -0.000011  -0.010301
    11  H    0.001752  -0.011103  -0.003081   0.000003   0.000000  -0.000042
    12  C   -0.190190  -2.397059  -0.337270  -0.041169   0.034911   1.589678
    13  O    0.006758  -0.033133   0.029139   0.000696   0.000272  -0.257233
    14  C   -0.004814   1.750883   0.268163   0.131066  -0.015210  -4.374899
    15  O    0.000205  -0.059676   0.035887  -0.002252   0.000175   0.153213
    16  C    0.001024   0.118507  -0.309464  -0.006700   0.000998   0.099885
    17  C    0.000396   0.008660   0.029276   0.001207   0.000114  -0.153250
    18  O    0.000024   0.007480  -0.004953  -0.000019   0.000000   0.034621
    19  H   -0.000021  -0.007305   0.010538   0.000005   0.000000   0.003171
    20  C    0.000101  -0.010506   0.004786  -0.000227   0.000003   0.075662
    21  O    0.000000   0.000044  -0.000054   0.000000   0.000000  -0.000407
    22  H    0.000000   0.000005   0.000001   0.000000   0.000000  -0.000027
    23  C    0.000079   0.002600  -0.046168   0.000014  -0.000022  -0.071912
    24  O   -0.000003   0.005608  -0.011011   0.000091  -0.000008  -0.020588
    25  H    0.000000  -0.000093   0.001270   0.000000   0.000000   0.002244
    26  C   -0.000265   0.090951   0.034460   0.001707  -0.000009  -0.342006
    27  O    0.000000   0.000085   0.000692   0.000002   0.000000   0.003767
    28  C    0.000002  -0.000850  -0.004539  -0.000006   0.000000  -0.001977
    29  O    0.000000   0.000013   0.000050   0.000000   0.000000  -0.000323
    30  H    0.000000   0.000000   0.000000   0.000000   0.000000   0.000012
    31  H    0.000000  -0.000013   0.000021   0.000000   0.000000   0.000004
    32  H    0.000000  -0.000072   0.000170   0.000000   0.000000   0.000360
    33  H    0.000000  -0.000239   0.000315  -0.000001   0.000000   0.010032
    34  H   -0.000001  -0.000929   0.003050  -0.000002   0.000000   0.002640
    35  H    0.000000  -0.000278   0.001243   0.000001   0.000000   0.004087
    36  H    0.000000   0.000023   0.000100   0.000000   0.000000   0.001582
    37  H    0.000000  -0.000048   0.000158   0.000000   0.000000  -0.001902
    38  H    0.245161   0.056583  -0.050264   0.001805  -0.002404   0.001870
    39  H    0.000295  -0.002981  -0.001249   0.000013   0.000000   0.003272
    40  H    0.000651  -0.007407  -0.006722   0.000026  -0.000002   0.015848
    41  H    0.004805   0.055433  -0.060731   0.000253  -0.000044  -0.034931
    42  H   -0.051408   0.509368  -0.152558   0.002697  -0.002662  -0.007843
    43  H   -0.014046   0.234795   0.273154  -0.042932  -0.002189  -0.324154
    44  H   -0.000860   0.113203  -0.261938   0.003361   0.000077   0.391556
    45  H    0.000054   0.027342  -0.064590  -0.000620   0.000006  -0.021662
              7          8          9         10         11         12
     1  O   -0.001430   0.000031  -0.029907  -0.017574   0.001752  -0.190190
     2  C    0.070803  -0.015834   0.148824   0.023129  -0.011103  -2.397059
     3  C   -0.166153   0.046063  -0.415053   0.019854  -0.003081  -0.337270
     4  O    0.008870  -0.000625   0.019185   0.000137   0.000003  -0.041169
     5  H   -0.000660   0.000017  -0.003280  -0.000011   0.000000   0.034911
     6  C    0.299336  -0.012863   0.291513  -0.010301  -0.000042   1.589678
     7  O    8.275009   0.195057  -0.000449   0.000029   0.000000  -0.008391
     8  H    0.195057   0.359080   0.000147   0.000000   0.000000   0.000097
     9  C   -0.000449   0.000147   8.647200   0.047616   0.027014  -3.306938
    10  O    0.000029   0.000000   0.047616   8.371125   0.191434   0.024418
    11  H    0.000000   0.000000   0.027014   0.191434   0.436094   0.011963
    12  C   -0.008391   0.000097  -3.306938   0.024418   0.011963  12.462015
    13  O    0.006910   0.001928   0.066929  -0.002932  -0.000064  -0.221427
    14  C   -0.084258  -0.006918  -0.406538   0.004961  -0.003643  -1.434001
    15  O   -0.019123   0.024518  -0.003519  -0.000077   0.000008   0.048899
    16  C    0.021290  -0.007511  -0.232876  -0.000947   0.000006   0.168494
    17  C    0.006482   0.005592   0.023877   0.000018   0.000009  -0.162628
    18  O   -0.000156  -0.000018   0.011830  -0.000028   0.000010  -0.028792
    19  H   -0.000057  -0.000005   0.000008  -0.000003  -0.000005   0.004757
    20  C    0.001854   0.001529   0.019636   0.000018  -0.000009  -0.041283
    21  O   -0.000007   0.000000  -0.000017   0.000000   0.000000  -0.000177
    22  H    0.000000   0.000000  -0.000001   0.000000   0.000000   0.000035
    23  C    0.013583   0.025943  -0.002336  -0.000010   0.000000  -0.008683
    24  O   -0.031019  -0.025977   0.000459   0.000000   0.000000   0.002678
    25  H    0.001991   0.001241  -0.000009   0.000000   0.000000  -0.000198
    26  C   -0.013287  -0.037625  -0.007866   0.000069   0.000003  -0.007683
    27  O    0.000303   0.000000  -0.000394   0.000000   0.000000  -0.001356
    28  C    0.000490  -0.000755  -0.006453  -0.000005   0.000000   0.007372
    29  O   -0.000005   0.000000  -0.000015   0.000000   0.000000   0.000022
    30  H    0.000000   0.000000   0.000000   0.000000   0.000000  -0.000001
    31  H    0.000000   0.000000  -0.000002   0.000000   0.000000   0.000035
    32  H    0.000001   0.000000  -0.000025   0.000000   0.000000   0.000549
    33  H   -0.000005   0.000004   0.000646   0.000000   0.000000   0.001322
    34  H   -0.000380   0.000059   0.000120   0.000000   0.000000   0.001025
    35  H   -0.000004   0.000042   0.000062   0.000000   0.000000   0.000238
    36  H   -0.000566   0.000135  -0.000001   0.000000   0.000000   0.000023
    37  H    0.001052   0.000390  -0.000004   0.000000   0.000000  -0.000079
    38  H   -0.000016   0.000000  -0.004890  -0.002059  -0.000041   0.010008
    39  H   -0.000010   0.000000   0.403353  -0.040699  -0.014204  -0.028524
    40  H   -0.000004   0.000000   0.713359  -0.069911  -0.000026  -0.371393
    41  H   -0.000171   0.000001   0.051703   0.005184  -0.000068   0.149116
    42  H   -0.000061   0.000006   0.030222  -0.000201   0.000011  -0.173209
    43  H    0.006668  -0.000125   0.027747   0.000246   0.000001  -0.073978
    44  H   -0.042039  -0.007980   0.012475   0.000025   0.000000  -0.012352
    45  H   -0.000038  -0.001006   0.004719   0.000020   0.000000  -0.007368
             13         14         15         16         17         18
     1  O    0.006758  -0.004814   0.000205   0.001024   0.000396   0.000024
     2  C   -0.033133   1.750883  -0.059676   0.118507   0.008660   0.007480
     3  C    0.029139   0.268163   0.035887  -0.309464   0.029276  -0.004953
     4  O    0.000696   0.131066  -0.002252  -0.006700   0.001207  -0.000019
     5  H    0.000272  -0.015210   0.000175   0.000998   0.000114   0.000000
     6  C   -0.257233  -4.374899   0.153213   0.099885  -0.153250   0.034621
     7  O    0.006910  -0.084258  -0.019123   0.021290   0.006482  -0.000156
     8  H    0.001928  -0.006918   0.024518  -0.007511   0.005592  -0.000018
     9  C    0.066929  -0.406538  -0.003519  -0.232876   0.023877   0.011830
    10  O   -0.002932   0.004961  -0.000077  -0.000947   0.000018  -0.000028
    11  H   -0.000064  -0.003643   0.000008   0.000006   0.000009   0.000010
    12  C   -0.221427  -1.434001   0.048899   0.168494  -0.162628  -0.028792
    13  O    8.537571   0.320903  -0.083627   0.114267  -0.073867   0.021548
    14  C    0.320903  10.194860   0.066989  -0.329349  -0.231360  -0.054845
    15  O   -0.083627   0.066989   8.456764  -0.196085   0.086213   0.010189
    16  C    0.114267  -0.329349  -0.196085  13.644083  -2.520371  -0.070794
    17  C   -0.073867  -0.231360   0.086213  -2.520371   8.405025   0.389909
    18  O    0.021548  -0.054845   0.010189  -0.070794   0.389909   8.225317
    19  H    0.021337  -0.002553   0.019839  -0.109743   0.049025   0.190917
    20  C   -0.023043  -0.063232   0.073904  -1.895935  -0.371718  -0.145295
    21  O   -0.000335   0.003554  -0.001116  -0.012930  -0.128100   0.010000
    22  H   -0.000008  -0.000891   0.000043  -0.016643   0.029944  -0.000717
    23  C    0.020809  -0.101879  -0.063145   0.155807  -0.314079   0.004647
    24  O   -0.001539   0.053668   0.003362   0.026732  -0.004034  -0.000024
    25  H    0.000033  -0.004179   0.001040  -0.010970   0.000502  -0.000001
    26  C   -0.018403  -0.338418  -0.031195  -3.589934   0.490992   0.005158
    27  O    0.000567  -0.028553   0.010512  -0.219805   0.004411   0.000708
    28  C    0.003168  -0.068046   0.011020   0.749664   0.251671  -0.002676
    29  O    0.000015  -0.000268   0.000019  -0.018748   0.030019  -0.000286
    30  H    0.000000   0.000253  -0.000003   0.012071   0.001120  -0.000011
    31  H    0.000024   0.003143  -0.000181   0.078618   0.006253  -0.000674
    32  H    0.000670   0.006595  -0.002346   0.093663  -0.157668   0.004637
    33  H    0.001806   0.022602  -0.014809   0.125037   0.259976  -0.058310
    34  H    0.000564  -0.011024  -0.066741   0.312616  -0.029493  -0.000891
    35  H   -0.000388   0.019429   0.004454   0.004607   0.002774  -0.000548
    36  H   -0.000006   0.001933   0.000427   0.034012  -0.007936   0.000024
    37  H    0.000082  -0.007667   0.000327   0.021413   0.003571   0.000019
    38  H   -0.000980   0.000068  -0.000022   0.000204  -0.000065   0.000000
    39  H   -0.001804   0.003509  -0.000379   0.001561  -0.001105  -0.000659
    40  H    0.012430   0.005017  -0.000320  -0.006810   0.002378   0.000027
    41  H   -0.037776   0.106396  -0.002328  -0.001316   0.003784  -0.000078
    42  H    0.012069   0.070479  -0.000448  -0.000248   0.001361   0.000042
    43  H    0.006919   0.133416  -0.000940   0.003936   0.000607   0.000011
    44  H    0.018197  -0.001554  -0.016995   0.034935   0.001188   0.000096
    45  H   -0.044511   0.328552  -0.064229   0.036389   0.019935  -0.000998
             19         20         21         22         23         24
     1  O   -0.000021   0.000101   0.000000   0.000000   0.000079  -0.000003
     2  C   -0.007305  -0.010506   0.000044   0.000005   0.002600   0.005608
     3  C    0.010538   0.004786  -0.000054   0.000001  -0.046168  -0.011011
     4  O    0.000005  -0.000227   0.000000   0.000000   0.000014   0.000091
     5  H    0.000000   0.000003   0.000000   0.000000  -0.000022  -0.000008
     6  C    0.003171   0.075662  -0.000407  -0.000027  -0.071912  -0.020588
     7  O   -0.000057   0.001854  -0.000007   0.000000   0.013583  -0.031019
     8  H   -0.000005   0.001529   0.000000   0.000000   0.025943  -0.025977
     9  C    0.000008   0.019636  -0.000017  -0.000001  -0.002336   0.000459
    10  O   -0.000003   0.000018   0.000000   0.000000  -0.000010   0.000000
    11  H   -0.000005  -0.000009   0.000000   0.000000   0.000000   0.000000
    12  C    0.004757  -0.041283  -0.000177   0.000035  -0.008683   0.002678
    13  O    0.021337  -0.023043  -0.000335  -0.000008   0.020809  -0.001539
    14  C   -0.002553  -0.063232   0.003554  -0.000891  -0.101879   0.053668
    15  O    0.019839   0.073904  -0.001116   0.000043  -0.063145   0.003362
    16  C   -0.109743  -1.895935  -0.012930  -0.016643   0.155807   0.026732
    17  C    0.049025  -0.371718  -0.128100   0.029944  -0.314079  -0.004034
    18  O    0.190917  -0.145295   0.010000  -0.000717   0.004647  -0.000024
    19  H    0.336813   0.030056  -0.001024   0.000014  -0.003339   0.000015
    20  C    0.030056   8.920249   0.296977   0.006897   0.073129  -0.004367
    21  O   -0.001024   0.296977   8.231243   0.202880   0.000634   0.000028
    22  H    0.000014   0.006897   0.202880   0.428538   0.000182   0.000000
    23  C   -0.003339   0.073129   0.000634   0.000182   6.576903   0.049031
    24  O    0.000015  -0.004367   0.000028   0.000000   0.049031   8.525405
    25  H    0.000000   0.000308   0.000000   0.000000  -0.027385   0.226195
    26  C    0.014232   0.497703   0.014971   0.006399  -1.071540  -0.043797
    27  O    0.000052  -0.120082   0.006104  -0.000116  -0.077231   0.000148
    28  C   -0.002174  -1.475152  -0.078485  -0.010742  -0.083132   0.002586
    29  O    0.000012  -0.150102  -0.006417   0.011682   0.000843   0.000033
    30  H    0.000000   0.010234  -0.001364  -0.000831  -0.000669  -0.000001
    31  H    0.000001  -0.194503   0.001507  -0.001163  -0.002911   0.000057
    32  H    0.000042   0.347538  -0.040545  -0.007510   0.011044  -0.000001
    33  H   -0.001424  -0.105947   0.001491  -0.000144   0.023934  -0.000133
    34  H    0.000227   0.042254  -0.000555   0.000002   0.022747  -0.000599
    35  H    0.000019  -0.020106  -0.000143   0.000002  -0.014839   0.006175
    36  H    0.000000   0.000597  -0.000006   0.000000   0.440134  -0.044721
    37  H    0.000000   0.003981  -0.000015   0.000000   0.608729  -0.075484
    38  H    0.000000  -0.000001   0.000000   0.000000   0.000003   0.000000
    39  H    0.000145  -0.000605  -0.000001   0.000000   0.000000   0.000000
    40  H   -0.000090   0.000641   0.000000   0.000000   0.000016   0.000000
    41  H    0.000292   0.000662   0.000000   0.000000   0.000137   0.000009
    42  H    0.000018   0.000008   0.000000   0.000000   0.000028   0.000008
    43  H    0.000000  -0.000086   0.000000   0.000000   0.000035   0.000107
    44  H   -0.000004   0.000337   0.000000   0.000000   0.005508   0.002443
    45  H    0.000237   0.009461   0.000005   0.000000   0.004717   0.000346
             25         26         27         28         29         30
     1  O    0.000000  -0.000265   0.000000   0.000002   0.000000   0.000000
     2  C   -0.000093   0.090951   0.000085  -0.000850   0.000013   0.000000
     3  C    0.001270   0.034460   0.000692  -0.004539   0.000050   0.000000
     4  O    0.000000   0.001707   0.000002  -0.000006   0.000000   0.000000
     5  H    0.000000  -0.000009   0.000000   0.000000   0.000000   0.000000
     6  C    0.002244  -0.342006   0.003767  -0.001977  -0.000323   0.000012
     7  O    0.001991  -0.013287   0.000303   0.000490  -0.000005   0.000000
     8  H    0.001241  -0.037625   0.000000  -0.000755   0.000000   0.000000
     9  C   -0.000009  -0.007866  -0.000394  -0.006453  -0.000015   0.000000
    10  O    0.000000   0.000069   0.000000  -0.000005   0.000000   0.000000
    11  H    0.000000   0.000003   0.000000   0.000000   0.000000   0.000000
    12  C   -0.000198  -0.007683  -0.001356   0.007372   0.000022  -0.000001
    13  O    0.000033  -0.018403   0.000567   0.003168   0.000015   0.000000
    14  C   -0.004179  -0.338418  -0.028553  -0.068046  -0.000268   0.000253
    15  O    0.001040  -0.031195   0.010512   0.011020   0.000019  -0.000003
    16  C   -0.010970  -3.589934  -0.219805   0.749664  -0.018748   0.012071
    17  C    0.000502   0.490992   0.004411   0.251671   0.030019   0.001120
    18  O   -0.000001   0.005158   0.000708  -0.002676  -0.000286  -0.000011
    19  H    0.000000   0.014232   0.000052  -0.002174   0.000012   0.000000
    20  C    0.000308   0.497703  -0.120082  -1.475152  -0.150102   0.010234
    21  O    0.000000   0.014971   0.006104  -0.078485  -0.006417  -0.001364
    22  H    0.000000   0.006399  -0.000116  -0.010742   0.011682  -0.000831
    23  C   -0.027385  -1.071540  -0.077231  -0.083132   0.000843  -0.000669
    24  O    0.226195  -0.043797   0.000148   0.002586   0.000033  -0.000001
    25  H    0.372228   0.042639  -0.000146  -0.000692   0.000000   0.000000
    26  C    0.042639  10.766035   0.366835  -0.724564  -0.046192  -0.008665
    27  O   -0.000146   0.366835   8.452229   0.084917  -0.082623  -0.006075
    28  C   -0.000692  -0.724564   0.084917   6.293556   0.434180  -0.007562
    29  O    0.000000  -0.046192  -0.082623   0.434180   8.176704   0.248545
    30  H    0.000000  -0.008665  -0.006075  -0.007562   0.248545   0.398322
    31  H    0.000000  -0.052120  -0.069808   0.516198  -0.064675  -0.009113
    32  H    0.000000  -0.001335   0.006775  -0.031518  -0.004070   0.000020
    33  H    0.000000  -0.049731   0.001227  -0.013711  -0.000289   0.000007
    34  H   -0.000001  -0.052434   0.008851  -0.011772  -0.001092   0.000002
    35  H   -0.000169   0.237654  -0.043696   0.030925  -0.001829   0.000018
    36  H   -0.009580  -0.090441  -0.003239  -0.000001  -0.000029  -0.000002
    37  H   -0.001006  -0.278364   0.011629   0.004494  -0.000214   0.000000
    38  H    0.000000   0.000000   0.000000   0.000000   0.000000   0.000000
    39  H    0.000000  -0.000235   0.000000   0.000069   0.000000   0.000000
    40  H    0.000000  -0.000208   0.000000  -0.000072   0.000000   0.000000
    41  H    0.000000   0.000634   0.000000  -0.000100   0.000000   0.000000
    42  H    0.000000   0.000254   0.000000  -0.000009   0.000000   0.000000
    43  H    0.000000   0.001038   0.000000  -0.000005   0.000000   0.000000
    44  H   -0.000021   0.004456   0.000021   0.000089   0.000000   0.000000
    45  H    0.000007   0.010285   0.000229  -0.000013  -0.000004   0.000000
             31         32         33         34         35         36
     1  O    0.000000   0.000000   0.000000  -0.000001   0.000000   0.000000
     2  C   -0.000013  -0.000072  -0.000239  -0.000929  -0.000278   0.000023
     3  C    0.000021   0.000170   0.000315   0.003050   0.001243   0.000100
     4  O    0.000000   0.000000  -0.000001  -0.000002   0.000001   0.000000
     5  H    0.000000   0.000000   0.000000   0.000000   0.000000   0.000000
     6  C    0.000004   0.000360   0.010032   0.002640   0.004087   0.001582
     7  O    0.000000   0.000001  -0.000005  -0.000380  -0.000004  -0.000566
     8  H    0.000000   0.000000   0.000004   0.000059   0.000042   0.000135
     9  C   -0.000002  -0.000025   0.000646   0.000120   0.000062  -0.000001
    10  O    0.000000   0.000000   0.000000   0.000000   0.000000   0.000000
    11  H    0.000000   0.000000   0.000000   0.000000   0.000000   0.000000
    12  C    0.000035   0.000549   0.001322   0.001025   0.000238   0.000023
    13  O    0.000024   0.000670   0.001806   0.000564  -0.000388  -0.000006
    14  C    0.003143   0.006595   0.022602  -0.011024   0.019429   0.001933
    15  O   -0.000181  -0.002346  -0.014809  -0.066741   0.004454   0.000427
    16  C    0.078618   0.093663   0.125037   0.312616   0.004607   0.034012
    17  C    0.006253  -0.157668   0.259976  -0.029493   0.002774  -0.007936
    18  O   -0.000674   0.004637  -0.058310  -0.000891  -0.000548   0.000024
    19  H    0.000001   0.000042  -0.001424   0.000227   0.000019   0.000000
    20  C   -0.194503   0.347538  -0.105947   0.042254  -0.020106   0.000597
    21  O    0.001507  -0.040545   0.001491  -0.000555  -0.000143  -0.000006
    22  H   -0.001163  -0.007510  -0.000144   0.000002   0.000002   0.000000
    23  C   -0.002911   0.011044   0.023934   0.022747  -0.014839   0.440134
    24  O    0.000057  -0.000001  -0.000133  -0.000599   0.006175  -0.044721
    25  H    0.000000   0.000000   0.000000  -0.000001  -0.000169  -0.009580
    26  C   -0.052120  -0.001335  -0.049731  -0.052434   0.237654  -0.090441
    27  O   -0.069808   0.006775   0.001227   0.008851  -0.043696  -0.003239
    28  C    0.516198  -0.031518  -0.013711  -0.011772   0.030925  -0.000001
    29  O   -0.064675  -0.004070  -0.000289  -0.001092  -0.001829  -0.000029
    30  H   -0.009113   0.000020   0.000007   0.000002   0.000018  -0.000002
    31  H    0.651303   0.006890   0.005215   0.000127   0.005363  -0.000016
    32  H    0.006890   0.611824   0.007421   0.004734   0.000046   0.000001
    33  H    0.005215   0.007421   0.646636   0.007814   0.005323  -0.000003
    34  H    0.000127   0.004734   0.007814   0.624667   0.005972  -0.000004
    35  H    0.005363   0.000046   0.005323   0.005972   0.614384  -0.008865
    36  H   -0.000016   0.000001  -0.000003  -0.000004  -0.008865   0.592543
    37  H    0.000003  -0.000010  -0.000001   0.004073   0.006756  -0.042484
    38  H    0.000000   0.000000   0.000000   0.000000   0.000000   0.000000
    39  H    0.000000   0.000000   0.000000   0.000000   0.000000   0.000000
    40  H    0.000000   0.000000   0.000000   0.000000   0.000000   0.000000
    41  H    0.000000   0.000000   0.000000  -0.000006   0.000000   0.000000
    42  H    0.000000   0.000000   0.000000   0.000000   0.000000   0.000000
    43  H    0.000000   0.000000   0.000000  -0.000001   0.000000   0.000000
    44  H    0.000000   0.000000  -0.000013   0.000014  -0.000016   0.000002
    45  H    0.000000  -0.000025  -0.000013   0.008301  -0.000004   0.000000
             37         38         39         40         41         42
     1  O    0.000000   0.245161   0.000295   0.000651   0.004805  -0.051408
     2  C   -0.000048   0.056583  -0.002981  -0.007407   0.055433   0.509368
     3  C    0.000158  -0.050264  -0.001249  -0.006722  -0.060731  -0.152558
     4  O    0.000000   0.001805   0.000013   0.000026   0.000253   0.002697
     5  H    0.000000  -0.002404   0.000000  -0.000002  -0.000044  -0.002662
     6  C   -0.001902   0.001870   0.003272   0.015848  -0.034931  -0.007843
     7  O    0.001052  -0.000016  -0.000010  -0.000004  -0.000171  -0.000061
     8  H    0.000390   0.000000   0.000000   0.000000   0.000001   0.000006
     9  C   -0.000004  -0.004890   0.403353   0.713359   0.051703   0.030222
    10  O    0.000000  -0.002059  -0.040699  -0.069911   0.005184  -0.000201
    11  H    0.000000  -0.000041  -0.014204  -0.000026  -0.000068   0.000011
    12  C   -0.000079   0.010008  -0.028524  -0.371393   0.149116  -0.173209
    13  O    0.000082  -0.000980  -0.001804   0.012430  -0.037776   0.012069
    14  C   -0.007667   0.000068   0.003509   0.005017   0.106396   0.070479
    15  O    0.000327  -0.000022  -0.000379  -0.000320  -0.002328  -0.000448
    16  C    0.021413   0.000204   0.001561  -0.006810  -0.001316  -0.000248
    17  C    0.003571  -0.000065  -0.001105   0.002378   0.003784   0.001361
    18  O    0.000019   0.000000  -0.000659   0.000027  -0.000078   0.000042
    19  H    0.000000   0.000000   0.000145  -0.000090   0.000292   0.000018
    20  C    0.003981  -0.000001  -0.000605   0.000641   0.000662   0.000008
    21  O   -0.000015   0.000000  -0.000001   0.000000   0.000000   0.000000
    22  H    0.000000   0.000000   0.000000   0.000000   0.000000   0.000000
    23  C    0.608729   0.000003   0.000000   0.000016   0.000137   0.000028
    24  O   -0.075484   0.000000   0.000000   0.000000   0.000009   0.000008
    25  H   -0.001006   0.000000   0.000000   0.000000   0.000000   0.000000
    26  C   -0.278364   0.000000  -0.000235  -0.000208   0.000634   0.000254
    27  O    0.011629   0.000000   0.000000   0.000000   0.000000   0.000000
    28  C    0.004494   0.000000   0.000069  -0.000072  -0.000100  -0.000009
    29  O   -0.000214   0.000000   0.000000   0.000000   0.000000   0.000000
    30  H    0.000000   0.000000   0.000000   0.000000   0.000000   0.000000
    31  H    0.000003   0.000000   0.000000   0.000000   0.000000   0.000000
    32  H   -0.000010   0.000000   0.000000   0.000000   0.000000   0.000000
    33  H   -0.000001   0.000000   0.000000   0.000000   0.000000   0.000000
    34  H    0.004073   0.000000   0.000000   0.000000  -0.000006   0.000000
    35  H    0.006756   0.000000   0.000000   0.000000   0.000000   0.000000
    36  H   -0.042484   0.000000   0.000000   0.000000   0.000000   0.000000
    37  H    0.586671   0.000000   0.000000   0.000000   0.000000   0.000000
    38  H    0.000000   0.390526  -0.000015   0.000030  -0.000133  -0.011622
    39  H    0.000000  -0.000015   0.607503  -0.049847  -0.011028  -0.000042
    40  H    0.000000   0.000030  -0.049847   0.610388   0.007420   0.004344
    41  H    0.000000  -0.000133  -0.011028   0.007420   0.614694   0.006655
    42  H    0.000000  -0.011622  -0.000042   0.004344   0.006655   0.612667
    43  H    0.000000   0.000374   0.000004   0.000002   0.003515   0.005923
    44  H   -0.000001   0.000018   0.000001   0.000003   0.000110   0.002428
    45  H    0.000022   0.000000   0.000006  -0.000009   0.003657  -0.000021
             43         44         45
     1  O   -0.014046  -0.000860   0.000054
     2  C    0.234795   0.113203   0.027342
     3  C    0.273154  -0.261938  -0.064590
     4  O   -0.042932   0.003361  -0.000620
     5  H   -0.002189   0.000077   0.000006
     6  C   -0.324154   0.391556  -0.021662
     7  O    0.006668  -0.042039  -0.000038
     8  H   -0.000125  -0.007980  -0.001006
     9  C    0.027747   0.012475   0.004719
    10  O    0.000246   0.000025   0.000020
    11  H    0.000001   0.000000   0.000000
    12  C   -0.073978  -0.012352  -0.007368
    13  O    0.006919   0.018197  -0.044511
    14  C    0.133416  -0.001554   0.328552
    15  O   -0.000940  -0.016995  -0.064229
    16  C    0.003936   0.034935   0.036389
    17  C    0.000607   0.001188   0.019935
    18  O    0.000011   0.000096  -0.000998
    19  H    0.000000  -0.000004   0.000237
    20  C   -0.000086   0.000337   0.009461
    21  O    0.000000   0.000000   0.000005
    22  H    0.000000   0.000000   0.000000
    23  C    0.000035   0.005508   0.004717
    24  O    0.000107   0.002443   0.000346
    25  H    0.000000  -0.000021   0.000007
    26  C    0.001038   0.004456   0.010285
    27  O    0.000000   0.000021   0.000229
    28  C   -0.000005   0.000089  -0.000013
    29  O    0.000000   0.000000  -0.000004
    30  H    0.000000   0.000000   0.000000
    31  H    0.000000   0.000000   0.000000
    32  H    0.000000   0.000000  -0.000025
    33  H    0.000000  -0.000013  -0.000013
    34  H   -0.000001   0.000014   0.008301
    35  H    0.000000  -0.000016  -0.000004
    36  H    0.000000   0.000002   0.000000
    37  H    0.000000  -0.000001   0.000022
    38  H    0.000374   0.000018   0.000000
    39  H    0.000004   0.000001   0.000006
    40  H    0.000002   0.000003  -0.000009
    41  H    0.003515   0.000110   0.003657
    42  H    0.005923   0.002428  -0.000021
    43  H    0.606524   0.006610   0.000964
    44  H    0.006610   0.584487   0.004557
    45  H    0.000964   0.004557   0.599250
 Mulliken atomic charges:
              1
     1  O   -0.505928
     2  C   -0.318961
     3  C    0.165682
     4  O   -0.506363
     5  H    0.331870
     6  C    0.095265
     7  O   -0.541439
     8  H    0.455365
     9  C   -0.128073
    10  O   -0.543527
    11  H    0.363980
    12  C    0.336494
    13  O   -0.404536
    14  C    0.077660
    15  O   -0.378451
    16  C   -0.302640
    17  C    0.039384
    18  O   -0.546442
    19  H    0.445972
    20  C    0.203677
    21  O   -0.497742
    22  H    0.352170
    23  C   -0.151954
    24  O   -0.641878
    25  H    0.404752
    26  C    0.219844
    27  O   -0.306942
    28  C    0.134608
    29  O   -0.524955
    30  H    0.363695
    31  H    0.120418
    32  H    0.142141
    33  H    0.123964
    34  H    0.126068
    35  H    0.141313
    36  H    0.136363
    37  H    0.153907
    38  H    0.365862
    39  H    0.133656
    40  H    0.140240
    41  H    0.134251
    42  H    0.141742
    43  H    0.145863
    44  H    0.157579
    45  H    0.146047
 Sum of Mulliken atomic charges =   0.00000
 Mulliken charges with hydrogens summed into heavy atoms:
              1
     1  O   -0.140066
     2  C   -0.177219
     3  C    0.311545
     4  O   -0.174493
     6  C    0.252844
     7  O   -0.086074
     9  C    0.145824
    10  O   -0.179547
    12  C    0.470745
    13  O   -0.404536
    14  C    0.223707
    15  O   -0.378451
    16  C   -0.176572
    17  C    0.163349
    18  O   -0.100470
    20  C    0.345818
    21  O   -0.145573
    23  C    0.138316
    24  O   -0.237126
    26  C    0.361157
    27  O   -0.306942
    28  C    0.255025
    29  O   -0.161260
 Sum of Mulliken charges with hydrogens summed into heavy atoms =   0.00000
 APT atomic charges:
              1
     1  O   -0.625115
     2  C    0.400617
     3  C    0.388783
     4  O   -0.603225
     5  H    0.231658
     6  C    0.364832
     7  O   -0.722833
     8  H    0.470615
     9  C    0.477320
    10  O   -0.616221
    11  H    0.250963
    12  C    0.446749
    13  O   -0.836748
    14  C    0.894485
    15  O   -0.874805
    16  C    0.446932
    17  C    0.403947
    18  O   -0.714508
    19  H    0.425040
    20  C    0.383005
    21  O   -0.615053
    22  H    0.254943
    23  C    0.453917
    24  O   -0.690183
    25  H    0.277885
    26  C    0.448167
    27  O   -0.802085
    28  C    0.950905
    29  O   -0.679959
    30  H    0.269200
    31  H   -0.089382
    32  H   -0.048640
    33  H   -0.061554
    34  H   -0.047595
    35  H   -0.058815
    36  H   -0.046992
    37  H   -0.031768
    38  H    0.263492
    39  H   -0.051346
    40  H   -0.054367
    41  H   -0.059444
    42  H   -0.046694
    43  H   -0.049976
    44  H   -0.021915
    45  H   -0.054234
 Sum of APT charges=   0.00000
 APT Atomic charges with hydrogens summed into heavy atoms:
              1
[...]
 0.00104859,-0.00031681,0.00020745,-0.00014572,-0.00003870,0.00003373,-
 0.00004708,-0.00002727,-0.01693961,0.00197112,0.00111087,0.00211952,0.
 00034358,0.00043729,-0.00017390,-0.00020568,-0.00007680,0.00013309,0.0
 0002200,0.00020144,0.00001200,0.00001379,-0.00001462,-0.00003141,0.000
 01462,0.00000988,0.00006499,-0.00004157,0.00001649,-0.00009513,0.00005
 988,-0.00003136,-0.00000761,0.00000084,-0.00000223,0.00000952,-0.00000
 602,0.00000572,-0.00000259,-0.00000063,-0.00000210,-0.00000758,0.00000
 697,-0.00000316,0.00003661,0.00001069,0.00003575,-0.00001281,0.0000024
 3,0.00000334,-0.00002534,-0.00000625,0.00000241,0.00001381,-0.00000382
 ,0.00000730,-0.00000964,0.00000974,-0.00000326,0.00000489,-0.00000326,
 -0.00000155,-0.00000168,0.00000088,-0.00000015,0.00000430,-0.00000051,
 0.00000239,0.00000642,-0.00000003,-0.00000320,0.00000910,0.00000183,0.
 00001108,0.00001084,-0.00000271,-0.00000882,0.00000920,-0.00000040,0.0
 0000635,-0.00000032,-0.00000024,0.00000460,0.00000344,-0.00000175,-0.0
 0000276,0.00163773,-0.00031570,-0.00061335,0.00035222,0.00007667,0.000
 07173,0.00044739,-0.00092318,0.00019793,-0.00022390,-0.00154849,0.0018
 0553,0.37664067,-0.00891600,0.00232277,-0.00456695,0.04990292,-0.05195
 883,0.00133809,0.03563458,-0.00871796,-0.00183322,-0.00109551,0.004649
 97,-0.00063284,0.00047271,-0.00069773,0.00113228,0.00089730,0.00086106
 ,0.00145354,-0.00058104,-0.00016780,-0.00038651,-0.00002452,-0.0000205
 2,0.00009989,-0.00111040,0.00158712,-0.00087345,0.00015043,-0.00013619
 ,0.00016045,0.00000349,-0.00005238,-0.00003790,-0.02483755,0.00304772,
 0.00177991,0.00153992,0.00070115,-0.00119938,0.00008341,-0.00057945,0.
 00003665,0.00000997,0.00011065,-0.00006625,-0.00003006,0.00003497,-0.0
 0000983,0.00001073,0.00000921,-0.00000225,0.00001124,-0.00001738,-0.00
 002579,-0.00000502,0.00002969,0.00001967,-0.00000771,0.00000038,-0.000
 00014,0.00000187,0.00000125,-0.00000309,-0.00000052,0.00000008,-0.0000
 0036,-0.00000304,-0.00001803,0.00001198,-0.00003824,-0.00002260,-0.000
 07871,0.00001174,-0.00000105,-0.00000658,0.00001237,-0.00000568,0.0000
 0631,-0.00000395,0.00000631,-0.00000410,0.00000337,-0.00000269,0.00000
 675,0.00000088,-0.00000036,-0.00000556,0.00000062,0.00000021,0.0000009
 0,-0.00000047,0.00000104,-0.00000056,0.00000071,-0.00000061,0.00000014
 ,-0.00000247,-0.00000066,-0.00000301,-0.00000231,-0.00000488,0.0000083
 5,-0.00000326,0.00000221,-0.00000243,0.00000066,0.00000219,-0.00000943
 ,0.00000009,0.00000130,0.00000147,-0.00055850,0.00138624,0.00034579,0.
 00035925,0.00027788,0.00003405,0.00067983,-0.00021678,0.00010851,-0.00
 210666,-0.00224257,0.00304975,-0.05046819,0.05556564,-0.04093897,0.000
 27670,-0.02099589,0.00788550,-0.00064361,-0.04310463,0.00990067,-0.000
 36763,0.00174049,-0.00114736,0.00037672,0.00027492,-0.00052182,0.00015
 735,-0.00013174,0.00065417,0.00037956,0.00047568,-0.00022402,-0.000043
 33,-0.00006119,0.00000893,0.00003493,0.00003268,-0.00034477,-0.0012802
 8,0.00070872,0.00002558,0.00013635,0.00011177,0.00000012,-0.00002558,0
 .00007377,0.02504582,-0.00250552,0.00001673,-0.00160769,-0.00017800,0.
 00243616,0.00041813,-0.00025294,-0.00012567,-0.00009382,-0.00000608,-0
 .00020417,-0.00001857,-0.00002598,0.00001654,0.00002525,-0.00000699,0.
 00000272,-0.00005252,0.00001298,-0.00000267,0.00007806,-0.00000896,-0.
 00000489,0.00000607,-0.00000468,0.00000782,-0.00000802,0.00000866,-0.0
 0001125,0.00000233,-0.00000033,0.00000267,0.00000600,-0.00000087,0.000
 00426,-0.00001549,-0.00001104,-0.00001688,0.00000551,0.00000091,-0.000
 00106,0.00001754,0.00000968,0.00000383,-0.00000875,0.00000251,-0.00001
 746,0.00000355,-0.00000628,0.00001502,0.00000043,0.00000072,-0.0000099
 5,0.00000085,-0.00000050,0.00000228,-0.00000257,0.00000015,-0.00000232
 ,-0.00000517,0.00000063,0.00000298,-0.00000828,-0.00000104,-0.00000996
 ,-0.00000723,0.00000215,0.00000901,-0.00000617,-0.00000119,-0.00000602
 ,-0.00000141,-0.00000193,-0.00000302,-0.00000159,0.00000168,0.00000236
 ,-0.00322547,0.00065516,0.00282783,-0.00016221,-0.00022677,-0.00003607
 ,-0.00055897,0.00031482,-0.00000802,0.00179960,0.00274199,-0.00331830,
 0.00342732,0.00244871,0.05975383,0.00142667,-0.00054084,0.00029521,-0.
 00724111,0.00272735,-0.00298064,-0.32493343,0.07223538,-0.06309206,-0.
 02328462,-0.01019711,0.00825166,-0.00113227,-0.00039988,-0.00065929,-0
 .00590980,0.00297331,-0.00311188,0.00131018,-0.00042883,0.00044202,0.0
 0016543,-0.00004015,0.00005511,0.00052863,0.00018110,-0.00020444,0.000
 02340,-0.00006528,-0.00000176,-0.00001046,0.00000022,0.00000622,-0.000
 61900,0.00011473,0.00039535,0.00034716,0.00000202,0.00028655,-0.000845
 47,-0.00069786,-0.00017154,0.00027616,0.00007616,-0.00047359,-0.000089
 68,0.00009443,-0.00002331,0.00001089,-0.00003007,-0.00006712,0.0000317
 3,0.00001026,0.00004473,-0.00002628,0.00001019,-0.00003837,-0.00002246
 ,0.00001244,0.00000770,0.00001368,0.00000987,-0.00000596,-0.00000566,0
 .00000006,-0.00000382,-0.00002492,0.00000369,0.00002427,0.00005775,0.0
 0004296,0.00004126,-0.00003067,0.00000242,0.00002211,-0.00001173,0.000
 01051,0.00000880,0.00001395,0.00000696,-0.00002054,-0.00000917,-0.0000
 1416,0.00001289,0.00000792,0.00000201,-0.00000896,-0.00000096,-0.00000
 028,0.00000141,0.00000247,0.00000079,0.00000089,0.00000641,0.00000006,
 -0.00000185,0.00000886,-0.00000071,0.00000877,0.00001064,-0.00000077,-
 0.00002299,0.00000851,-0.00000452,0.00000582,0.00000109,-0.00000187,0.
 00000310,0.00000815,0.00000048,-0.00000850,0.00024119,-0.00036294,-0.0
 0014441,-0.00002015,0.00014701,-0.00000760,0.00001220,-0.00023182,0.00
 002297,0.00085946,0.00015883,-0.00026587,0.00052256,0.00059178,-0.0000
 7140,0.35749903,-0.00218868,0.00303586,0.00137425,0.03349351,-0.010705
 27,0.00641569,0.07294099,-0.05790335,0.01235548,-0.03181799,-0.0016023
 3,0.00386121,-0.00056428,-0.00028727,-0.00062669,-0.00509664,0.0028169
 4,-0.00311413,-0.00044363,0.00088506,0.00127293,-0.00003948,-0.0000670
 8,-0.00012955,-0.00025462,-0.00012854,0.00006568,-0.00004221,0.0000342
 2,-0.00003536,0.00000323,0.00002547,0.00001733,0.00194043,0.00181694,-
 0.00096883,-0.00033053,-0.00017221,0.00021249,0.00033367,-0.00035739,-
 0.00016365,0.00000079,0.00006944,-0.00029413,-0.00000683,0.00005627,0.
 00000783,0.00000793,-0.00003751,-0.00005327,-0.00001439,0.00001592,0.0
 0005510,-0.00000003,0.00000849,-0.00006933,0.00000137,0.00001115,0.000
 00893,0.00000101,0.00000254,-0.00000689,0.,0.00000206,-0.00000119,-0.0
 0000140,0.00002146,-0.00002301,0.00007127,0.00003005,0.00008881,-0.000
 02146,0.00000677,0.00000675,-0.00000227,0.00002826,0.00000384,0.000000
 35,-0.00001213,-0.00000432,0.00000002,-0.00000109,0.00000094,-0.000000
 61,0.00000039,0.00000342,-0.00000029,0.00000019,-0.00000068,-0.0000003
 2,-0.00000075,-0.00000023,-0.00000079,0.,-0.00000069,0.00000064,0.0000
 0191,0.00000127,0.00000283,0.00000346,-0.00000272,0.00000098,-0.000004
 99,0.00000010,-0.00000084,-0.00000454,0.00001008,-0.00000106,0.0000008
 6,-0.00000319,-0.00008656,0.00034722,0.00037222,-0.00009933,-0.0001337
 1,-0.00004977,-0.00020219,0.00021103,-0.00004708,-0.00081989,-0.000394
 94,0.00034410,0.00080001,-0.00558999,-0.00179084,-0.06689849,0.0678529
 0,0.00028152,0.00149255,0.00142446,0.00917722,-0.00605695,0.00273179,-
 0.06473136,0.01247721,-0.05647282,0.02544304,0.00413778,0.00152870,0.0
 0139330,-0.00023278,0.00020821,-0.03596914,0.00758727,-0.00911724,0.00
 246982,0.00064215,0.00368111,-0.00012030,0.00043093,-0.00001256,-0.000
 04949,-0.00004804,0.00015062,-0.00001400,0.00002893,-0.00001272,-0.000
 00047,0.00002030,-0.00000030,-0.00045163,0.00015472,-0.00068666,0.0001
 9514,0.00053470,-0.00016937,-0.00094133,-0.00084050,0.00116687,0.00043
 787,0.00014907,-0.00066986,0.00006985,0.00013522,0.00009178,0.00002635
 ,-0.00004319,-0.00006383,0.00002131,0.00003810,0.00000453,-0.00000837,
 -0.00004377,0.00001074,-0.00002919,0.00000574,0.00002246,0.00000894,0.
 00003135,-0.00002946,-0.00000413,0.00000081,-0.00000292,-0.00001827,0.
 00004859,0.00001482,0.00011569,0.00003026,0.00018970,-0.00000710,0.000
 02419,0.00000280,-0.00000602,0.00004737,0.00004949,0.00000772,-0.00000
 117,-0.00006206,-0.00000394,-0.00002432,0.00004786,0.00001155,0.000001
 09,-0.00003163,0.00000088,0.00000027,0.00000510,-0.00000016,0.00000113
 ,-0.00000198,0.00000235,-0.00000007,-0.00000135,0.00000444,-0.00000080
 ,0.00000301,0.00003241,0.00001112,-0.00007376,0.00000977,-0.00000910,0
 .00000582,-0.00000226,-0.00001519,0.00001266,0.00000621,-0.00000131,-0
 .00000877,0.00012660,0.00014155,0.00006361,-0.00004388,-0.00008196,-0.
 00001728,-0.00000256,0.00001357,-0.00003692,-0.00001265,0.00022405,0.0
 0007519,0.00072165,-0.00173597,-0.00035744,0.06214567,-0.01816382,0.06
 258809,0.00034713,-0.00013184,-0.00003319,-0.00050199,0.00085545,-0.00
 007819,-0.00811665,-0.00177845,-0.00216100,0.00193237,-0.00010787,0.00
 154188,0.00030430,0.00004095,0.00019770,-0.35516274,-0.00691459,-0.038
 70285,-0.00925229,0.01351393,0.00476400,-0.00022715,0.00053357,-0.0013
 8377,-0.00003764,0.00000364,-0.00001144,0.00003674,0.00002716,0.000026
 83,-0.00001131,-0.00000124,-0.00000278,-0.00027984,-0.00019826,0.00004
 330,0.00175297,-0.00066483,-0.00025109,-0.01516106,-0.00071321,-0.0007
 5248,0.00166287,0.00091726,-0.00304127,0.00057408,0.00035948,0.0001225
 5,0.00005830,-0.00001892,-0.00011771,0.00006653,0.00001795,-0.00002369
 ,-0.00009629,-0.00006364,-0.00002615,-0.00005215,0.00004152,0.00004651
 ,0.00002196,0.00002825,-0.00006040,-0.00000670,0.00000731,-0.00000548,
 -0.00002199,0.00022183,-0.00012984,0.00029074,-0.00001817,0.00072503,-
 0.00004346,0.00001584,-0.00003945,-0.00003310,0.00013282,0.00009549,0.
 00000203,-0.00009101,-0.00006653,-0.00000378,0.00002221,0.00005633,0.0
 0001379,-0.00001428,-0.00003731,0.00000057,0.00000338,0.00000567,0.000
 00341,-0.00000324,0.00000035,0.00000700,0.00000291,-0.00000231,0.00000
 495,-0.00001375,0.00001829,0.00005906,0.00005145,-0.00038311,0.0000223
 3,-0.00002442,0.00000489,0.00000259,-0.00004826,0.00006365,-0.00000240
 ,-0.00001479,-0.00000792,-0.00003123,-0.00006912,-0.00007771,0.0000165
 8,-0.00000366,-0.00000584,0.00003240,-0.00004952,0.00000430,0.00011840
 ,0.00008761,-0.00000144,0.00044080,-0.00052482,-0.00014397,0.00051003,
 -0.00064606,-0.00065888,0.38081492,0.00011116,-0.00002439,0.00002626,-
 0.00061884,0.00033504,0.00034798,-0.00763624,0.00203598,-0.00138520,0.
 00098145,-0.00000524,0.00092280,-0.00002405,-0.00015169,0.00001937,-0.
 00765563,-0.03815298,0.00027055,0.04221884,-0.02045512,-0.00548451,0.0
 0113771,0.00081010,0.00238562,-0.00004617,0.00006270,0.00002349,0.0000
 1188,-0.00003737,-0.00001052,0.00000036,0.00000395,-0.00000145,-0.0001
 7769,-0.00017206,-0.00010229,0.00120168,0.00149371,0.00005695,-0.02571
 234,-0.00084049,-0.00004575,-0.00007945,0.00048631,-0.00130816,0.00002
 908,0.00030763,0.00009380,0.00000234,-0.00007643,-0.00013474,0.0001137
 5,0.00000134,0.00006312,-0.00014000,0.00002206,-0.00007577,-0.00003444
 ,0.00002279,0.00002237,0.00001628,0.00002508,-0.00002052,-0.00000385,0
 .00000246,-0.00000481,-0.00002070,-0.00005805,0.00009202,-0.00055381,-
 0.00017865,-0.00036600,0.00014850,-0.00001728,-0.00003155,0.00008401,-
 0.00006577,0.00003328,-0.00000953,0.00005541,-0.00004064,-0.00000511,-
 0.00004940,0.00002737,0.00000692,0.00001255,-0.00001527,0.00000131,-0.
 00000231,0.00000365,-0.00000187,0.00000573,-0.00000040,0.00000927,0.00
 000145,-0.00000969,0.00001645,-0.00000323,0.00001951,0.00016570,-0.000
 03842,-0.00009654,-0.00000391,0.00002840,0.00000333,-0.00000263,0.0000
 1452,-0.00004423,-0.00000255,-0.00001212,0.00004733,0.00001995,0.00002
 168,-0.00000746,0.00000103,-0.00002088,0.00000617,0.00003217,-0.000057
 94,-0.00000265,0.00014140,0.00010868,0.00004776,0.00009087,-0.00006368
 ,-0.00023921,0.00029078,0.00002950,-0.00144033,-0.00375340,0.05716230,
 0.00067405,-0.00015178,-0.00027704,-0.00093766,0.00133638,0.00086975,-
 0.03542421,-0.00133347,-0.00928555,0.00034771,-0.00081691,0.00297502,-
 0.00009516,-0.00008538,0.00044640,-0.04261132,0.00073123,-0.04694644,0
 .01150998,-0.00748095,0.00255974,0.00167708,-0.00044051,0.00087483,-0.
 00006818,-0.00000932,0.00008184,0.00002030,0.00001946,0.00001587,-0.00
 000161,-0.00000130,0.00000779,-0.00019525,-0.00013632,-0.00058588,-0.0
 0120212,-0.00045532,0.00033745,0.02430724,0.00441918,-0.00069984,0.001
 65021,0.00012006,0.00000404,0.00038650,0.00000100,-0.00038663,0.000039
 82,0.00010638,0.00011456,-0.00011669,-0.00005673,-0.00010053,0.0001174
 7,0.00000429,0.00014560,0.00002405,-0.00001353,-0.00002693,-0.00001615
 ,-0.00004400,0.00001959,0.00000553,0.00000102,0.00000741,0.00008555,0.
 00001473,-0.00015194,-0.00028925,0.00005342,0.00004507,0.00001597,-0.0
 0002477,0.00007256,-0.00001739,0.00000327,-0.00004471,-0.00005083,-0.0
 0006036,0.00014251,0.00001903,0.00010192,-0.00006646,-0.00002259,-0.00
 001736,0.00004214,-0.00000008,0.00000050,-0.00000827,0.00000035,-0.000
 00770,-0.00000089,-0.00001269,-0.00000575,0.00001322,-0.00003895,0.000
 02138,-0.00003362,-0.00029298,0.00001372,0.00004504,-0.00004722,-0.000
 00514,-0.00007030,-0.00000304,-0.00000268,0.00001343,-0.00003399,-0.00
 000427,0.00004574,0.00003640,-0.00018593,-0.00009455,0.00000609,-0.000
 03877,0.00000599,0.00001667,-0.00003261,0.00000992,0.00011347,0.000094
 29,-0.00011012,0.00048135,-0.00052956,-0.00014750,-0.00038355,-0.00097
 437,-0.00583393,0.03948495,0.00358740,0.05859404,0.00005291,0.00000697
 ,0.00014023,0.00000059,0.00015740,-0.00006621,-0.00067946,-0.00048217,
 -0.00021039,0.00023737,-0.00003418,0.00030601,-0.00001149,-0.00003700,
 0.00007276,-0.00801436,0.00326315,0.00209773,0.00232121,0.00028714,-0.
 00134326,-0.00078806,-0.00028414,-0.00010174,0.00034991,-0.00018416,0.
 00022732,-0.00001294,0.00010754,0.00001993,-0.00001013,0.00000379,0.00
 001676,-0.00000230,-0.00001983,0.00029046,0.00116554,0.00601197,0.0014
 7721,-0.34732846,0.02770029,0.07018587,-0.01968380,0.00004680,-0.00486
 891,0.00043809,-0.00031503,0.00339005,0.00018323,0.00003757,-0.0001090
 9,0.00036789,-0.00004053,-0.00026072,-0.00031945,-0.00024323,0.0003385
 7,-0.00008582,0.00008594,0.00004273,0.00004932,0.00003530,-0.00005354,
 -0.00001497,0.00000840,-0.00001559,-0.00018539,0.00011435,-0.00001536,
 0.00016053,-0.00006027,0.00009057,-0.00001168,-0.00000976,-0.00000572,
 0.00038922,0.00007956,-0.00005557,0.00000277,-0.00009879,-0.00026117,-
 0.00001798,-0.00005714,0.00007754,0.00002607,0.00000489,-0.00004822,0.
 00000132,0.00000084,0.00000609,0.00000715,0.00000598,0.00000407,0.0000
 4059,0.00001483,-0.00003689,0.00006070,-0.00018253,0.00014644,0.000980
 58,0.00008112,-0.00137047,0.00010228,0.00009081,0.00020216,0.00004073,
 -0.00001921,0.00000467,0.00005615,-0.00004061,-0.00004077,0.00000725,-
 0.00000519,-0.00000478,-0.00001466,0.00000689,-0.00000993,-0.00000143,
 -0.00018597,-0.00008208,0.00010791,0.00042299,0.00087729,0.00004490,-0
 .00005964,-0.00013518,0.00031367,-0.00001818,0.00036584,-0.00005510,-0
 .00035069,0.00084112,0.36972959,0.00008604,0.00036777,-0.00030879,-0.0
 0046101,-0.00075199,-0.00020330,-0.00052961,-0.00043762,-0.00097681,0.
 00009653,-0.00004859,0.00082782,0.00009496,-0.00014542,0.00018219,-0.0
 2011931,0.00395724,0.00459766,0.00120665,0.00318528,-0.00062273,-0.000
 69522,-0.00014609,-0.00017183,0.00007358,0.00013093,-0.00016365,-0.000
 21515,-0.00033855,-0.00023203,0.00001595,0.00002580,-0.00005277,0.0033
 9120,0.00081114,0.00489109,0.03181606,-0.01675978,-0.01401747,0.026734
 42,-0.04484220,-0.00489825,-0.00338680,0.00385686,-0.00024520,0.000085
 85,-0.00035204,0.00065439,0.00009656,-0.00030481,-0.00010905,-0.000331
 71,0.00019520,0.00060842,0.00015476,0.00032736,-0.00131656,0.00008312,
 0.00001546,0.00009683,-0.00002659,0.00006690,-0.00005997,0.00000149,0.
 00000212,0.00000648,-0.00005546,0.00006642,-0.00007263,0.00005211,-0.0
 0005550,0.00006413,-0.00001837,-0.00000026,-0.00001782,-0.00009329,0.0
 0017764,0.00009045,-0.00001060,-0.00000561,-0.00009555,-0.00000162,-0.
 00005126,0.00010214,0.00001114,0.00000475,-0.00004620,0.00000061,0.000
 00100,0.00001062,-0.00000779,-0.00000089,-0.00001112,-0.00002758,-0.00
 000478,0.00000731,0.00001725,0.00001927,0.00001000,0.00013669,-0.00001
 052,0.00015069,-0.00000997,-0.00004789,-0.00002687,0.00001309,-0.00002
 223,0.00000745,0.00000372,-0.00001159,-0.00003930,-0.00002228,0.000001
 44,-0.00001258,-0.00001478,-0.00002387,0.00002087,-0.00023327,0.000159
 32,-0.00007398,-0.00121574,0.00039653,-0.00035417,-0.00004199,-0.00008
 120,0.00006720,0.00020979,0.00008873,0.00032927,-0.00101720,-0.0025658
 6,0.00228518,-0.03584626,0.05315138,-0.00005813,-0.00007236,-0.0003232
 6,-0.00006202,0.00028316,-0.00002066,0.00054156,-0.00041178,0.00139352
 ,-0.00028168,0.00027498,-0.00052659,-0.00009779,-0.00000512,-0.0000730
 7,0.02234956,-0.00366843,0.00102266,-0.00276692,-0.00114279,0.00139488
 ,-0.00004967,0.00023255,-0.00020073,-0.00007591,-0.00007403,0.00002318
 ,-0.00009509,-0.00013603,-0.00012524,0.00001864,0.00001131,-0.00000830
 ,0.00217771,0.00033000,0.00312228,0.00930052,-0.00757121,-0.00159972,0
 .07789022,-0.00191672,-0.06458968,-0.03420679,0.00223150,-0.00605615,-
 0.00424129,-0.00043794,0.00583063,0.00006961,-0.00008823,-0.00034111,0
 .00014527,0.00008971,0.00032302,-0.00016980,-0.00007182,-0.00067854,0.
 00002474,0.00007939,0.00009188,0.00002872,0.00007812,-0.00006366,-0.00
 000942,0.00000427,-0.00001099,-0.00005859,0.00016387,0.00004348,0.0000
 3177,-0.00013543,0.00012447,0.00002744,-0.00000483,-0.00004638,0.00012
 510,-0.00000793,-0.00006841,0.00009813,0.00000507,-0.00025466,-0.00003
 022,-0.00011272,0.00011019,0.00002844,0.00002287,-0.00006591,0.0000026
 9,-0.00000063,0.00001195,-0.00000438,0.00000720,-0.00000013,0.00002639
 ,0.00001591,-0.00006517,0.00020670,-0.00008284,0.00005824,0.00150415,-
 0.00013317,-0.00002040,0.00017408,0.00006981,0.00008065,0.00001052,-0.
 00002163,0.00000352,0.00001489,-0.00003942,-0.00000680,-0.00003122,0.0
 0000786,0.00001484,-0.00000246,-0.00001709,-0.00001142,-0.00013564,0.0
 0010633,-0.00005443,-0.00083593,0.00023627,-0.00009348,-0.00014905,-0.
 00002932,0.00005403,-0.00031309,0.00004529,-0.00041657,0.00100411,0.00
 276754,-0.00261845,-0.07212587,0.00911847,0.06463644\\0.00818230,-0.01
 177287,-0.01225354,-0.00196523,-0.00796802,-0.01272720,-0.01508688,-0.
 02476968,0.00684434,-0.00453670,0.01667494,0.03478297,0.00517283,-0.01
 660028,-0.02357181,0.01832172,-0.00402623,0.00491190,-0.00248512,0.025
 68395,-0.00505026,0.00647966,-0.01916528,0.01708406,-0.00488184,0.0272
 6852,-0.00945874,0.01155077,0.00856729,0.00659075,-0.00639523,-0.03210
 331,0.00120681,0.01314560,0.02206733,0.02802559,0.00920814,-0.00333960
 ,0.03140634,-0.05847911,0.01291166,-0.02305510,0.00360935,-0.03039759,
 -0.00880129,0.00630774,0.02761841,0.03130116,-0.01583992,0.02176103,-0
 .01122274,0.01639132,-0.01797885,0.00525576,0.00179057,0.00074678,-0.0
 2379123,0.01257628,0.01641620,-0.01603358,0.00704061,0.00463089,-0.016
 55654,-0.01050519,-0.01278461,0.02653782,0.01263826,-0.03374543,-0.017
 86549,-0.01753562,-0.00167761,0.00778319,0.00365798,0.03403172,-0.0068
 7154,0.00467340,0.00982820,0.02230552,0.00804933,-0.01038961,0.0144159
 6,-0.01381863,-0.03228839,-0.02529112,0.01028003,0.02005330,0.02636203
 ,-0.00458010,-0.00142519,-0.00067268,-0.02142320,0.00697750,-0.0023300
 6,0.02136316,0.00095768,0.00350209,-0.02420068,-0.00128455,-0.00416594
 ,0.02084445,-0.00663948,-0.00023320,-0.02054948,0.00432669,0.00038332,
 -0.00705238,-0.00757988,-0.01680064,0.01956451,0.00015782,-0.00671259,
 -0.00239845,0.00508111,0.00091524,0.00876839,0.00611163,-0.01718886,-0
 .02067925,0.00139904,-0.00863084,0.02184760,-0.00468171,0.00260532,-0.
 02017956,0.00262778,-0.00261993,0.02135333,-0.00279672,0.00536102,-0.0
 1870030,0.00621502,-0.00162954,0.01847554,0.00130040,-0.00404670\\\@


 IT'S WHAT YOU LEARN AFTER YOU KNOW IT ALL
 THAT COUNTS.
 Job cpu time:  0 days 12 hours 58 minutes 48.6 seconds.
 File lengths (MBytes):  RWF=   1324 Int=      0 D2E=      0 Chk=     19 Scr=      1
 Normal termination of Gaussian 09 at Thu Jan 21 17:58:26 2016.
Gaussian '09 finished on node013 at Thu Jan 21 17:58:26 EST 2016.
