Gaussian '09 started on node029 at Thu Mar  3 09:43:56 EST 2016.
 Entering Gaussian System, Link 0=/usr/local/gaussian/g09/g09
 Initial command:
 /usr/local/gaussian/g09/l1.exe /home/srmcgrat/thesis/gaussian/cellobiose/280/5000/1/no_plus/gaussian30210/Gau-30246.inp -scrdir=/home/srmcgrat/thesis/gaussian/cellobiose/280/5000/1/no_plus/gaussian30210/
 Entering Link 1 = /usr/local/gaussian/g09/l1.exe PID=     30248.
  
 Copyright (c) 1988,1990,1992,1993,1995,1998,2003,2009,2010,
            Gaussian, Inc.  All Rights Reserved.
  
 This is part of the Gaussian(R) 09 program.  It is based on
 the Gaussian(R) 03 system (copyright 2003, Gaussian, Inc.),
 the Gaussian(R) 98 system (copyright 1998, Gaussian, Inc.),
 the Gaussian(R) 94 system (copyright 1995, Gaussian, Inc.),
 the Gaussian 92(TM) system (copyright 1992, Gaussian, Inc.),
 the Gaussian 90(TM) system (copyright 1990, Gaussian, Inc.),
 the Gaussian 88(TM) system (copyright 1988, Gaussian, Inc.),
 the Gaussian 86(TM) system (copyright 1986, Carnegie Mellon
 University), and the Gaussian 82(TM) system (copyright 1983,
 Carnegie Mellon University). Gaussian is a federally registered
 trademark of Gaussian, Inc.
  
 This software contains proprietary and confidential information,
 including trade secrets, belonging to Gaussian, Inc.
  
 This software is provided under written license and may be
 used, copied, transmitted, or stored only in accord with that
 written license.
  
 The following legend is applicable only to US Government
 contracts under FAR:
  
                    RESTRICTED RIGHTS LEGEND
  
 Use, reproduction and disclosure by the US Government is
 subject to restrictions as set forth in subparagraphs (a)
 and (c) of the Commercial Computer Software - Restricted
 Rights clause in FAR 52.227-19.
  
 Gaussian, Inc.
 340 Quinnipiac St., Bldg. 40, Wallingford CT 06492
  
  
 ---------------------------------------------------------------
 Warning -- This program may not be used in any manner that
 competes with the business of Gaussian, Inc. or will provide
 assistance to any competitor of Gaussian, Inc.  The licensee
 of this program is prohibited from giving any competitor of
 Gaussian, Inc. access to this program.  By using this program,
 the user acknowledges that Gaussian, Inc. is engaged in the
 business of creating and licensing software in the field of
 computational chemistry and represents and warrants to the
 licensee that it is not a competitor of Gaussian, Inc. and that
 it will not use this program in any manner prohibited above.
 ---------------------------------------------------------------
  

 Cite this work as:
 Gaussian 09, Revision B.01,
 M. J. Frisch, G. W. Trucks, H. B. Schlegel, G. E. Scuseria, 
 M. A. Robb, J. R. Cheeseman, G. Scalmani, V. Barone, B. Mennucci, 
 G. A. Petersson, H. Nakatsuji, M. Caricato, X. Li, H. P. Hratchian, 
 A. F. Izmaylov, J. Bloino, G. Zheng, J. L. Sonnenberg, M. Hada, 
 M. Ehara, K. Toyota, R. Fukuda, J. Hasegawa, M. Ishida, T. Nakajima, 
 Y. Honda, O. Kitao, H. Nakai, T. Vreven, J. A. Montgomery, Jr., 
 J. E. Peralta, F. Ogliaro, M. Bearpark, J. J. Heyd, E. Brothers, 
 K. N. Kudin, V. N. Staroverov, T. Keith, R. Kobayashi, J. Normand, 
 K. Raghavachari, A. Rendell, J. C. Burant, S. S. Iyengar, J. Tomasi, 
 M. Cossi, N. Rega, J. M. Millam, M. Klene, J. E. Knox, J. B. Cross, 
 V. Bakken, C. Adamo, J. Jaramillo, R. Gomperts, R. E. Stratmann, 
 O. Yazyev, A. J. Austin, R. Cammi, C. Pomelli, J. W. Ochterski, 
 R. L. Martin, K. Morokuma, V. G. Zakrzewski, G. A. Voth, 
 P. Salvador, J. J. Dannenberg, S. Dapprich, A. D. Daniels, 
 O. Farkas, J. B. Foresman, J. V. Ortiz, J. Cioslowski, 
 and D. J. Fox, Gaussian, Inc., Wallingford CT, 2010.
 
 ******************************************
 Gaussian 09:  EM64L-G09RevB.01 12-Aug-2010
                 3-Mar-2016 
 ******************************************
 -------------------------------------------------
 # freq=raman b3lyp/6-31g(2df,p) geom=connectivity
 -------------------------------------------------
 1/10=4,30=1,38=1,57=2/1,3;
 2/12=2,17=6,18=5,40=1/2;
 3/5=1,6=6,7=104,11=2,16=1,25=1,30=1,71=2,74=-5/1,2,3;
 4//1;
 5/5=2,38=5,98=1/2;
 8/6=4,10=90,11=11/1;
 10/13=10,15=4/2;
 11/6=3,8=1,9=11,15=111,16=1/1,2,10;
 10/6=1/2;
 6/7=2,8=2,9=2,10=2,18=1,28=1/1;
 7/8=1,10=1,25=1/1,2,3,16;
 1/10=4,30=1/3;
 99//99;
 ------------
 280 5000.com
 ------------
 Symbolic Z-matrix:
 Charge =  0 Multiplicity = 1
 O                     7.63      7.47      12.175 
 C                     8.112     7.746     13.498 
 C                     7.673     9.139     13.92 
 O                     8.187     10.174    13.07 
 H                     8.166     9.907     12.106 
 C                     8.054     9.5       15.346 
 O                     7.52      10.768    15.756 
 H                     7.825     10.951    16.691 
 C                     8.428     5.398     14.342 
 O                     7.984     4.644     13.205 
 H                     8.248     3.685     13.308 
 C                     7.789     6.753     14.602 
 O                     8.195     7.19      15.907 
 C                     7.673     8.444     16.371 
 O                     8.532     8.729     17.484 
 C                     8.141     8.34      18.809 
 C                     8.922     7.173     19.39 
 O                     8.881     5.984     18.587 
 H                     8.895     6.31      17.641 
 C                     8.375     6.739     20.741 
 O                     9.14      5.655     21.288 
 H                     8.84      5.389     22.204 
 C                     7.842     10.787    19.415 
 O                     8.222     11.464    18.208 
 H                     7.904     12.402    18.34 
 C                     8.43      9.443     19.813 
 O                     7.806     9.103     21.06 
 C                     8.434     7.955     21.65 
 O                     7.77401   7.64656   22.88052 
 H                     8.37501   7.34636   11.58231 
 H                     6.60543   9.17013   13.85507 
 H                     9.17921   7.77329   13.42578 
 H                     9.12017   9.58734   15.36959 
 H                     6.72775   6.61735   14.61797 
 H                     8.27106   4.79441   15.21146 
 H                     9.4815    5.55239   14.23613 
 H                     6.63214   8.42317   16.61814 
 H                     8.04486   11.46086   20.22102 
 H                     9.48671   9.5377    19.95195 
 H                     7.09577   8.11141   18.82047 
 H                     9.94259   7.47052   19.51157 
 H                     7.35652   6.43113   20.62782 
 H                     9.45859   8.18642   21.85387 
 H                     6.78088   10.6564   19.37186 
 H                     8.42926   7.47598   23.56108 
 

 GradGradGradGradGradGradGradGradGradGradGradGradGradGradGradGradGradGrad
 Berny optimization.
 Initialization pass.
 Trust Radius=3.00D-01 FncErr=1.00D-07 GrdErr=1.00D-07
 Number of steps in this run=      2 maximum allowed number of steps=      2.
 GradGradGradGradGradGradGradGradGradGradGradGradGradGradGradGradGradGrad

                          Input orientation:                          
 ---------------------------------------------------------------------
 Center     Atomic      Atomic             Coordinates (Angstroms)
 Number     Number       Type             X           Y           Z
 ---------------------------------------------------------------------
      1          8           0        7.630000    7.470000   12.175000
      2          6           0        8.112000    7.746000   13.498000
      3          6           0        7.673000    9.139000   13.920000
      4          8           0        8.187000   10.174000   13.070000
      5          1           0        8.166000    9.907000   12.106000
      6          6           0        8.054000    9.500000   15.346000
      7          8           0        7.520000   10.768000   15.756000
      8          1           0        7.825000   10.951000   16.691000
      9          6           0        8.428000    5.398000   14.342000
     10          8           0        7.984000    4.644000   13.205000
     11          1           0        8.248000    3.685000   13.308000
     12          6           0        7.789000    6.753000   14.602000
     13          8           0        8.195000    7.190000   15.907000
     14          6           0        7.673000    8.444000   16.371000
     15          8           0        8.532000    8.729000   17.484000
     16          6           0        8.141000    8.340000   18.809000
     17          6           0        8.922000    7.173000   19.390000
     18          8           0        8.881000    5.984000   18.587000
     19          1           0        8.895000    6.310000   17.641000
     20          6           0        8.375000    6.739000   20.741000
     21          8           0        9.140000    5.655000   21.288000
     22          1           0        8.840000    5.389000   22.204000
     23          6           0        7.842000   10.787000   19.415000
     24          8           0        8.222000   11.464000   18.208000
     25          1           0        7.904000   12.402000   18.340000
     26          6           0        8.430000    9.443000   19.813000
     27          8           0        7.806000    9.103000   21.060000
     28          6           0        8.434000    7.955000   21.650000
     29          8           0        7.774012    7.646564   22.880521
     30          1           0        8.375007    7.346356   11.582314
     31          1           0        6.605425    9.170126   13.855071
     32          1           0        9.179211    7.773293   13.425783
     33          1           0        9.120168    9.587345   15.369588
     34          1           0        6.727754    6.617347   14.617975
     35          1           0        8.271062    4.794413   15.211456
     36          1           0        9.481497    5.552386   14.236131
     37          1           0        6.632140    8.423172   16.618136
     38          1           0        8.044865   11.460855   20.221018
     39          1           0        9.486705    9.537696   19.951947
     40          1           0        7.095767    8.111406   18.820468
     41          1           0        9.942589    7.470521   19.511567
     42          1           0        7.356519    6.431126   20.627823
     43          1           0        9.458588    8.186422   21.853870
     44          1           0        6.780877   10.656399   19.371861
     45          1           0        8.429256    7.475979   23.561077
 ---------------------------------------------------------------------
                    Distance matrix (angstroms):
                    1          2          3          4          5
     1  O    0.000000
     2  C    1.434862   0.000000
     3  C    2.415043   1.520281   0.000000
     4  O    2.902222   2.466575   1.434546   0.000000
     5  H    2.496202   2.571089   2.030633   1.000513   0.000000
     6  C    3.788920   2.548526   1.519526   2.377423   3.267383
     7  O    4.869545   3.818575   2.459257   2.830604   3.805409
     8  H    5.705229   4.533171   3.314346   3.721077   4.714705
     9  C    3.102560   2.515014   3.839686   4.948357   5.039784
    10  O    3.028612   3.118435   4.562124   5.535371   5.379600
    11  H    3.998980   4.067716   5.518268   6.493650   6.337571
    12  C    2.535685   1.519603   2.484266   3.769439   4.039785
    13  O    3.784897   2.473723   2.831829   4.117389   4.672315
    14  C    4.307777   2.988989   2.547631   3.762140   4.535818
    15  O    5.530295   4.126849   3.688913   4.657300   5.517656
    16  C    6.710289   5.344193   4.975917   6.025097   6.883772
    17  C    7.335782   5.974955   5.945255   7.034815   7.816837
    18  O    6.699772   5.440030   5.761439   6.962401   7.609502
    19  H    5.729134   4.454170   4.831394   6.027089   6.641240
    20  C    8.629354   7.317395   7.264905   8.407069   9.200170
    21  O    9.413878   8.131000   8.281170   9.426828  10.165496
    22  H   10.313850   9.048750   9.167827  10.332114  11.083150
    23  C    7.966494   6.658188   5.739294   6.383872   7.368912
    24  O    7.259448   6.001643   4.908561   5.297581   6.297761
    25  H    7.899805   6.720607   5.498812   5.728610   6.719853
    26  C    7.929172   6.546767   5.949194   6.786859   7.725467
    27  O    9.035535   7.688883   7.141329   8.070459   8.997229
    28  C    9.521411   8.161034   7.857091   8.865741   9.745259
    29  O   10.707946   9.389134   9.084521  10.139271  11.016058
    30  H    0.960000   1.974523   3.028393   3.200645   2.621990
    31  H    2.600542   2.103664   1.070000   2.031127   2.457158
    32  H    2.014075   1.070000   2.092386   2.621919   2.705759
    33  H    4.112072   2.812435   2.096810   2.550112   3.415204
    34  H    2.740290   2.108160   2.781976   4.144322   4.381824
    35  H    4.097535   3.416591   4.571758   5.790756   5.982762
    36  H    3.369503   2.689294   4.029194   4.939120   5.023013
    37  H    4.652496   3.519062   2.979218   4.251148   4.991377
    38  H    8.990965   7.681382   6.725483   7.267273   8.263332
    39  H    8.258549   6.837647   6.311329   7.032447   7.964894
    40  H    6.697690   5.430923   5.040212   6.205882   7.032328
    41  H    7.692418   6.292054   6.261029   7.203102   7.995945
    42  H    8.520814   7.289309   7.240693   8.474638   9.238962
    43  H    9.876108   8.475130   8.187919   9.095261   9.982592
    44  H    7.916373   6.689137   5.728977   6.474824   7.434575
    45  H   11.414097  10.071697   9.812641  10.835161  11.713153
                    6          7          8          9         10
     6  C    0.000000
     7  O    1.435646   0.000000
     8  H    1.991700   1.000369   0.000000
     9  C    4.239610   5.626789   6.059473   0.000000
    10  O    5.307496   6.650284   7.208032   1.434720   0.000000
    11  H    6.164844   7.529381   8.026106   2.008961   0.999993
    12  C    2.858281   4.186204   4.689181   1.520508   2.537226
    13  O    2.381324   3.644243   3.859621   2.390560   3.718527
    14  C    1.520172   2.408861   2.531907   3.736975   4.955833
    15  O    2.322492   2.857910   2.462921   4.580234   5.941159
    16  C    3.653155   3.949890   3.376848   5.356475   6.714900
    17  C    4.745765   5.300527   4.770880   5.373729   6.747585
    18  O    4.852862   5.723071   5.420428   4.309133   5.618375
    19  H    4.018757   5.031661   4.856571   3.454451   4.825305
    20  C    6.068953   6.466382   5.869067   6.538218   7.831552
    21  O    7.160362   7.705206   7.135072   6.987125   8.227597
    22  H    8.034319   8.500161   7.896787   7.872793   9.070268
    23  C    4.272947   3.673190   2.728985   7.424288   8.736173
    24  O    3.475135   2.643771   1.649869   7.196162   8.461622
    25  H    4.172306   3.081309   2.197918   8.081745   9.303827
    26  C    4.483159   4.363826   3.519513   6.803960   8.178935
    27  O    5.733141   5.566546   4.743799   7.697105   9.034124
    28  C    6.501680   6.594513   5.825683   7.742425   9.082029
    29  O    7.764189   7.782461   7.016557   8.853818  10.132877
    30  H    4.348167   5.464279   6.276515   3.378574   3.176275
    31  H    2.104770   2.646352   3.563898   4.217560   4.775864
    32  H    2.816887   4.141397   4.753247   2.654390   3.357044
    33  H    1.070000   2.025784   2.298510   4.368712   5.514796
    34  H    3.255555   4.376148   4.927670   2.110404   2.732902
    35  H    4.712512   6.045193   6.347565   1.070000   2.032460
    36  H    4.342029   5.775821   6.157549   1.070000   2.032460
    37  H    2.190793   2.651376   2.796094   4.190176   5.268696
    38  H    5.254602   4.548837   3.573419   8.453866   9.782522
    39  H    4.823776   4.794533   3.923323   7.051911   8.469219
    40  H    3.862426   4.077798   3.623495   5.403156   6.659230
    41  H    5.003749   5.553971   4.955151   5.771806   7.183181
    42  H    6.148343   6.524558   6.012263   6.459643   7.660669
    43  H    6.786068   6.899760   6.080027   8.078713   9.461824
    44  H    4.377860   3.692318   2.892058   7.460783   8.696357
    45  H    8.469060   8.519588   7.722620   9.450364  10.745543
                   11         12         13         14         15
    11  H    0.000000
    12  C    3.361211   0.000000
    13  O    4.363787   1.434862   0.000000
    14  C    5.688644   2.449959   1.435373   0.000000
    15  O    6.554507   3.572471   2.229130   1.434530   0.000000
    16  C    7.207043   4.510135   3.122022   2.484690   1.435210
    17  C    7.043518   4.938120   3.558104   3.505682   2.491199
    18  O    5.792576   4.202862   3.017852   3.524418   2.978831
    19  H    5.107262   3.264201   2.066678   2.767696   2.451118
    20  C    8.036948   6.166921   4.858329   4.743072   3.820052
    21  O    8.267827   6.908936   5.674893   5.840163   4.928444
    22  H    9.077053   7.794582   6.581173   6.687212   5.790411
    23  C    9.375430   6.280202   5.036773   3.845016   2.905207
    24  O    9.193667   5.948466   4.854112   3.577201   2.846138
    25  H   10.071020   6.774738   5.759263   4.426747   3.823356
    26  C    8.689230   5.899280   4.515315   3.663115   2.438122
    27  O    9.468030   6.872303   5.510381   4.736950   3.668069
    28  C    9.373178   7.178797   5.798655   5.355939   4.238424
    29  O   10.370719   8.326620   7.001120   6.558962   5.555957
    30  H    4.049648   3.132727   4.331254   4.962776   6.063518
    31  H    5.751865   2.793072   3.264669   2.827875   4.132240
    32  H    4.194659   2.087384   2.732277   3.375326   4.219169
    33  H    6.312566   3.224083   2.625264   2.098657   2.356573
    34  H    3.553286   1.070000   2.035271   2.702452   3.991050
    35  H    2.203287   2.107103   2.495677   3.875784   4.551211
    36  H    2.422823   2.107103   2.669955   4.023650   4.641237
    37  H    6.001523   2.862272   2.113991   1.070000   2.110147
    38  H   10.406489   7.335035   6.072355   4.905338   3.897640
    39  H    8.940384   6.265674   4.851987   4.160394   2.766986
    40  H    7.162961   4.485679   3.247399   2.538447   2.056778
    41  H    7.462309   5.408940   4.015678   3.995230   2.772104
    42  H    7.868656   6.049891   4.854391   4.719360   4.067629
    43  H    9.734486   7.578380   6.160744   5.772047   4.499857
    44  H    9.355387   6.245351   5.101071   3.833505   3.216414
    45  H   10.932976   9.010976   7.662999   7.294258   6.205762
                   16         17         18         19         20
    16  C    0.000000
    17  C    1.519675   0.000000
    18  O    2.479439   1.435344   0.000000
    19  H    2.460415   1.950512   1.000694   0.000000
    20  C    2.520036   1.520778   2.337900   3.172450   0.000000
    21  O    3.788491   2.440134   2.733262   3.713443   1.435092
    22  H    4.552255   3.332863   3.665842   4.655345   2.044283
    23  C    2.538591   3.772005   4.983364   4.929444   4.292863
    24  O    3.182316   4.505530   5.532479   5.228588   5.363313
    25  H    4.095848   5.429665   6.496635   6.211533   6.168972
    26  C    1.519258   2.360909   3.697453   3.840508   2.859340
    27  O    2.400291   2.785544   4.123047   4.547123   2.452349
    28  C    2.881901   2.440752   3.669689   4.357824   1.519348
    29  O    4.146423   3.704845   4.735384   5.522282   2.400502
    30  H    7.298430   7.828743   7.153857   6.168638   9.178802
    31  H    5.252477   6.323802   6.141726   5.268371   7.513840
    32  H    5.511630   5.999866   5.470709   4.471024   7.431616
    33  H    3.787373   4.693831   4.836635   3.993871   6.125391
    34  H    4.746524   5.281637   4.559688   3.732305   6.341897
    35  H    5.052764   4.851971   3.630625   2.930697   5.862430
    36  H    5.520766   5.431556   4.413270   3.537102   6.704156
    37  H    2.661477   3.806523   3.857895   3.260718   4.782468
    38  H    3.426773   4.454847   5.776251   5.823275   4.761857
    39  H    2.133478   2.495288   3.854700   4.013554   3.113068
    40  H    1.070000   2.130751   2.787009   2.805967   2.684842
    41  H    2.120217   1.070000   2.047325   2.437883   2.122254
    42  H    2.750878   2.129158   2.586295   3.361950   1.070000
    43  H    3.321273   2.717647   3.982048   4.646166   2.123128
    44  H    2.744531   4.088863   5.182455   5.133866   4.445423
    45  H    4.838581   4.210995   5.212631   6.051755   2.915290
                   21         22         23         24         25
    21  O    0.000000
    22  H    0.999906   0.000000
    23  C    5.615190   6.157348   0.000000
    24  O    6.638795   7.297641   1.435123   0.000000
    25  H    7.465950   8.061561   1.941055   0.999196   0.000000
    26  C    4.126581   4.724394   1.520028   2.589156   3.346952
    27  O    3.704085   4.021404   2.354395   3.725759   4.276845
    28  C    2.432998   2.656334   3.655942   4.919897   5.568915
    29  O    2.892814   2.586620   4.677264   6.050287   6.576276
    30  H    9.881611  10.810535   8.571645   7.802443   8.452674
    31  H    8.603989   9.433709   5.920829   5.179108   5.678547
    32  H    8.142675   9.102583   6.836760   6.116140   6.870271
    33  H    7.105725   8.025820   4.408883   3.519251   4.269040
    34  H    7.157812   7.969830   6.452829   6.213783   6.978483
    35  H    6.198391   7.040802   7.332460   7.311981   8.233948
    36  H    7.060879   7.995321   7.543860   7.232514   8.139254
    37  H    5.979947   6.729244   3.856669   3.781793   4.518132
    38  H    6.003809   6.436760   1.070000   2.020799   2.108038
    39  H    4.120749   4.764625   2.134040   2.889892   3.647954
    40  H    4.037515   4.679971   2.840623   3.589347   4.392413
    41  H    2.663828   3.577377   3.926937   4.539559   5.463324
    42  H    2.054023   2.402307   4.547556   5.651055   6.417570
    43  H    2.613390   2.886315   3.914645   5.056089   5.703956
    44  H    5.852439   6.325068   1.070000   2.020799   2.318031
    45  H    2.997999   2.523063   5.338323   6.678526   7.197307
                   26         27         28         29         30
    26  C    0.000000
    27  O    1.435265   0.000000
    28  C    2.364049   1.435405   0.000000
    29  O    3.614857   2.331636   1.430000   0.000000
    30  H    8.493711   9.655884  10.086240  11.318163   0.000000
    31  H    6.237023   7.304580   8.098218   9.227437   3.409249
    32  H    6.644229   7.869886   8.259909   9.559431   2.056063
    33  H    4.499009   5.860241   6.525255   7.873557   4.463265
    34  H    6.153880   6.988617   7.358666   8.391878   3.529891
    35  H    6.542846   7.279126   7.174309   8.197340   4.437779
    36  H    6.880697   7.872696   7.863540   9.056852   3.389011
    37  H    3.805195   4.644381   5.365216   6.412836   5.436600
    38  H    2.094409   2.514046   3.805842   4.657804   9.574200
    39  H    1.070000   2.059494   2.548823   3.884102   8.722878
    40  H    2.130362   2.550136   3.133940   4.142478   7.390036
    41  H    2.503890   3.102845   2.661476   4.010433   8.083674
    42  H    3.299649   2.743669   2.127911   2.593500   9.148562
    43  H    2.608089   2.049730   1.070000   2.045301  10.362660
    44  H    2.094409   2.512715   3.901319   4.728226   8.612472
    45  H    4.232878   3.048120   1.970203   0.960000  11.979587
                   31         32         33         34         35
    31  H    0.000000
    32  H    2.959697   0.000000
    33  H    2.965091   2.659445   0.000000
    34  H    2.667146   2.960941   3.887088   0.000000
    35  H    4.874525   3.589859   4.870131   2.461119   0.000000
    36  H    4.637353   2.383373   4.206682   2.977088   1.729432
    37  H    2.862374   4.135340   3.017359   2.696440   4.222879
    38  H    6.916987   7.814095   5.310621   7.522529   8.341962
    39  H    6.753427   6.767458   4.597263   6.677687   6.815334
    40  H    5.100637   5.792900   4.264408   4.475332   5.040707
    41  H    6.783898   6.140944   4.723697   5.916952   5.333527
    42  H    7.344143   7.549371   6.381318   6.045519   5.731688
    43  H    8.549210   8.442830   6.642517   7.891617   7.552324
    44  H    5.716185   7.029947   4.757453   6.238285   7.341151
    45  H   10.020133  10.167351   8.487386   9.143929   8.771089
                   36         37         38         39         40
    36  H    0.000000
    37  H    4.694060   0.000000
    38  H    8.531870   4.919763   0.000000
    39  H    6.968018   4.528245   2.418645   0.000000
    40  H    5.766840   2.272095   3.752484   3.005185   0.000000
    41  H    5.632236   4.498729   4.475204   2.162170   2.998792
    42  H    6.792750   4.535478   5.092886   3.826916   2.481504
    43  H    8.060311   5.954643   3.922592   2.333247   3.845787
    44  H    7.727874   3.548581   1.722174   2.984879   2.623010
    45  H    9.579251   7.234033   5.213731   4.288904   4.965414
                   41         42         43         44         45
    41  H    0.000000
    42  H    3.002354   0.000000
    43  H    2.496628   3.000492   0.000000
    44  H    4.490631   4.445417   4.408093   0.000000
    45  H    4.323047   3.293397   2.116320   5.511965   0.000000
 Stoichiometry    C12H22O11
 Framework group  C1[X(C12H22O11)]
 Deg. of freedom   129
 Full point group                 C1      NOp   1
 Largest Abelian subgroup         C1      NOp   1
 Largest concise Abelian subgroup C1      NOp   1
                         Standard orientation:                         
 ---------------------------------------------------------------------
 Center     Atomic      Atomic             Coordinates (Angstroms)
 Number     Number       Type             X           Y           Z
 ---------------------------------------------------------------------
      1          8           0       -5.139455   -0.365373    0.326793
      2          6           0       -3.783398   -0.193342   -0.109493
      3          6           0       -3.323981    1.222267    0.200734
      4          8           0       -4.101798    2.226482   -0.465952
      5          1           0       -5.076285    1.999782   -0.468869
      6          6           0       -1.866506    1.485840   -0.138757
      7          8           0       -1.429196    2.788056    0.278463
      8          1           0       -0.473131    2.901532    0.006800
      9          6           0       -3.026971   -2.591842   -0.127220
     10          8           0       -4.216197   -3.249824    0.332368
     11          1           0       -4.141718   -4.235029    0.178066
     12          6           0       -2.740805   -1.186149    0.376847
     13          8           0       -1.399537   -0.845249   -0.002121
     14          6           0       -0.908352    0.439726    0.407603
     15          8           0        0.257328    0.587611   -0.415315
     16          6           0        1.543157    0.193878    0.086129
     17          6           0        2.111358   -1.072118   -0.533397
     18          8           0        1.256678   -2.218578   -0.409455
     19          1           0        0.327523   -1.860696   -0.509355
     20          6           0        3.413415   -1.494572    0.129133
     21          8           0        3.950480   -2.675102   -0.485197
     22          1           0        4.838048   -2.941166   -0.109370
     23          6           0        2.238699    2.634355    0.154980
     24          8           0        1.082512    3.310936   -0.359849
     25          1           0        1.238923    4.272315   -0.136964
     26          6           0        2.607035    1.220394   -0.263978
     27          8           0        3.805546    0.903596    0.459345
     28          6           0        4.375928   -0.327233   -0.009816
     29          8           0        5.557568   -0.608145    0.744980
     30          1           0       -5.699086   -0.546897   -0.431799
     31          1           0       -3.440599    1.371676    1.253814
     32          1           0       -3.801122   -0.279525   -1.175870
     33          1           0       -1.786090    1.455822   -1.205309
     34          1           0       -2.783587   -1.206141    1.445805
     35          1           0       -2.193310   -3.207053    0.140035
     36          1           0       -3.073464   -2.549019   -1.195351
     37          1           0       -0.714499    0.522889    1.456605
     38          1           0        3.082189    3.251381   -0.074591
     39          1           0        2.802406    1.194370   -1.315668
     40          1           0        1.492659    0.079990    1.148851
     41          1           0        2.296353   -0.892084   -1.571792
     42          1           0        3.236449   -1.685436    1.166993
     43          1           0        4.640389   -0.216388   -1.040676
     44          1           0        2.137156    2.621590    1.220074
     45          1           0        6.261907   -0.874413    0.149490
 ---------------------------------------------------------------------
 Rotational constants (GHZ):      0.4086523      0.1432909      0.1089135
 Standard basis: 6-31G(2df,p) (6D, 7F)
 There are   754 symmetry adapted basis functions of A   symmetry.
 Integral buffers will be    131072 words long.
 Raffenetti 2 integral format.
 Two-electron integral symmetry is turned on.
   754 basis functions,  1166 primitive gaussians,   823 cartesian basis functions
    91 alpha electrons       91 beta electrons
       nuclear repulsion energy      2280.2202420101 Hartrees.
 NAtoms=   45 NActive=   45 NUniq=   45 SFac= 1.00D+00 NAtFMM=   50 NAOKFM=F Big=F
 One-electron integrals computed using PRISM.
 NBasis=   754 RedAO= T  NBF=   754
 NBsUse=   754 1.00D-06 NBFU=   754
 Harris functional with IExCor=  402 diagonalized for initial guess.
 ExpMin= 1.61D-01 ExpMax= 5.48D+03 ExpMxC= 8.25D+02 IAcc=1 IRadAn=         1 AccDes= 0.00D+00
 HarFok:  IExCor=  402 AccDes= 0.00D+00 IRadAn=         1 IDoV= 1
 ScaDFX=  1.000000  1.000000  1.000000  1.000000
 FoFCou: FMM=F IPFlag=           0 FMFlag=      100000 FMFlg1=           0
         NFxFlg=           0 DoJE=T BraDBF=F KetDBF=T FulRan=T
         Omega=  0.000000  0.000000  1.000000  0.000000  0.000000 ICntrl=     500 IOpCl=  0
         NMat0=    1 NMatS0=    1 NMatT0=    0 NMatD0=    1 NMtDS0=    0 NMtDT0=    0
         I1Cent=           4 NGrid=           0.
 Petite list used in FoFCou.
 Initial guess orbital symmetries:
       Occupied  (A) (A) (A) (A) (A) (A) (A) (A) (A) (A) (A) (A)
                 (A) (A) (A) (A) (A) (A) (A) (A) (A) (A) (A) (A)
                 (A) (A) (A) (A) (A) (A) (A) (A) (A) (A) (A) (A)
                 (A) (A) (A) (A) (A) (A) (A) (A) (A) (A) (A) (A)
                 (A) (A) (A) (A) (A) (A) (A) (A) (A) (A) (A) (A)
                 (A) (A) (A) (A) (A) (A) (A) (A) (A) (A) (A) (A)
                 (A) (A) (A) (A) (A) (A) (A) (A) (A) (A) (A) (A)
                 (A) (A) (A) (A) (A) (A) (A)
       Virtual   (A) (A) (A) (A) (A) (A) (A) (A) (A) (A) (A) (A)
                 (A) (A) (A) (A) (A) (A) (A) (A) (A) (A) (A) (A)
                 (A) (A) (A) (A) (A) (A) (A) (A) (A) (A) (A) (A)
                 (A) (A) (A) (A) (A) (A) (A) (A) (A) (A) (A) (A)
                 (A) (A) (A) (A) (A) (A) (A) (A) (A) (A) (A) (A)
                 (A) (A) (A) (A) (A) (A) (A) (A) (A) (A) (A) (A)
                 (A) (A) (A) (A) (A) (A) (A) (A) (A) (A) (A) (A)
                 (A) (A) (A) (A) (A) (A) (A) (A) (A) (A) (A) (A)
                 (A) (A) (A) (A) (A) (A) (A) (A) (A) (A) (A) (A)
                 (A) (A) (A) (A) (A) (A) (A) (A) (A) (A) (A) (A)
                 (A) (A) (A) (A) (A) (A) (A) (A) (A) (A) (A) (A)
                 (A) (A) (A) (A) (A) (A) (A) (A) (A) (A) (A) (A)
                 (A) (A) (A) (A) (A) (A) (A) (A) (A) (A) (A) (A)
                 (A) (A) (A) (A) (A) (A) (A) (A) (A) (A) (A) (A)
                 (A) (A) (A) (A) (A) (A) (A) (A) (A) (A) (A) (A)
                 (A) (A) (A) (A) (A) (A) (A) (A) (A) (A) (A) (A)
                 (A) (A) (A) (A) (A) (A) (A) (A) (A) (A) (A) (A)
                 (A) (A) (A) (A) (A) (A) (A) (A) (A) (A) (A) (A)
                 (A) (A) (A) (A) (A) (A) (A) (A) (A) (A) (A) (A)
                 (A) (A) (A) (A) (A) (A) (A) (A) (A) (A) (A) (A)
                 (A) (A) (A) (A) (A) (A) (A) (A) (A) (A) (A) (A)
                 (A) (A) (A) (A) (A) (A) (A) (A) (A) (A) (A) (A)
                 (A) (A) (A) (A) (A) (A) (A) (A) (A) (A) (A) (A)
                 (A) (A) (A) (A) (A) (A) (A) (A) (A) (A) (A) (A)
                 (A) (A) (A) (A) (A) (A) (A) (A) (A) (A) (A) (A)
                 (A) (A) (A) (A) (A) (A) (A) (A) (A) (A) (A) (A)
                 (A) (A) (A) (A) (A) (A) (A) (A) (A) (A) (A) (A)
                 (A) (A) (A) (A) (A) (A) (A) (A) (A) (A) (A) (A)
                 (A) (A) (A) (A) (A) (A) (A) (A) (A) (A) (A) (A)
                 (A) (A) (A) (A) (A) (A) (A) (A) (A) (A) (A) (A)
                 (A) (A) (A) (A) (A) (A) (A) (A) (A) (A) (A) (A)
                 (A) (A) (A) (A) (A) (A) (A) (A) (A) (A) (A) (A)
                 (A) (A) (A) (A) (A) (A) (A) (A) (A) (A) (A) (A)
                 (A) (A) (A) (A) (A) (A) (A) (A) (A) (A) (A) (A)
                 (A) (A) (A) (A) (A) (A) (A) (A) (A) (A) (A) (A)
                 (A) (A) (A) (A) (A) (A) (A) (A) (A) (A) (A) (A)
                 (A) (A) (A) (A) (A) (A) (A) (A) (A) (A) (A) (A)
                 (A) (A) (A) (A) (A) (A) (A) (A) (A) (A) (A) (A)
                 (A) (A) (A) (A) (A) (A) (A) (A) (A) (A) (A) (A)
                 (A) (A) (A) (A) (A) (A) (A) (A) (A) (A) (A) (A)
                 (A) (A) (A) (A) (A) (A) (A) (A) (A) (A) (A) (A)
                 (A) (A) (A) (A) (A) (A) (A) (A) (A) (A) (A) (A)
                 (A) (A) (A) (A) (A) (A) (A) (A) (A) (A) (A) (A)
                 (A) (A) (A) (A) (A) (A) (A) (A) (A) (A) (A) (A)
                 (A) (A) (A) (A) (A) (A) (A) (A) (A) (A) (A) (A)
                 (A) (A) (A) (A) (A) (A) (A) (A) (A) (A) (A) (A)
                 (A) (A) (A) (A) (A) (A) (A) (A) (A) (A) (A) (A)
                 (A) (A) (A) (A) (A) (A) (A) (A) (A) (A) (A) (A)
                 (A) (A) (A) (A) (A) (A) (A) (A) (A) (A) (A) (A)
                 (A) (A) (A) (A) (A) (A) (A) (A) (A) (A) (A) (A)
                 (A) (A) (A) (A) (A) (A) (A) (A) (A) (A) (A) (A)
                 (A) (A) (A) (A) (A) (A) (A) (A) (A) (A) (A) (A)
                 (A) (A) (A) (A) (A) (A) (A) (A) (A) (A) (A) (A)
                 (A) (A) (A) (A) (A) (A) (A) (A) (A) (A) (A) (A)
                 (A) (A) (A) (A) (A) (A) (A) (A) (A) (A) (A) (A)
                 (A) (A) (A)
 The electronic state of the initial guess is 1-A.
 Requested convergence on RMS density matrix=1.00D-08 within 128 cycles.
 Requested convergence on MAX density matrix=1.00D-06.
 Requested convergence on             energy=1.00D-06.
 No special actions if energy rises.
 Integral accuracy reduced to 1.0D-05 until final iterations.
 Initial convergence to 1.0D-05 achieved.  Increase integral accuracy.
 SCF Done:  E(RB3LYP) =  -1297.93703289     A.U. after   13 cycles
             Convg  =    0.4194D-08             -V/T =  2.0063
 Range of M.O.s used for correlation:     1   754
 NBasis=   754 NAE=    91 NBE=    91 NFC=     0 NFV=     0
 NROrb=    754 NOA=    91 NOB=    91 NVA=   663 NVB=   663

 **** Warning!!: The largest alpha MO coefficient is  0.18173168D+02

          Differentiating once with respect to electric field.
                with respect to dipole field.
          Electric field/nuclear overlap derivatives assumed to be zero.
          There are     3 degrees of freedom in the 1st order CPHF.  IDoFFX=0.
      3 vectors produced by pass  0 Test12= 2.01D-12 3.33D-08 XBig12= 1.12D+02 1.07D+00.
 AX will form     3 AO Fock derivatives at one time.
      3 vectors produced by pass  1 Test12= 2.01D-12 3.33D-08 XBig12= 1.72D+01 3.92D-01.
      3 vectors produced by pass  2 Test12= 2.01D-12 3.33D-08 XBig12= 6.51D+00 1.87D-01.
      3 vectors produced by pass  3 Test12= 2.01D-12 3.33D-08 XBig12= 6.53D-01 8.89D-02.
      3 vectors produced by pass  4 Test12= 2.01D-12 3.33D-08 XBig12= 2.52D-01 4.28D-02.
      3 vectors produced by pass  5 Test12= 2.01D-12 3.33D-08 XBig12= 4.21D-02 1.44D-02.
      3 vectors produced by pass  6 Test12= 2.01D-12 3.33D-08 XBig12= 1.11D-02 1.01D-02.
      3 vectors produced by pass  7 Test12= 2.01D-12 3.33D-08 XBig12= 1.63D-03 6.24D-03.
      3 vectors produced by pass  8 Test12= 2.01D-12 3.33D-08 XBig12= 4.23D-04 1.94D-03.
      3 vectors produced by pass  9 Test12= 2.01D-12 3.33D-08 XBig12= 8.22D-05 9.81D-04.
      3 vectors produced by pass 10 Test12= 2.01D-12 3.33D-08 XBig12= 1.66D-05 4.19D-04.
      3 vectors produced by pass 11 Test12= 2.01D-12 3.33D-08 XBig12= 3.52D-06 2.67D-04.
      3 vectors produced by pass 12 Test12= 2.01D-12 3.33D-08 XBig12= 5.29D-07 8.96D-05.
      3 vectors produced by pass 13 Test12= 2.01D-12 3.33D-08 XBig12= 1.19D-07 2.94D-05.
      3 vectors produced by pass 14 Test12= 2.01D-12 3.33D-08 XBig12= 1.67D-08 1.31D-05.
      3 vectors produced by pass 15 Test12= 2.01D-12 3.33D-08 XBig12= 2.70D-09 4.18D-06.
      3 vectors produced by pass 16 Test12= 2.01D-12 3.33D-08 XBig12= 3.25D-10 2.45D-06.
      3 vectors produced by pass 17 Test12= 2.01D-12 3.33D-08 XBig12= 3.64D-11 4.93D-07.
      3 vectors produced by pass 18 Test12= 2.01D-12 3.33D-08 XBig12= 4.85D-12 1.58D-07.
      3 vectors produced by pass 19 Test12= 2.01D-12 3.33D-08 XBig12= 3.81D-13 8.28D-08.
 Inverted reduced A of dimension    60 with in-core refinement.
 End of Minotr Frequency-dependent properties file   721 does not exist.
 End of Minotr Frequency-dependent properties file   722 does not exist.
 Symmetrizing basis deriv contribution to polar:
 IMax=3 JMax=2 DiffMx= 0.00D+00
 G2DrvN: will do    12 centers at a time, making    4 passes doing MaxLOS=3.
 Calling FoFCou, ICntrl=  3107 FMM=F I1Cent=   0 AccDes= 0.00D+00.
 Calling FoFCou, ICntrl=  3107 FMM=F I1Cent=   0 AccDes= 0.00D+00.
 Calling FoFCou, ICntrl=  3107 FMM=F I1Cent=   0 AccDes= 0.00D+00.
 Calling FoFCou, ICntrl=  3107 FMM=F I1Cent=   0 AccDes= 0.00D+00.
 FoFDir/FoFCou used for L=0 through L=3.
 End of G2Drv Frequency-dependent properties file   721 does not exist.
 End of G2Drv Frequency-dependent properties file   722 does not exist.
          IDoAtm=111111111111111111111111111111111111111111111
          Differentiating once with respect to electric field.
                with respect to dipole field.
          Differentiating once with respect to nuclear coordinates.
          There are   138 degrees of freedom in the 1st order CPHF.  IDoFFX=5.
 Will reuse    3 saved solutions.
    135 vectors produced by pass  0 Test12= 6.03D-14 1.00D-09 XBig12= 1.19D-01 5.58D-02.
 AX will form    34 AO Fock derivatives at one time.
    135 vectors produced by pass  1 Test12= 6.03D-14 1.00D-09 XBig12= 1.88D-02 1.89D-02.
    133 vectors produced by pass  2 Test12= 6.03D-14 1.00D-09 XBig12= 2.23D-04 2.77D-03.
    132 vectors produced by pass  3 Test12= 6.03D-14 1.00D-09 XBig12= 1.02D-06 1.29D-04.
    132 vectors produced by pass  4 Test12= 6.03D-14 1.00D-09 XBig12= 2.06D-09 2.65D-06.
    123 vectors produced by pass  5 Test12= 6.03D-14 1.00D-09 XBig12= 2.41D-12 1.05D-07.
     28 vectors produced by pass  6 Test12= 6.03D-14 1.00D-09 XBig12= 2.85D-15 3.12D-09.
 Inverted reduced A of dimension   818 with in-core refinement.
 Isotropic polarizability for W=    0.000000      172.88 Bohr**3.
 End of Minotr Frequency-dependent properties file   721 does not exist.
 End of Minotr Frequency-dependent properties file   722 does not exist.

 **********************************************************************

            Population analysis using the SCF density.

 **********************************************************************

 Orbital symmetries:
       Occupied  (A) (A) (A) (A) (A) (A) (A) (A) (A) (A) (A) (A)
                 (A) (A) (A) (A) (A) (A) (A) (A) (A) (A) (A) (A)
                 (A) (A) (A) (A) (A) (A) (A) (A) (A) (A) (A) (A)
                 (A) (A) (A) (A) (A) (A) (A) (A) (A) (A) (A) (A)
                 (A) (A) (A) (A) (A) (A) (A) (A) (A) (A) (A) (A)
                 (A) (A) (A) (A) (A) (A) (A) (A) (A) (A) (A) (A)
                 (A) (A) (A) (A) (A) (A) (A) (A) (A) (A) (A) (A)
                 (A) (A) (A) (A) (A) (A) (A)
       Virtual   (A) (A) (A) (A) (A) (A) (A) (A) (A) (A) (A) (A)
                 (A) (A) (A) (A) (A) (A) (A) (A) (A) (A) (A) (A)
                 (A) (A) (A) (A) (A) (A) (A) (A) (A) (A) (A) (A)
                 (A) (A) (A) (A) (A) (A) (A) (A) (A) (A) (A) (A)
                 (A) (A) (A) (A) (A) (A) (A) (A) (A) (A) (A) (A)
                 (A) (A) (A) (A) (A) (A) (A) (A) (A) (A) (A) (A)
                 (A) (A) (A) (A) (A) (A) (A) (A) (A) (A) (A) (A)
                 (A) (A) (A) (A) (A) (A) (A) (A) (A) (A) (A) (A)
                 (A) (A) (A) (A) (A) (A) (A) (A) (A) (A) (A) (A)
                 (A) (A) (A) (A) (A) (A) (A) (A) (A) (A) (A) (A)
                 (A) (A) (A) (A) (A) (A) (A) (A) (A) (A) (A) (A)
                 (A) (A) (A) (A) (A) (A) (A) (A) (A) (A) (A) (A)
                 (A) (A) (A) (A) (A) (A) (A) (A) (A) (A) (A) (A)
                 (A) (A) (A) (A) (A) (A) (A) (A) (A) (A) (A) (A)
                 (A) (A) (A) (A) (A) (A) (A) (A) (A) (A) (A) (A)
                 (A) (A) (A) (A) (A) (A) (A) (A) (A) (A) (A) (A)
                 (A) (A) (A) (A) (A) (A) (A) (A) (A) (A) (A) (A)
                 (A) (A) (A) (A) (A) (A) (A) (A) (A) (A) (A) (A)
                 (A) (A) (A) (A) (A) (A) (A) (A) (A) (A) (A) (A)
                 (A) (A) (A) (A) (A) (A) (A) (A) (A) (A) (A) (A)
                 (A) (A) (A) (A) (A) (A) (A) (A) (A) (A) (A) (A)
                 (A) (A) (A) (A) (A) (A) (A) (A) (A) (A) (A) (A)
                 (A) (A) (A) (A) (A) (A) (A) (A) (A) (A) (A) (A)
                 (A) (A) (A) (A) (A) (A) (A) (A) (A) (A) (A) (A)
                 (A) (A) (A) (A) (A) (A) (A) (A) (A) (A) (A) (A)
                 (A) (A) (A) (A) (A) (A) (A) (A) (A) (A) (A) (A)
                 (A) (A) (A) (A) (A) (A) (A) (A) (A) (A) (A) (A)
                 (A) (A) (A) (A) (A) (A) (A) (A) (A) (A) (A) (A)
                 (A) (A) (A) (A) (A) (A) (A) (A) (A) (A) (A) (A)
                 (A) (A) (A) (A) (A) (A) (A) (A) (A) (A) (A) (A)
                 (A) (A) (A) (A) (A) (A) (A) (A) (A) (A) (A) (A)
                 (A) (A) (A) (A) (A) (A) (A) (A) (A) (A) (A) (A)
                 (A) (A) (A) (A) (A) (A) (A) (A) (A) (A) (A) (A)
                 (A) (A) (A) (A) (A) (A) (A) (A) (A) (A) (A) (A)
                 (A) (A) (A) (A) (A) (A) (A) (A) (A) (A) (A) (A)
                 (A) (A) (A) (A) (A) (A) (A) (A) (A) (A) (A) (A)
                 (A) (A) (A) (A) (A) (A) (A) (A) (A) (A) (A) (A)
                 (A) (A) (A) (A) (A) (A) (A) (A) (A) (A) (A) (A)
                 (A) (A) (A) (A) (A) (A) (A) (A) (A) (A) (A) (A)
                 (A) (A) (A) (A) (A) (A) (A) (A) (A) (A) (A) (A)
                 (A) (A) (A) (A) (A) (A) (A) (A) (A) (A) (A) (A)
                 (A) (A) (A) (A) (A) (A) (A) (A) (A) (A) (A) (A)
                 (A) (A) (A) (A) (A) (A) (A) (A) (A) (A) (A) (A)
                 (A) (A) (A) (A) (A) (A) (A) (A) (A) (A) (A) (A)
                 (A) (A) (A) (A) (A) (A) (A) (A) (A) (A) (A) (A)
                 (A) (A) (A) (A) (A) (A) (A) (A) (A) (A) (A) (A)
                 (A) (A) (A) (A) (A) (A) (A) (A) (A) (A) (A) (A)
                 (A) (A) (A) (A) (A) (A) (A) (A) (A) (A) (A) (A)
                 (A) (A) (A) (A) (A) (A) (A) (A) (A) (A) (A) (A)
                 (A) (A) (A) (A) (A) (A) (A) (A) (A) (A) (A) (A)
                 (A) (A) (A) (A) (A) (A) (A) (A) (A) (A) (A) (A)
                 (A) (A) (A) (A) (A) (A) (A) (A) (A) (A) (A) (A)
                 (A) (A) (A) (A) (A) (A) (A) (A) (A) (A) (A) (A)
                 (A) (A) (A) (A) (A) (A) (A) (A) (A) (A) (A) (A)
                 (A) (A) (A) (A) (A) (A) (A) (A) (A) (A) (A) (A)
                 (A) (A) (A)
 The electronic state is 1-A.
 Alpha  occ. eigenvalues --  -19.17438 -19.16651 -19.16527 -19.16416 -19.15926
 Alpha  occ. eigenvalues --  -19.14821 -19.14107 -19.13864 -19.12409 -19.11847
 Alpha  occ. eigenvalues --  -19.09787 -10.29122 -10.28915 -10.25205 -10.24386
 Alpha  occ. eigenvalues --  -10.24317 -10.24201 -10.23395 -10.23141 -10.22749
 Alpha  occ. eigenvalues --  -10.22739 -10.22099 -10.21772  -1.08183  -1.07405
 Alpha  occ. eigenvalues --   -1.04458  -1.03109  -1.02290  -1.01873  -1.00904
 Alpha  occ. eigenvalues --   -1.00435  -0.99383  -0.98580  -0.96958  -0.81167
 Alpha  occ. eigenvalues --   -0.78623  -0.78003  -0.76485  -0.70661  -0.68244
 Alpha  occ. eigenvalues --   -0.65549  -0.63225  -0.61628  -0.61021  -0.60342
 Alpha  occ. eigenvalues --   -0.58400  -0.54946  -0.54277  -0.53567  -0.53203
 Alpha  occ. eigenvalues --   -0.52449  -0.51999  -0.51287  -0.50059  -0.49062
 Alpha  occ. eigenvalues --   -0.48996  -0.48622  -0.47877  -0.46893  -0.45178
 Alpha  occ. eigenvalues --   -0.44503  -0.43706  -0.42500  -0.42055  -0.41731
 Alpha  occ. eigenvalues --   -0.40787  -0.39903  -0.39145  -0.38829  -0.38070
 Alpha  occ. eigenvalues --   -0.36659  -0.36354  -0.35972  -0.34257  -0.33547
 Alpha  occ. eigenvalues --   -0.33217  -0.32973  -0.32596  -0.32427  -0.31509
 Alpha  occ. eigenvalues --   -0.31044  -0.29818  -0.29361  -0.28500  -0.27791
 Alpha  occ. eigenvalues --   -0.27462  -0.26739  -0.26657  -0.25038  -0.24660
 Alpha  occ. eigenvalues --   -0.23909
 Alpha virt. eigenvalues --    0.03157   0.03972   0.04512   0.06187   0.06599
 Alpha virt. eigenvalues --    0.08107   0.09398   0.09699   0.10738   0.10993
 Alpha virt. eigenvalues --    0.12387   0.12648   0.13366   0.14046   0.14648
 Alpha virt. eigenvalues --    0.14734   0.15777   0.16105   0.16511   0.16971
 Alpha virt. eigenvalues --    0.18062   0.18141   0.18752   0.19009   0.19217
 Alpha virt. eigenvalues --    0.19780   0.19961   0.20994   0.21610   0.21911
 Alpha virt. eigenvalues --    0.23260   0.24061   0.25272   0.25310   0.26177
 Alpha virt. eigenvalues --    0.26760   0.27386   0.28334   0.28645   0.29063
 Alpha virt. eigenvalues --    0.29449   0.30410   0.31057   0.32533   0.33423
 Alpha virt. eigenvalues --    0.35802   0.41582   0.42435   0.43748   0.44982
 Alpha virt. eigenvalues --    0.45045   0.45634   0.45965   0.48190   0.48419
 Alpha virt. eigenvalues --    0.49256   0.49690   0.50168   0.50774   0.51510
 Alpha virt. eigenvalues --    0.51930   0.53144   0.53657   0.53948   0.54389
 Alpha virt. eigenvalues --    0.55655   0.56406   0.57483   0.58578   0.59564
 Alpha virt. eigenvalues --    0.60844   0.60982   0.62043   0.62463   0.62853
 Alpha virt. eigenvalues --    0.63988   0.64099   0.64946   0.65516   0.66237
 Alpha virt. eigenvalues --    0.67255   0.68188   0.69168   0.69375   0.70437
 Alpha virt. eigenvalues --    0.70625   0.71100   0.71384   0.72298   0.72727
 Alpha virt. eigenvalues --    0.73097   0.73217   0.74472   0.75186   0.75440
 Alpha virt. eigenvalues --    0.76373   0.76777   0.77170   0.77862   0.78502
 Alpha virt. eigenvalues --    0.78636   0.79294   0.79675   0.80376   0.80934
 Alpha virt. eigenvalues --    0.81391   0.82126   0.82388   0.82530   0.83451
 Alpha virt. eigenvalues --    0.84560   0.85050   0.85914   0.86312   0.86630
 Alpha virt. eigenvalues --    0.86985   0.88192   0.88350   0.89311   0.89962
 Alpha virt. eigenvalues --    0.90184   0.90595   0.90877   0.91411   0.91649
 Alpha virt. eigenvalues --    0.92301   0.92882   0.93635   0.93934   0.94028
 Alpha virt. eigenvalues --    0.95009   0.96640   0.96844   0.97498   0.98131
 Alpha virt. eigenvalues --    0.98436   0.98992   0.99061   0.99626   0.99952
 Alpha virt. eigenvalues --    1.00824   1.01824   1.02682   1.03221   1.03642
 Alpha virt. eigenvalues --    1.04420   1.05175   1.06381   1.07111   1.07969
 Alpha virt. eigenvalues --    1.08764   1.10216   1.10820   1.11709   1.12060
 Alpha virt. eigenvalues --    1.13038   1.14811   1.15621   1.15986   1.17453
 Alpha virt. eigenvalues --    1.18155   1.18965   1.20267   1.21660   1.22292
 Alpha virt. eigenvalues --    1.23086   1.23450   1.24104   1.24841   1.25617
 Alpha virt. eigenvalues --    1.26887   1.28107   1.28536   1.28887   1.30664
 Alpha virt. eigenvalues --    1.31313   1.32448   1.33228   1.34421   1.34883
 Alpha virt. eigenvalues --    1.35451   1.36264   1.36807   1.38217   1.39520
 Alpha virt. eigenvalues --    1.40125   1.40634   1.42533   1.43122   1.44348
 Alpha virt. eigenvalues --    1.44496   1.45174   1.46828   1.47572   1.47738
 Alpha virt. eigenvalues --    1.48683   1.50012   1.50483   1.51451   1.52058
 Alpha virt. eigenvalues --    1.52312   1.53391   1.54821   1.56163   1.57302
 Alpha virt. eigenvalues --    1.57773   1.58024   1.58191   1.59544   1.60062
 Alpha virt. eigenvalues --    1.60697   1.61384   1.62381   1.63066   1.63720
 Alpha virt. eigenvalues --    1.64321   1.65003   1.65902   1.66161   1.67733
 Alpha virt. eigenvalues --    1.68642   1.69261   1.69706   1.70179   1.71150
 Alpha virt. eigenvalues --    1.71894   1.73609   1.74825   1.75877   1.76223
 Alpha virt. eigenvalues --    1.76864   1.77229   1.79251   1.80310   1.80487
 Alpha virt. eigenvalues --    1.81916   1.83718   1.84387   1.84997   1.85381
 Alpha virt. eigenvalues --    1.87017   1.87795   1.88683   1.89407   1.90672
 Alpha virt. eigenvalues --    1.91303   1.92335   1.93163   1.93725   1.94449
 Alpha virt. eigenvalues --    1.96153   1.97440   1.99435   1.99876   2.00316
 Alpha virt. eigenvalues --    2.02424   2.05391   2.05683   2.07414   2.08869
 Alpha virt. eigenvalues --    2.09789   2.12656   2.13686   2.15084   2.15923
 Alpha virt. eigenvalues --    2.17303   2.21118   2.21328   2.22697   2.23921
 Alpha virt. eigenvalues --    2.25374   2.26249   2.27593   2.29902   2.30710
 Alpha virt. eigenvalues --    2.34475   2.39688   2.40270   2.41800   2.43893
 Alpha virt. eigenvalues --    2.44577   2.45584   2.47183   2.48967   2.50881
 Alpha virt. eigenvalues --    2.51673   2.52444   2.52783   2.53507   2.54469
 Alpha virt. eigenvalues --    2.56133   2.56971   2.57908   2.58531   2.59080
 Alpha virt. eigenvalues --    2.60550   2.61731   2.63406   2.64566   2.65270
 Alpha virt. eigenvalues --    2.65739   2.66133   2.68290   2.68525   2.70981
 Alpha virt. eigenvalues --    2.72170   2.73091   2.74958   2.75258   2.75830
 Alpha virt. eigenvalues --    2.77914   2.78945   2.79650   2.80696   2.81027
 Alpha virt. eigenvalues --    2.81645   2.82284   2.82948   2.84136   2.84796
 Alpha virt. eigenvalues --    2.85306   2.86924   2.87210   2.88341   2.89157
 Alpha virt. eigenvalues --    2.89981   2.90742   2.92443   2.93681   2.94377
 Alpha virt. eigenvalues --    2.95231   2.96315   2.96778   2.97059   2.98438
 Alpha virt. eigenvalues --    2.98667   2.99564   3.00474   3.01256   3.02428
 Alpha virt. eigenvalues --    3.03176   3.04143   3.06412   3.07412   3.08987
 Alpha virt. eigenvalues --    3.09897   3.12007   3.12483   3.13514   3.15204
 Alpha virt. eigenvalues --    3.16307   3.16598   3.18696   3.19683   3.21078
 Alpha virt. eigenvalues --    3.22444   3.24590   3.25343   3.26776   3.26867
 Alpha virt. eigenvalues --    3.27328   3.29338   3.30083   3.30639   3.31207
 Alpha virt. eigenvalues --    3.31412   3.33937   3.36088   3.37841   3.38826
 Alpha virt. eigenvalues --    3.39283   3.40482   3.41593   3.42093   3.42925
 Alpha virt. eigenvalues --    3.43918   3.44734   3.46086   3.47949   3.48378
 Alpha virt. eigenvalues --    3.50940   3.52792   3.52878   3.53467   3.55131
 Alpha virt. eigenvalues --    3.58204   3.60215   3.61394   3.62638   3.65501
 Alpha virt. eigenvalues --    3.66520   3.68532   3.69394   3.70004   3.70350
 Alpha virt. eigenvalues --    3.71531   3.74835   3.75256   3.76350   3.78238
 Alpha virt. eigenvalues --    3.79559   3.80012   3.81162   3.82349   3.83750
 Alpha virt. eigenvalues --    3.85090   3.86747   3.87757   3.88362   3.90593
 Alpha virt. eigenvalues --    3.91095   3.93838   3.95747   3.98516   4.01012
 Alpha virt. eigenvalues --    4.03660   4.06175   4.11447   4.14394   4.14566
 Alpha virt. eigenvalues --    4.16061   4.16434   4.16921   4.17464   4.18732
 Alpha virt. eigenvalues --    4.20699   4.21514   4.21925   4.22634   4.23277
 Alpha virt. eigenvalues --    4.25207   4.26126   4.27352   4.27894   4.29073
 Alpha virt. eigenvalues --    4.29711   4.29937   4.31141   4.32110   4.33346
 Alpha virt. eigenvalues --    4.34005   4.35211   4.35497   4.36010   4.36875
 Alpha virt. eigenvalues --    4.37932   4.38568   4.40652   4.41192   4.41782
 Alpha virt. eigenvalues --    4.43131   4.44187   4.44390   4.44601   4.45915
 Alpha virt. eigenvalues --    4.46286   4.47204   4.47457   4.48101   4.48567
 Alpha virt. eigenvalues --    4.49991   4.51482   4.51833   4.53442   4.54018
 Alpha virt. eigenvalues --    4.54806   4.55404   4.55549   4.55902   4.56696
 Alpha virt. eigenvalues --    4.58219   4.58468   4.58871   4.59881   4.60468
 Alpha virt. eigenvalues --    4.62550   4.62598   4.63328   4.63620   4.64091
 Alpha virt. eigenvalues --    4.64551   4.64931   4.65881   4.66401   4.66950
 Alpha virt. eigenvalues --    4.67922   4.68709   4.69875   4.70484   4.71100
 Alpha virt. eigenvalues --    4.72664   4.73151   4.73463   4.73929   4.74380
 Alpha virt. eigenvalues --    4.75202   4.76299   4.76833   4.77806   4.78271
 Alpha virt. eigenvalues --    4.79424   4.79599   4.80493   4.81158   4.81408
 Alpha virt. eigenvalues --    4.82870   4.83659   4.84179   4.84873   4.86026
 Alpha virt. eigenvalues --    4.86398   4.86569   4.87890   4.88442   4.89213
 Alpha virt. eigenvalues --    4.90001   4.91881   4.92991   4.93416   4.94214
 Alpha virt. eigenvalues --    4.95572   4.96388   4.97370   4.98909   5.00181
 Alpha virt. eigenvalues --    5.01421   5.03480   5.05588   5.07352   5.09716
 Alpha virt. eigenvalues --    5.11302   5.12668   5.13723   5.15236   5.16970
 Alpha virt. eigenvalues --    5.18658   5.20965   5.21996   5.22883   5.23805
 Alpha virt. eigenvalues --    5.24429   5.25442   5.27496   5.27664   5.29779
 Alpha virt. eigenvalues --    5.31087   5.32569   5.33734   5.34139   5.35507
 Alpha virt. eigenvalues --    5.37214   5.38434   5.38704   5.39970   5.40982
 Alpha virt. eigenvalues --    5.41251   5.42249   5.43379   5.43765   5.44133
 Alpha virt. eigenvalues --    5.44765   5.45039   5.46363   5.47552   5.48571
 Alpha virt. eigenvalues --    5.49309   5.50342   5.50638   5.51187   5.52290
 Alpha virt. eigenvalues --    5.53491   5.54851   5.55574   5.56824   5.57897
 Alpha virt. eigenvalues --    5.59044   5.61717   5.63213   5.65622   5.65942
 Alpha virt. eigenvalues --    5.68495   5.70454   5.72496   5.73503   5.76224
 Alpha virt. eigenvalues --    5.77001   5.77952   5.79494   5.80667   5.86610
 Alpha virt. eigenvalues --    5.87950   5.88022   5.89960   5.90233   5.90865
 Alpha virt. eigenvalues --    5.91872   5.92685   5.94060   5.95252   5.96181
 Alpha virt. eigenvalues --    5.96939   5.97948   5.98869   5.99745   5.99980
 Alpha virt. eigenvalues --    6.02702   6.03519   6.03669   6.04505   6.05341
 Alpha virt. eigenvalues --    6.06465   6.08776   6.09927   6.11091   6.13084
 Alpha virt. eigenvalues --    6.13971   6.14327   6.15415   6.19176   6.20531
 Alpha virt. eigenvalues --    6.23130   6.24520   6.28029   6.29942   6.32756
 Alpha virt. eigenvalues --    6.76940   6.91553   7.01171   7.03986   7.07554
 Alpha virt. eigenvalues --    7.09194   7.14667   7.17125   7.18953   7.21518
 Alpha virt. eigenvalues --    7.24242   7.38373   7.47764   7.52096   7.73855
 Alpha virt. eigenvalues --   11.15902  11.22952  11.49009  11.58610  11.99176
 Alpha virt. eigenvalues --   12.05351  12.22923  12.29273  12.55694  12.66233
 Alpha virt. eigenvalues --   12.84187  13.03092  13.20810  13.26857  13.32084
 Alpha virt. eigenvalues --   13.33511  13.39735  13.44715  13.45598  13.46618
 Alpha virt. eigenvalues --   13.72253  13.88716  14.10615
          Condensed to atoms (all electrons):
              1          2          3          4          5          6
     1  O    7.870976   0.332107  -0.033880  -0.004371   0.015602   0.001937
     2  C    0.332107   4.930976   0.345806  -0.024528  -0.001573   0.003196
     3  C   -0.033880   0.345806   4.909168   0.336702  -0.068369   0.277566
     4  O   -0.004371  -0.024528   0.336702   7.903467   0.294451  -0.012022
     5  H    0.015602  -0.001573  -0.068369   0.294451   0.468853   0.006250
     6  C    0.001937   0.003196   0.277566  -0.012022   0.006250   4.864995
     7  O   -0.000003   0.000823  -0.013783  -0.003228   0.000048   0.345697
     8  H    0.000000  -0.000086   0.002992  -0.000013   0.000017  -0.054875
     9  C    0.004399  -0.009899   0.002202  -0.000055  -0.000020  -0.000058
    10  O   -0.000200   0.003266  -0.000012   0.000000   0.000000   0.000003
    11  H    0.000139  -0.000051   0.000004   0.000000   0.000000   0.000000
    12  C   -0.023699   0.248727  -0.046253   0.003606   0.000749  -0.011079
    13  O    0.000588  -0.026166  -0.002726   0.000013  -0.000007  -0.023293
    14  C   -0.000122  -0.002974  -0.023833   0.001314  -0.000268   0.251605
    15  O    0.000000  -0.000239   0.002398  -0.000003   0.000001  -0.003980
    16  C    0.000000   0.000001  -0.000145   0.000000   0.000000   0.002166
    17  C    0.000000  -0.000002   0.000005   0.000000   0.000000  -0.000180
    18  O    0.000000  -0.000002   0.000000   0.000000   0.000000  -0.000004
    19  H    0.000000   0.000121  -0.000014   0.000000   0.000000   0.000258
    20  C    0.000000   0.000000   0.000000   0.000000   0.000000  -0.000002
    21  O    0.000000   0.000000   0.000000   0.000000   0.000000   0.000000
    22  H    0.000000   0.000000   0.000000   0.000000   0.000000   0.000000
    23  C    0.000000   0.000000   0.000008   0.000000   0.000000   0.000071
    24  O    0.000000   0.000000  -0.000019   0.000000   0.000000   0.000996
    25  H    0.000000   0.000000   0.000001   0.000000   0.000000  -0.000052
    26  C    0.000000   0.000000  -0.000001   0.000000   0.000000   0.000018
    27  O    0.000000   0.000000   0.000000   0.000000   0.000000   0.000000
    28  C    0.000000   0.000000   0.000000   0.000000   0.000000   0.000000
    29  O    0.000000   0.000000   0.000000   0.000000   0.000000   0.000000
    30  H    0.309576  -0.044350   0.002169   0.000637  -0.000370  -0.000308
    31  H   -0.001994  -0.052459   0.307677  -0.030341   0.000216  -0.040880
    32  H   -0.035190   0.313660  -0.034969   0.001820   0.001049  -0.005041
    33  H   -0.000032  -0.004782  -0.048654   0.002098  -0.000225   0.313083
    34  H    0.001719  -0.067528  -0.004534  -0.000004   0.000012  -0.003038
    35  H   -0.000065   0.004907  -0.000177   0.000000   0.000000   0.000038
    36  H    0.000168  -0.014968   0.000405  -0.000004  -0.000001  -0.000092
    37  H    0.000019  -0.000952  -0.002329  -0.000034   0.000002  -0.055931
    38  H    0.000000   0.000000   0.000000   0.000000   0.000000  -0.000005
    39  H    0.000000   0.000000   0.000000   0.000000   0.000000   0.000031
    40  H    0.000000  -0.000003   0.000029   0.000000   0.000000   0.000642
    41  H    0.000000   0.000000   0.000000   0.000000   0.000000   0.000016
    42  H    0.000000   0.000000   0.000000   0.000000   0.000000   0.000000
    43  H    0.000000   0.000000   0.000000   0.000000   0.000000   0.000000
    44  H    0.000000   0.000000   0.000002   0.000000   0.000000   0.000030
    45  H    0.000000   0.000000   0.000000   0.000000   0.000000   0.000000
              7          8          9         10         11         12
     1  O   -0.000003   0.000000   0.004399  -0.000200   0.000139  -0.023699
     2  C    0.000823  -0.000086  -0.009899   0.003266  -0.000051   0.248727
     3  C   -0.013783   0.002992   0.002202  -0.000012   0.000004  -0.046253
     4  O   -0.003228  -0.000013  -0.000055   0.000000   0.000000   0.003606
     5  H    0.000048   0.000017  -0.000020   0.000000   0.000000   0.000749
     6  C    0.345697  -0.054875  -0.000058   0.000003   0.000000  -0.011079
     7  O    7.962381   0.294872  -0.000001   0.000000   0.000000   0.000199
     8  H    0.294872   0.374656   0.000000   0.000000   0.000000  -0.000016
     9  C   -0.000001   0.000000   4.782722   0.332507  -0.043106   0.359006
    10  O    0.000000   0.000000   0.332507   7.905529   0.293524  -0.026322
    11  H    0.000000   0.000000  -0.043106   0.293524   0.452363   0.004971
    12  C    0.000199  -0.000016   0.359006  -0.026322   0.004971   4.925208
    13  O    0.001764   0.000104  -0.013923   0.000305  -0.000041   0.301177
    14  C   -0.032027  -0.001478   0.002298  -0.000018   0.000001  -0.067135
    15  O   -0.004635   0.005504  -0.000093   0.000000   0.000000   0.003603
    16  C    0.000039   0.000350  -0.000013   0.000000   0.000000  -0.000130
    17  C   -0.000003   0.000011   0.000009   0.000000   0.000000  -0.000006
    18  O    0.000000   0.000000  -0.000076   0.000000   0.000000   0.000275
    19  H   -0.000003   0.000002  -0.000029   0.000004  -0.000003  -0.002013
    20  C    0.000000   0.000000   0.000000   0.000000   0.000000   0.000001
    21  O    0.000000   0.000000   0.000000   0.000000   0.000000   0.000000
    22  H    0.000000   0.000000   0.000000   0.000000   0.000000   0.000000
    23  C    0.002279  -0.005735   0.000000   0.000000   0.000000   0.000000
    24  O   -0.028668   0.060399   0.000000   0.000000   0.000000   0.000000
    25  H    0.001683  -0.004559   0.000000   0.000000   0.000000   0.000000
    26  C   -0.000084  -0.000700   0.000000   0.000000   0.000000   0.000006
    27  O    0.000000   0.000003   0.000000   0.000000   0.000000   0.000000
    28  C    0.000000   0.000000   0.000000   0.000000   0.000000   0.000000
    29  O    0.000000   0.000000   0.000000   0.000000   0.000000   0.000000
    30  H    0.000000   0.000000   0.000552   0.001415  -0.000045   0.002739
    31  H    0.000853  -0.000093  -0.000115  -0.000004   0.000000   0.001985
    32  H    0.000005   0.000007  -0.012584  -0.000344  -0.000028  -0.032431
    33  H   -0.030514   0.000144   0.000011   0.000000   0.000000   0.003097
    34  H    0.000062   0.000008  -0.038378   0.003341  -0.000120   0.333367
    35  H    0.000000   0.000000   0.356505  -0.025605  -0.009306  -0.020943
    36  H    0.000000   0.000000   0.352655  -0.034855   0.000048  -0.045547
    37  H    0.006740   0.000785   0.000012   0.000000   0.000000   0.000367
    38  H   -0.000042   0.000744   0.000000   0.000000   0.000000   0.000000
    39  H    0.000001   0.000007   0.000000   0.000000   0.000000   0.000000
    40  H   -0.000028   0.000042   0.000002   0.000000   0.000000   0.000032
    41  H    0.000000  -0.000001  -0.000001   0.000000   0.000000   0.000003
    42  H    0.000000   0.000000   0.000000   0.000000   0.000000   0.000000
    43  H    0.000000   0.000000   0.000000   0.000000   0.000000   0.000000
    44  H    0.000286  -0.000263   0.000000   0.000000   0.000000   0.000000
    45  H    0.000000   0.000000   0.000000   0.000000   0.000000   0.000000
             13         14         15         16         17         18
     1  O    0.000588  -0.000122   0.000000   0.000000   0.000000   0.000000
     2  C   -0.026166  -0.002974  -0.000239   0.000001  -0.000002  -0.000002
     3  C   -0.002726  -0.023833   0.002398  -0.000145   0.000005   0.000000
     4  O    0.000013   0.001314  -0.000003   0.000000   0.000000   0.000000
     5  H   -0.000007  -0.000268   0.000001   0.000000   0.000000   0.000000
     6  C   -0.023293   0.251605  -0.003980   0.002166  -0.000180  -0.000004
     7  O    0.001764  -0.032027  -0.004635   0.000039  -0.000003   0.000000
     8  H    0.000104  -0.001478   0.005504   0.000350   0.000011   0.000000
     9  C   -0.013923   0.002298  -0.000093  -0.000013   0.000009  -0.000076
    10  O    0.000305  -0.000018   0.000000   0.000000   0.000000   0.000000
    11  H   -0.000041   0.000001   0.000000   0.000000   0.000000   0.000000
    12  C    0.301177  -0.067135   0.003603  -0.000130  -0.000006   0.000275
    13  O    7.862580   0.261631  -0.054152   0.002971  -0.001097  -0.006543
    14  C    0.261631   4.933340   0.351290  -0.066098   0.002827   0.001708
    15  O   -0.054152   0.351290   7.793818   0.294245  -0.018819  -0.002694
    16  C    0.002971  -0.066098   0.294245   4.989295   0.340016  -0.031361
    17  C   -0.001097   0.002827  -0.018819   0.340016   4.850816   0.350811
    18  O   -0.006543   0.001708  -0.002694  -0.031361   0.350811   7.924723
    19  H    0.035548  -0.002256   0.006067  -0.005490  -0.061114   0.291380
    20  C   -0.000025  -0.000174   0.001561   0.005518   0.249939  -0.014931
    21  O    0.000000   0.000000  -0.000002   0.000659  -0.003468  -0.005448
    22  H    0.000000   0.000000   0.000000  -0.000178   0.006691   0.000025
    23  C    0.000020   0.001166   0.003277  -0.025442   0.001336  -0.000068
    24  O    0.000000   0.000172  -0.001816   0.002517  -0.000010   0.000000
    25  H    0.000000   0.000011   0.000267  -0.000047   0.000004   0.000000
    26  C   -0.000150   0.000671  -0.019885   0.276147  -0.022468   0.002646
    27  O    0.000000  -0.000039   0.000793  -0.033604  -0.003023   0.000000
    28  C    0.000000  -0.000003  -0.000110  -0.011256  -0.008461   0.001674
    29  O    0.000000   0.000000   0.000000  -0.000158   0.003298  -0.000009
    30  H   -0.000043   0.000002   0.000000   0.000000   0.000000   0.000000
    31  H   -0.000363  -0.000488  -0.000081   0.000007   0.000000   0.000000
    32  H    0.000566   0.001699  -0.000019   0.000003   0.000000   0.000000
    33  H    0.000917  -0.033260  -0.001260  -0.000127   0.000018   0.000001
    34  H   -0.029815  -0.002952  -0.000145   0.000000   0.000002  -0.000019
    35  H    0.001564   0.000085  -0.000006   0.000009  -0.000035   0.000186
    36  H    0.004535   0.000198   0.000000   0.000000  -0.000002  -0.000019
    37  H   -0.036421   0.337157  -0.036980  -0.007081   0.000362  -0.000055
    38  H    0.000000   0.000015   0.000058   0.004682  -0.000082   0.000001
    39  H   -0.000001  -0.000100   0.002577  -0.065975  -0.008116   0.000140
    40  H   -0.000691  -0.007009  -0.029004   0.319638  -0.034766   0.001165
    41  H   -0.000054   0.000211  -0.000774  -0.061784   0.330072  -0.027873
    42  H   -0.000002   0.000020   0.000019  -0.005870  -0.042289   0.001697
    43  H    0.000000   0.000001   0.000048  -0.001514  -0.006083  -0.000036
    44  H    0.000001  -0.000194   0.000216  -0.011529   0.000251   0.000000
    45  H    0.000000   0.000000   0.000000   0.000013  -0.000362   0.000001
             19         20         21         22         23         24
     1  O    0.000000   0.000000   0.000000   0.000000   0.000000   0.000000
     2  C    0.000121   0.000000   0.000000   0.000000   0.000000   0.000000
     3  C   -0.000014   0.000000   0.000000   0.000000   0.000008  -0.000019
     4  O    0.000000   0.000000   0.000000   0.000000   0.000000   0.000000
     5  H    0.000000   0.000000   0.000000   0.000000   0.000000   0.000000
     6  C    0.000258  -0.000002   0.000000   0.000000   0.000071   0.000996
     7  O   -0.000003   0.000000   0.000000   0.000000   0.002279  -0.028668
     8  H    0.000002   0.000000   0.000000   0.000000  -0.005735   0.060399
     9  C   -0.000029   0.000000   0.000000   0.000000   0.000000   0.000000
    10  O    0.000004   0.000000   0.000000   0.000000   0.000000   0.000000
    11  H   -0.000003   0.000000   0.000000   0.000000   0.000000   0.000000
    12  C   -0.002013   0.000001   0.000000   0.000000   0.000000   0.000000
    13  O    0.035548  -0.000025   0.000000   0.000000   0.000020   0.000000
    14  C   -0.002256  -0.000174   0.000000   0.000000   0.001166   0.000172
    15  O    0.006067   0.001561  -0.000002   0.000000   0.003277  -0.001816
    16  C   -0.005490   0.005518   0.000659  -0.000178  -0.025442   0.002517
    17  C   -0.061114   0.249939  -0.003468   0.006691   0.001336  -0.000010
    18  O    0.291380  -0.014931  -0.005448   0.000025  -0.000068   0.000000
    19  H    0.430465   0.005824   0.000129   0.000024  -0.000016   0.000000
    20  C    0.005824   4.982298   0.323295  -0.062498  -0.000213   0.000002
    21  O    0.000129   0.323295   7.906871   0.295045  -0.000001   0.000000
    22  H    0.000024  -0.062498   0.295045   0.463204   0.000000   0.000000
    23  C   -0.000016  -0.000213  -0.000001   0.000000   4.865026   0.285975
    24  O    0.000000   0.000002   0.000000   0.000000   0.285975   7.880213
    25  H    0.000000   0.000000   0.000000   0.000000  -0.034476   0.291763
    26  C    0.000059  -0.009628   0.000208  -0.000019   0.354952  -0.018455
    27  O    0.000002  -0.040065   0.001621   0.000181  -0.018799   0.000322
    28  C   -0.000292   0.256986  -0.026315  -0.003032   0.001984  -0.000018
    29  O    0.000001  -0.041307  -0.002373   0.012901  -0.000053   0.000000
    30  H    0.000000   0.000000   0.000000   0.000000   0.000000   0.000000
    31  H   -0.000001   0.000000   0.000000   0.000000   0.000000   0.000000
    32  H   -0.000005   0.000000   0.000000   0.000000   0.000000   0.000000
    33  H   -0.000016   0.000001   0.000000   0.000000  -0.000034   0.000144
    34  H    0.000255   0.000000   0.000000   0.000000   0.000000   0.000000
    35  H    0.001281   0.000000   0.000000   0.000000   0.000000   0.000000
    36  H    0.000281   0.000000   0.000000   0.000000   0.000000   0.000000
    37  H    0.000596   0.000056   0.000000   0.000000  -0.000306  -0.000024
    38  H    0.000000   0.000021   0.000000   0.000000   0.340926  -0.017220
    39  H    0.000036  -0.004818   0.000063   0.000010  -0.036268   0.001857
    40  H    0.000745  -0.007248  -0.000003  -0.000001  -0.005201  -0.000173
    41  H    0.000173  -0.045096  -0.000062  -0.000270   0.000382  -0.000012
    42  H   -0.000161   0.330708  -0.031974  -0.002171   0.000086   0.000000
    43  H    0.000008  -0.067729   0.005569   0.000914   0.000564  -0.000001
    44  H    0.000000  -0.000059   0.000000   0.000000   0.360271  -0.035275
    45  H    0.000000   0.002227   0.001430   0.000390   0.000004   0.000000
             25         26         27         28         29         30
     1  O    0.000000   0.000000   0.000000   0.000000   0.000000   0.309576
     2  C    0.000000   0.000000   0.000000   0.000000   0.000000  -0.044350
     3  C    0.000001  -0.000001   0.000000   0.000000   0.000000   0.002169
     4  O    0.000000   0.000000   0.000000   0.000000   0.000000   0.000637
     5  H    0.000000   0.000000   0.000000   0.000000   0.000000  -0.000370
     6  C   -0.000052   0.000018   0.000000   0.000000   0.000000  -0.000308
     7  O    0.001683  -0.000084   0.000000   0.000000   0.000000   0.000000
     8  H   -0.004559  -0.000700   0.000003   0.000000   0.000000   0.000000
     9  C    0.000000   0.000000   0.000000   0.000000   0.000000   0.000552
    10  O    0.000000   0.000000   0.000000   0.000000   0.000000   0.001415
    11  H    0.000000   0.000000   0.000000   0.000000   0.000000  -0.000045
    12  C    0.000000   0.000006   0.000000   0.000000   0.000000   0.002739
    13  O    0.000000  -0.000150   0.000000   0.000000   0.000000  -0.000043
    14  C    0.000011   0.000671  -0.000039  -0.000003   0.000000   0.000002
    15  O    0.000267  -0.019885   0.000793  -0.000110   0.000000   0.000000
    16  C   -0.000047   0.276147  -0.033604  -0.011256  -0.000158   0.000000
    17  C    0.000004  -0.022468  -0.003023  -0.008461   0.003298   0.000000
    18  O    0.000000   0.002646   0.000000   0.001674  -0.000009   0.000000
    19  H    0.000000   0.000059   0.000002  -0.000292   0.000001   0.000000
    20  C    0.000000  -0.009628  -0.040065   0.256986  -0.041307   0.000000
    21  O    0.000000   0.000208   0.001621  -0.026315  -0.002373   0.000000
    22  H    0.000000  -0.000019   0.000181  -0.003032   0.012901   0.000000
    23  C   -0.034476   0.354952  -0.018799   0.001984  -0.000053   0.000000
    24  O    0.291763  -0.018455   0.000322  -0.000018   0.000000   0.000000
    25  H    0.438252   0.003730  -0.000034   0.000001   0.000000   0.000000
    26  C    0.003730   4.867422   0.319983  -0.079604   0.002087   0.000000
    27  O   -0.000034   0.319983   7.822886   0.304307  -0.025754   0.000000
    28  C    0.000001  -0.079604   0.304307   4.778874   0.364729   0.000000
    29  O    0.000000   0.002087  -0.025754   0.364729   7.856549   0.000000
    30  H    0.000000   0.000000   0.000000   0.000000   0.000000   0.443003
    31  H    0.000000   0.000000   0.000000   0.000000   0.000000  -0.000153
    32  H    0.000000   0.000000   0.000000   0.000000   0.000000  -0.013127
    33  H   -0.000013   0.000016   0.000000   0.000000   0.000000   0.000011
    34  H    0.000000   0.000000   0.000000   0.000000   0.000000  -0.000329
    35  H    0.000000   0.000000   0.000000   0.000000   0.000000   0.000040
    36  H    0.000000   0.000000   0.000000   0.000000   0.000000  -0.000198
    37  H    0.000002   0.000122  -0.000002   0.000001   0.000000   0.000001
    38  H   -0.010144  -0.011043   0.003573   0.000423  -0.000006   0.000000
    39  H   -0.000137   0.348042  -0.030972  -0.002792  -0.000122   0.000000
    40  H   -0.000007  -0.032323   0.001639   0.002406  -0.000019   0.000000
    41  H    0.000000  -0.001992  -0.000671  -0.002208  -0.000111   0.000000
    42  H    0.000000   0.003133   0.001509  -0.037627  -0.002261   0.000000
    43  H    0.000000  -0.000010  -0.038439   0.341573  -0.038588   0.000000
    44  H   -0.000386  -0.040588   0.005077   0.000337  -0.000001   0.000000
    45  H    0.000000  -0.000309   0.003305  -0.043522   0.307724   0.000000
             31         32         33         34         35         36
     1  O   -0.001994  -0.035190  -0.000032   0.001719  -0.000065   0.000168
     2  C   -0.052459   0.313660  -0.004782  -0.067528   0.004907  -0.014968
     3  C    0.307677  -0.034969  -0.048654  -0.004534  -0.000177   0.000405
     4  O   -0.030341   0.001820   0.002098  -0.000004   0.000000  -0.000004
     5  H    0.000216   0.001049  -0.000225   0.000012   0.000000  -0.000001
     6  C   -0.040880  -0.005041   0.313083  -0.003038   0.000038  -0.000092
     7  O    0.000853   0.000005  -0.030514   0.000062   0.000000   0.000000
     8  H   -0.000093   0.000007   0.000144   0.000008   0.000000   0.000000
     9  C   -0.000115  -0.012584   0.000011  -0.038378   0.356505   0.352655
    10  O   -0.000004  -0.000344   0.000000   0.003341  -0.025605  -0.034855
    11  H    0.000000  -0.000028   0.000000  -0.000120  -0.009306   0.000048
    12  C    0.001985  -0.032431   0.003097   0.333367  -0.020943  -0.045547
    13  O   -0.000363   0.000566   0.000917  -0.029815   0.001564   0.004535
    14  C   -0.000488   0.001699  -0.033260  -0.002952   0.000085   0.000198
    15  O   -0.000081  -0.000019  -0.001260  -0.000145  -0.000006   0.000000
    16  C    0.000007   0.000003  -0.000127   0.000000   0.000009   0.000000
    17  C    0.000000   0.000000   0.000018   0.000002  -0.000035  -0.000002
    18  O    0.000000   0.000000   0.000001  -0.000019   0.000186  -0.000019
    19  H   -0.000001  -0.000005  -0.000016   0.000255   0.001281   0.000281
    20  C    0.000000   0.000000   0.000001   0.000000   0.000000   0.000000
    21  O    0.000000   0.000000   0.000000   0.000000   0.000000   0.000000
    22  H    0.000000   0.000000   0.000000   0.000000   0.000000   0.000000
    23  C    0.000000   0.000000  -0.000034   0.000000   0.000000   0.000000
    24  O    0.000000   0.000000   0.000144   0.000000   0.000000   0.000000
    25  H    0.000000   0.000000  -0.000013   0.000000   0.000000   0.000000
    26  C    0.000000   0.000000   0.000016   0.000000   0.000000   0.000000
    27  O    0.000000   0.000000   0.000000   0.000000   0.000000   0.000000
    28  C    0.000000   0.000000   0.000000   0.000000   0.000000   0.000000
    29  O    0.000000   0.000000   0.000000   0.000000   0.000000   0.000000
    30  H   -0.000153  -0.013127   0.000011  -0.000329   0.000040  -0.000198
    31  H    0.711792   0.010290   0.010126   0.005282   0.000011   0.000011
    32  H    0.010290   0.704231   0.005756   0.009882  -0.000088   0.009044
    33  H    0.010126   0.005756   0.687799   0.000243   0.000002   0.000012
    34  H    0.005282   0.009882   0.000243   0.694032  -0.006236   0.009328
    35  H    0.000011  -0.000088   0.000002  -0.006236   0.643518  -0.051557
    36  H    0.000011   0.009044   0.000012   0.009328  -0.051557   0.678874
    37  H    0.003909   0.000136   0.008746   0.007200  -0.000057   0.000026
    38  H    0.000000   0.000000   0.000001   0.000000   0.000000   0.000000
    39  H    0.000000   0.000000   0.000007   0.000000   0.000000   0.000000
    40  H   -0.000001   0.000000   0.000093   0.000005   0.000001   0.000000
    41  H    0.000000   0.000000   0.000007   0.000000   0.000002   0.000000
    42  H    0.000000   0.000000   0.000000   0.000000   0.000000   0.000000
    43  H    0.000000   0.000000   0.000000   0.000000   0.000000   0.000000
    44  H    0.000000   0.000000   0.000012   0.000000   0.000000   0.000000
    45  H    0.000000   0.000000   0.000000   0.000000   0.000000   0.000000
             37         38         39         40         41         42
     1  O    0.000019   0.000000   0.000000   0.000000   0.000000   0.000000
     2  C   -0.000952   0.000000   0.000000  -0.000003   0.000000   0.000000
     3  C   -0.002329   0.000000   0.000000   0.000029   0.000000   0.000000
     4  O   -0.000034   0.000000   0.000000   0.000000   0.000000   0.000000
     5  H    0.000002   0.000000   0.000000   0.000000   0.000000   0.000000
     6  C   -0.055931  -0.000005   0.000031   0.000642   0.000016   0.000000
     7  O    0.006740  -0.000042   0.000001  -0.000028   0.000000   0.000000
     8  H    0.000785   0.000744   0.000007   0.000042  -0.000001   0.000000
     9  C    0.000012   0.000000   0.000000   0.000002  -0.000001   0.000000
    10  O    0.000000   0.000000   0.000000   0.000000   0.000000   0.000000
    11  H    0.000000   0.000000   0.000000   0.000000   0.000000   0.000000
    12  C    0.000367   0.000000   0.000000   0.000032   0.000003   0.000000
    13  O   -0.036421   0.000000  -0.000001  -0.000691  -0.000054  -0.000002
    14  C    0.337157   0.000015  -0.000100  -0.007009   0.000211   0.000020
    15  O   -0.036980   0.000058   0.002577  -0.029004  -0.000774   0.000019
    16  C   -0.007081   0.004682  -0.065975   0.319638  -0.061784  -0.005870
    17  C    0.000362  -0.000082  -0.008116  -0.034766   0.330072  -0.042289
    18  O   -0.000055   0.000001   0.000140   0.001165  -0.027873   0.001697
    19  H    0.000596   0.000000   0.000036   0.000745   0.000173  -0.000161
    20  C    0.000056   0.000021  -0.004818  -0.007248  -0.045096   0.330708
    21  O    0.000000   0.000000   0.000063  -0.000003  -0.000062  -0.031974
    22  H    0.000000   0.000000   0.000010  -0.000001  -0.000270  -0.002171
    23  C   -0.000306   0.340926  -0.036268  -0.005201   0.000382   0.000086
    24  O   -0.000024  -0.017220   0.001857  -0.000173  -0.000012   0.000000
    25  H    0.000002  -0.010144  -0.000137  -0.000007   0.000000   0.000000
    26  C    0.000122  -0.011043   0.348042  -0.032323  -0.001992   0.003133
    27  O   -0.000002   0.003573  -0.030972   0.001639  -0.000671   0.001509
    28  C    0.000001   0.000423  -0.002792   0.002406  -0.002208  -0.037627
    29  O    0.000000  -0.000006  -0.000122  -0.000019  -0.000111  -0.002261
    30  H    0.000001   0.000000   0.000000   0.000000   0.000000   0.000000
    31  H    0.003909   0.000000   0.000000  -0.000001   0.000000   0.000000
    32  H    0.000136   0.000000   0.000000   0.000000   0.000000   0.000000
    33  H    0.008746   0.000001   0.000007   0.000093   0.000007   0.000000
    34  H    0.007200   0.000000   0.000000   0.000005   0.000000   0.000000
    35  H   -0.000057   0.000000   0.000000   0.000001   0.000002   0.000000
    36  H    0.000026   0.000000   0.000000   0.000000   0.000000   0.000000
[...]
 0.00001591,-0.00000685,-0.00001840,-0.00001001,0.00000183,0.00000633,-
 0.00001275,0.00000780,0.00003453,0.00003827,0.00002020,-0.00006014,-0.
 00010080,-0.00010141,0.00008624,0.00057081,0.00015821,0.00009370,-0.00
 080841,0.00100649,-0.00061979,-0.01272910,-0.00732216,-0.00081781,0.00
 197440,0.00070420,-0.00109410,0.00013227,0.00007914,-0.00005769,-0.319
 50211,-0.09548506,-0.02690299,-0.02127153,0.00960523,-0.00994372,-0.00
 002553,0.00015972,0.00055874,0.00001002,-0.00001207,-0.00000526,0.0000
 2801,0.00001802,0.00000509,-0.00001131,-0.00000462,-0.00000120,0.00005
 686,0.00012571,-0.00026675,0.00141000,-0.00144565,0.00041809,-0.002656
 49,-0.00028207,0.00135738,0.00127275,0.00021428,-0.00051139,-0.0000036
 4,0.00000053,0.00000358,0.00000561,-0.00000022,0.00000041,0.00000592,0
 .00000169,-0.00000478,0.00000354,0.00000626,-0.00000853,0.00000996,-0.
 00000329,0.00000395,-0.00000791,0.00000790,-0.00000393,0.00001159,0.00
 000367,-0.00000902,0.00003078,-0.00001315,0.00002013,-0.00000232,0.000
 00848,0.00001531,0.00003160,0.00019255,0.00005203,0.00092785,-0.000440
 80,0.00008112,-0.00008697,-0.00054216,0.00194704,0.34993209,0.00000270
 ,-0.00000086,0.00000526,-0.00000103,0.00000048,-0.00000365,-0.00000515
 ,0.00000255,0.00000120,0.00000443,-0.00000237,0.00000028,-0.00000160,0
 .00000150,-0.00000078,0.00000575,-0.00000792,0.00000396,0.00001611,0.0
 0000722,0.00000682,-0.00001587,-0.00001053,-0.00002172,-0.00000231,0.0
 0000359,-0.00001371,0.00000279,0.00000167,0.00001131,0.00000071,-0.000
 00043,-0.00000390,-0.00000536,-0.00000216,-0.00000048,0.00003010,-0.00
 002000,0.00001058,-0.00008586,0.00002175,0.00001363,0.00029372,0.00000
 760,0.00000314,-0.00114999,0.00015689,-0.00024434,-0.00814002,-0.00302
 618,-0.00094596,0.00114358,0.00070989,-0.00028185,0.00008724,-0.000006
 42,-0.00004083,-0.09676485,-0.07085164,-0.01121236,0.03697310,-0.00270
 361,0.01005245,0.00042432,0.00139225,-0.00064736,-0.00002100,0.0000392
 0,-0.00002885,0.00002979,-0.00001554,0.00000805,-0.00001061,0.00000250
 ,0.00000116,-0.00019904,-0.00019194,0.00001769,0.00140933,0.00240648,0
 .00043047,-0.02899837,-0.00970623,-0.00322022,0.00181865,0.00202279,0.
 00207498,-0.00000051,0.,-0.00000150,0.00000307,-0.00000035,0.00000142,
 0.00000209,-0.00000005,-0.00000120,0.00000371,0.00000423,-0.00000791,0
 .00000320,0.00000215,0.00000199,-0.00000053,-0.00000407,0.00000163,0.0
 0000161,-0.00000161,0.00000032,0.00002396,-0.00000547,0.00001751,0.000
 00286,-0.00001037,0.00000269,0.00020648,0.00017382,-0.00002438,0.00026
 671,-0.00020876,0.00060423,-0.00036341,-0.00010019,0.00169822,0.092725
 60,0.08368892,-0.00000212,-0.00000922,-0.00000145,0.00000350,0.0000100
 9,-0.00000091,0.00000638,0.00001290,0.00000828,-0.00000180,-0.00000753
 ,-0.00000860,0.00000070,0.00000314,-0.00000147,-0.00001252,-0.00001354
 ,-0.00000771,-0.00000961,-0.00000696,-0.00001160,0.00000946,-0.0000058
 4,0.00001122,0.00000495,0.00001496,-0.00002444,-0.00000474,-0.00000674
 ,0.00001258,0.00000391,-0.00000045,-0.00000688,0.00001495,-0.00000412,
 0.00000049,0.00001292,-0.00011523,0.00001485,0.00003583,0.00016582,0.0
 0012913,-0.00052943,-0.00019807,-0.00030581,0.00175797,-0.00094285,0.0
 0135257,0.03054069,0.01235982,0.00009698,-0.00187206,0.00028661,0.0029
 3033,-0.00019740,0.00022567,0.00023348,-0.02630745,-0.01206272,-0.0454
 7100,-0.01767886,0.00533041,-0.00170761,-0.00078357,-0.00047182,0.0003
 8890,0.00005735,0.00002582,0.00009600,-0.00000425,0.00000167,-0.000002
 94,-0.00000605,-0.00000346,-0.00000029,0.00037413,0.00018446,-0.000458
 50,0.00139296,0.00073215,0.00089190,-0.02294840,-0.01029320,-0.0037327
 4,0.00051341,0.00139601,0.00275600,0.00000065,0.00000191,-0.00000016,-
 0.00000220,-0.00000009,-0.00000182,-0.00000242,-0.00000092,0.00000237,
 -0.00000184,-0.00000440,0.00000957,-0.00000711,0.00000201,-0.00000597,
 0.00000086,-0.00000967,0.00000539,-0.00000464,-0.00000195,0.00000479,-
 0.00003339,-0.00000434,-0.00004304,-0.00002011,0.00004185,0.00000573,-
 0.00016081,-0.00006872,-0.00016413,-0.00057894,0.00029083,-0.00011051,
 0.00199834,0.00127864,-0.00533727,0.03500763,0.00470272,0.05059953,0.0
 0000215,-0.00000889,-0.00003074,-0.00000945,0.00000975,0.00001868,-0.0
 0000129,-0.00000684,0.00002938,0.00001403,0.00001185,-0.00003147,-0.00
 000410,-0.00000140,0.00000104,-0.00003268,0.00000812,0.00000730,0.0000
 1320,-0.00002119,-0.00007990,0.00000419,0.00001478,0.00010105,-0.00001
 662,0.00001626,0.00000383,0.00000849,-0.00001630,-0.00001243,-0.000004
 08,0.00000102,0.00000099,0.00000760,0.00000525,0.00004095,0.00003019,-
 0.00008922,-0.00008906,0.00006284,0.00009605,0.00016879,0.00001918,-0.
 00014193,-0.00047710,0.00027793,0.00065658,0.00011941,-0.00055923,-0.0
 0051657,0.00039484,0.00039743,0.00021858,0.00012268,-0.00002042,0.0000
 0731,-0.00009251,-0.00482553,0.00024717,-0.00147926,0.00217745,-0.0005
 0400,0.00138368,-0.00028549,-0.00005771,-0.00002541,0.00064386,-0.0001
 9276,-0.00003646,0.00001372,0.00029204,-0.00019800,-0.00001675,-0.0000
 2240,-0.00004110,-0.00073585,-0.00104872,0.00256615,-0.01672388,0.0112
 8292,-0.01111349,-0.31763474,-0.07414135,-0.05853267,-0.01580671,-0.00
 814798,0.00828347,-0.00000378,0.00000215,0.00000438,0.00000306,0.00000
 012,-0.00000055,0.00000497,-0.00000012,-0.00000319,0.00000590,-0.00000
 357,-0.00000087,0.00000134,-0.00000116,-0.00000353,-0.00000301,-0.0000
 0040,-0.00000076,0.00000665,0.00000017,-0.00000366,0.00000411,-0.00000
 969,-0.00000886,-0.00003411,-0.00000954,0.00002398,0.00095058,0.000463
 49,-0.00141917,0.00010896,-0.00003447,0.00030843,0.00082448,0.00030546
 ,-0.00017197,0.00055559,0.00012197,-0.00048378,0.34953693,0.00000194,0
 .00001383,0.00000873,-0.00000032,-0.00001525,-0.00000121,-0.00000489,-
 0.00000017,-0.00001114,-0.00000009,0.00000840,0.00000907,0.,-0.0000022
 6,0.00000038,0.00001962,-0.00004707,-0.00001157,0.00000538,0.00006628,
 0.00008889,-0.00002527,-0.00004681,-0.00013882,0.00000012,-0.00001666,
 0.00001751,0.00000450,0.00000960,-0.00000778,-0.00000493,0.00000026,0.
 00000552,-0.00001368,0.00000719,-0.00000083,-0.00001648,0.00011642,0.0
 0002398,-0.00008643,-0.00008951,-0.00010947,0.00001482,0.00030086,0.00
 027309,-0.00027112,-0.00055312,0.00026572,-0.00119586,-0.00027965,0.00
 128189,0.00064167,0.00006933,-0.00041633,0.00018728,-0.00003774,0.0000
 1418,-0.02726877,-0.00647248,-0.00910385,0.00090527,0.00385900,0.00128
 768,-0.00030784,-0.00028487,0.00011454,0.00033407,0.00020176,-0.000168
 11,-0.00016708,-0.00017942,0.00020021,-0.00000237,0.00004220,0.0000090
 3,0.00412060,0.00185192,-0.00413690,0.03561344,-0.00582378,0.01755150,
 -0.07514602,-0.06172223,-0.01818616,-0.00696925,0.00150934,0.00408581,
 -0.00000022,-0.00000257,-0.00000067,0.00000192,-0.00000009,0.00000121,
 0.00000074,0.00000086,-0.00000059,-0.00000150,0.00000483,-0.00000261,0
 .00000452,-0.00000164,0.00000238,0.00000057,0.00000913,-0.00000332,0.0
 0000209,0.00000206,-0.00000189,0.00000512,0.00000167,0.00000174,0.0000
 1731,-0.00001222,-0.00001468,-0.00133198,0.00009249,-0.00014348,0.0000
 1526,-0.00021043,0.00006537,0.00065917,0.00039292,-0.00038992,0.000418
 06,-0.00377699,-0.00308982,0.07097556,0.07027967,-0.00000021,-0.000004
 30,-0.00003195,-0.00000691,0.00000365,0.00002055,0.00000299,-0.0000049
 0,0.00002493,0.00000813,0.00001497,-0.00002854,-0.00000169,-0.00000249
 ,0.00000131,-0.00001849,-0.00001660,-0.00000332,0.00000478,0.00000748,
 -0.00004118,-0.00000062,-0.00000317,0.00004721,-0.00000858,0.00001306,
 0.00001616,0.00000244,-0.00001831,-0.00002073,-0.00000234,0.00000341,0
 .00000325,0.00001001,0.00001467,0.00004556,0.00001017,-0.00004531,-0.0
 0008565,0.00006062,0.00006598,0.00012756,0.00000258,0.00002285,-0.0003
 3253,0.00024593,-0.00021978,-0.00008750,-0.00171592,-0.00007369,0.0008
 6390,0.00065954,0.00003534,-0.00006995,0.00001391,0.00005613,0.0000569
 1,-0.02317921,-0.00737200,-0.00321132,0.00190633,0.00155140,0.00148656
 ,0.00020333,-0.00034337,-0.00008086,-0.00001970,0.00003695,0.00002012,
 0.00007142,0.00014380,-0.00012653,-0.00001072,-0.00002162,-0.00001091,
 -0.00337389,-0.00050519,0.00309282,-0.01552564,0.00764709,-0.00526573,
 -0.06360183,-0.02085246,-0.05837942,0.03995247,0.01271960,-0.01025462,
 -0.00000289,0.00000165,0.00000501,0.00000084,0.00000006,-0.00000099,0.
 00000271,0.00000009,-0.00000231,0.00000183,-0.00000113,-0.00000140,-0.
 00000095,-0.00000162,-0.00000382,-0.00000119,0.00000442,-0.00000206,0.
 00000355,-0.00000012,-0.00000285,0.00000356,-0.00000794,0.00000099,0.0
 0000410,-0.00001191,-0.00000436,0.00092332,0.00023254,-0.00010998,0.00
 020969,0.00007315,0.00010633,0.00058508,-0.00005131,-0.00052138,0.0003
 3400,-0.00334539,-0.00253714,0.05993000,0.01063739,0.07170784,0.000007
 13,0.00002382,0.00001718,0.00000200,-0.00003028,0.00001014,-0.00004724
 ,0.00004408,0.00000660,0.00002455,0.00002129,-0.00000934,-0.00000580,0
 .00000278,-0.00000073,0.00006466,-0.00026235,0.00005602,0.00029798,0.0
 0051291,0.00053240,-0.00042560,-0.00066535,-0.00105676,-0.00000808,-0.
 00000226,-0.00000712,0.00001170,0.00000659,0.00000333,-0.00000519,-0.0
 0000222,0.00000005,-0.00001743,-0.00000281,0.00003470,0.00012793,0.000
 01106,-0.00004130,-0.00047657,0.00010148,0.00011839,0.00047382,-0.0000
 9009,0.00027816,0.00041319,-0.00112720,-0.00034969,0.00019805,0.000020
 08,-0.00001321,0.00010251,0.00016602,0.00003312,-0.00004204,0.00000162
 ,-0.00003289,-0.00002214,-0.00004129,0.00005153,0.00004184,-0.00003318
 ,0.00000382,-0.00001057,-0.00000388,-0.00000745,-0.34671740,-0.0333455
 4,-0.02555076,-0.00619310,-0.00874639,0.01263812,-0.00032201,0.0001415
 5,0.00063070,-0.02013116,-0.00032230,-0.00291346,0.00176138,-0.0006723
 1,0.00017209,0.00040134,0.00005064,-0.00009789,0.00003661,0.00012892,-
 0.00011551,-0.00000118,-0.00000182,-0.00000184,0.00001749,0.00000146,0
 .00000861,0.00000653,-0.00000092,-0.00000438,0.00001543,0.00000871,-0.
 00003886,0.00000812,0.00000530,0.00000085,-0.00000276,0.00000380,-0.00
 000119,0.00000714,-0.00000054,-0.00000230,0.00015137,0.00005763,0.0000
 3823,-0.00611922,0.00005206,-0.00127409,0.00012132,0.00303970,-0.00061
 374,0.00048483,0.00092467,0.00043194,0.00027198,-0.00016795,0.00011238
 ,0.00003080,0.00004924,-0.00001681,0.00017625,-0.00021982,0.00017823,0
 .37529167,0.00000221,0.00003010,0.00004058,0.00000952,-0.00003862,-0.0
 0000505,-0.00002800,0.00005270,-0.00002851,0.00000059,0.00000259,0.000
 02524,0.00000006,0.00000429,-0.00000171,0.00007326,-0.00024867,-0.0000
 8123,0.00013299,0.00027523,0.00053163,-0.00031699,-0.00028956,-0.00110
 460,0.00000447,-0.00001848,-0.00000483,0.00000101,0.00001748,0.0000066
 5,-0.00000095,-0.00000259,0.00000084,-0.00001184,-0.00002732,-0.000031
 28,-0.00006480,0.00012126,-0.00001715,0.00018999,-0.00018551,-0.000092
 98,-0.00050650,0.00029465,-0.00037482,0.00092925,0.00240340,0.00053522
 ,0.00053823,0.00019634,0.00038956,-0.00028169,-0.00011201,-0.00019502,
 0.00004844,-0.00005202,0.00005715,0.00000585,0.00011453,-0.00002582,-0
 .00004330,0.00000248,-0.00001880,-0.00000154,0.00001323,-0.00000140,-0
 .03375558,-0.04969251,-0.00913515,-0.01863890,-0.00491886,0.01425698,-
 0.00124027,0.00004418,0.00007507,0.03607849,-0.00088057,0.00402260,-0.
 00112309,0.00193447,-0.00181592,0.00033118,0.00008626,-0.00012665,-0.0
 0016252,-0.00006571,0.00007345,0.00000257,-0.00000322,-0.00000498,0.00
 000448,0.00000048,0.00000016,-0.00000110,0.00000024,0.00000105,-0.0000
 1400,-0.00000042,-0.00000366,0.00000290,-0.00000002,0.00000044,0.00000
 194,0.00000626,-0.00000128,-0.00000131,0.00000060,0.00000211,-0.000039
 38,-0.00001833,-0.00004671,-0.02316294,-0.00132155,-0.00316972,0.00185
 352,-0.00532124,0.00241554,-0.00049032,-0.00045193,-0.00017480,-0.0003
 9112,-0.00020466,-0.00013734,-0.00003780,-0.00005436,0.00001372,-0.000
 27315,-0.00003178,-0.00004305,0.04036498,0.05831800,-0.00000014,-0.000
 01099,0.00001982,0.00000147,0.00001352,-0.00002115,0.00001300,-0.00001
 467,-0.00003562,-0.00001576,-0.00003128,0.00003166,0.00000118,0.000003
 02,-0.00000079,-0.00003154,0.00010568,-0.00001035,-0.00048935,-0.00029
 243,-0.00014196,0.00093241,0.00060313,0.00102282,0.00000378,-0.0000135
 5,-0.00000506,-0.00000069,0.00001489,0.00001474,0.00000061,-0.00000251
 ,-0.00000107,-0.00000623,-0.00001106,-0.00006495,-0.00006132,0.0000542
 4,0.00011574,0.00017491,-0.00008213,-0.00022839,-0.00026044,-0.0000009
 3,0.00032024,0.00081219,0.00001067,-0.00001509,-0.00005751,-0.00007685
 ,0.00003599,-0.00000284,0.00009736,0.00001755,0.00001250,-0.00001537,-
 0.00002575,0.00002313,-0.00005246,0.00009533,0.00001542,-0.00001072,-0
 .00003908,-0.00000562,0.00000585,-0.00000007,-0.02899305,-0.00948450,-
 0.04214242,0.04055844,0.01787703,-0.01572302,0.00082955,-0.00096608,0.
 00019963,-0.00498483,-0.00012859,0.00127424,-0.00011749,-0.00015426,0.
 00083007,-0.00021283,-0.00007709,-0.00010732,0.00008934,-0.00000947,-0
 .00006088,0.00000181,0.00000068,-0.00000352,-0.00000856,-0.00000230,-0
 .00000532,-0.00000275,0.00000132,0.00000226,-0.00002734,0.00003092,0.0
 0003508,0.00000255,-0.00000193,0.00000618,0.00000018,-0.00000485,0.000
 00130,-0.00000195,0.00000169,0.00000031,-0.00006250,-0.00005855,-0.000
 03809,-0.02540520,-0.00301476,0.00017576,0.00025702,0.00143020,0.00000
 720,0.00002315,0.00003047,0.00020710,0.00004732,-0.00002640,-0.0000112
 0,0.00000309,0.00001671,-0.00000219,0.00015286,0.00002310,-0.00001964,
 0.01679616,-0.00577064,0.05427028,-0.00000227,0.00000109,0.00000476,0.
 00000521,-0.00000049,-0.00000211,0.00000092,0.00000137,-0.00000542,-0.
 00000516,-0.00000191,0.00000574,0.00000216,-0.00000011,0.00000020,0.00
 001306,-0.00000437,-0.00000106,-0.00000443,0.00000730,0.00001999,-0.00
 000139,-0.00000612,-0.00002764,0.00000699,-0.00000098,-0.00000117,-0.0
 0000489,0.00000152,0.00000170,0.00000297,0.00000063,0.00000021,-0.0000
 0123,-0.00000385,-0.00000952,-0.00000074,0.00001118,0.00002490,-0.0000
 2578,-0.00001274,-0.00002598,0.00001544,0.00002520,0.00009087,-0.00010
 220,-0.00005930,-0.00009594,0.00030061,0.00063456,0.00012764,-0.000133
 12,0.00003244,0.00033385,-0.00001592,0.00006419,0.00003918,-0.00121503
 ,-0.00154575,0.00210412,-0.00074427,0.00051444,-0.00064066,0.00067935,
 0.00024322,0.00031095,-0.00017016,0.00008480,0.00019996,0.00002315,-0.
 00012285,0.00004018,0.00000461,-0.00000779,0.00002574,0.00088793,-0.00
 052115,0.00049677,-0.00126325,-0.00079809,0.00269812,0.00861739,-0.004
 64879,0.02468921,-0.27923041,0.06187022,-0.26768248,0.00000163,-0.0000
 0036,0.00000008,-0.00000132,-0.00000005,-0.00000010,-0.00000207,0.,0.0
 0000088,-0.00000217,0.00000116,0.00000023,-0.00000062,0.00000067,0.000
 00172,0.00000058,-0.00000102,-0.00000009,-0.00000285,-0.00000078,0.000
 00125,0.00000076,0.00000014,0.00000215,0.00000391,-0.00001080,-0.00000
 839,-0.00002185,0.00002410,-0.00011243,0.00000332,-0.00000752,0.000020
 49,-0.00004166,-0.00002248,-0.00002630,0.00017893,0.00011271,-0.000066
 28,0.00086662,-0.00091511,0.00213924,-0.00000014,0.00001114,-0.0000041
 5,0.27137738,0.00000070,-0.00000665,0.00001286,0.00000213,0.00000207,-
 0.00001155,-0.00000181,0.00000632,-0.00001148,-0.00000319,-0.00001712,
 0.00001516,0.00000004,0.00000485,-0.00000141,0.00000623,0.00002277,0.0
 0000845,0.00000189,-0.00002484,0.00000460,0.00000029,0.00001132,-0.000
 00813,0.00000345,0.00000324,-0.00000892,-0.00000153,-0.00000064,0.0000
 1146,0.00000154,0.00000131,-0.00000661,-0.00000331,0.00000503,-0.00001
 174,0.00000268,0.00000540,0.00003539,-0.00005775,-0.00000557,-0.000061
 62,0.00004313,0.00000771,0.00017995,-0.00015268,-0.00019311,0.00004122
 ,0.00051210,-0.00064754,0.00017554,0.00004282,-0.00014356,-0.00038526,
 0.00004294,-0.00008440,-0.00005883,-0.00024897,0.00244330,-0.00422762,
 0.00071056,-0.00049689,0.00174712,0.00004732,-0.00212794,-0.00135800,-
 0.00035759,0.00026209,0.00036373,0.00005236,-0.00024703,0.00001854,0.0
 0001259,-0.00000655,0.00007298,0.00091727,-0.00100483,0.00014206,-0.00
 184988,-0.00386229,0.00614658,0.00996543,-0.00433046,0.00063863,0.0447
 6843,-0.00874835,0.07125963,0.00000103,0.00000296,-0.00000318,-0.00000
 008,-0.00000017,0.00000089,-0.00000033,0.00000043,0.00000072,0.0000016
 2,0.00000098,-0.00000097,0.00000061,0.00000065,0.00000109,-0.00000123,
 -0.00000345,0.00000400,-0.00000076,-0.00000006,0.00000017,0.00000413,0
 .00000263,0.00000424,-0.00001614,-0.00006174,-0.00001529,-0.00018948,-
 0.00005061,0.00012470,-0.00002288,0.00000785,-0.00000796,-0.00003623,0
 .00005754,-0.00010083,0.00024133,0.00006257,0.00024045,0.00051277,0.00
 076672,-0.00034002,-0.00000189,0.00002117,-0.00000615,-0.05494968,0.01
 836489,0.00000867,0.00000914,0.00008660,0.00000805,-0.00000832,-0.0000
 5473,-0.00001051,0.00001853,-0.00006003,-0.00000914,-0.00004152,0.0000
 6805,-0.00000019,0.00000965,-0.00000546,0.00001176,0.00004136,-0.00000
 028,0.00001510,-0.00003188,0.00007843,-0.00001769,0.00001548,-0.000087
 35,0.00000058,-0.00003563,-0.00005248,0.00001160,0.00005059,0.00006435
 ,-0.00000157,-0.00001035,-0.00001211,-0.00003847,-0.00004881,-0.000110
 79,0.00001452,0.00007652,0.00020411,-0.00013144,-0.00010715,-0.0002764
 1,0.00010413,-0.00007081,0.00042230,-0.00004351,0.00013796,-0.00013626
 ,0.00010700,-0.00068070,-0.00026001,0.00007075,0.00009781,0.00015024,-
 0.00001006,-0.00003370,-0.00012700,0.00150256,0.00122650,-0.00454884,0
 .00022612,0.00078756,0.00169060,0.00003108,-0.00221548,0.00004194,0.00
 016237,0.00015334,-0.00020672,-0.00004086,-0.00012662,0.00017731,0.000
 00121,0.00003604,-0.00000415,-0.00033215,0.00049212,-0.00031577,0.0032
 4121,-0.00177467,-0.00155237,-0.02876669,0.00481193,-0.02537450,-0.212
 58244,0.07140404,-0.27137821,0.00000389,-0.00000385,-0.00001589,0.0000
 0347,-0.00000092,0.00000545,-0.00000019,0.00000060,0.00000201,0.000005
 35,0.00000369,-0.00000499,0.00001136,0.00000294,0.00001257,-0.00000430
 ,-0.00001328,0.00000620,0.00000191,0.00000305,0.00000065,0.00000578,0.
 00001271,0.00001497,-0.00001201,-0.00000785,0.00000536,0.00006069,0.00
 007511,-0.00003114,-0.00001203,-0.00000745,0.00000718,0.00013689,0.000
 08367,-0.00007137,0.00026694,0.00035796,0.00039407,0.00067407,-0.00002
 978,0.00360969,-0.00000338,-0.00003490,0.00001961,0.23532957,-0.074624
 62,0.29762517\\0.01266457,0.00044290,-0.01251651,-0.01809549,-0.020817
 91,0.00218589,0.00403910,-0.01912171,0.01475420,-0.00735975,0.00909704
 ,0.02140692,0.00586571,0.00016567,-0.03513982,0.01099041,-0.02917759,-
 0.01152542,0.00232448,0.01220280,0.00065923,0.00392105,0.00647565,0.02
 117903,-0.00488693,0.02255241,0.00106587,0.00429945,0.01128666,0.00224
 281,0.00680001,-0.03603106,-0.00305821,0.01925861,0.01324045,0.0163441
 1,0.00147974,0.01123325,0.00985106,-0.06131779,0.00642804,0.00393953,0
 .01299679,0.00344045,-0.00748736,-0.00966665,0.00070061,-0.00096090,0.
 00526146,0.05356856,0.02224533,0.00188884,-0.02269150,0.03073098,-0.00
 048466,0.01249277,-0.02331901,-0.01060218,-0.00480216,-0.01460861,-0.0
 0046711,-0.00093100,-0.01429192,0.00006728,-0.01726435,0.03239733,0.01
 244003,-0.01307265,-0.00440768,-0.00567026,-0.02081845,-0.01129357,-0.
 01172995,0.03018147,0.00738711,0.01661257,-0.01276820,0.01429340,-0.00
 450445,0.00723124,-0.00205983,0.02069475,0.00367530,-0.01843183,0.0025
 0397,-0.00674669,0.01458965,-0.00074398,0.00398821,-0.00469459,0.02378
 770,0.00105363,0.00150917,-0.02196392,-0.00185365,-0.00257021,-0.02085
 008,0.00531755,-0.00137205,0.02257823,0.00393931,0.00086922,0.00110923
 ,0.00647759,-0.01920309,-0.02193624,-0.00482708,-0.00231330,0.01718702
 ,0.00344852,-0.00620599,-0.00244427,-0.00881316,-0.01695264,-0.0199570
 5,-0.00193896,-0.00132826,0.01847257,0.00213538,-0.00044391,-0.0208139
 9,-0.00627318,-0.00147502,0.01876448,0.00298585,0.00294574,-0.02074663
 ,-0.00518332,-0.00283958,0.02053548,0.00456780,-0.00348816,-0.00230215
 ,-0.00519652,0.00139091\\\@


 The mind is not a vessel to be filled but a fire to be kindled.
                                  -- Plutarch
 Job cpu time:  1 days 15 hours 28 minutes 27.9 seconds.
 File lengths (MBytes):  RWF=   2016 Int=      0 D2E=      0 Chk=     34 Scr=      1
 Normal termination of Gaussian 09 at Sat Mar  5 01:13:23 2016.
Gaussian '09 finished on node029 at Sat Mar  5 01:13:23 EST 2016.
