Gaussian '09 started on node011 at Wed Mar 23 06:42:27 EDT 2016.
 Entering Gaussian System, Link 0=/usr/local/gaussian/g09/g09
 Initial command:
 /usr/local/gaussian/g09/l1.exe /home/srmcgrat/thesis/gaussian/cellobiose/320K/5661ps/1/2dp/gaussian26521/Gau-26557.inp -scrdir=/home/srmcgrat/thesis/gaussian/cellobiose/320K/5661ps/1/2dp/gaussian26521/
 Entering Link 1 = /usr/local/gaussian/g09/l1.exe PID=     26559.
  
 Copyright (c) 1988,1990,1992,1993,1995,1998,2003,2009,2010,
            Gaussian, Inc.  All Rights Reserved.
  
 This is part of the Gaussian(R) 09 program.  It is based on
 the Gaussian(R) 03 system (copyright 2003, Gaussian, Inc.),
 the Gaussian(R) 98 system (copyright 1998, Gaussian, Inc.),
 the Gaussian(R) 94 system (copyright 1995, Gaussian, Inc.),
 the Gaussian 92(TM) system (copyright 1992, Gaussian, Inc.),
 the Gaussian 90(TM) system (copyright 1990, Gaussian, Inc.),
 the Gaussian 88(TM) system (copyright 1988, Gaussian, Inc.),
 the Gaussian 86(TM) system (copyright 1986, Carnegie Mellon
 University), and the Gaussian 82(TM) system (copyright 1983,
 Carnegie Mellon University). Gaussian is a federally registered
 trademark of Gaussian, Inc.
  
 This software contains proprietary and confidential information,
 including trade secrets, belonging to Gaussian, Inc.
  
 This software is provided under written license and may be
 used, copied, transmitted, or stored only in accord with that
 written license.
  
 The following legend is applicable only to US Government
 contracts under FAR:
  
                    RESTRICTED RIGHTS LEGEND
  
 Use, reproduction and disclosure by the US Government is
 subject to restrictions as set forth in subparagraphs (a)
 and (c) of the Commercial Computer Software - Restricted
 Rights clause in FAR 52.227-19.
  
 Gaussian, Inc.
 340 Quinnipiac St., Bldg. 40, Wallingford CT 06492
  
  
 ---------------------------------------------------------------
 Warning -- This program may not be used in any manner that
 competes with the business of Gaussian, Inc. or will provide
 assistance to any competitor of Gaussian, Inc.  The licensee
 of this program is prohibited from giving any competitor of
 Gaussian, Inc. access to this program.  By using this program,
 the user acknowledges that Gaussian, Inc. is engaged in the
 business of creating and licensing software in the field of
 computational chemistry and represents and warrants to the
 licensee that it is not a competitor of Gaussian, Inc. and that
 it will not use this program in any manner prohibited above.
 ---------------------------------------------------------------
  

 Cite this work as:
 Gaussian 09, Revision B.01,
 M. J. Frisch, G. W. Trucks, H. B. Schlegel, G. E. Scuseria, 
 M. A. Robb, J. R. Cheeseman, G. Scalmani, V. Barone, B. Mennucci, 
 G. A. Petersson, H. Nakatsuji, M. Caricato, X. Li, H. P. Hratchian, 
 A. F. Izmaylov, J. Bloino, G. Zheng, J. L. Sonnenberg, M. Hada, 
 M. Ehara, K. Toyota, R. Fukuda, J. Hasegawa, M. Ishida, T. Nakajima, 
 Y. Honda, O. Kitao, H. Nakai, T. Vreven, J. A. Montgomery, Jr., 
 J. E. Peralta, F. Ogliaro, M. Bearpark, J. J. Heyd, E. Brothers, 
 K. N. Kudin, V. N. Staroverov, T. Keith, R. Kobayashi, J. Normand, 
 K. Raghavachari, A. Rendell, J. C. Burant, S. S. Iyengar, J. Tomasi, 
 M. Cossi, N. Rega, J. M. Millam, M. Klene, J. E. Knox, J. B. Cross, 
 V. Bakken, C. Adamo, J. Jaramillo, R. Gomperts, R. E. Stratmann, 
 O. Yazyev, A. J. Austin, R. Cammi, C. Pomelli, J. W. Ochterski, 
 R. L. Martin, K. Morokuma, V. G. Zakrzewski, G. A. Voth, 
 P. Salvador, J. J. Dannenberg, S. Dapprich, A. D. Daniels, 
 O. Farkas, J. B. Foresman, J. V. Ortiz, J. Cioslowski, 
 and D. J. Fox, Gaussian, Inc., Wallingford CT, 2010.
 
 ******************************************
 Gaussian 09:  EM64L-G09RevB.01 12-Aug-2010
                23-Mar-2016 
 ******************************************
 -------------------------------------------------
 # freq=raman b3lyp/6-31+g(2d,p) geom=connectivity
 -------------------------------------------------
 1/10=4,30=1,38=1,57=2/1,3;
 2/12=2,17=6,18=5,40=1/2;
 3/5=1,6=6,7=112,11=2,16=1,25=1,30=1,71=2,74=-5/1,2,3;
 4//1;
 5/5=2,38=5,98=1/2;
 8/6=4,10=90,11=11/1;
 10/13=10,15=4/2;
 11/6=3,8=1,9=11,15=111,16=1/1,2,10;
 10/6=1/2;
 6/7=2,8=2,9=2,10=2,18=1,28=1/1;
 7/8=1,10=1,25=1/1,2,3,16;
 1/10=4,30=1/3;
 99//99;
 -----------------
 320 5661/5661.com
 -----------------
 Symbolic Z-matrix:
 Charge =  0 Multiplicity = 1
 O                     7.727     7.559     12.264 
 C                     8.243     7.872     13.566 
 C                     7.595     9.128     14.124 
 O                     7.691     10.189    13.162 
 H                     7.582     9.802     12.246 
 C                     8.121     9.607     15.467 
 O                     7.353     10.654    16.077 
 H                     7.843     10.966    16.891 
 C                     8.425     5.474     14.269 
 O                     7.959     4.761     13.114 
 H                     8.007     3.801     13.389 
 C                     7.943     6.861     14.66 
 O                     8.72      7.285     15.789 
 C                     8.124     8.426     16.423 
 O                     8.944     8.625     17.584 
 C                     8.359     8.363     18.868 
 C                     9.016     7.09      19.378 
 O                     8.721     6.059     18.426 
 H                     8.952     6.384     17.509 
 C                     8.475     6.722     20.75 
 O                     9.04      5.555     21.365 
 H                     8.648     5.453     22.279 
 C                     7.951     10.863    19.542 
 O                     8.383     11.602    18.39 
 H                     8.132     12.565    18.486 
 C                     8.63      9.529     19.804 
 O                     8.106     9.111     21.073 
 C                     8.67      7.927     21.655 
 O                     7.942     7.65      22.861 
 H                     8.55984   7.48552   23.57712 
 H                     9.70833   8.0716    21.86915 
 H                     7.4227    6.55642   20.64923 
 H                     10.07497   7.23171   19.43634 
 H                     7.30442   8.21396   18.76527 
 H                     9.68615   9.67878   19.88773 
 H                     8.09939   11.48112   20.4027 
 H                     6.90121   10.68237   19.44099 
 H                     8.4565    7.41314   11.65725 
 H                     8.23116   4.8414    15.10992 
 H                     9.4881    5.54332   14.16949 
 H                     6.89959   6.85168   14.89686 
 H                     9.30087   8.01882   13.50075 
 H                     6.55508   8.91225   14.25411 
 H                     9.12677   9.94905   15.33925 
 H                     7.12237   8.19497   16.72009 
 

 GradGradGradGradGradGradGradGradGradGradGradGradGradGradGradGradGradGrad
 Berny optimization.
 Initialization pass.
 Trust Radius=3.00D-01 FncErr=1.00D-07 GrdErr=1.00D-07
 Number of steps in this run=      2 maximum allowed number of steps=      2.
 GradGradGradGradGradGradGradGradGradGradGradGradGradGradGradGradGradGrad

                          Input orientation:                          
 ---------------------------------------------------------------------
 Center     Atomic      Atomic             Coordinates (Angstroms)
 Number     Number       Type             X           Y           Z
 ---------------------------------------------------------------------
      1          8           0        7.727000    7.559000   12.264000
      2          6           0        8.243000    7.872000   13.566000
      3          6           0        7.595000    9.128000   14.124000
      4          8           0        7.691000   10.189000   13.162000
      5          1           0        7.582000    9.802000   12.246000
      6          6           0        8.121000    9.607000   15.467000
      7          8           0        7.353000   10.654000   16.077000
      8          1           0        7.843000   10.966000   16.891000
      9          6           0        8.425000    5.474000   14.269000
     10          8           0        7.959000    4.761000   13.114000
     11          1           0        8.007000    3.801000   13.389000
     12          6           0        7.943000    6.861000   14.660000
     13          8           0        8.720000    7.285000   15.789000
     14          6           0        8.124000    8.426000   16.423000
     15          8           0        8.944000    8.625000   17.584000
     16          6           0        8.359000    8.363000   18.868000
     17          6           0        9.016000    7.090000   19.378000
     18          8           0        8.721000    6.059000   18.426000
     19          1           0        8.952000    6.384000   17.509000
     20          6           0        8.475000    6.722000   20.750000
     21          8           0        9.040000    5.555000   21.365000
     22          1           0        8.648000    5.453000   22.279000
     23          6           0        7.951000   10.863000   19.542000
     24          8           0        8.383000   11.602000   18.390000
     25          1           0        8.132000   12.565000   18.486000
     26          6           0        8.630000    9.529000   19.804000
     27          8           0        8.106000    9.111000   21.073000
     28          6           0        8.670000    7.927000   21.655000
     29          8           0        7.942000    7.650000   22.861000
     30          1           0        8.559836    7.485519   23.577118
     31          1           0        9.708332    8.071600   21.869145
     32          1           0        7.422704    6.556416   20.649231
     33          1           0       10.074969    7.231712   19.436339
     34          1           0        7.304422    8.213960   18.765272
     35          1           0        9.686151    9.678776   19.887733
     36          1           0        8.099389   11.481120   20.402702
     37          1           0        6.901205   10.682367   19.440989
     38          1           0        8.456504    7.413137   11.657248
     39          1           0        8.231159    4.841404   15.109921
     40          1           0        9.488105    5.543320   14.169485
     41          1           0        6.899587    6.851681   14.896858
     42          1           0        9.300869    8.018822   13.500750
     43          1           0        6.555084    8.912254   14.254110
     44          1           0        9.126775    9.949049   15.339253
     45          1           0        7.122371    8.194966   16.720090
 ---------------------------------------------------------------------
                    Distance matrix (angstroms):
                    1          2          3          4          5
     1  O    0.000000
     2  C    1.435071   0.000000
     3  C    2.436962   1.519475   0.000000
     4  O    2.779316   2.415866   1.435403   0.000000
     5  H    2.247754   2.429860   1.995327   1.000353   0.000000
     6  C    3.822139   2.576608   1.519791   2.415916   3.271603
     7  O    4.925228   3.851850   2.490271   2.971144   3.931273
     8  H    5.747194   4.559436   3.331071   3.812122   4.795732
     9  C    2.975643   2.505541   3.749885   4.898513   4.851264
    10  O    2.933450   3.156467   4.497031   5.434824   5.129058
    11  H    3.932758   4.081674   5.393227   6.399838   6.123649
    12  C    2.504930   1.519525   2.355353   3.658291   3.821936
    13  O    3.672431   2.348154   2.726628   4.048850   4.492570
    14  C    4.266917   2.912649   2.461310   3.732262   4.431080
    15  O    5.560562   4.147618   3.747587   4.854914   5.633349
    16  C    6.682713   5.325950   4.865640   6.028178   6.820948
    17  C    7.245031   5.915099   5.811816   7.070932   7.763809
    18  O    6.419368   5.209132   5.403133   6.769601   7.314354
    19  H    5.512828   4.273649   4.563903   5.913083   6.423301
    20  C    8.559922   7.279161   7.104021   8.379289   9.088557
    21  O    9.411067   8.174846   8.202831   9.517508  10.164592
    22  H   10.275393   9.051627   9.006579  10.318199  10.986867
    23  C    7.995991   6.689090   5.700148   6.420769   7.381971
    24  O    7.369129   6.099465   4.994034   5.459617   6.452158
    25  H    7.996083   6.800218   5.579281   5.846780   6.846479
    26  C    7.845248   6.465915   5.787437   6.740437   7.635195
    27  O    8.952699   7.609792   6.967784   7.994888   8.869498
    28  C    9.445399   8.100449   7.701557   8.843423   9.655498
    29  O   10.599571   9.302522   8.867923  10.028964  10.836924
    30  H   11.343970  10.023584   9.643137  10.795294  11.606743
    31  H    9.820756   8.433816   8.097495   9.185172  10.006023
    32  H    8.450436   7.250917   7.015794   8.326240   9.009632
    33  H    7.553974   6.182795   6.161745   7.334589   8.032574
    34  H    6.547830   5.294364   4.739336   5.953728   6.715640
    35  H    8.151873   6.731377   6.156045   7.033949   7.927088
    36  H    9.042133   7.732197   6.724112   7.366419   8.343796
    37  H    7.870612   6.649367   5.582812   6.347669   7.280550
    38  H    0.960000   1.974709   3.125350   3.248952   2.611140
    39  H    3.967212   3.401227   4.444283   5.716901   5.764631
    40  H    3.285625   2.708732   4.054115   5.082023   5.046720
    41  H    2.849009   2.148719   2.502506   3.843665   4.024564
    42  H    2.053789   1.070000   2.128075   2.723252   2.776442
    43  H    2.676794   2.098734   1.070000   2.028075   2.424605
    44  H    4.138705   2.870473   2.120683   2.619056   3.460660
    45  H    4.541670   3.362797   2.798860   4.118193   4.776118
                    6          7          8          9         10
     6  C    0.000000
     7  O    1.434619   0.000000
     8  H    1.987949   1.000020   0.000000
     9  C    4.313851   5.590210   6.113565   0.000000
    10  O    5.389487   6.623749   7.265068   1.435113   0.000000
    11  H    6.167716   7.390309   7.976724   1.935989   0.999764
    12  C    2.867656   4.091801   4.673156   1.519531   2.607752
    13  O    2.419539   3.647162   3.941230   2.382676   3.755705
    14  C    1.519443   2.382885   2.597996   3.666691   4.940540
    15  O    2.474539   2.986498   2.678195   4.602976   5.990127
    16  C    3.629185   3.748386   3.309138   5.431526   6.800215
    17  C    4.736268   5.134614   4.752312   5.390976   6.766032
    18  O    4.658754   5.338844   5.215914   4.208383   5.521122
    19  H    3.904876   4.779155   4.754632   3.406381   4.789176
    20  C    6.029812   6.209383   5.770861   6.600255   7.900650
    21  O    7.214546   7.537156   7.122388   7.123061   8.359306
    22  H    7.996048   8.197087   7.750596   8.013131   9.216876
    23  C    4.267559   3.522430   2.655198   7.554504   8.863050
    24  O    3.548605   2.703622   1.715546   7.384903   8.649580
    25  H    4.226612   3.172072   2.276916   8.255375   9.475797
    26  C    4.367463   4.097180   3.342141   6.864494   8.242582
    27  O    5.627919   5.282790   4.582501   7.721654   9.071372
    28  C    6.435460   6.347055   5.710967   7.786542   9.136616
    29  O    7.650694   7.442687   6.829828   8.876414  10.166151
    30  H    8.394478   8.230886   7.571775   9.523940  10.828704
    31  H    6.772336   6.765007   6.053011   8.133675   9.522227
    32  H    6.053858   6.140060   5.809077   6.548554   7.764717
    33  H    5.021518   5.514194   5.040372   5.702047   7.110113
    34  H    3.672323   3.630834   3.372934   5.383264   6.654944
    35  H    4.690174   4.573439   3.746273   7.130274   8.546990
    36  H    5.279579   4.466870   3.558530   8.591497   9.914883
    37  H    4.293822   3.394311   2.733106   7.496567   8.729967
    38  H    4.409060   5.590628   6.355422   3.253075   3.066508
    39  H    4.780225   5.957574   6.390117   1.070000   2.015995
    40  H    4.479511   5.858015   6.286372   1.070000   2.015995
    41  H    3.067359   4.006987   4.668431   2.149209   2.944807
    42  H    2.789362   4.168383   4.722820   2.798834   3.544515
    43  H    2.099015   2.644480   3.581869   3.913873   4.528106
    44  H    1.070000   2.046339   2.256144   4.654459   5.764660
    45  H    2.135728   2.552176   2.868300   3.886945   5.049352
                   11         12         13         14         15
    11  H    0.000000
    12  C    3.314082   0.000000
    13  O    4.290294   1.434624   0.000000
    14  C    5.532583   2.364351   1.434940   0.000000
    15  O    6.461190   3.558577   2.251178   1.435243   0.000000
    16  C    7.138290   4.487352   3.282171   2.457075   1.435105
    17  C    6.906788   4.843892   3.606461   3.363419   2.362170
    18  O    5.565944   3.928262   2.908066   3.157706   2.709806
    19  H    4.953717   3.059806   1.955511   2.456572   2.242269
    20  C    7.933195   6.114773   4.998851   4.663662   3.723564
    21  O    8.231657   6.918531   5.846972   5.788356   4.871353
    22  H    9.064882   7.780016   6.743998   6.588326   5.673819
    23  C    9.366664   6.312685   5.241990   3.961951   3.135037
    24  O    9.273995   6.048436   5.051263   3.744749   3.134786
    25  H   10.139168   6.870925   5.958016   4.624646   4.122687
    26  C    8.622664   5.835317   4.600420   3.592187   2.417481
    27  O    9.340758   6.798208   5.624227   4.700218   3.620989
    28  C    9.262300   7.113010   5.901239   5.284027   4.139483
    29  O   10.224373   8.238867   7.124022   6.487152   5.459062
    30  H   10.847997   8.960217   7.792345   7.228821   6.112566
    31  H    9.646005   7.520221   6.209968   5.682975   4.387815
    32  H    7.787469   6.019498   5.082878   4.674204   3.998627
    33  H    7.253729   5.243675   3.891255   3.783228   2.579051
    34  H    6.990860   4.369386   3.424181   2.490563   2.062176
    35  H    8.921958   6.189316   4.843885   4.001767   2.639776
    36  H   10.401192   7.372150   6.267282   5.017210   4.100716
    37  H    9.230524   6.208546   5.309157   3.961651   3.442990
    38  H    4.030950   3.095975   4.142128   4.883528   6.068991
    39  H    2.023427   2.089075   2.582882   3.819030   4.576550
    40  H    2.416300   2.089075   2.499252   3.904991   4.631599
    41  H    3.578639   1.070000   2.073062   2.511329   3.813793
    42  H    4.413231   2.127961   2.472244   3.176532   4.143396
    43  H    5.383437   2.509721   3.112989   2.720666   4.108235
    44  H    6.546441   3.376204   2.732196   2.121260   2.612547
    45  H    5.584413   2.587831   2.060918   1.070000   2.061456
                   16         17         18         19         20
    16  C    0.000000
    17  C    1.520618   0.000000
    18  O    2.373778   1.433977   0.000000
    19  H    2.472847   1.998923   0.999937   0.000000
    20  C    2.499652   1.520029   2.429210   3.293304   0.000000
    21  O    3.818852   2.510970   2.998916   3.945088   1.435040
    22  H    4.492944   3.351268   3.901048   4.869505   1.994525
    23  C    2.621210   3.923857   4.991670   5.019615   4.345310
    24  O    3.274169   4.662079   5.553412   5.322353   5.421482
    25  H    4.225430   5.617183   6.532883   6.311235   6.275667
    26  C    1.519570   2.505832   3.734711   3.906627   2.966174
    27  O    2.342123   2.790263   4.086507   4.566655   2.438813
    28  C    2.837990   2.450513   3.730746   4.432797   1.519564
    29  O    4.077537   3.687596   4.775704   5.591669   2.366769
    30  H    4.794382   4.242300   5.347424   6.179740   2.929633
    31  H    3.303405   2.765622   4.108605   4.736127   2.143598
    32  H    2.704289   2.106972   2.622165   3.497073   1.070000
    33  H    2.132457   1.070000   2.056518   2.386275   2.131997
    34  H    1.070000   2.137340   2.601086   2.764323   2.745058
    35  H    2.128956   2.722259   4.021313   4.129516   3.309519
    36  H    3.485022   4.601318   5.804579   5.922929   4.786535
    37  H    2.798740   4.169104   5.071231   5.139485   4.458122
    38  H    7.273699   7.747740   6.907941   5.962185   9.119000
    39  H    5.151810   4.887603   3.566352   2.941904   5.950344
    40  H    5.594776   5.453781   4.355719   3.485184   6.761571
    41  H    4.492654   4.961515   4.049782   3.354759   6.062839
    42  H    5.460123   5.957006   5.332470   4.342858   7.410494
    43  H    4.984352   5.969168   5.498810   4.767765   7.118980
    44  H    3.944247   4.949537   4.982484   4.177071   6.333628
    45  H    2.484150   3.445470   3.166716   2.692493   4.498823
                   21         22         23         24         25
    21  O    0.000000
    22  H    0.999732   0.000000
    23  C    5.717002   6.102875   0.000000
    24  O    6.771151   7.280436   1.435217   0.000000
    25  H    7.632379   8.076735   2.011144   0.999793   0.000000
    26  C    4.289230   4.768619   1.519619   2.521455   3.347002
    27  O    3.688191   3.889623   2.331843   3.671553   4.315479
    28  C    2.418136   2.551575   3.688065   4.924248   5.642965
    29  O    2.798686   2.379909   4.619438   5.983530   6.582853
    30  H    2.975050   2.413299   5.297191   6.624415   7.204419
    31  H    2.652189   2.854707   4.036797   5.130758   5.841330
    32  H    2.032439   2.318411   4.477915   5.611079   6.425398
    33  H    2.757219   3.644280   4.208166   4.801771   5.755192
    34  H    4.103765   4.666304   2.835275   3.575328   4.437840
    35  H    4.427794   4.965189   2.129006   2.764091   3.565183
    36  H    6.076978   6.337168   1.070000   2.036177   2.202183
    37  H    5.879299   6.200958   1.070000   2.036177   2.443597
    38  H    9.901192  10.802797   8.621276   7.929813   8.560307
    39  H    6.347398   7.207184   7.482075   7.515826   8.429809
    40  H    7.209464   8.153414   7.715284   7.466030   8.353162
    41  H    6.935388   7.714225   6.226836   6.080138   6.858775
    42  H    8.245295   9.168825   6.812356   6.130776   6.847387
    43  H    8.246861   8.985855   5.806528   5.261330   5.808451
    44  H    7.458205   8.282740   4.458793   3.548592   4.211270
    45  H    5.676434   6.383369   3.970920   3.998208   4.820269
                   26         27         28         29         30
    26  C    0.000000
    27  O    1.435152   0.000000
    28  C    2.448307   1.434809   0.000000
    29  O    3.653660   2.314813   1.435670   0.000000
    30  H    4.291521   3.019729   1.975241   0.960000   0.000000
    31  H    2.748024   2.069219   1.070000   2.069167   2.140024
    32  H    3.317866   2.678128   2.108511   2.521412   3.275488
    33  H    2.738730   3.176039   2.716582   4.056208   4.416570
    34  H    2.136690   2.602464   3.209000   4.183246   5.025988
    35  H    1.070000   2.055263   2.687846   3.999789   4.437400
    36  H    2.109683   2.463090   3.811248   4.554720   5.123841
    37  H    2.109683   2.565966   3.952534   4.687748   5.484383
    38  H    8.418821   9.574027  10.013226  11.218061  11.920538
    39  H    6.645827   7.335082   7.249245   8.249306   8.876531
    40  H    6.954836   7.892849   7.898364   9.075845   9.650770
    41  H    5.851701   6.686156   7.068462   8.071647   8.860309
    42  H    6.516261   7.743354   8.179133   9.465560  10.117644
    43  H    5.957090   6.995863   7.759946   8.808823   9.642254
    44  H    4.511895   5.883890   6.647254   7.953993   8.617008
    45  H    3.682810   4.555707   5.178832   6.219289   7.041906
                   31         32         33         34         35
    31  H    0.000000
    32  H    3.001344   0.000000
    33  H    2.599689   2.993600   0.000000
    34  H    3.928496   2.512119   3.015140   0.000000
    35  H    2.551372   3.930929   2.518543   3.013012   0.000000
    36  H    4.045241   4.977086   4.784793   3.739985   2.455901
    37  H    4.537841   4.330736   4.688264   2.590794   2.993777
    38  H   10.309389   9.091670   7.947742   7.245179   8.624734
    39  H    7.635661   5.854812   5.275519   5.059107   6.953033
    40  H    8.107124   6.875998   5.561908   5.746480   7.059715
    41  H    7.615119   5.783651   5.552869   4.121203   6.377009
    42  H    8.378475   7.534381   6.037382   5.633743   6.610404
    43  H    8.284831   6.870247   6.486085   4.625981   6.490674
    44  H    6.819275   6.527609   5.006906   4.250777   4.590711
    45  H    5.763261   4.267691   4.125979   2.053356   4.336891
                   36         37         38         39         40
    36  H    0.000000
    37  H    1.731630   0.000000
    38  H    9.651891   8.584489   0.000000
    39  H    8.492157   7.392144   4.311096   0.000000
    40  H    8.720034   7.803244   3.297235   1.719598   0.000000
    41  H    7.292842   5.943340   3.637898   2.420681   2.990202
    42  H    7.814602   6.938249   2.116201   3.718829   2.571065
    43  H    6.840258   5.491522   3.550556   4.484804   4.467605
    44  H    5.388997   4.723893   4.520760   5.190642   4.572676
    45  H    5.031402   3.693152   5.293726   3.881808   4.374186
                   41         42         43         44         45
    41  H    0.000000
    42  H    3.012887   0.000000
    43  H    2.185810   2.984142   0.000000
    44  H    3.840542   2.671362   2.977595   0.000000
    45  H    2.275570   3.891147   2.630090   3.000193   0.000000
 Stoichiometry    C12H22O11
 Framework group  C1[X(C12H22O11)]
 Deg. of freedom   129
 Full point group                 C1      NOp   1
 Largest Abelian subgroup         C1      NOp   1
 Largest concise Abelian subgroup C1      NOp   1
                         Standard orientation:                         
 ---------------------------------------------------------------------
 Center     Atomic      Atomic             Coordinates (Angstroms)
 Number     Number       Type             X           Y           Z
 ---------------------------------------------------------------------
      1          8           0        5.103089   -0.282971   -0.223914
      2          6           0        3.755016   -0.084835    0.226496
      3          6           0        3.180363    1.211236   -0.320111
      4          8           0        4.079435    2.294357   -0.039223
      5          1           0        5.018903    1.960911   -0.122409
      6          6           0        1.782468    1.571334    0.155270
      7          8           0        1.174595    2.671159   -0.536833
      8          1           0        0.314600    2.891760   -0.076633
      9          6           0        3.161866   -2.515585    0.094738
     10          8           0        4.380033   -3.122637   -0.360352
     11          1           0        4.150677   -4.092693   -0.437275
     12          6           0        2.735789   -1.101020   -0.260845
     13          8           0        1.536810   -0.814635    0.473034
     14          6           0        0.888633    0.358238   -0.040084
     15          8           0       -0.333923    0.415076    0.709615
     16          6           0       -1.560486    0.166434    0.007300
     17          6           0       -2.049790   -1.192485    0.482906
     18          8           0       -1.029651   -2.142952    0.147917
     19          1           0       -0.147853   -1.807559    0.479306
     20          6           0       -3.361739   -1.554998   -0.193749
     21          8           0       -3.954704   -2.802793    0.194502
     22          1           0       -4.833698   -2.898628   -0.272027
     23          6           0       -2.329152    2.665797   -0.174563
     24          8           0       -1.247529    3.399593    0.418297
     25          1           0       -1.374196    4.379748    0.267176
     26          6           0       -2.569790    1.254293    0.334348
     27          8           0       -3.777766    0.844571   -0.323362
     28          6           0       -4.336932   -0.418601    0.064462
     29          8           0       -5.475300   -0.662833   -0.775549
     30          1           0       -6.222666   -0.925489   -0.233279
     31          1           0       -4.628139   -0.400367    1.093911
     32          1           0       -3.181506   -1.597274   -1.247613
     33          1           0       -2.187005   -1.172871    1.543890
     34          1           0       -1.378972    0.140921   -1.046883
     35          1           0       -2.732520    1.281160    1.391560
     36          1           0       -3.227736    3.226618   -0.023150
     37          1           0       -2.148098    2.608311   -1.227566
     38          1           0        5.665355   -0.483960    0.527791
     39          1           0        2.368706   -3.157324   -0.227704
     40          1           0        3.185274   -2.561661    1.163489
     41          1           0        2.571192   -1.003363   -1.313589
     42          1           0        3.740768   -0.054821    1.295980
     43          1           0        3.132201    1.108053   -1.384034
     44          1           0        1.824291    1.803638    1.198910
     45          1           0        0.672247    0.228557   -1.079920
 ---------------------------------------------------------------------
 Rotational constants (GHZ):      0.4100913      0.1444774      0.1097310
 Standard basis: 6-31+G(2d,p) (6D, 7F)
 There are   685 symmetry adapted basis functions of A   symmetry.
 Integral buffers will be    131072 words long.
 Raffenetti 2 integral format.
 Two-electron integral symmetry is turned on.
   685 basis functions,  1028 primitive gaussians,   685 cartesian basis functions
    91 alpha electrons       91 beta electrons
       nuclear repulsion energy      2286.6063948069 Hartrees.
 NAtoms=   45 NActive=   45 NUniq=   45 SFac= 1.00D+00 NAtFMM=   50 NAOKFM=F Big=F
 One-electron integrals computed using PRISM.
 NBasis=   685 RedAO= T  NBF=   685
 NBsUse=   685 1.00D-06 NBFU=   685
 Harris functional with IExCor=  402 diagonalized for initial guess.
 ExpMin= 4.38D-02 ExpMax= 5.48D+03 ExpMxC= 8.25D+02 IAcc=2 IRadAn=         0 AccDes= 0.00D+00
 HarFok:  IExCor=  402 AccDes= 0.00D+00 IRadAn=         0 IDoV= 1
 ScaDFX=  1.000000  1.000000  1.000000  1.000000
 FoFCou: FMM=F IPFlag=           0 FMFlag=      100000 FMFlg1=           0
         NFxFlg=           0 DoJE=T BraDBF=F KetDBF=T FulRan=T
         Omega=  0.000000  0.000000  1.000000  0.000000  0.000000 ICntrl=     500 IOpCl=  0
         NMat0=    1 NMatS0=    1 NMatT0=    0 NMatD0=    1 NMtDS0=    0 NMtDT0=    0
         I1Cent=           4 NGrid=           0.
 Petite list used in FoFCou.
 Initial guess orbital symmetries:
       Occupied  (A) (A) (A) (A) (A) (A) (A) (A) (A) (A) (A) (A)
                 (A) (A) (A) (A) (A) (A) (A) (A) (A) (A) (A) (A)
                 (A) (A) (A) (A) (A) (A) (A) (A) (A) (A) (A) (A)
                 (A) (A) (A) (A) (A) (A) (A) (A) (A) (A) (A) (A)
                 (A) (A) (A) (A) (A) (A) (A) (A) (A) (A) (A) (A)
                 (A) (A) (A) (A) (A) (A) (A) (A) (A) (A) (A) (A)
                 (A) (A) (A) (A) (A) (A) (A) (A) (A) (A) (A) (A)
                 (A) (A) (A) (A) (A) (A) (A)
       Virtual   (A) (A) (A) (A) (A) (A) (A) (A) (A) (A) (A) (A)
                 (A) (A) (A) (A) (A) (A) (A) (A) (A) (A) (A) (A)
                 (A) (A) (A) (A) (A) (A) (A) (A) (A) (A) (A) (A)
                 (A) (A) (A) (A) (A) (A) (A) (A) (A) (A) (A) (A)
                 (A) (A) (A) (A) (A) (A) (A) (A) (A) (A) (A) (A)
                 (A) (A) (A) (A) (A) (A) (A) (A) (A) (A) (A) (A)
                 (A) (A) (A) (A) (A) (A) (A) (A) (A) (A) (A) (A)
                 (A) (A) (A) (A) (A) (A) (A) (A) (A) (A) (A) (A)
                 (A) (A) (A) (A) (A) (A) (A) (A) (A) (A) (A) (A)
                 (A) (A) (A) (A) (A) (A) (A) (A) (A) (A) (A) (A)
                 (A) (A) (A) (A) (A) (A) (A) (A) (A) (A) (A) (A)
                 (A) (A) (A) (A) (A) (A) (A) (A) (A) (A) (A) (A)
                 (A) (A) (A) (A) (A) (A) (A) (A) (A) (A) (A) (A)
                 (A) (A) (A) (A) (A) (A) (A) (A) (A) (A) (A) (A)
                 (A) (A) (A) (A) (A) (A) (A) (A) (A) (A) (A) (A)
                 (A) (A) (A) (A) (A) (A) (A) (A) (A) (A) (A) (A)
                 (A) (A) (A) (A) (A) (A) (A) (A) (A) (A) (A) (A)
                 (A) (A) (A) (A) (A) (A) (A) (A) (A) (A) (A) (A)
                 (A) (A) (A) (A) (A) (A) (A) (A) (A) (A) (A) (A)
                 (A) (A) (A) (A) (A) (A) (A) (A) (A) (A) (A) (A)
                 (A) (A) (A) (A) (A) (A) (A) (A) (A) (A) (A) (A)
                 (A) (A) (A) (A) (A) (A) (A) (A) (A) (A) (A) (A)
                 (A) (A) (A) (A) (A) (A) (A) (A) (A) (A) (A) (A)
                 (A) (A) (A) (A) (A) (A) (A) (A) (A) (A) (A) (A)
                 (A) (A) (A) (A) (A) (A) (A) (A) (A) (A) (A) (A)
                 (A) (A) (A) (A) (A) (A) (A) (A) (A) (A) (A) (A)
                 (A) (A) (A) (A) (A) (A) (A) (A) (A) (A) (A) (A)
                 (A) (A) (A) (A) (A) (A) (A) (A) (A) (A) (A) (A)
                 (A) (A) (A) (A) (A) (A) (A) (A) (A) (A) (A) (A)
                 (A) (A) (A) (A) (A) (A) (A) (A) (A) (A) (A) (A)
                 (A) (A) (A) (A) (A) (A) (A) (A) (A) (A) (A) (A)
                 (A) (A) (A) (A) (A) (A) (A) (A) (A) (A) (A) (A)
                 (A) (A) (A) (A) (A) (A) (A) (A) (A) (A) (A) (A)
                 (A) (A) (A) (A) (A) (A) (A) (A) (A) (A) (A) (A)
                 (A) (A) (A) (A) (A) (A) (A) (A) (A) (A) (A) (A)
                 (A) (A) (A) (A) (A) (A) (A) (A) (A) (A) (A) (A)
                 (A) (A) (A) (A) (A) (A) (A) (A) (A) (A) (A) (A)
                 (A) (A) (A) (A) (A) (A) (A) (A) (A) (A) (A) (A)
                 (A) (A) (A) (A) (A) (A) (A) (A) (A) (A) (A) (A)
                 (A) (A) (A) (A) (A) (A) (A) (A) (A) (A) (A) (A)
                 (A) (A) (A) (A) (A) (A) (A) (A) (A) (A) (A) (A)
                 (A) (A) (A) (A) (A) (A) (A) (A) (A) (A) (A) (A)
                 (A) (A) (A) (A) (A) (A) (A) (A) (A) (A) (A) (A)
                 (A) (A) (A) (A) (A) (A) (A) (A) (A) (A) (A) (A)
                 (A) (A) (A) (A) (A) (A) (A) (A) (A) (A) (A) (A)
                 (A) (A) (A) (A) (A) (A) (A) (A) (A) (A) (A) (A)
                 (A) (A) (A) (A) (A) (A) (A) (A) (A) (A) (A) (A)
                 (A) (A) (A) (A) (A) (A) (A) (A) (A) (A) (A) (A)
                 (A) (A) (A) (A) (A) (A) (A) (A) (A) (A) (A) (A)
                 (A) (A) (A) (A) (A) (A)
 The electronic state of the initial guess is 1-A.
 Requested convergence on RMS density matrix=1.00D-08 within 128 cycles.
 Requested convergence on MAX density matrix=1.00D-06.
 Requested convergence on             energy=1.00D-06.
 No special actions if energy rises.
 SCF Done:  E(RB3LYP) =  -1297.99885018     A.U. after   13 cycles
             Convg  =    0.4965D-08             -V/T =  2.0064
 Range of M.O.s used for correlation:     1   685
 NBasis=   685 NAE=    91 NBE=    91 NFC=     0 NFV=     0
 NROrb=    685 NOA=    91 NOB=    91 NVA=   594 NVB=   594

 **** Warning!!: The largest alpha MO coefficient is  0.82973783D+02

          Differentiating once with respect to electric field.
                with respect to dipole field.
          Electric field/nuclear overlap derivatives assumed to be zero.
          There are     3 degrees of freedom in the 1st order CPHF.  IDoFFX=0.
      3 vectors produced by pass  0 Test12= 1.80D-12 3.33D-08 XBig12= 1.23D+02 1.02D+00.
 AX will form     3 AO Fock derivatives at one time.
      3 vectors produced by pass  1 Test12= 1.80D-12 3.33D-08 XBig12= 2.50D+01 3.64D-01.
      3 vectors produced by pass  2 Test12= 1.80D-12 3.33D-08 XBig12= 1.06D+01 2.25D-01.
      3 vectors produced by pass  3 Test12= 1.80D-12 3.33D-08 XBig12= 1.10D+00 8.31D-02.
      3 vectors produced by pass  4 Test12= 1.80D-12 3.33D-08 XBig12= 3.05D-01 4.21D-02.
      3 vectors produced by pass  5 Test12= 1.80D-12 3.33D-08 XBig12= 6.24D-02 2.24D-02.
      3 vectors produced by pass  6 Test12= 1.80D-12 3.33D-08 XBig12= 2.14D-02 1.74D-02.
      3 vectors produced by pass  7 Test12= 1.80D-12 3.33D-08 XBig12= 3.00D-03 8.91D-03.
      3 vectors produced by pass  8 Test12= 1.80D-12 3.33D-08 XBig12= 5.41D-04 2.27D-03.
      3 vectors produced by pass  9 Test12= 1.80D-12 3.33D-08 XBig12= 1.44D-04 1.22D-03.
      3 vectors produced by pass 10 Test12= 1.80D-12 3.33D-08 XBig12= 3.84D-05 5.44D-04.
      3 vectors produced by pass 11 Test12= 1.80D-12 3.33D-08 XBig12= 1.18D-05 3.19D-04.
      3 vectors produced by pass 12 Test12= 1.80D-12 3.33D-08 XBig12= 1.16D-06 1.23D-04.
      3 vectors produced by pass 13 Test12= 1.80D-12 3.33D-08 XBig12= 3.65D-07 5.48D-05.
      3 vectors produced by pass 14 Test12= 1.80D-12 3.33D-08 XBig12= 5.80D-08 2.42D-05.
      3 vectors produced by pass 15 Test12= 1.80D-12 3.33D-08 XBig12= 1.94D-08 9.72D-06.
      3 vectors produced by pass 16 Test12= 1.80D-12 3.33D-08 XBig12= 2.63D-09 4.00D-06.
      3 vectors produced by pass 17 Test12= 1.80D-12 3.33D-08 XBig12= 2.93D-10 9.85D-07.
      3 vectors produced by pass 18 Test12= 1.80D-12 3.33D-08 XBig12= 7.94D-11 4.81D-07.
      2 vectors produced by pass 19 Test12= 1.80D-12 3.33D-08 XBig12= 1.47D-11 3.35D-07.
      2 vectors produced by pass 20 Test12= 1.80D-12 3.33D-08 XBig12= 4.24D-12 1.36D-07.
      2 vectors produced by pass 21 Test12= 1.80D-12 3.33D-08 XBig12= 9.29D-13 8.16D-08.
 Inverted reduced A of dimension    63 with in-core refinement.
 End of Minotr Frequency-dependent properties file   721 does not exist.
 End of Minotr Frequency-dependent properties file   722 does not exist.
 Symmetrizing basis deriv contribution to polar:
 IMax=3 JMax=2 DiffMx= 0.00D+00
 G2DrvN: will do    16 centers at a time, making    3 passes doing MaxLOS=2.
 Calling FoFCou, ICntrl=  3107 FMM=F I1Cent=   0 AccDes= 0.00D+00.
 Calling FoFCou, ICntrl=  3107 FMM=F I1Cent=   0 AccDes= 0.00D+00.
 Calling FoFCou, ICntrl=  3107 FMM=F I1Cent=   0 AccDes= 0.00D+00.
 FoFDir/FoFCou used for L=0 through L=2.
 End of G2Drv Frequency-dependent properties file   721 does not exist.
 End of G2Drv Frequency-dependent properties file   722 does not exist.
          IDoAtm=111111111111111111111111111111111111111111111
          Differentiating once with respect to electric field.
                with respect to dipole field.
          Differentiating once with respect to nuclear coordinates.
          There are   138 degrees of freedom in the 1st order CPHF.  IDoFFX=5.
 Will reuse    3 saved solutions.
    135 vectors produced by pass  0 Test12= 5.41D-14 1.00D-09 XBig12= 1.61D-01 1.04D-01.
 AX will form    45 AO Fock derivatives at one time.
    135 vectors produced by pass  1 Test12= 5.41D-14 1.00D-09 XBig12= 1.74D-02 1.15D-02.
    132 vectors produced by pass  2 Test12= 5.41D-14 1.00D-09 XBig12= 1.24D-04 1.62D-03.
    132 vectors produced by pass  3 Test12= 5.41D-14 1.00D-09 XBig12= 5.02D-07 5.83D-05.
    132 vectors produced by pass  4 Test12= 5.41D-14 1.00D-09 XBig12= 1.16D-09 2.56D-06.
    132 vectors produced by pass  5 Test12= 5.41D-14 1.00D-09 XBig12= 2.78D-12 9.27D-08.
     80 vectors produced by pass  6 Test12= 5.41D-14 1.00D-09 XBig12= 1.11D-13 2.06D-08.
 Inverted reduced A of dimension   878 with in-core refinement.
 Isotropic polarizability for W=    0.000000      191.21 Bohr**3.
 End of Minotr Frequency-dependent properties file   721 does not exist.
 End of Minotr Frequency-dependent properties file   722 does not exist.

 **********************************************************************

            Population analysis using the SCF density.

 **********************************************************************

 Orbital symmetries:
       Occupied  (A) (A) (A) (A) (A) (A) (A) (A) (A) (A) (A) (A)
                 (A) (A) (A) (A) (A) (A) (A) (A) (A) (A) (A) (A)
                 (A) (A) (A) (A) (A) (A) (A) (A) (A) (A) (A) (A)
                 (A) (A) (A) (A) (A) (A) (A) (A) (A) (A) (A) (A)
                 (A) (A) (A) (A) (A) (A) (A) (A) (A) (A) (A) (A)
                 (A) (A) (A) (A) (A) (A) (A) (A) (A) (A) (A) (A)
                 (A) (A) (A) (A) (A) (A) (A) (A) (A) (A) (A) (A)
                 (A) (A) (A) (A) (A) (A) (A)
       Virtual   (A) (A) (A) (A) (A) (A) (A) (A) (A) (A) (A) (A)
                 (A) (A) (A) (A) (A) (A) (A) (A) (A) (A) (A) (A)
                 (A) (A) (A) (A) (A) (A) (A) (A) (A) (A) (A) (A)
                 (A) (A) (A) (A) (A) (A) (A) (A) (A) (A) (A) (A)
                 (A) (A) (A) (A) (A) (A) (A) (A) (A) (A) (A) (A)
                 (A) (A) (A) (A) (A) (A) (A) (A) (A) (A) (A) (A)
                 (A) (A) (A) (A) (A) (A) (A) (A) (A) (A) (A) (A)
                 (A) (A) (A) (A) (A) (A) (A) (A) (A) (A) (A) (A)
                 (A) (A) (A) (A) (A) (A) (A) (A) (A) (A) (A) (A)
                 (A) (A) (A) (A) (A) (A) (A) (A) (A) (A) (A) (A)
                 (A) (A) (A) (A) (A) (A) (A) (A) (A) (A) (A) (A)
                 (A) (A) (A) (A) (A) (A) (A) (A) (A) (A) (A) (A)
                 (A) (A) (A) (A) (A) (A) (A) (A) (A) (A) (A) (A)
                 (A) (A) (A) (A) (A) (A) (A) (A) (A) (A) (A) (A)
                 (A) (A) (A) (A) (A) (A) (A) (A) (A) (A) (A) (A)
                 (A) (A) (A) (A) (A) (A) (A) (A) (A) (A) (A) (A)
                 (A) (A) (A) (A) (A) (A) (A) (A) (A) (A) (A) (A)
                 (A) (A) (A) (A) (A) (A) (A) (A) (A) (A) (A) (A)
                 (A) (A) (A) (A) (A) (A) (A) (A) (A) (A) (A) (A)
                 (A) (A) (A) (A) (A) (A) (A) (A) (A) (A) (A) (A)
                 (A) (A) (A) (A) (A) (A) (A) (A) (A) (A) (A) (A)
                 (A) (A) (A) (A) (A) (A) (A) (A) (A) (A) (A) (A)
                 (A) (A) (A) (A) (A) (A) (A) (A) (A) (A) (A) (A)
                 (A) (A) (A) (A) (A) (A) (A) (A) (A) (A) (A) (A)
                 (A) (A) (A) (A) (A) (A) (A) (A) (A) (A) (A) (A)
                 (A) (A) (A) (A) (A) (A) (A) (A) (A) (A) (A) (A)
                 (A) (A) (A) (A) (A) (A) (A) (A) (A) (A) (A) (A)
                 (A) (A) (A) (A) (A) (A) (A) (A) (A) (A) (A) (A)
                 (A) (A) (A) (A) (A) (A) (A) (A) (A) (A) (A) (A)
                 (A) (A) (A) (A) (A) (A) (A) (A) (A) (A) (A) (A)
                 (A) (A) (A) (A) (A) (A) (A) (A) (A) (A) (A) (A)
                 (A) (A) (A) (A) (A) (A) (A) (A) (A) (A) (A) (A)
                 (A) (A) (A) (A) (A) (A) (A) (A) (A) (A) (A) (A)
                 (A) (A) (A) (A) (A) (A) (A) (A) (A) (A) (A) (A)
                 (A) (A) (A) (A) (A) (A) (A) (A) (A) (A) (A) (A)
                 (A) (A) (A) (A) (A) (A) (A) (A) (A) (A) (A) (A)
                 (A) (A) (A) (A) (A) (A) (A) (A) (A) (A) (A) (A)
                 (A) (A) (A) (A) (A) (A) (A) (A) (A) (A) (A) (A)
                 (A) (A) (A) (A) (A) (A) (A) (A) (A) (A) (A) (A)
                 (A) (A) (A) (A) (A) (A) (A) (A) (A) (A) (A) (A)
                 (A) (A) (A) (A) (A) (A) (A) (A) (A) (A) (A) (A)
                 (A) (A) (A) (A) (A) (A) (A) (A) (A) (A) (A) (A)
                 (A) (A) (A) (A) (A) (A) (A) (A) (A) (A) (A) (A)
                 (A) (A) (A) (A) (A) (A) (A) (A) (A) (A) (A) (A)
                 (A) (A) (A) (A) (A) (A) (A) (A) (A) (A) (A) (A)
                 (A) (A) (A) (A) (A) (A) (A) (A) (A) (A) (A) (A)
                 (A) (A) (A) (A) (A) (A) (A) (A) (A) (A) (A) (A)
                 (A) (A) (A) (A) (A) (A) (A) (A) (A) (A) (A) (A)
                 (A) (A) (A) (A) (A) (A) (A) (A) (A) (A) (A) (A)
                 (A) (A) (A) (A) (A) (A)
 The electronic state is 1-A.
 Alpha  occ. eigenvalues --  -19.19271 -19.18448 -19.18367 -19.17884 -19.17808
 Alpha  occ. eigenvalues --  -19.17163 -19.16308 -19.16191 -19.14140 -19.14139
 Alpha  occ. eigenvalues --  -19.13503 -10.30773 -10.30158 -10.26454 -10.25749
 Alpha  occ. eigenvalues --  -10.25616 -10.25467 -10.24876 -10.24548 -10.24523
 Alpha  occ. eigenvalues --  -10.24143 -10.23817 -10.23809  -1.10102  -1.09111
 Alpha  occ. eigenvalues --   -1.05909  -1.05338  -1.04319  -1.03829  -1.02804
 Alpha  occ. eigenvalues --   -1.02497  -1.01506  -1.00676  -0.99860  -0.82097
 Alpha  occ. eigenvalues --   -0.80332  -0.79877  -0.78112  -0.72087  -0.70013
 Alpha  occ. eigenvalues --   -0.67098  -0.64634  -0.63430  -0.62021  -0.61528
 Alpha  occ. eigenvalues --   -0.60593  -0.56612  -0.55851  -0.55292  -0.54705
 Alpha  occ. eigenvalues --   -0.53777  -0.53489  -0.53032  -0.52034  -0.51694
 Alpha  occ. eigenvalues --   -0.50948  -0.50081  -0.49181  -0.48330  -0.46557
 Alpha  occ. eigenvalues --   -0.46311  -0.45255  -0.44222  -0.43660  -0.43435
 Alpha  occ. eigenvalues --   -0.42819  -0.42248  -0.41607  -0.40521  -0.39557
 Alpha  occ. eigenvalues --   -0.38801  -0.38012  -0.37725  -0.36120  -0.35740
 Alpha  occ. eigenvalues --   -0.35386  -0.34571  -0.34207  -0.34088  -0.33564
 Alpha  occ. eigenvalues --   -0.33124  -0.31744  -0.31198  -0.30555  -0.30151
 Alpha  occ. eigenvalues --   -0.28977  -0.28656  -0.28317  -0.27466  -0.26810
 Alpha  occ. eigenvalues --   -0.26016
 Alpha virt. eigenvalues --   -0.02215  -0.02016  -0.01826  -0.00235   0.00298
 Alpha virt. eigenvalues --    0.01085   0.01991   0.02372   0.03196   0.03697
 Alpha virt. eigenvalues --    0.03931   0.04248   0.04933   0.05451   0.05565
 Alpha virt. eigenvalues --    0.06196   0.06518   0.07425   0.07547   0.07931
 Alpha virt. eigenvalues --    0.08199   0.08824   0.09040   0.09707   0.10034
 Alpha virt. eigenvalues --    0.10206   0.10916   0.11678   0.11826   0.12029
 Alpha virt. eigenvalues --    0.12693   0.12823   0.12999   0.13629   0.13862
 Alpha virt. eigenvalues --    0.14047   0.14171   0.14484   0.14844   0.14898
 Alpha virt. eigenvalues --    0.15700   0.16228   0.16922   0.17107   0.17300
 Alpha virt. eigenvalues --    0.17341   0.17587   0.17898   0.18086   0.18398
 Alpha virt. eigenvalues --    0.18799   0.18943   0.19386   0.19874   0.19944
 Alpha virt. eigenvalues --    0.20538   0.20873   0.21064   0.21680   0.21984
 Alpha virt. eigenvalues --    0.22096   0.22228   0.22383   0.22990   0.23248
 Alpha virt. eigenvalues --    0.23542   0.23754   0.23844   0.24169   0.24415
 Alpha virt. eigenvalues --    0.24997   0.25129   0.25359   0.25600   0.25871
 Alpha virt. eigenvalues --    0.26120   0.26548   0.26816   0.27181   0.27290
 Alpha virt. eigenvalues --    0.27569   0.27810   0.28172   0.28483   0.28642
 Alpha virt. eigenvalues --    0.28997   0.29404   0.29597   0.30135   0.30627
 Alpha virt. eigenvalues --    0.30942   0.31189   0.31645   0.31796   0.32138
 Alpha virt. eigenvalues --    0.32482   0.32717   0.32955   0.33411   0.33896
 Alpha virt. eigenvalues --    0.34120   0.34544   0.34722   0.34959   0.35547
 Alpha virt. eigenvalues --    0.35751   0.36534   0.36975   0.37036   0.37186
 Alpha virt. eigenvalues --    0.37817   0.38339   0.38691   0.38978   0.39376
 Alpha virt. eigenvalues --    0.39745   0.40450   0.40827   0.40956   0.41189
 Alpha virt. eigenvalues --    0.41533   0.42464   0.42765   0.42995   0.43633
 Alpha virt. eigenvalues --    0.44248   0.45059   0.45612   0.46409   0.46908
 Alpha virt. eigenvalues --    0.47044   0.48075   0.48292   0.49160   0.49725
 Alpha virt. eigenvalues --    0.50097   0.50730   0.53311   0.57940   0.58716
 Alpha virt. eigenvalues --    0.59545   0.59754   0.61202   0.61795   0.62673
 Alpha virt. eigenvalues --    0.63391   0.63775   0.64854   0.65966   0.67008
 Alpha virt. eigenvalues --    0.67150   0.68114   0.68584   0.69640   0.70058
 Alpha virt. eigenvalues --    0.70957   0.71650   0.72731   0.73127   0.73579
 Alpha virt. eigenvalues --    0.74617   0.74776   0.76351   0.76729   0.77480
 Alpha virt. eigenvalues --    0.78307   0.79641   0.79981   0.80690   0.81273
 Alpha virt. eigenvalues --    0.82093   0.82656   0.83426   0.84610   0.85248
 Alpha virt. eigenvalues --    0.86014   0.87703   0.88215   0.88902   0.89150
 Alpha virt. eigenvalues --    0.89768   0.89941   0.91178   0.91351   0.92028
 Alpha virt. eigenvalues --    0.92537   0.93034   0.93730   0.93848   0.94080
 Alpha virt. eigenvalues --    0.94688   0.94743   0.95272   0.96623   0.96977
 Alpha virt. eigenvalues --    0.97758   0.97959   0.98488   0.98501   0.99117
 Alpha virt. eigenvalues --    1.00128   1.00349   1.00887   1.02119   1.02869
 Alpha virt. eigenvalues --    1.03395   1.04502   1.05267   1.05972   1.06313
 Alpha virt. eigenvalues --    1.07100   1.07300   1.07624   1.08679   1.09105
 Alpha virt. eigenvalues --    1.09363   1.09752   1.10668   1.10878   1.11377
 Alpha virt. eigenvalues --    1.12018   1.12532   1.13691   1.14376   1.14879
 Alpha virt. eigenvalues --    1.15285   1.15717   1.16378   1.16457   1.16895
 Alpha virt. eigenvalues --    1.17255   1.17938   1.18817   1.18875   1.19674
 Alpha virt. eigenvalues --    1.19911   1.21036   1.21669   1.21978   1.22785
 Alpha virt. eigenvalues --    1.23630   1.23993   1.24277   1.24845   1.25306
 Alpha virt. eigenvalues --    1.25960   1.26617   1.27066   1.27925   1.28260
 Alpha virt. eigenvalues --    1.28323   1.28776   1.29552   1.30008   1.31361
 Alpha virt. eigenvalues --    1.31786   1.32104   1.33611   1.34043   1.34882
 Alpha virt. eigenvalues --    1.35284   1.35529   1.36258   1.37241   1.37605
 Alpha virt. eigenvalues --    1.38947   1.39580   1.39903   1.40639   1.41365
 Alpha virt. eigenvalues --    1.42150   1.42957   1.43579   1.44032   1.44458
 Alpha virt. eigenvalues --    1.45078   1.45738   1.46932   1.47169   1.47572
 Alpha virt. eigenvalues --    1.47791   1.49679   1.50366   1.51497   1.52576
 Alpha virt. eigenvalues --    1.53175   1.54337   1.55056   1.56199   1.56797
 Alpha virt. eigenvalues --    1.58180   1.58590   1.59515   1.60925   1.61298
 Alpha virt. eigenvalues --    1.61834   1.62940   1.63751   1.64706   1.65420
 Alpha virt. eigenvalues --    1.66205   1.67483   1.68108   1.68676   1.69664
 Alpha virt. eigenvalues --    1.70455   1.70939   1.71785   1.72183   1.72892
 Alpha virt. eigenvalues --    1.74404   1.75208   1.75804   1.76514   1.77827
 Alpha virt. eigenvalues --    1.78792   1.80356   1.80683   1.81515   1.83143
 Alpha virt. eigenvalues --    1.83789   1.85419   1.86296   1.87259   1.87885
 Alpha virt. eigenvalues --    1.89082   1.91006   1.91999   1.93651   1.94116
 Alpha virt. eigenvalues --    1.95178   1.95465   1.96126   1.96818   1.97822
 Alpha virt. eigenvalues --    1.98962   1.99599   2.02566   2.03054   2.04855
 Alpha virt. eigenvalues --    2.06381   2.07017   2.08774   2.09755   2.10060
 Alpha virt. eigenvalues --    2.12015   2.12670   2.14736   2.16310   2.17201
 Alpha virt. eigenvalues --    2.19032   2.20562   2.22201   2.22969   2.24998
 Alpha virt. eigenvalues --    2.27073   2.28208   2.28923   2.29732   2.31631
 Alpha virt. eigenvalues --    2.33436   2.34436   2.34727   2.36164   2.37058
 Alpha virt. eigenvalues --    2.40645   2.41041   2.44490   2.48734   2.50388
 Alpha virt. eigenvalues --    2.52108   2.54038   2.54928   2.56398   2.57188
 Alpha virt. eigenvalues --    2.60150   2.63705   2.65077   2.66588   2.67973
 Alpha virt. eigenvalues --    2.68757   2.70114   2.70995   2.71655   2.72860
 Alpha virt. eigenvalues --    2.73459   2.75813   2.77320   2.77987   2.79507
 Alpha virt. eigenvalues --    2.81687   2.82936   2.83096   2.84295   2.85054
 Alpha virt. eigenvalues --    2.86422   2.88943   2.90116   2.91721   2.93028
 Alpha virt. eigenvalues --    2.93413   2.94313   2.95405   2.96053   2.96926
 Alpha virt. eigenvalues --    2.98211   2.98748   2.99283   3.00245   3.00460
 Alpha virt. eigenvalues --    3.01856   3.02480   3.02824   3.03812   3.04065
 Alpha virt. eigenvalues --    3.04520   3.05937   3.06622   3.07434   3.08629
 Alpha virt. eigenvalues --    3.09555   3.10007   3.10956   3.12334   3.15118
 Alpha virt. eigenvalues --    3.15821   3.18006   3.20819   3.22859   3.23537
 Alpha virt. eigenvalues --    3.26728   3.29124   3.30257   3.77716   3.83048
 Alpha virt. eigenvalues --    3.96382   3.97460   4.07078   4.08344   4.10499
 Alpha virt. eigenvalues --    4.11962   4.13667   4.14899   4.15932   4.16985
 Alpha virt. eigenvalues --    4.18048   4.18449   4.20717   4.21318   4.22440
 Alpha virt. eigenvalues --    4.23676   4.24194   4.25166   4.25446   4.26625
 Alpha virt. eigenvalues --    4.27098   4.28062   4.28720   4.29681   4.29986
 Alpha virt. eigenvalues --    4.30516   4.31005   4.31534   4.32119   4.32755
 Alpha virt. eigenvalues --    4.33163   4.33878   4.34262   4.34498   4.35432
 Alpha virt. eigenvalues --    4.35780   4.36887   4.37456   4.38187   4.39560
 Alpha virt. eigenvalues --    4.40516   4.41191   4.41940   4.42555   4.44040
 Alpha virt. eigenvalues --    4.44494   4.45719   4.46017   4.48375   4.49217
 Alpha virt. eigenvalues --    4.51239   4.52076   4.52915   4.53977   4.55159
 Alpha virt. eigenvalues --    4.56409   4.57013   4.58214   4.59002   4.60068
 Alpha virt. eigenvalues --    4.61419   4.62347   4.62912   4.63587   4.64366
 Alpha virt. eigenvalues --    4.64754   4.64873   4.66000   4.66200   4.67196
 Alpha virt. eigenvalues --    4.67581   4.68659   4.69896   4.70085   4.71325
 Alpha virt. eigenvalues --    4.71863   4.72092   4.73416   4.73686   4.74196
 Alpha virt. eigenvalues --    4.74543   4.76016   4.76308   4.77010   4.77164
 Alpha virt. eigenvalues --    4.78016   4.79200   4.79842   4.80013   4.81510
 Alpha virt. eigenvalues --    4.81908   4.83414   4.84400   4.84509   4.86085
 Alpha virt. eigenvalues --    4.86449   4.87651   4.88470   4.90377   4.91332
 Alpha virt. eigenvalues --    4.94273   4.94739   4.95618   4.96759   4.97591
 Alpha virt. eigenvalues --    4.97971   4.99831   5.01621   5.02230   5.04539
 Alpha virt. eigenvalues --    5.05762   5.08012   5.10578   5.13528   5.15248
 Alpha virt. eigenvalues --    5.23097   5.27493   5.28245   5.29497   5.38753
 Alpha virt. eigenvalues --    5.46166   5.93378   6.01292   6.27136   6.62239
 Alpha virt. eigenvalues --    6.73124   6.77553   6.80068   6.81871   6.85563
 Alpha virt. eigenvalues --    6.87967   6.91623   6.92906   6.94151   7.05765
 Alpha virt. eigenvalues --    7.10863  11.89445  11.95879  12.06288  12.11704
 Alpha virt. eigenvalues --   12.28159  12.38375  12.64484  12.71873  12.87169
 Alpha virt. eigenvalues --   12.95785  13.14146  13.17176  13.25025  13.28952
 Alpha virt. eigenvalues --   13.30584  13.33743  13.35764  13.44038  13.48113
 Alpha virt. eigenvalues --   13.60125  13.62785  13.73592  13.87687
          Condensed to atoms (all electrons):
              1          2          3          4          5          6
     1  O    8.217124   0.252130  -0.067607  -0.021293   0.018886  -0.004513
     2  C    0.252130   6.521808  -0.117573   0.070490  -0.068409  -1.113689
     3  C   -0.067607  -0.117573   6.559505   0.105166   0.035535  -0.298728
     4  O   -0.021293   0.070490   0.105166   8.248889   0.235324  -0.040668
     5  H    0.018886  -0.068409   0.035535   0.235324   0.423014  -0.006796
     6  C   -0.004513  -1.113689  -0.298728  -0.040668  -0.006796   9.325344
     7  O    0.000077   0.012398  -0.090452   0.005915  -0.000209   0.234135
     8  H    0.000004  -0.004005   0.016201  -0.000385   0.000012   0.044325
     9  C   -0.009241  -0.112244  -0.587906   0.010493  -0.001435   0.600356
    10  O   -0.017285   0.021133   0.020500  -0.000207   0.000007  -0.005681
    11  H    0.001920  -0.014256  -0.002882   0.000003   0.000000   0.001647
    12  C   -0.100335  -0.030623  -0.373003   0.002980   0.006676   0.403019
    13  O    0.001187  -0.063760  -0.085375  -0.001849  -0.000090   0.034955
    14  C    0.024691   0.345917   0.491079  -0.016195   0.012833  -2.774273
    15  O    0.000132  -0.011647   0.000200   0.000602   0.000015  -0.015595
    16  C    0.002502   0.006439   0.142025  -0.005426   0.000763  -0.365242
    17  C   -0.000006  -0.015073   0.015471   0.000529  -0.000006   0.041483
    18  O    0.000018   0.003819  -0.001038  -0.000003   0.000000  -0.008059
    19  H   -0.000027  -0.003664   0.004771   0.000003   0.000000   0.009352
    20  C    0.000051   0.004362  -0.004864  -0.000056   0.000001   0.021320
    21  O    0.000000   0.000034  -0.000049   0.000000   0.000000  -0.000172
    22  H    0.000000  -0.000001   0.000001   0.000000   0.000000  -0.000038
    23  C   -0.000009   0.011733  -0.012756   0.000102  -0.000008  -0.160556
    24  O    0.000001   0.000961  -0.012775  -0.000025  -0.000002   0.002547
    25  H    0.000000   0.000045   0.001897   0.000001   0.000000  -0.000875
    26  C   -0.000001  -0.022542  -0.015792  -0.000400   0.000015   0.018061
    27  O    0.000000  -0.000020  -0.000007   0.000000   0.000000   0.003994
    28  C    0.000002  -0.000494   0.001136   0.000004   0.000000  -0.010665
    29  O    0.000000   0.000001   0.000014   0.000000   0.000000  -0.000335
    30  H    0.000000   0.000000   0.000000   0.000000   0.000000   0.000007
    31  H    0.000000   0.000004   0.000004   0.000000   0.000000  -0.000124
    32  H    0.000000   0.000075   0.000082   0.000000   0.000000   0.000564
    33  H    0.000000  -0.000070   0.000619   0.000000   0.000000   0.006888
    34  H   -0.000001  -0.002668   0.002235   0.000005   0.000000   0.012649
    35  H    0.000000   0.000047  -0.000077   0.000000   0.000000  -0.007009
    36  H    0.000000  -0.000002  -0.000041   0.000000   0.000000   0.000636
    37  H    0.000000   0.000029  -0.000045  -0.000001   0.000000  -0.005695
    38  H    0.265658   0.033577  -0.027631   0.001150  -0.002222   0.003997
    39  H   -0.000620  -0.012411   0.003910   0.000012   0.000001  -0.002674
    40  H    0.002145  -0.006152  -0.013770  -0.000011   0.000000   0.019454
    41  H    0.006523   0.021104  -0.015598   0.000758   0.000005  -0.036429
    42  H   -0.016421   0.330352  -0.024573   0.002535  -0.000086  -0.020042
    43  H    0.000169   0.042721   0.248762  -0.021122  -0.001291  -0.182020
    44  H   -0.000053   0.056648  -0.191989   0.004959  -0.000172   0.421322
    45  H    0.000139  -0.012701  -0.063454   0.000034   0.000001   0.055849
              7          8          9         10         11         12
     1  O    0.000077   0.000004  -0.009241  -0.017285   0.001920  -0.100335
     2  C    0.012398  -0.004005  -0.112244   0.021133  -0.014256  -0.030623
     3  C   -0.090452   0.016201  -0.587906   0.020500  -0.002882  -0.373003
     4  O    0.005915  -0.000385   0.010493  -0.000207   0.000003   0.002980
     5  H   -0.000209   0.000012  -0.001435   0.000007   0.000000   0.006676
     6  C    0.234135   0.044325   0.600356  -0.005681   0.001647   0.403019
     7  O    8.220782   0.248606  -0.000054  -0.000007   0.000000   0.003813
     8  H    0.248606   0.346944   0.000145   0.000000   0.000000  -0.000761
     9  C   -0.000054   0.000145   8.449564   0.058553   0.014560  -2.050241
    10  O   -0.000007   0.000000   0.058553   8.251839   0.228191   0.025604
    11  H    0.000000   0.000000   0.014560   0.228191   0.445787   0.008197
    12  C    0.003813  -0.000761  -2.050241   0.025604   0.008197   8.785207
    13  O    0.001942  -0.000691   0.012143  -0.001472  -0.000319   0.023462
    14  C   -0.039589  -0.086845  -1.000487   0.010128  -0.004457  -0.674235
    15  O    0.011092   0.009656   0.000134   0.000033   0.000002  -0.028603
    16  C    0.029978   0.027909  -0.175831  -0.000736  -0.000192  -0.158496
    17  C   -0.000513   0.000374   0.027960   0.000221  -0.000029  -0.101786
    18  O   -0.000020  -0.000050  -0.007619  -0.000094  -0.000002   0.010066
    19  H   -0.000102   0.000000   0.005279   0.000006  -0.000001  -0.013528
    20  C    0.002809   0.000749  -0.002221   0.000010   0.000002  -0.008663
    21  O   -0.000003   0.000000   0.000144   0.000000   0.000000  -0.000017
    22  H    0.000000   0.000000  -0.000002   0.000000   0.000000   0.000015
    23  C    0.029042   0.006410  -0.000470  -0.000002   0.000000   0.010351
    24  O   -0.041915  -0.002973  -0.000141   0.000000   0.000000   0.000542
    25  H    0.002042  -0.002427  -0.000011   0.000000   0.000000  -0.000326
    26  C   -0.030917  -0.020142   0.001002  -0.000029  -0.000001   0.021425
    27  O   -0.000032  -0.000045   0.000021   0.000000   0.000000   0.000303
    28  C    0.000099  -0.000060  -0.002102  -0.000004   0.000000   0.000831
    29  O   -0.000004   0.000000  -0.000005   0.000000   0.000000   0.000072
    30  H    0.000000   0.000000   0.000000   0.000000   0.000000  -0.000001
    31  H    0.000001   0.000000  -0.000003   0.000000   0.000000   0.000025
    32  H    0.000005   0.000000  -0.000095   0.000000   0.000000   0.000308
    33  H   -0.000017  -0.000001   0.000058   0.000000   0.000000  -0.001205
    34  H   -0.002482  -0.000089   0.000312   0.000001   0.000000   0.007021
    35  H   -0.000084  -0.000006   0.000080   0.000000   0.000000   0.001378
    36  H   -0.000598   0.000305  -0.000002   0.000000   0.000000   0.000011
    37  H    0.001348  -0.000051   0.000018   0.000000   0.000000   0.000642
    38  H   -0.000009   0.000000   0.008147  -0.000754  -0.000037  -0.022010
    39  H   -0.000008   0.000000   0.413293  -0.020184  -0.016210  -0.051635
    40  H    0.000010   0.000000   0.680624  -0.062347   0.001253  -0.309964
    41  H    0.000277   0.000002   0.030865   0.000460  -0.000237   0.079542
    42  H    0.000610  -0.000001  -0.055851  -0.001195  -0.000004  -0.034345
    43  H    0.007628  -0.000160   0.022101  -0.000296   0.000001   0.037680
    44  H   -0.027308  -0.006586   0.018450   0.000010   0.000000   0.057050
    45  H   -0.002454  -0.000169   0.023402   0.000041   0.000000   0.075181
             13         14         15         16         17         18
     1  O    0.001187   0.024691   0.000132   0.002502  -0.000006   0.000018
     2  C   -0.063760   0.345917  -0.011647   0.006439  -0.015073   0.003819
     3  C   -0.085375   0.491079   0.000200   0.142025   0.015471  -0.001038
     4  O   -0.001849  -0.016195   0.000602  -0.005426   0.000529  -0.000003
     5  H   -0.000090   0.012833   0.000015   0.000763  -0.000006   0.000000
     6  C    0.034955  -2.774273  -0.015595  -0.365242   0.041483  -0.008059
     7  O    0.001942  -0.039589   0.011092   0.029978  -0.000513  -0.000020
     8  H   -0.000691  -0.086845   0.009656   0.027909   0.000374  -0.000050
     9  C    0.012143  -1.000487   0.000134  -0.175831   0.027960  -0.007619
    10  O   -0.001472   0.010128   0.000033  -0.000736   0.000221  -0.000094
    11  H   -0.000319  -0.004457   0.000002  -0.000192  -0.000029  -0.000002
    12  C    0.023462  -0.674235  -0.028603  -0.158496  -0.101786   0.010066
    13  O    8.164119   0.235030  -0.014927   0.038236  -0.023385  -0.012067
    14  C    0.235030   9.718402   0.194294  -0.719756   0.011026  -0.005622
    15  O   -0.014927   0.194294   8.091060   0.185747  -0.013195  -0.017590
    16  C    0.038236  -0.719756   0.185747  10.108806  -1.526530   0.000388
    17  C   -0.023385   0.011026  -0.013195  -1.526530   7.398188   0.164782
    18  O   -0.012067  -0.005622  -0.017590   0.000388   0.164782   8.210511
    19  H    0.019667   0.002818   0.017453  -0.080489   0.065582   0.231010
    20  C   -0.010751  -0.204987   0.008865  -0.855004   0.301210  -0.043428
    21  O    0.000054   0.002527  -0.000228   0.038122  -0.126665   0.011116
    22  H    0.000002  -0.000356  -0.000020  -0.009778   0.025882  -0.000492
    23  C    0.007765   0.141937   0.008871  -0.061419  -0.270328   0.010762
    24  O    0.000235   0.070200  -0.011561   0.017195   0.000971  -0.000039
    25  H   -0.000014  -0.008054   0.000961  -0.012629  -0.001284   0.000000
    26  C   -0.018906  -0.426508  -0.088763  -1.755101   0.005674   0.051095
    27  O    0.000115   0.013929   0.001940   0.062818  -0.022680  -0.001275
    28  C    0.002452  -0.035609   0.003584   0.642540  -0.218653  -0.011481
    29  O    0.000034  -0.000997  -0.000138  -0.015805  -0.035256   0.000549
    30  H    0.000000  -0.000045  -0.000003  -0.001478   0.009681  -0.000015
    31  H    0.000019  -0.000197   0.000565   0.035590  -0.035182   0.000685
    32  H    0.000154  -0.012733   0.000778   0.096298  -0.215682   0.008036
    33  H   -0.000616   0.008061  -0.002046  -0.070794   0.277240  -0.022108
    34  H   -0.001419   0.003744  -0.024360   0.117551   0.027054  -0.003161
    35  H   -0.000006   0.060302   0.000851  -0.012014  -0.020849  -0.000013
    36  H    0.000014   0.006481   0.000491   0.002208   0.005107   0.000003
    37  H    0.000054   0.008318   0.001172   0.047448  -0.000354   0.000030
    38  H   -0.000666  -0.002612  -0.000006   0.000104  -0.000029   0.000000
    39  H    0.002229   0.002769  -0.000034   0.003068   0.000313  -0.000191
    40  H   -0.000707  -0.004179  -0.000058  -0.003515   0.001405  -0.000154
    41  H   -0.024616   0.176985   0.000540   0.010174   0.005117  -0.000373
    42  H    0.000224   0.089364   0.000099  -0.003109   0.001161   0.000029
    43  H    0.003466   0.077025   0.000050  -0.010019   0.002065   0.000071
    44  H    0.009013  -0.049438  -0.011395  -0.030574   0.003644   0.000135
    45  H   -0.028895   0.232172  -0.036496  -0.018242   0.009432  -0.002722
             19         20         21         22         23         24
     1  O   -0.000027   0.000051   0.000000   0.000000  -0.000009   0.000001
     2  C   -0.003664   0.004362   0.000034  -0.000001   0.011733   0.000961
     3  C    0.004771  -0.004864  -0.000049   0.000001  -0.012756  -0.012775
     4  O    0.000003  -0.000056   0.000000   0.000000   0.000102  -0.000025
     5  H    0.000000   0.000001   0.000000   0.000000  -0.000008  -0.000002
     6  C    0.009352   0.021320  -0.000172  -0.000038  -0.160556   0.002547
     7  O   -0.000102   0.002809  -0.000003   0.000000   0.029042  -0.041915
     8  H    0.000000   0.000749   0.000000   0.000000   0.006410  -0.002973
     9  C    0.005279  -0.002221   0.000144  -0.000002  -0.000470  -0.000141
    10  O    0.000006   0.000010   0.000000   0.000000  -0.000002   0.000000
    11  H   -0.000001   0.000002   0.000000   0.000000   0.000000   0.000000
    12  C   -0.013528  -0.008663  -0.000017   0.000015   0.010351   0.000542
    13  O    0.019667  -0.010751   0.000054   0.000002   0.007765   0.000235
    14  C    0.002818  -0.204987   0.002527  -0.000356   0.141937   0.070200
    15  O    0.017453   0.008865  -0.000228  -0.000020   0.008871  -0.011561
    16  C   -0.080489  -0.855004   0.038122  -0.009778  -0.061419   0.017195
    17  C    0.065582   0.301210  -0.126665   0.025882  -0.270328   0.000971
    18  O    0.231010  -0.043428   0.011116  -0.000492   0.010762  -0.000039
    19  H    0.375261  -0.002904  -0.000464   0.000013  -0.004516  -0.000011
    20  C   -0.002904   6.566758   0.162169  -0.024298   0.082119  -0.006549
    21  O   -0.000464   0.162169   8.225664   0.238647   0.000086   0.000009
    22  H    0.000013  -0.024298   0.238647   0.430445  -0.000192   0.000000
    23  C   -0.004516   0.082119   0.000086  -0.000192   6.052609  -0.022151
    24  O   -0.000011  -0.006549   0.000009   0.000000  -0.022151   8.341035
    25  H    0.000000   0.000885   0.000000   0.000000  -0.007507   0.248685
    26  C   -0.006155   0.459925  -0.007196   0.004691  -0.430624   0.050984
    27  O    0.000097  -0.092329   0.002504  -0.000541  -0.100788   0.002074
    28  C    0.003117  -0.541848   0.037578  -0.011096  -0.093903   0.006542
    29  O    0.000001  -0.025182  -0.005868   0.018232   0.007876  -0.000007
    30  H    0.000000  -0.032056  -0.000271  -0.002376  -0.000541  -0.000001
    31  H    0.000002  -0.112553   0.002606   0.000319   0.001160   0.000043
    32  H   -0.000179   0.330532  -0.024926  -0.004266   0.008253   0.000014
    33  H   -0.003784  -0.002791   0.000506  -0.000223   0.014234  -0.000019
    34  H    0.000259   0.041715  -0.000208   0.000003  -0.000022   0.000213
    35  H    0.000025  -0.027109   0.000125   0.000002   0.067389   0.002773
    36  H    0.000000  -0.002213  -0.000004   0.000000   0.371328  -0.022091
    37  H    0.000000  -0.002102   0.000000   0.000000   0.572936  -0.056308
    38  H    0.000000   0.000000   0.000000   0.000000   0.000001   0.000000
    39  H    0.000456  -0.000499   0.000000   0.000000  -0.000005   0.000000
    40  H    0.000025   0.000090   0.000000   0.000000  -0.000012   0.000000
    41  H   -0.000022   0.000447  -0.000001   0.000000   0.000041   0.000002
    42  H   -0.000016   0.000007   0.000000   0.000000   0.000028   0.000008
    43  H   -0.000004  -0.000045   0.000000   0.000000   0.000333   0.000066
    44  H   -0.000028   0.000237   0.000000   0.000000   0.003576   0.001123
    45  H   -0.000449   0.009293   0.000010   0.000000   0.002505  -0.000076
             25         26         27         28         29         30
     1  O    0.000000  -0.000001   0.000000   0.000002   0.000000   0.000000
     2  C    0.000045  -0.022542  -0.000020  -0.000494   0.000001   0.000000
     3  C    0.001897  -0.015792  -0.000007   0.001136   0.000014   0.000000
     4  O    0.000001  -0.000400   0.000000   0.000004   0.000000   0.000000
     5  H    0.000000   0.000015   0.000000   0.000000   0.000000   0.000000
     6  C   -0.000875   0.018061   0.003994  -0.010665  -0.000335   0.000007
     7  O    0.002042  -0.030917  -0.000032   0.000099  -0.000004   0.000000
     8  H   -0.002427  -0.020142  -0.000045  -0.000060   0.000000   0.000000
     9  C   -0.000011   0.001002   0.000021  -0.002102  -0.000005   0.000000
    10  O    0.000000  -0.000029   0.000000  -0.000004   0.000000   0.000000
    11  H    0.000000  -0.000001   0.000000   0.000000   0.000000   0.000000
    12  C   -0.000326   0.021425   0.000303   0.000831   0.000072  -0.000001
    13  O   -0.000014  -0.018906   0.000115   0.002452   0.000034   0.000000
    14  C   -0.008054  -0.426508   0.013929  -0.035609  -0.000997  -0.000045
    15  O    0.000961  -0.088763   0.001940   0.003584  -0.000138  -0.000003
    16  C   -0.012629  -1.755101   0.062818   0.642540  -0.015805  -0.001478
    17  C   -0.001284   0.005674  -0.022680  -0.218653  -0.035256   0.009681
    18  O    0.000000   0.051095  -0.001275  -0.011481   0.000549  -0.000015
    19  H    0.000000  -0.006155   0.000097   0.003117   0.000001   0.000000
    20  C    0.000885   0.459925  -0.092329  -0.541848  -0.025182  -0.032056
    21  O    0.000000  -0.007196   0.002504   0.037578  -0.005868  -0.000271
    22  H    0.000000   0.004691  -0.000541  -0.011096   0.018232  -0.002376
    23  C   -0.007507  -0.430624  -0.100788  -0.093903   0.007876  -0.000541
    24  O    0.248685   0.050984   0.002074   0.006542  -0.000007  -0.000001
    25  H    0.408555   0.022434  -0.000687  -0.001017  -0.000002   0.000000
    26  C    0.022434   8.705092   0.074521  -0.551150  -0.004630   0.000751
    27  O   -0.000687   0.074521   8.162162   0.215944  -0.017040   0.003319
    28  C   -0.001017  -0.551150   0.215944   5.612470   0.246692   0.011264
    29  O   -0.000002  -0.004630  -0.017040   0.246692   8.144142   0.263558
    30  H    0.000000   0.000751   0.003319   0.011264   0.263558   0.417874
    31  H    0.000000   0.002632  -0.044197   0.442221  -0.020911  -0.009268
    32  H    0.000000   0.017611   0.001293   0.046266   0.000231   0.000087
    33  H    0.000000   0.066921   0.002257  -0.025984   0.000242   0.000015
    34  H   -0.000009   0.077949   0.007111  -0.006604  -0.000404   0.000002
    35  H   -0.000261   0.157952  -0.018685   0.043787  -0.000566   0.000008
    36  H   -0.009780  -0.012235  -0.006636   0.000097  -0.000081   0.000000
    37  H   -0.000898  -0.267667   0.003309   0.004969  -0.000084   0.000000
    38  H    0.000000  -0.000001   0.000000   0.000000   0.000000   0.000000
    39  H    0.000000   0.000097   0.000000   0.000035   0.000000   0.000000
    40  H    0.000000  -0.000072   0.000000  -0.000011   0.000000   0.000000
    41  H    0.000000  -0.000562   0.000000  -0.000009   0.000000   0.000000
    42  H    0.000000  -0.000278   0.000000  -0.000004   0.000000   0.000000
    43  H    0.000000  -0.000925   0.000000  -0.000020   0.000000   0.000000
    44  H   -0.000007  -0.007901   0.000003  -0.000100   0.000000   0.000000
    45  H    0.000006   0.018158   0.000397  -0.000774  -0.000001   0.000000
             31         32         33         34         35         36
     1  O    0.000000   0.000000   0.000000  -0.000001   0.000000   0.000000
     2  C    0.000004   0.000075  -0.000070  -0.002668   0.000047  -0.000002
     3  C    0.000004   0.000082   0.000619   0.002235  -0.000077  -0.000041
     4  O    0.000000   0.000000   0.000000   0.000005   0.000000   0.000000
     5  H    0.000000   0.000000   0.000000   0.000000   0.000000   0.000000
     6  C   -0.000124   0.000564   0.006888   0.012649  -0.007009   0.000636
     7  O    0.000001   0.000005  -0.000017  -0.002482  -0.000084  -0.000598
     8  H    0.000000   0.000000  -0.000001  -0.000089  -0.000006   0.000305
     9  C   -0.000003  -0.000095   0.000058   0.000312   0.000080  -0.000002
    10  O    0.000000   0.000000   0.000000   0.000001   0.000000   0.000000
    11  H    0.000000   0.000000   0.000000   0.000000   0.000000   0.000000
    12  C    0.000025   0.000308  -0.001205   0.007021   0.001378   0.000011
    13  O    0.000019   0.000154  -0.000616  -0.001419  -0.000006   0.000014
    14  C   -0.000197  -0.012733   0.008061   0.003744   0.060302   0.006481
    15  O    0.000565   0.000778  -0.002046  -0.024360   0.000851   0.000491
    16  C    0.035590   0.096298  -0.070794   0.117551  -0.012014   0.002208
    17  C   -0.035182  -0.215682   0.277240   0.027054  -0.020849   0.005107
    18  O    0.000685   0.008036  -0.022108  -0.003161  -0.000013   0.000003
    19  H    0.000002  -0.000179  -0.003784   0.000259   0.000025   0.000000
    20  C   -0.112553   0.330532  -0.002791   0.041715  -0.027109  -0.002213
    21  O    0.002606  -0.024926   0.000506  -0.000208   0.000125  -0.000004
    22  H    0.000319  -0.004266  -0.000223   0.000003   0.000002   0.000000
    23  C    0.001160   0.008253   0.014234  -0.000022   0.067389   0.371328
    24  O    0.000043   0.000014  -0.000019   0.000213   0.002773  -0.022091
    25  H    0.000000   0.000000   0.000000  -0.000009  -0.000261  -0.009780
    26  C    0.002632   0.017611   0.066921   0.077949   0.157952  -0.012235
    27  O   -0.044197   0.001293   0.002257   0.007111  -0.018685  -0.006636
    28  C    0.442221   0.046266  -0.025984  -0.006604   0.043787   0.000097
    29  O   -0.020911   0.000231   0.000242  -0.000404  -0.000566  -0.000081
    30  H   -0.009268   0.000087   0.000015   0.000002   0.000008   0.000000
    31  H    0.596411   0.005272   0.002086  -0.000051   0.003117  -0.000027
    32  H    0.005272   0.603526   0.006314   0.001579  -0.000065   0.000001
    33  H    0.002086   0.006314   0.615458   0.005463   0.001870   0.000001
    34  H   -0.000051   0.001579   0.005463   0.602829   0.005988  -0.000028
    35  H    0.003117  -0.000065   0.001870   0.005988   0.618035  -0.004492
    36  H   -0.000027   0.000001   0.000001  -0.000028  -0.004492   0.561942
    37  H   -0.000008  -0.000018  -0.000005   0.003047   0.005989  -0.042027
    38  H    0.000000   0.000000   0.000000   0.000000   0.000000   0.000000
    39  H    0.000000   0.000000   0.000000   0.000000   0.000000   0.000000
    40  H    0.000000   0.000000   0.000000   0.000000   0.000000   0.000000
    41  H    0.000000   0.000000   0.000000  -0.000017   0.000000   0.000000
    42  H    0.000000   0.000000   0.000000   0.000000   0.000000   0.000000
    43  H    0.000000   0.000000   0.000000   0.000000   0.000000   0.000000
    44  H    0.000000   0.000000  -0.000003  -0.000004   0.000001   0.000001
    45  H    0.000000  -0.000006  -0.000039   0.007730  -0.000005  -0.000001
             37         38         39         40         41         42
     1  O    0.000000   0.265658  -0.000620   0.002145   0.006523  -0.016421
     2  C    0.000029   0.033577  -0.012411  -0.006152   0.021104   0.330352
     3  C   -0.000045  -0.027631   0.003910  -0.013770  -0.015598  -0.024573
     4  O   -0.000001   0.001150   0.000012  -0.000011   0.000758   0.002535
     5  H    0.000000  -0.002222   0.000001   0.000000   0.000005  -0.000086
     6  C   -0.005695   0.003997  -0.002674   0.019454  -0.036429  -0.020042
     7  O    0.001348  -0.000009  -0.000008   0.000010   0.000277   0.000610
     8  H   -0.000051   0.000000   0.000000   0.000000   0.000002  -0.000001
     9  C    0.000018   0.008147   0.413293   0.680624   0.030865  -0.055851
    10  O    0.000000  -0.000754  -0.020184  -0.062347   0.000460  -0.001195
    11  H    0.000000  -0.000037  -0.016210   0.001253  -0.000237  -0.000004
    12  C    0.000642  -0.022010  -0.051635  -0.309964   0.079542  -0.034345
    13  O    0.000054  -0.000666   0.002229  -0.000707  -0.024616   0.000224
    14  C    0.008318  -0.002612   0.002769  -0.004179   0.176985   0.089364
    15  O    0.001172  -0.000006  -0.000034  -0.000058   0.000540   0.000099
    16  C    0.047448   0.000104   0.003068  -0.003515   0.010174  -0.003109
    17  C   -0.000354  -0.000029   0.000313   0.001405   0.005117   0.001161
    18  O    0.000030   0.000000  -0.000191  -0.000154  -0.000373   0.000029
    19  H    0.000000   0.000000   0.000456   0.000025  -0.000022  -0.000016
    20  C   -0.002102   0.000000  -0.000499   0.000090   0.000447   0.000007
    21  O    0.000000   0.000000   0.000000   0.000000  -0.000001   0.000000
    22  H    0.000000   0.000000   0.000000   0.000000   0.000000   0.000000
    23  C    0.572936   0.000001  -0.000005  -0.000012   0.000041   0.000028
    24  O   -0.056308   0.000000   0.000000   0.000000   0.000002   0.000008
    25  H   -0.000898   0.000000   0.000000   0.000000   0.000000   0.000000
    26  C   -0.267667  -0.000001   0.000097  -0.000072  -0.000562  -0.000278
    27  O    0.003309   0.000000   0.000000   0.000000   0.000000   0.000000
    28  C    0.004969   0.000000   0.000035  -0.000011  -0.000009  -0.000004
    29  O   -0.000084   0.000000   0.000000   0.000000   0.000000   0.000000
    30  H    0.000000   0.000000   0.000000   0.000000   0.000000   0.000000
    31  H   -0.000008   0.000000   0.000000   0.000000   0.000000   0.000000
    32  H   -0.000018   0.000000   0.000000   0.000000   0.000000   0.000000
    33  H   -0.000005   0.000000   0.000000   0.000000   0.000000   0.000000
    34  H    0.003047   0.000000   0.000000   0.000000  -0.000017   0.000000
    35  H    0.005989   0.000000   0.000000   0.000000   0.000000   0.000000
    36  H   -0.042027   0.000000   0.000000   0.000000   0.000000   0.000000
    37  H    0.564464   0.000000   0.000000   0.000000   0.000000   0.000000
    38  H    0.000000   0.411100   0.000014  -0.000231  -0.000257  -0.012652
    39  H    0.000000   0.000014   0.590134  -0.045690  -0.005140   0.000002
    40  H    0.000000  -0.000231  -0.045690   0.590755   0.006282   0.002359
    41  H    0.000000  -0.000257  -0.005140   0.006282   0.617824   0.005655
    42  H    0.000000  -0.012652   0.000002   0.002359   0.005655   0.604066
    43  H    0.000000  -0.000185   0.000010  -0.000008   0.003727   0.006165
    44  H   -0.000002   0.000014   0.000001  -0.000010  -0.000083   0.002117
    45  H    0.000015   0.000002  -0.000013  -0.000019   0.003053  -0.000041
             43         44         45
     1  O    0.000169  -0.000053   0.000139
     2  C    0.042721   0.056648  -0.012701
     3  C    0.248762  -0.191989  -0.063454
     4  O   -0.021122   0.004959   0.000034
     5  H   -0.001291  -0.000172   0.000001
     6  C   -0.182020   0.421322   0.055849
     7  O    0.007628  -0.027308  -0.002454
     8  H   -0.000160  -0.006586  -0.000169
     9  C    0.022101   0.018450   0.023402
    10  O   -0.000296   0.000010   0.000041
    11  H    0.000001   0.000000   0.000000
    12  C    0.037680   0.057050   0.075181
    13  O    0.003466   0.009013  -0.028895
    14  C    0.077025  -0.049438   0.232172
    15  O    0.000050  -0.011395  -0.036496
    16  C   -0.010019  -0.030574  -0.018242
    17  C    0.002065   0.003644   0.009432
    18  O    0.000071   0.000135  -0.002722
    19  H   -0.000004  -0.000028  -0.000449
    20  C   -0.000045   0.000237   0.009293
    21  O    0.000000   0.000000   0.000010
    22  H    0.000000   0.000000   0.000000
    23  C    0.000333   0.003576   0.002505
    24  O    0.000066   0.001123  -0.000076
    25  H    0.000000  -0.000007   0.000006
    26  C   -0.000925  -0.007901   0.018158
[...]
 002624,0.00001084,-0.00776982,0.00050498,0.00039542,0.00246884,0.00112
 259,-0.00094895,-0.00010807,0.00029932,0.00018344,0.00006284,-0.000033
 08,0.00008254,-0.00000233,-0.00000813,0.00000881,-0.00001015,0.0000308
 1,0.00002118,0.00001746,-0.00001884,-0.00005858,0.00000494,-0.00000386
 ,0.00008051,-0.00000869,-0.00001022,0.00000168,0.00000686,0.00000035,-
 0.00000191,-0.00000229,-0.00000089,-0.00000066,-0.00000995,0.00000519,
 -0.00000470,0.00003042,0.00001323,0.00003764,-0.00001041,-0.00000306,0
 .00000098,-0.00001163,-0.00000126,0.00000415,0.00001141,-0.00000359,-0
 .00000327,-0.00000890,0.00000882,0.00000314,0.00000663,-0.00000178,-0.
 00000869,-0.00000103,0.00000009,0.00000130,0.00000262,0.00000015,0.000
 00087,0.00000326,0.00000124,-0.00000162,0.00000292,-0.00000184,0.00000
 421,0.00000604,0.00000200,-0.00000715,0.00000590,0.00000011,0.00000411
 ,0.00000021,-0.00000240,0.00000237,0.00000339,0.00000034,-0.00000215,0
 .00144352,0.00021865,-0.00076872,0.00025364,-0.00001439,-0.00002497,0.
 00057268,-0.00060114,-0.00007395,0.00033641,-0.00059443,0.00060461,0.3
 7594447,-0.00840903,0.00000984,-0.00506870,-0.03909777,-0.04983052,0.0
 0545935,0.03182000,0.00272363,-0.00461087,-0.00242350,0.00268651,-0.00
 035067,0.00033539,-0.00009676,0.00031386,0.00050752,0.00154558,0.00092
 305,-0.00037392,-0.00022750,0.00011167,-0.00006182,0.00000284,0.000030
 42,-0.00152339,0.00153352,-0.00057380,0.00025554,-0.00005647,0.0001341
 5,-0.00001054,-0.00004211,-0.00002055,-0.02746594,-0.00388966,0.005788
 67,0.00089530,0.00107216,-0.00323570,0.00019382,-0.00018072,-0.0001616
 7,0.00002404,0.00005691,-0.00001899,-0.00003000,0.00002411,-0.00001478
 ,0.00000973,0.00001725,-0.00000259,0.00003180,-0.00000308,-0.00006501,
 -0.00003156,-0.00002210,0.00009366,-0.00000819,-0.00000243,-0.00000185
 ,0.00000451,-0.00000129,-0.00000127,-0.00000111,-0.00000014,-0.0000004
 2,0.00000341,0.00000140,-0.00000521,-0.00001592,-0.00001598,-0.0000198
 0,0.00000611,0.00000328,-0.00000477,0.00000224,0.00000015,0.00000267,0
 .00000024,-0.00000444,0.00000253,-0.00000133,0.00000665,0.00000062,0.0
 0000219,-0.00000243,-0.00000429,-0.00000014,0.00000051,0.00000083,0.00
 000040,0.00000031,0.00000034,0.00000151,-0.00000053,-0.00000100,0.0000
 0123,0.00000201,0.00000291,0.00000108,-0.00000540,0.00000339,-0.000000
 72,0.00000129,-0.00000035,-0.00000006,0.00000041,-0.00000150,-0.000001
 48,-0.00000105,0.00000278,-0.00071251,0.00119038,-0.00001652,0.0004778
 1,0.00030276,-0.00012630,0.00081375,-0.00033604,-0.00004980,-0.0002707
 7,-0.00266953,0.00337993,0.04305603,0.05090289,-0.03956723,-0.00885972
 ,-0.01735292,0.03034199,0.00448699,-0.04263136,0.01264129,0.00190328,-
 0.00145128,-0.00112142,0.00006958,0.00084988,-0.00026113,-0.00052072,-
 0.00012528,0.00061278,0.00059812,0.00062655,-0.00033019,-0.00003385,-0
 .00003834,0.00002173,0.00002890,0.00001882,0.00014738,-0.00115452,0.00
 035250,-0.00004874,0.00003968,0.00014255,0.00001066,-0.00004003,0.0000
 7789,0.02119712,0.00295254,-0.00354190,0.00070876,0.00024099,0.0013492
 2,0.00060341,-0.00034478,-0.00053785,-0.00008268,0.00001935,-0.0001307
 6,-0.00000368,-0.00002351,-0.00000217,0.00001319,0.00000288,0.00001489
 ,-0.00005828,-0.00001331,0.00000733,0.00007280,0.00002647,-0.00005548,
 0.00000639,-0.00000472,0.00000751,-0.00000859,0.00000669,-0.00000933,0
 .00000232,-0.00000014,0.00000219,0.00000850,0.00000123,-0.00000092,-0.
 00002131,-0.00001352,-0.00002298,0.00000585,0.00000382,0.00000131,0.00
 001135,0.00001141,0.00000553,-0.00000957,0.00000208,-0.00001369,0.0000
 0719,-0.00000507,0.00001444,-0.00000044,0.00000027,-0.00000914,0.00000
 085,0.00000054,0.00000209,-0.00000252,-0.00000078,-0.00000231,-0.00000
 444,-0.00000021,0.00000356,-0.00000828,-0.00000496,-0.00001196,-0.0000
 1127,-0.00000025,0.00001721,-0.00000542,-0.00000211,-0.00000577,-0.000
 00120,-0.00000130,-0.00000204,-0.00000389,0.00000114,0.00000343,-0.003
 03807,0.00037355,0.00300767,-0.00015752,-0.00013962,0.00002694,-0.0004
 8958,0.00024734,0.00020049,0.00031334,0.00228667,-0.00296020,-0.021948
 70,0.00033604,0.06275888,0.00173306,0.00018547,0.00016573,-0.01982248,
 -0.00069651,0.00112415,-0.33748404,-0.05207888,0.02704092,0.00484029,-
 0.00602939,0.00687410,-0.00005908,-0.00074077,-0.00014402,-0.01671376,
 -0.00233272,-0.00057166,0.00219390,0.00023801,0.00025454,0.00019038,0.
 00013005,0.00007553,0.00079012,0.00034229,-0.00016896,0.00002501,-0.00
 006465,-0.00005593,-0.00000069,0.00001936,-0.00001027,-0.00117107,-0.0
 0219232,0.00133303,0.00062153,0.00070450,-0.00018393,-0.00112128,-0.00
 149502,0.00096826,0.00051273,0.00023959,-0.00030430,-0.00011265,0.0000
 5478,-0.00003152,0.00000999,-0.00002504,-0.00007357,0.00005194,0.00002
 716,0.00004000,-0.00003813,-0.00001730,0.00000646,-0.00002523,0.000011
 74,0.00000029,0.00001601,0.00000670,0.00000271,-0.00000585,-0.00000131
 ,-0.00000512,-0.00004310,-0.00003951,0.00006312,0.00003989,0.00005812,
 0.00000368,-0.00001307,-0.00000624,0.00001587,-0.00000757,-0.00001275,
 0.00000412,0.00001373,0.00002387,-0.00001879,-0.00000512,-0.00002171,0
 .00000199,0.00000511,0.00000783,0.00000090,-0.00000111,-0.00000159,-0.
 00000148,0.00000320,0.00000238,0.00000209,0.00000674,0.00000040,-0.000
 00418,0.00001279,0.00000038,0.00001040,0.00001728,0.00000245,-0.000042
 60,0.00001131,0.00000180,0.00001159,0.00000482,0.00000309,-0.00000315,
 0.00001388,0.00000370,-0.00000921,0.00033708,-0.00027998,-0.00026633,-
 0.00002808,0.00015037,0.00001055,0.00024503,-0.00040041,-0.00004831,0.
 00173696,0.00049231,-0.00095741,-0.00034406,0.00247998,0.00095353,0.36
 312813,-0.00199980,0.00174093,0.00116369,0.03068715,-0.00042055,-0.002
 80824,-0.05434595,-0.04666399,-0.00078642,-0.02664118,-0.01807544,0.01
 948981,-0.00081401,-0.00058655,-0.00066602,-0.01334974,-0.00038131,-0.
 00164334,0.00056243,0.00084904,0.00143816,0.00007060,-0.00002015,-0.00
 004878,0.00045466,0.00011665,0.00000449,-0.00008847,-0.00001754,-0.000
 07605,0.00000621,0.00001972,0.00000357,0.00312529,0.00037294,-0.001305
 38,-0.00027836,-0.00020318,0.00040750,0.00019335,-0.00069876,0.0005345
 2,0.00015787,0.00007653,-0.00039938,-0.00007630,0.00005361,0.00001933,
 0.00001320,-0.00002029,-0.00005172,-0.00000234,0.00001338,0.00003953,0
 .00000504,-0.00000247,-0.00004730,-0.00001199,0.00001087,0.00000741,0.
 00000523,0.00000295,-0.00000714,-0.00000262,0.00000185,-0.00000168,-0.
 00002216,0.00001165,-0.00000599,0.00007871,0.00004973,0.00011301,-0.00
 002324,-0.00001011,0.00000554,-0.00001376,0.00002411,0.00000579,0.0000
 1098,-0.00001273,-0.00001296,-0.00000366,0.00000067,0.00000224,0.00000
 159,0.00000006,0.00000016,-0.00000030,-0.00000020,-0.00000036,0.000001
 41,-0.00000024,0.00000052,0.00000149,0.00000076,-0.00000032,0.00000343
 ,-0.00000068,0.00000268,0.00000787,0.00000794,-0.00001759,0.00000692,-
 0.00000505,0.00000492,0.00000319,-0.00000463,0.00000568,0.00000802,0.0
 0000305,-0.00001074,-0.00001880,0.00016562,0.00040374,-0.00010336,-0.0
 0001449,-0.00000372,-0.00023672,-0.00015963,0.00006949,0.00014718,-0.0
 0083497,0.00055945,0.00222931,-0.00434964,-0.00219712,0.06090578,0.068
 79862,-0.00082168,0.00084886,0.00158004,0.01542220,-0.00094616,-0.0000
 3377,0.02817137,-0.00196078,-0.04418845,0.02373000,0.02055963,-0.01310
 520,0.00167470,0.00071907,0.00021055,-0.03367500,-0.00750871,0.0000878
 8,0.00196906,0.00163659,0.00252666,-0.00017300,0.00024167,0.00002707,-
 0.00018477,-0.00014626,-0.00002911,-0.00001195,0.00001853,0.00000539,-
 0.00000286,0.00000336,0.00000274,-0.00089460,0.00193881,-0.00022717,0.
 00006945,0.00038659,-0.00023439,-0.00094175,-0.00110966,0.00150726,0.0
 0043625,0.00012375,-0.00022393,-0.00000904,0.00005217,0.00006663,0.000
 01315,-0.00001388,-0.00002747,0.00001170,0.00001764,-0.00000528,-0.000
 00983,-0.00002114,0.00000764,-0.00001177,0.00000118,0.00001213,0.00000
 158,0.00001218,-0.00001598,-0.00000189,0.00000013,-0.00000043,-0.00001
 588,0.00000695,0.00001277,0.00008911,0.00003730,0.00013077,-0.00000339
 ,0.00000586,-0.00000830,-0.00001210,0.00002073,0.00002714,0.00000721,0
 .00000127,-0.00003765,0.00000361,-0.00001413,0.00002362,0.00000611,0.0
 0000253,-0.00001598,0.00000004,0.00000075,0.00000294,-0.00000050,0.000
 00139,-0.00000051,-0.00000041,0.00000090,-0.00000158,0.00000165,-0.000
 00253,0.00000362,0.00001854,0.00001026,-0.00004727,0.00000786,-0.00000
 250,0.00000845,0.00000231,-0.00000577,0.00000158,0.00000712,0.00000195
 ,-0.00000937,-0.00013655,0.00037548,0.00015086,-0.00003898,-0.00006815
 ,-0.00000819,-0.00010326,0.00013456,-0.00001524,-0.00070437,0.00052232
 ,0.00038454,0.00110903,-0.00195104,-0.00068561,-0.03319243,-0.01237998
 ,0.05785479,0.00044358,0.00011650,-0.00008776,-0.00063791,0.00084823,0
 .00017134,-0.01324416,-0.00776346,0.00043074,0.00165702,0.00087082,0.0
 0092744,0.00025624,0.00008343,0.00012292,-0.31251387,-0.10326452,0.030
 01766,-0.02126177,0.00789911,0.01143030,-0.00013069,-0.00015415,-0.001
 87915,0.00001249,-0.00001895,-0.00001826,0.00003304,0.00002790,0.00001
 175,-0.00000915,-0.00000285,0.00000330,0.00002815,0.00018290,0.0001109
 4,0.00125650,-0.00131688,-0.00033085,-0.00065557,0.00030402,-0.0004603
 8,0.00094249,0.00005548,-0.00001422,0.00016518,0.00009624,0.00019196,0
 .00001722,0.00005520,0.00001677,0.00000300,-0.00000274,-0.00007830,0.0
 0000568,-0.00004391,0.00000609,-0.00002014,0.00001534,0.00001456,0.000
 01330,-0.00001528,-0.00001597,-0.00000469,0.00000611,-0.00000055,-0.00
 003058,0.00016704,-0.00012002,0.00035488,0.00010501,0.00074316,-0.0000
 7950,-0.00005694,-0.00003222,-0.00009695,0.00009473,0.00000829,0.00004
 527,-0.00009692,0.00000514,-0.00002875,0.00005568,-0.00001385,0.000007
 81,-0.00001627,-0.00000065,-0.00000194,0.00000116,0.00000012,0.0000071
 1,-0.00000418,0.00000329,0.00000365,0.00000272,0.00000079,0.00000064,-
 0.00001272,0.00000843,-0.00002759,0.00004499,-0.00019891,0.00002534,-0
 .00002020,0.00001037,0.00001967,-0.00003566,0.00005117,0.00003544,0.00
 000516,-0.00006796,-0.00002980,-0.00014136,-0.00008593,-0.00000235,0.0
 0000695,-0.00001066,0.00002434,-0.00002763,-0.00000609,0.00004395,0.00
 014890,-0.00004605,0.00064733,-0.00047204,-0.00021755,0.00000504,-0.00
 084546,-0.00197572,0.34233535,0.00026896,0.00001359,-0.00003726,-0.000
 93071,0.00045460,0.00044664,-0.01030207,-0.00334372,0.00089925,0.00129
 511,0.00070258,0.00005213,0.00008394,-0.00004032,0.00005042,-0.1047437
 3,-0.07868604,0.01411550,0.03619155,-0.00063754,-0.01170982,0.00070300
 ,0.00180484,0.00145906,-0.00003485,0.00005192,0.00007033,0.00001318,-0
 .00001964,-0.00000512,-0.00000273,0.00000704,0.00000092,-0.00015522,-0
 .00006258,-0.00002719,0.00129415,0.00178159,-0.00043551,-0.02821276,-0
 .01041666,0.00414783,0.00121066,0.00153766,-0.00196259,-0.00013528,0.0
 0030283,0.00007058,0.00006413,-0.00003106,-0.00019923,0.00015109,-0.00
 001333,0.00008812,-0.00014538,0.00002865,0.00000313,-0.00003272,0.0000
 3830,0.00000737,0.00001394,0.00001580,-0.00000865,-0.00000519,-0.00000
 071,-0.00000462,0.00003132,-0.00003746,0.00013139,-0.00027544,-0.00023
 821,-0.00024440,0.00008303,0.00004380,-0.00004575,0.00006060,-0.000066
 99,0.00003449,-0.00001055,0.00005326,-0.00003885,0.00000999,-0.0000539
 0,0.00001832,0.00000220,0.00001494,-0.00000455,0.00000002,-0.00000079,
 0.00000113,-0.00000137,0.00000574,0.00000086,0.00000806,0.00000169,-0.
 00000786,0.00002543,-0.00001187,0.00003425,0.00017029,-0.00000191,-0.0
 0016872,-0.00000044,0.00003443,0.00002390,-0.00001915,0.00000132,-0.00
 001184,-0.00002945,-0.00001507,0.00005131,-0.00001250,-0.00001367,-0.0
 0003692,0.00000793,-0.00002391,-0.00000535,0.00004388,-0.00004890,-0.0
 0001930,0.00020445,0.00016902,-0.00000508,0.00029330,-0.00016406,-0.00
 023148,-0.00024933,-0.00018248,-0.00188308,0.10244041,0.09036360,0.000
 50022,0.00021778,-0.00034634,-0.00129418,0.00123704,0.00133307,-0.0311
 7896,-0.01356926,0.00069010,0.00185236,0.00019853,0.00303285,0.0001903
 2,-0.00019301,0.00034313,0.02846852,0.01399089,-0.04607936,0.01791409,
 -0.00493141,-0.00397900,0.00145689,0.00023865,0.00110684,-0.00006527,0
 .00000794,0.00005955,0.00001270,-0.00001310,0.00000265,0.00000614,0.00
 000243,0.00000118,-0.00037359,-0.00018373,-0.00039301,-0.00122751,-0.0
 0060418,0.00050357,0.02351293,0.01190666,-0.00431800,-0.00014640,-0.00
 134920,0.00254630,0.00044535,-0.00017205,-0.00037056,-0.00005960,0.000
 01516,0.00020652,-0.00013257,-0.00000708,-0.00006529,0.00011852,0.0000
 0823,0.00004129,0.00003694,-0.00004387,-0.00002206,-0.00001660,-0.0000
 1857,0.00002408,0.00000590,-0.00000287,0.00000521,0.00011524,0.0000737
 9,-0.00005883,-0.00030886,-0.00011435,-0.00011862,0.00003959,0.0000142
 2,0.00006395,-0.00001206,-0.00000799,-0.00003218,-0.00003612,-0.000021
 16,0.00009484,0.00000012,0.00004269,-0.00003160,-0.00000993,-0.0000096
 5,0.00001578,0.00000076,-0.00000075,-0.00000269,-0.00000169,-0.0000033
 1,-0.00000223,-0.00000925,-0.00000455,0.00000970,-0.00003881,0.0000277
 2,-0.00003029,-0.00026362,-0.00005591,0.00009308,-0.00003670,-0.000010
 98,-0.00006490,-0.00002457,-0.00001363,0.00001278,-0.00005147,-0.00001
 364,0.00005207,0.00006222,-0.00010217,-0.00008492,0.00001038,-0.000039
 15,0.00000827,0.00001681,-0.00001516,-0.00000142,0.00010662,0.00006711
 ,-0.00015676,0.00057157,-0.00020230,-0.00003293,-0.00216461,-0.0017239
 2,-0.00531128,-0.03807316,-0.00754221,0.05366427,0.00011035,-0.0001161
 3,0.00027662,0.00019135,0.00054179,-0.00013804,-0.00017907,-0.00052001
 ,0.00001696,0.00018709,0.00010120,-0.00010972,-0.00001972,0.00000648,0
 .00006089,-0.00133965,0.00111365,0.00133016,0.00186285,-0.00008758,-0.
 00151774,-0.00019868,-0.00014974,-0.00004142,0.00064974,-0.00011966,0.
 00001697,0.00001855,0.00018920,0.00006703,-0.00000874,-0.00000323,0.00
 002759,-0.00021629,-0.00101637,-0.00162321,-0.01312488,0.00798322,0.00
 929664,-0.30883496,-0.07104948,0.08103430,-0.02288049,-0.00694373,-0.0
 0719306,-0.00006195,-0.00056864,0.00479241,0.00031591,0.00017046,-0.00
 033688,0.00076573,-0.00015695,-0.00006494,-0.00070766,-0.00020617,0.00
 068240,-0.00006429,0.00013224,0.00001329,0.00004652,0.00000621,-0.0000
 2463,-0.00001599,0.00000721,-0.00001499,-0.00022851,0.00001118,0.00004
 671,0.00011271,-0.00000805,0.00004379,0.00000093,-0.00002034,-0.000022
 68,0.00054167,0.00013722,-0.00003701,0.00005902,-0.00008741,-0.0003478
 0,0.00000396,-0.00008553,0.00002751,0.00000934,0.00001638,-0.00001232,
 -0.00000038,0.00000231,-0.00000038,0.00000347,0.00001101,0.00000636,0.
 00003487,0.00001760,-0.00004109,0.00016570,-0.00021231,0.00021525,0.00
 166233,0.00052163,-0.00128595,0.00010225,0.00020099,0.00027874,0.00004
 727,0.00000818,0.00000121,0.00008866,-0.00002421,-0.00002723,0.0000016
 8,-0.00000791,-0.00001422,-0.00003344,0.00001561,-0.00000965,0.0001268
 0,-0.00026546,-0.00011577,0.00099740,0.00036989,0.00091488,0.00005324,
 -0.00001190,-0.00027872,0.00043041,0.00019132,0.00016969,0.00038570,0.
 00062825,0.00008132,0.33893919,-0.00010779,0.00031025,-0.00021309,-0.0
 0013872,-0.00040817,-0.00019247,-0.00118853,-0.00041932,-0.00120347,0.
 00050375,0.00009390,0.00043849,0.00017263,-0.00008989,0.00005034,-0.02
 460406,-0.00618160,0.01037985,0.00038651,0.00358028,-0.00096479,-0.000
 38137,-0.00026689,-0.00004061,0.00046489,0.00010255,0.00006440,-0.0002
 1537,-0.00017006,-0.00012065,0.00000545,0.00003182,-0.00001695,0.00451
 138,0.00166794,0.00324653,0.03291349,-0.00589535,-0.01923896,-0.075369
 33,-0.06176040,0.02539668,-0.00720178,0.00232128,-0.00159988,0.0000291
 4,-0.00014737,0.00155376,0.00021627,0.00015548,0.00009398,-0.00025146,
 0.00003486,0.00001027,0.00034833,-0.00001623,-0.00068888,0.00001036,0.
 00003032,0.00007031,-0.00000668,0.00003006,-0.00006689,-0.00000426,0.0
 0000377,0.00000232,-0.00015768,-0.00001700,-0.00003459,0.00009183,0.00
 000073,0.00003684,-0.00002255,-0.00002000,-0.00000912,0.00001712,0.000
 12278,-0.00000515,0.00002816,-0.00006546,-0.00013769,-0.00000659,0.000
 01357,0.00006427,0.00001719,-0.00000573,-0.00004940,0.00000072,0.00000
 228,0.00000922,0.00000049,-0.00000444,-0.00000418,-0.00000468,0.000007
 67,0.00000006,0.00002448,-0.00010195,0.00003507,0.00060124,0.00044830,
 -0.00028134,0.00002607,0.00001544,0.00006629,0.00004654,-0.00000675,0.
 00000318,0.00005638,-0.00003113,-0.00005639,-0.00000772,0.00001344,0.0
 0002209,0.00000935,-0.00004722,0.00000890,-0.00024564,-0.00004955,-0.0
 0001631,-0.00102736,0.00023111,0.00014424,-0.00008917,-0.00018254,-0.0
 0004780,0.00059330,0.00034442,0.00033136,0.00067807,-0.00331641,0.0029
 2031,0.06927757,0.06964122,-0.00005637,-0.00003727,-0.00027577,-0.0002
 9197,0.00029765,-0.00016886,0.00153631,0.00002682,0.00103560,-0.000553
 01,-0.00004308,-0.00003121,-0.00003634,-0.00005149,0.00000020,0.022250
 29,0.00733977,-0.00404080,-0.00177445,-0.00196390,0.00151860,-0.000113
 55,0.00000008,-0.00008661,-0.00004542,-0.00004634,-0.00003053,-0.00010
 615,-0.00016824,-0.00011400,0.00001950,0.00001339,-0.00001692,0.003966
 82,0.00028147,0.00247157,0.01494332,-0.00724779,-0.00693096,0.08812349
 ,0.02776139,-0.07067636,-0.03372611,-0.00687721,-0.00878322,-0.0067712
 5,-0.00210485,0.00344032,-0.00023654,0.00003015,-0.00039374,0.00011750
 ,0.00015688,0.00030217,-0.00013214,-0.00007715,-0.00045875,-0.00000395
 ,0.00005795,0.00005684,0.00002107,0.00003620,-0.00002725,-0.00000360,0
 .00000092,-0.00000516,-0.00003534,0.00009245,0.00003054,0.00003826,-0.
 00007967,0.00006029,0.00002208,-0.00000630,-0.00002823,-0.00010793,-0.
 00008457,-0.00004845,0.00013859,0.00007651,-0.00023852,0.00000948,-0.0
 0009305,0.00006770,0.00001336,0.00002088,-0.00004353,0.00000110,0.0000
 0220,0.00000635,-0.00000058,0.00000565,0.00000773,0.00003606,0.0000193
 0,-0.00005771,0.00024491,0.00001020,-0.00003524,0.00096535,0.00003709,
 -0.00069654,0.00020095,0.00007424,0.00000735,0.00001396,-0.00000576,0.
 00000221,0.00002259,-0.00005681,-0.00000905,-0.00002009,-0.00000105,0.
 00001250,-0.00000526,-0.00000224,-0.00001019,-0.00019865,0.00006935,0.
 00000958,-0.00086182,-0.00026782,-0.00026982,-0.00020306,-0.00007711,0
 .00013331,-0.00070577,-0.00008713,-0.00040291,-0.00055231,0.00292844,-
 0.00240883,-0.08614330,-0.01996015,0.08712630\\0.00696420,-0.00822487,
 -0.01250200,0.01282231,-0.00737962,-0.00996940,0.00638587,-0.03422109,
 0.03428895,-0.00273925,0.00335723,0.01827762,-0.00049930,-0.00657117,-
 0.03059430,0.00090054,-0.00486486,-0.01993484,-0.00533056,0.00673225,0
 .00449052,0.00823076,0.00501482,0.01571391,-0.01025859,0.02000709,-0.0
 1206249,0.01048615,0.01631824,-0.00848341,0.00362869,-0.03162511,0.013
 05535,-0.01728723,0.01658336,0.03370978,0.00992132,0.01064380,0.001708
 35,-0.03417921,0.00823850,-0.01215402,0.01620615,-0.01280194,0.0191601
 7,-0.01945029,-0.01185087,0.01057852,0.01411675,0.02856266,0.01282798,
 -0.00610854,-0.00435113,0.00923894,0.00350113,0.00709556,-0.02359895,-
 0.00356908,0.00234794,-0.00498510,-0.00013449,-0.00353124,-0.01217554,
 -0.00722799,-0.00665366,0.03084156,0.00739342,-0.00685861,0.00626397,-
 0.00636502,-0.02056644,-0.00037889,-0.00661893,0.03280639,0.00032314,0
 .00393855,0.01211127,-0.00497536,0.00294468,0.00020791,-0.01778035,0.0
 2815611,0.00133747,-0.00313836,-0.00473341,-0.00839661,0.01313509,-0.0
 0281989,-0.00534705,-0.00234025,-0.01889237,-0.00476298,-0.00484086,0.
 01980642,0.00043405,0.00183944,-0.02070051,-0.00375979,-0.00017044,0.0
 1726744,0.00257562,0.00039089,-0.02093623,-0.00324151,0.00048743,-0.00
 296516,-0.00584264,-0.01627749,0.01947205,0.00356425,-0.00044780,-0.00
 151826,0.00327221,-0.00098650,0.00067731,0.00833609,-0.01848043,-0.021
 18394,-0.00375590,-0.00132240,0.01778721,0.00060595,-0.00451717,-0.017
 79013,0.00042259,-0.00028225,0.02229484,0.00414803,-0.00171053,-0.0191
 2129,-0.00422932,0.00353248,0.01752778,0.00411315,-0.00575498\\\@


 NO MATTER HOW THIN YOU SLICE IT, IT'S STILL BALONEY

                                   -- ALFRED E. SMITH
 Job cpu time:  1 days  7 hours 57 minutes 57.5 seconds.
 File lengths (MBytes):  RWF=   1769 Int=      0 D2E=      0 Chk=     28 Scr=      1
 Normal termination of Gaussian 09 at Thu Mar 24 14:40:55 2016.
Gaussian '09 finished on node011 at Thu Mar 24 14:40:55 EDT 2016.
