Gaussian '09 started on node030 at Fri Mar 25 20:56:54 EDT 2016.
 Entering Gaussian System, Link 0=/usr/local/gaussian/g09/g09
 Initial command:
 /usr/local/gaussian/g09/l1.exe /home/srmcgrat/thesis/gaussian/cellobiose/423K/5808ps/1/2dp/gaussian28237/Gau-28273.inp -scrdir=/home/srmcgrat/thesis/gaussian/cellobiose/423K/5808ps/1/2dp/gaussian28237/
 Entering Link 1 = /usr/local/gaussian/g09/l1.exe PID=     28275.
  
 Copyright (c) 1988,1990,1992,1993,1995,1998,2003,2009,2010,
            Gaussian, Inc.  All Rights Reserved.
  
 This is part of the Gaussian(R) 09 program.  It is based on
 the Gaussian(R) 03 system (copyright 2003, Gaussian, Inc.),
 the Gaussian(R) 98 system (copyright 1998, Gaussian, Inc.),
 the Gaussian(R) 94 system (copyright 1995, Gaussian, Inc.),
 the Gaussian 92(TM) system (copyright 1992, Gaussian, Inc.),
 the Gaussian 90(TM) system (copyright 1990, Gaussian, Inc.),
 the Gaussian 88(TM) system (copyright 1988, Gaussian, Inc.),
 the Gaussian 86(TM) system (copyright 1986, Carnegie Mellon
 University), and the Gaussian 82(TM) system (copyright 1983,
 Carnegie Mellon University). Gaussian is a federally registered
 trademark of Gaussian, Inc.
  
 This software contains proprietary and confidential information,
 including trade secrets, belonging to Gaussian, Inc.
  
 This software is provided under written license and may be
 used, copied, transmitted, or stored only in accord with that
 written license.
  
 The following legend is applicable only to US Government
 contracts under FAR:
  
                    RESTRICTED RIGHTS LEGEND
  
 Use, reproduction and disclosure by the US Government is
 subject to restrictions as set forth in subparagraphs (a)
 and (c) of the Commercial Computer Software - Restricted
 Rights clause in FAR 52.227-19.
  
 Gaussian, Inc.
 340 Quinnipiac St., Bldg. 40, Wallingford CT 06492
  
  
 ---------------------------------------------------------------
 Warning -- This program may not be used in any manner that
 competes with the business of Gaussian, Inc. or will provide
 assistance to any competitor of Gaussian, Inc.  The licensee
 of this program is prohibited from giving any competitor of
 Gaussian, Inc. access to this program.  By using this program,
 the user acknowledges that Gaussian, Inc. is engaged in the
 business of creating and licensing software in the field of
 computational chemistry and represents and warrants to the
 licensee that it is not a competitor of Gaussian, Inc. and that
 it will not use this program in any manner prohibited above.
 ---------------------------------------------------------------
  

 Cite this work as:
 Gaussian 09, Revision B.01,
 M. J. Frisch, G. W. Trucks, H. B. Schlegel, G. E. Scuseria, 
 M. A. Robb, J. R. Cheeseman, G. Scalmani, V. Barone, B. Mennucci, 
 G. A. Petersson, H. Nakatsuji, M. Caricato, X. Li, H. P. Hratchian, 
 A. F. Izmaylov, J. Bloino, G. Zheng, J. L. Sonnenberg, M. Hada, 
 M. Ehara, K. Toyota, R. Fukuda, J. Hasegawa, M. Ishida, T. Nakajima, 
 Y. Honda, O. Kitao, H. Nakai, T. Vreven, J. A. Montgomery, Jr., 
 J. E. Peralta, F. Ogliaro, M. Bearpark, J. J. Heyd, E. Brothers, 
 K. N. Kudin, V. N. Staroverov, T. Keith, R. Kobayashi, J. Normand, 
 K. Raghavachari, A. Rendell, J. C. Burant, S. S. Iyengar, J. Tomasi, 
 M. Cossi, N. Rega, J. M. Millam, M. Klene, J. E. Knox, J. B. Cross, 
 V. Bakken, C. Adamo, J. Jaramillo, R. Gomperts, R. E. Stratmann, 
 O. Yazyev, A. J. Austin, R. Cammi, C. Pomelli, J. W. Ochterski, 
 R. L. Martin, K. Morokuma, V. G. Zakrzewski, G. A. Voth, 
 P. Salvador, J. J. Dannenberg, S. Dapprich, A. D. Daniels, 
 O. Farkas, J. B. Foresman, J. V. Ortiz, J. Cioslowski, 
 and D. J. Fox, Gaussian, Inc., Wallingford CT, 2010.
 
 ******************************************
 Gaussian 09:  EM64L-G09RevB.01 12-Aug-2010
                25-Mar-2016 
 ******************************************
 -------------------------------------------------
 # freq=raman b3lyp/6-31+g(2d,p) geom=connectivity
 -------------------------------------------------
 1/10=4,30=1,38=1,57=2/1,3;
 2/12=2,17=6,18=5,40=1/2;
 3/5=1,6=6,7=112,11=2,16=1,25=1,30=1,71=2,74=-5/1,2,3;
 4//1;
 5/5=2,38=5,98=1/2;
 8/6=4,10=90,11=11/1;
 10/13=10,15=4/2;
 11/6=3,8=1,9=11,15=111,16=1/1,2,10;
 10/6=1/2;
 6/7=2,8=2,9=2,10=2,18=1,28=1/1;
 7/8=1,10=1,25=1/1,2,3,16;
 1/10=4,30=1/3;
 99//99;
 -----------------
 423 5808/5808.com
 -----------------
 Symbolic Z-matrix:
 Charge =  0 Multiplicity = 1
 O                     7.711     7.549     11.986 
 C                     8.309     7.794     13.267 
 C                     7.856     9.162     13.749 
 O                     8.361     10.2      12.896 
 H                     8.471     9.814     11.981 
 C                     8.225     9.535     15.176 
 O                     7.641     10.754    15.66 
 H                     8.145     11.023    16.481 
 C                     8.443     5.375     14.088 
 O                     8.063     4.84      12.812 
 H                     8.325     3.876     12.842 
 C                     7.901     6.777     14.321 
 O                     8.268     7.106     15.668 
 C                     7.841     8.402     16.114 
 O                     8.659     8.56      17.283 
 C                     7.982     8.299     18.52 
 C                     8.389     6.943     19.075 
 O                     8.057     5.911     18.134 
 H                     8.342     6.34      17.277 
 C                     7.882     6.641     20.475 
 O                     8.292     5.371     21.004 
 H                     8.039     5.238     21.962 
 C                     7.964     10.768    19.326 
 O                     8.483     11.478    18.192 
 H                     8.143     12.407    18.34 
 C                     8.457     9.343     19.518 
 O                     8.072     9.026     20.863 
 C                     8.34      7.734     21.426 
 O                     7.477     7.571     22.561 
 H                     8.00773   7.45728   23.35283 
 H                     8.40036   7.42349   11.32978 
 H                     9.51104   5.40392   14.14583 
 H                     8.0726    4.72965   14.85691 
 H                     6.8334    6.71131   14.2925 
 H                     9.37421   7.78986   13.16599 
 H                     6.78835   9.18311   13.68137 
 H                     9.28839   9.64642   15.21696 
 H                     6.79906   8.41729   16.35696 
 H                     8.21142   11.32453   20.20575 
 H                     6.89796   10.73979   19.23851 
 H                     9.52616   9.36152   19.47985 
 H                     6.92119   8.35354   18.3911 
 H                     9.4568    6.95608   19.14227 
 H                     6.81247   6.65493   20.44662 
 H                     9.36994   7.62141   21.69329 
 

 GradGradGradGradGradGradGradGradGradGradGradGradGradGradGradGradGradGrad
 Berny optimization.
 Initialization pass.
 Trust Radius=3.00D-01 FncErr=1.00D-07 GrdErr=1.00D-07
 Number of steps in this run=      2 maximum allowed number of steps=      2.
 GradGradGradGradGradGradGradGradGradGradGradGradGradGradGradGradGradGrad

                          Input orientation:                          
 ---------------------------------------------------------------------
 Center     Atomic      Atomic             Coordinates (Angstroms)
 Number     Number       Type             X           Y           Z
 ---------------------------------------------------------------------
      1          8           0        7.711000    7.549000   11.986000
      2          6           0        8.309000    7.794000   13.267000
      3          6           0        7.856000    9.162000   13.749000
      4          8           0        8.361000   10.200000   12.896000
      5          1           0        8.471000    9.814000   11.981000
      6          6           0        8.225000    9.535000   15.176000
      7          8           0        7.641000   10.754000   15.660000
      8          1           0        8.145000   11.023000   16.481000
      9          6           0        8.443000    5.375000   14.088000
     10          8           0        8.063000    4.840000   12.812000
     11          1           0        8.325000    3.876000   12.842000
     12          6           0        7.901000    6.777000   14.321000
     13          8           0        8.268000    7.106000   15.668000
     14          6           0        7.841000    8.402000   16.114000
     15          8           0        8.659000    8.560000   17.283000
     16          6           0        7.982000    8.299000   18.520000
     17          6           0        8.389000    6.943000   19.075000
     18          8           0        8.057000    5.911000   18.134000
     19          1           0        8.342000    6.340000   17.277000
     20          6           0        7.882000    6.641000   20.475000
     21          8           0        8.292000    5.371000   21.004000
     22          1           0        8.039000    5.238000   21.962000
     23          6           0        7.964000   10.768000   19.326000
     24          8           0        8.483000   11.478000   18.192000
     25          1           0        8.143000   12.407000   18.340000
     26          6           0        8.457000    9.343000   19.518000
     27          8           0        8.072000    9.026000   20.863000
     28          6           0        8.340000    7.734000   21.426000
     29          8           0        7.477000    7.571000   22.561000
     30          1           0        8.007733    7.457284   23.352828
     31          1           0        8.400363    7.423493   11.329779
     32          1           0        9.511045    5.403917   14.145826
     33          1           0        8.072595    4.729650   14.856911
     34          1           0        6.833399    6.711312   14.292501
     35          1           0        9.374214    7.789864   13.165990
     36          1           0        6.788348    9.183110   13.681367
     37          1           0        9.288394    9.646424   15.216961
     38          1           0        6.799062    8.417294   16.356962
     39          1           0        8.211420   11.324529   20.205749
     40          1           0        6.897956   10.739793   19.238509
     41          1           0        9.526159    9.361515   19.479849
     42          1           0        6.921193    8.353540   18.391105
     43          1           0        9.456803    6.956083   19.142268
     44          1           0        6.812467    6.654929   20.446619
     45          1           0        9.369941    7.621406   21.693290
 ---------------------------------------------------------------------
                    Distance matrix (angstroms):
                    1          2          3          4          5
     1  O    0.000000
     2  C    1.434779   0.000000
     3  C    2.393943   1.519525   0.000000
     4  O    2.877221   2.434991   1.435297   0.000000
     5  H    2.389111   2.400092   1.982209   0.999160   0.000000
     6  C    3.792689   2.585037   1.520401   2.378891   3.216579
     7  O    4.875982   3.864489   2.496520   2.909469   3.886842
     8  H    5.697548   4.558852   3.318232   3.684591   4.670970
     9  C    3.111351   2.558038   3.847188   4.970736   4.913752
    10  O    2.853920   2.998943   4.427245   5.368935   5.059417
    11  H    3.821081   3.941016   5.383717   6.324333   6.001873
    12  C    2.466639   1.520417   2.453046   3.736195   3.876064
    13  O    3.750150   2.497964   2.842436   4.155174   4.579131
    14  C    4.217214   2.948575   2.484160   3.722731   4.412747
    15  O    5.475311   4.103354   3.673740   4.692992   5.451519
    16  C    6.582484   5.287340   4.850060   5.948682   6.729998
    17  C    7.147086   5.870559   5.794336   6.984903   7.653378
    18  O    6.371865   5.224642   5.462383   6.776768   7.298234
    19  H    5.463929   4.265596   4.543860   5.838932   6.335056
    20  C    8.539135   7.312113   7.182979   8.386725   9.086412
    21  O    9.295460   8.107551   8.197366   9.437355  10.059166
    22  H   10.245432   9.066921   9.104100  10.340091  10.988483
    23  C    8.018826   6.758342   5.804639   6.467235   7.424028
    24  O    7.385625   6.152866   5.049479   5.449384   6.430051
    25  H    8.010000   6.858765   5.629358   5.878393   6.875181
    26  C    7.778559   6.441763   5.803044   6.677915   7.551715
    27  O    9.006274   7.698910   7.118578   8.058219   8.925809
    28  C    9.462741   8.159280   7.823667   8.879330   9.672207
    29  O   10.577611   9.333830   8.962492  10.055114  10.860731
    30  H   11.371070  10.095943   9.755131  10.816309  11.622702
    31  H    0.960000   1.974449   3.028427   3.188038   2.478629
    32  H    3.536438   2.815980   4.125510   5.087935   5.021653
    33  H    4.040002   3.460339   4.573850   5.818340   5.854930
    34  H    2.606118   2.097919   2.710531   4.056442   4.201363
    35  H    2.053453   1.070000   2.127823   2.628355   2.513388
    36  H    2.529006   2.100883   1.070000   2.030788   2.473982
    37  H    4.162508   2.862348   2.107446   2.559954   3.341805
    38  H    4.548723   3.495179   2.910872   4.194753   4.888273
    39  H    9.059212   7.785910   6.818538   7.397255   8.366336
    40  H    7.964992   6.806443   5.791545   6.531409   7.483515
    41  H    7.920719   6.522122   5.972594   6.738525   7.586227
    42  H    6.503572   5.338121   4.803812   5.973159   6.754575
    43  H    7.389963   6.044694   6.042845   7.123176   7.773239
    44  H    8.555045   7.421861   7.227203   8.483945   9.186793
    45  H    9.848290   8.494572   8.232691   9.222767   9.997207
                    6          7          8          9         10
     6  C    0.000000
     7  O    1.435713   0.000000
     8  H    1.980800   1.000209   0.000000
     9  C    4.305446   5.661098   6.141267   0.000000
    10  O    5.259065   6.577582   7.190116   1.434852   0.000000
    11  H    6.122241   7.464306   8.022115   1.952803   0.999420
    12  C    2.905609   4.204408   4.770079   1.521071   2.460751
    13  O    2.478700   3.701499   4.002373   2.350189   3.651509
    14  C    1.520194   2.403751   2.663972   3.691857   4.862132
    15  O    2.361870   2.912746   2.640789   4.516515   5.846662
    16  C    3.573385   3.784562   3.406503   5.329627   6.674766
    17  C    4.684822   5.171600   4.840947   5.227974   6.614685
    18  O    4.680958   5.454208   5.373332   4.099562   5.428698
    19  H    3.825691   4.752840   4.754252   3.333339   4.718481
    20  C    6.047502   6.337119   5.934908   6.535384   7.873876
    21  O    7.163028   7.613069   7.240459   6.917649   8.212385
    22  H    8.034214   8.384501   7.969870   7.885548   9.158683
    23  C    4.337155   3.680228   2.862134   7.533295   8.808132
    24  O    3.596953   2.764808   1.802440   7.354660   8.554756
    25  H    4.273875   3.188544   2.317615   8.223049   9.371482
    26  C    4.352431   4.188191   3.484697   6.725334   8.087192
    27  O    5.711782   5.499359   4.816146   7.705068   9.074209
    28  C    6.505331   6.546431   5.942102   7.708549   9.091367
    29  O    7.678218   7.601459   7.023456   8.806095  10.141240
    30  H    8.439468   8.377495   7.743074   9.505914  10.861044
    31  H    4.391199   5.515408   6.289415   3.435975   2.997537
    32  H    4.447585   5.866274   6.236442   1.070000   2.047908
    33  H    4.818343   6.092948   6.499935   1.070000   2.047908
    34  H    3.269608   4.343455   5.010038   2.101991   2.684327
    35  H    2.899367   4.243844   4.790973   2.747514   3.247505
    36  H    2.102789   2.666402   3.614366   4.171921   4.609028
    37  H    1.070000   2.033941   2.190914   4.498256   5.512453
    38  H    2.162692   2.579692   2.935411   4.135973   5.192430
    39  H    5.338631   4.616787   3.737525   8.536825   9.835582
    40  H    4.440333   3.654866   3.039602   7.595783   8.801415
    41  H    4.499581   4.481527   3.696110   6.792465   8.188110
    42  H    3.665059   3.706651   3.503173   5.450166   6.691419
    43  H    4.888704   5.463287   5.034182   5.391961   6.818562
    44  H    6.170047   6.356144   6.048291   6.687966   7.946396
    45  H    6.888237   7.014483   6.343445   7.984109   9.397959
                   11         12         13         14         15
    11  H    0.000000
    12  C    3.283751   0.000000
    13  O    4.292135   1.434343   0.000000
    14  C    5.605793   2.420552   1.435570   0.000000
    15  O    6.463273   3.539364   2.207990   1.435496   0.000000
    16  C    7.205572   4.467062   3.104666   2.412328   1.434092
    17  C    6.947005   4.781863   3.413042   3.346118   2.428755
    18  O    5.676118   3.913216   2.748400   3.214364   2.846718
    19  H    5.073540   3.020494   1.783567   2.419796   2.242526
    20  C    8.130447   6.155532   4.844840   4.703310   3.804623
    21  O    8.297853   6.840483   5.611034   5.770829   4.914290
    22  H    9.225575   7.795668   6.569346   6.652008   5.771752
    23  C    9.469543   6.401724   5.184942   3.991244   3.087416
    24  O    9.297197   6.117415   5.052839   3.767230   3.061369
    25  H   10.150817   6.921548   5.937660   4.591983   4.022799
    26  C    8.629860   5.822568   4.456724   3.584990   2.376787
    27  O    9.535353   6.919899   5.541917   4.795387   3.657612
    28  C    9.411134   7.182590   5.792593   5.377041   4.236565
    29  O   10.432214   8.289018   6.953801   6.510520   5.498411
    30  H   11.108724   9.058040   7.697254   7.302117   6.203462
    31  H    3.857097   3.100761   4.351837   4.915194   6.066249
    32  H    2.332637   2.123273   2.599858   3.956167   4.530861
    33  H    2.202792   2.123273   2.518549   3.888453   4.571801
    34  H    3.516792   1.070000   2.026291   2.681705   3.961509
    35  H    4.064991   2.128450   2.819829   3.378789   4.249048
    36  H    5.588493   2.726993   3.232718   2.763315   4.106016
    37  H    6.313982   3.310771   2.774598   2.109080   2.417638
    38  H    5.941952   2.837248   2.086131   1.070000   2.082614
    39  H   10.474650   7.443565   6.195995   5.041904   4.047890
    40  H    9.490176   6.394664   5.275416   4.014619   3.417132
    41  H    8.694522   5.994547   4.604401   3.884504   2.494101
    42  H    7.267159   4.473394   3.284135   2.456338   2.071351
    43  H    7.103609   5.069242   3.675087   3.724500   2.581843
    44  H    8.236530   6.222782   5.015699   4.783484   4.128857
    45  H    9.667746   7.564487   6.146872   5.837419   4.564762
                   16         17         18         19         20
    16  C    0.000000
    17  C    1.520661   0.000000
    18  O    2.420158   1.435524   0.000000
    19  H    2.347835   1.897003   0.999857   0.000000
    20  C    2.565344   1.519294   2.458415   3.244904   0.000000
    21  O    3.852212   2.490308   2.929799   3.851232   1.435563
    22  H    4.606553   3.371097   3.886751   4.822389   2.050421
    23  C    2.597291   3.856715   5.001996   4.893717   4.284747
    24  O    3.234907   4.621120   5.583577   5.220742   5.382366
    25  H    4.115092   5.518699   6.499834   6.162634   6.154113
    26  C    1.520383   2.441490   3.722107   3.748775   2.923573
    27  O    2.454848   2.763390   4.141363   4.488529   2.423813
    28  C    2.981983   2.480984   3.773683   4.376921   1.519478
    29  O    4.136990   3.657639   4.763437   5.494019   2.319552
    30  H    4.905647   4.325467   5.443306   6.186739   2.993997
    31  H    7.255399   7.760119   6.978751   6.045395   9.193262
    32  H    5.463779   5.284365   4.275150   3.470903   6.651511
    33  H    5.115339   4.774024   3.483553   2.919356   5.937383
    34  H    4.659591   5.034468   4.110330   3.364667   6.271188
    35  H    5.555439   6.050142   5.472322   4.479729   7.547729
    36  H    5.061504   6.055696   5.669402   4.840009   7.335656
    37  H    3.798985   4.796027   4.896820   4.008973   6.217515
    38  H    2.468212   3.476949   3.319907   2.746321   4.613698
    39  H    3.471053   4.528567   5.798472   5.782746   4.702813
    40  H    2.765660   4.082350   5.087295   5.029012   4.392876
    41  H    2.105868   2.703008   3.984444   3.922287   3.330884
    42  H    1.070000   2.147509   2.705949   2.704490   2.863313
    43  H    2.089423   1.070000   2.016991   2.258665   2.086973
    44  H    2.789738   2.109450   2.729560   3.533431   1.070000
    45  H    3.529204   2.877138   4.161472   4.711930   2.158563
                   21         22         23         24         25
    21  O    0.000000
    22  H    0.999731   0.000000
    23  C    5.661349   6.126583   0.000000
    24  O    6.726015   7.303947   1.435067   0.000000
    25  H    7.524918   8.032699   1.921083   1.000272   0.000000
    26  C    4.244079   4.795715   1.520045   2.513399   3.297632
    27  O    3.664329   3.944342   2.325639   3.649036   4.219210
    28  C    2.400866   2.570586   3.708980   4.949418   5.603493
    29  O    2.815755   2.473365   4.574189   5.946835   6.453471
    30  H    3.154422   2.619275   5.213262   6.559434   7.046022
    31  H    9.890148  10.860529   8.678461   7.970943   8.604927
    32  H    6.965752   7.955314   7.615834   7.370406   8.276824
    33  H    6.184349   7.123331   7.513070   7.538666   8.430811
    34  H    6.997726   7.902236   6.562857   6.375625   7.109020
    35  H    8.273844   9.255517   6.985966   6.297411   7.043025
    36  H    8.391311   9.257262   5.979625   5.337057   5.825067
    37  H    7.263737   8.154186   4.460510   3.585274   4.322740
    38  H    5.753584   6.562149   3.962081   3.946002   4.653640
    39  H    6.007345   6.337190   1.070000   2.037767   2.158112
    40  H    5.821018   6.244126   1.070000   2.037767   2.266502
    41  H    4.446392   5.037469   2.107655   2.688168   3.533746
    42  H    4.195459   4.869022   2.791253   3.498733   4.233906
    43  H    2.708376   3.593448   4.097917   4.722185   5.664115
    44  H    2.036704   2.410073   4.415786   5.579964   6.268531
    45  H    2.588707   2.743034   4.181123   5.283845   5.970917
                   26         27         28         29         30
    26  C    0.000000
    27  O    1.434482   0.000000
    28  C    2.498606   1.434593   0.000000
    29  O    3.655165   2.313926   1.435118   0.000000
    30  H    4.296937   2.943509   1.974750   0.960000   0.000000
    31  H    8.410391   9.672547  10.101175  11.270079  12.029506
    32  H    6.744452   7.766000   7.733147   8.924614   9.552232
    33  H    6.569362   7.384560   7.228455   8.232921   8.923273
    34  H    6.071878   7.075547   7.362238   8.337947   9.166518
    35  H    6.603146   7.903655   8.324691   9.587155  10.283460
    36  H    6.072582   7.297143   8.030373   9.051023   9.899623
    37  H    4.391152   5.808812   6.565743   7.843688   8.522016
    38  H    3.687526   4.721787   5.341959   6.298087   7.164122
    39  H    2.111815   2.394713   3.794396   4.491721   4.990107
    40  H    2.111815   2.637126   3.987405   4.627687   5.379041
    41  H    1.070000   2.034762   2.800586   4.110777   4.575115
    42  H    2.146538   2.808349   3.406968   4.278939   5.157765
    43  H    2.614986   3.027070   2.658540   3.998184   4.481051
    44  H    3.285201   2.716942   2.111146   2.398207   3.243221
    45  H    2.920485   2.084926   1.070000   2.082952   2.153279
                   31         32         33         34         35
    31  H    0.000000
    32  H    3.639014   0.000000
    33  H    4.450268   1.740522   0.000000
    34  H    3.426413   2.983385   2.404403   0.000000
    35  H    2.110517   2.582934   3.730728   2.981282   0.000000
    36  H    3.350345   4.680929   4.781684   2.546625   2.982188
    37  H    4.565107   4.381298   5.077644   3.936561   2.767790
    38  H    5.368834   4.617837   4.179804   2.678349   4.148178
    39  H    9.697249   8.571192   8.492454   7.625432   7.962672
    40  H    8.706497   7.825294   7.529940   6.379328   7.190926
    41  H    8.452633   6.641883   6.703625   6.417408   6.508302
    42  H    7.274287   5.781868   5.191226   4.416239   5.799730
    43  H    7.897438   5.232264   5.023676   5.519276   6.034725
    44  H    9.285951   6.967592   6.044788   6.154412   7.801165
    45  H   10.410649   7.867743   7.535346   7.876166   8.528965
                   36         37         38         39         40
    36  H    0.000000
    37  H    2.970343   0.000000
    38  H    2.783056   3.001190   0.000000
    39  H    7.012729   5.372515   5.025926   0.000000
    40  H    5.772097   4.804425   3.702310   1.732818   0.000000
    41  H    6.414814   4.279010   4.252181   2.471617   2.977473
    42  H    4.784084   4.165378   2.038802   3.712734   2.532358
    43  H    6.473155   4.761757   4.117846   4.665328   4.568744
    44  H    7.222251   6.513722   4.453246   4.880599   4.260628
    45  H    8.561218   6.786029   5.976559   4.155486   4.675574
                   41         42         43         44         45
    41  H    0.000000
    42  H    2.997871   0.000000
    43  H    2.429995   2.991062   0.000000
    44  H    3.952768   2.668752   2.963872   0.000000
    45  H    2.819877   4.175741   2.637786   3.004819   0.000000
 Stoichiometry    C12H22O11
 Framework group  C1[X(C12H22O11)]
 Deg. of freedom   129
 Full point group                 C1      NOp   1
 Largest Abelian subgroup         C1      NOp   1
 Largest concise Abelian subgroup C1      NOp   1
                         Standard orientation:                         
 ---------------------------------------------------------------------
 Center     Atomic      Atomic             Coordinates (Angstroms)
 Number     Number       Type             X           Y           Z
 ---------------------------------------------------------------------
      1          8           0       -5.062818   -0.330913    0.425420
      2          6           0       -3.776336   -0.129456   -0.177048
      3          6           0       -3.249283    1.223990    0.269446
      4          8           0       -4.069916    2.287026   -0.237106
      5          1           0       -4.997171    1.930259   -0.343111
      6          6           0       -1.812098    1.549527   -0.104913
      7          8           0       -1.287460    2.754470    0.473136
      8          1           0       -0.459694    2.995060   -0.034149
      9          6           0       -3.033946   -2.574093   -0.304186
     10          8           0       -4.325388   -3.066363    0.081366
     11          1           0       -4.327163   -4.031788   -0.177074
     12          6           0       -2.754413   -1.178327    0.231868
     13          8           0       -1.398595   -0.894185   -0.140102
     14          6           0       -0.909914    0.388361    0.280763
     15          8           0        0.261193    0.505656   -0.541064
     16          6           0        1.491111    0.207494    0.133487
     17          6           0        2.001036   -1.167150   -0.269925
     18          8           0        1.028298   -2.167113    0.068576
     19          1           0        0.184717   -1.711818   -0.215667
     20          6           0        3.392060   -1.512162    0.234331
     21          8           0        3.878756   -2.800025   -0.172334
     22          1           0        4.832710   -2.962842    0.078511
     23          6           0        2.376145    2.649336    0.139930
     24          8           0        1.264070    3.393532   -0.378604
     25          1           0        1.442852    4.318537   -0.042526
     26          6           0        2.520792    1.217089   -0.348215
     27          8           0        3.856009    0.858405    0.034251
     28          6           0        4.376390   -0.452017   -0.230426
     29          8           0        5.508051   -0.648264    0.630035
     30          1           0        6.294275   -0.789350    0.097544
     31          1           0       -5.724726   -0.437784   -0.261644
     32          1           0       -2.978307   -2.550988   -1.372488
     33          1           0       -2.285120   -3.242476    0.066522
     34          1           0       -2.781923   -1.239128    1.299785
     35          1           0       -3.880505   -0.134266   -1.241954
     36          1           0       -3.313116    1.251200    1.337193
     37          1           0       -1.770649    1.655656   -1.168829
     38          1           0       -0.663575    0.399671    1.321959
     39          1           0        3.272618    3.176359   -0.112027
     40          1           0        2.290875    2.627887    1.206311
     41          1           0        2.480166    1.232882   -1.417327
     42          1           0        1.367103    0.270061    1.194434
     43          1           0        2.065603   -1.160173   -1.337952
     44          1           0        3.367233   -1.493385    1.303878
     45          1           0        4.636943   -0.576946   -1.260671
 ---------------------------------------------------------------------
 Rotational constants (GHZ):      0.4116650      0.1451717      0.1096658
 Standard basis: 6-31+G(2d,p) (6D, 7F)
 There are   685 symmetry adapted basis functions of A   symmetry.
 Integral buffers will be    131072 words long.
 Raffenetti 2 integral format.
 Two-electron integral symmetry is turned on.
   685 basis functions,  1028 primitive gaussians,   685 cartesian basis functions
    91 alpha electrons       91 beta electrons
       nuclear repulsion energy      2286.3725474123 Hartrees.
 NAtoms=   45 NActive=   45 NUniq=   45 SFac= 1.00D+00 NAtFMM=   50 NAOKFM=F Big=F
 One-electron integrals computed using PRISM.
 NBasis=   685 RedAO= T  NBF=   685
 NBsUse=   685 1.00D-06 NBFU=   685
 Harris functional with IExCor=  402 diagonalized for initial guess.
 ExpMin= 4.38D-02 ExpMax= 5.48D+03 ExpMxC= 8.25D+02 IAcc=2 IRadAn=         0 AccDes= 0.00D+00
 HarFok:  IExCor=  402 AccDes= 0.00D+00 IRadAn=         0 IDoV= 1
 ScaDFX=  1.000000  1.000000  1.000000  1.000000
 FoFCou: FMM=F IPFlag=           0 FMFlag=      100000 FMFlg1=           0
         NFxFlg=           0 DoJE=T BraDBF=F KetDBF=T FulRan=T
         Omega=  0.000000  0.000000  1.000000  0.000000  0.000000 ICntrl=     500 IOpCl=  0
         NMat0=    1 NMatS0=    1 NMatT0=    0 NMatD0=    1 NMtDS0=    0 NMtDT0=    0
         I1Cent=           4 NGrid=           0.
 Petite list used in FoFCou.
 Initial guess orbital symmetries:
       Occupied  (A) (A) (A) (A) (A) (A) (A) (A) (A) (A) (A) (A)
                 (A) (A) (A) (A) (A) (A) (A) (A) (A) (A) (A) (A)
                 (A) (A) (A) (A) (A) (A) (A) (A) (A) (A) (A) (A)
                 (A) (A) (A) (A) (A) (A) (A) (A) (A) (A) (A) (A)
                 (A) (A) (A) (A) (A) (A) (A) (A) (A) (A) (A) (A)
                 (A) (A) (A) (A) (A) (A) (A) (A) (A) (A) (A) (A)
                 (A) (A) (A) (A) (A) (A) (A) (A) (A) (A) (A) (A)
                 (A) (A) (A) (A) (A) (A) (A)
       Virtual   (A) (A) (A) (A) (A) (A) (A) (A) (A) (A) (A) (A)
                 (A) (A) (A) (A) (A) (A) (A) (A) (A) (A) (A) (A)
                 (A) (A) (A) (A) (A) (A) (A) (A) (A) (A) (A) (A)
                 (A) (A) (A) (A) (A) (A) (A) (A) (A) (A) (A) (A)
                 (A) (A) (A) (A) (A) (A) (A) (A) (A) (A) (A) (A)
                 (A) (A) (A) (A) (A) (A) (A) (A) (A) (A) (A) (A)
                 (A) (A) (A) (A) (A) (A) (A) (A) (A) (A) (A) (A)
                 (A) (A) (A) (A) (A) (A) (A) (A) (A) (A) (A) (A)
                 (A) (A) (A) (A) (A) (A) (A) (A) (A) (A) (A) (A)
                 (A) (A) (A) (A) (A) (A) (A) (A) (A) (A) (A) (A)
                 (A) (A) (A) (A) (A) (A) (A) (A) (A) (A) (A) (A)
                 (A) (A) (A) (A) (A) (A) (A) (A) (A) (A) (A) (A)
                 (A) (A) (A) (A) (A) (A) (A) (A) (A) (A) (A) (A)
                 (A) (A) (A) (A) (A) (A) (A) (A) (A) (A) (A) (A)
                 (A) (A) (A) (A) (A) (A) (A) (A) (A) (A) (A) (A)
                 (A) (A) (A) (A) (A) (A) (A) (A) (A) (A) (A) (A)
                 (A) (A) (A) (A) (A) (A) (A) (A) (A) (A) (A) (A)
                 (A) (A) (A) (A) (A) (A) (A) (A) (A) (A) (A) (A)
                 (A) (A) (A) (A) (A) (A) (A) (A) (A) (A) (A) (A)
                 (A) (A) (A) (A) (A) (A) (A) (A) (A) (A) (A) (A)
                 (A) (A) (A) (A) (A) (A) (A) (A) (A) (A) (A) (A)
                 (A) (A) (A) (A) (A) (A) (A) (A) (A) (A) (A) (A)
                 (A) (A) (A) (A) (A) (A) (A) (A) (A) (A) (A) (A)
                 (A) (A) (A) (A) (A) (A) (A) (A) (A) (A) (A) (A)
                 (A) (A) (A) (A) (A) (A) (A) (A) (A) (A) (A) (A)
                 (A) (A) (A) (A) (A) (A) (A) (A) (A) (A) (A) (A)
                 (A) (A) (A) (A) (A) (A) (A) (A) (A) (A) (A) (A)
                 (A) (A) (A) (A) (A) (A) (A) (A) (A) (A) (A) (A)
                 (A) (A) (A) (A) (A) (A) (A) (A) (A) (A) (A) (A)
                 (A) (A) (A) (A) (A) (A) (A) (A) (A) (A) (A) (A)
                 (A) (A) (A) (A) (A) (A) (A) (A) (A) (A) (A) (A)
                 (A) (A) (A) (A) (A) (A) (A) (A) (A) (A) (A) (A)
                 (A) (A) (A) (A) (A) (A) (A) (A) (A) (A) (A) (A)
                 (A) (A) (A) (A) (A) (A) (A) (A) (A) (A) (A) (A)
                 (A) (A) (A) (A) (A) (A) (A) (A) (A) (A) (A) (A)
                 (A) (A) (A) (A) (A) (A) (A) (A) (A) (A) (A) (A)
                 (A) (A) (A) (A) (A) (A) (A) (A) (A) (A) (A) (A)
                 (A) (A) (A) (A) (A) (A) (A) (A) (A) (A) (A) (A)
                 (A) (A) (A) (A) (A) (A) (A) (A) (A) (A) (A) (A)
                 (A) (A) (A) (A) (A) (A) (A) (A) (A) (A) (A) (A)
                 (A) (A) (A) (A) (A) (A) (A) (A) (A) (A) (A) (A)
                 (A) (A) (A) (A) (A) (A) (A) (A) (A) (A) (A) (A)
                 (A) (A) (A) (A) (A) (A) (A) (A) (A) (A) (A) (A)
                 (A) (A) (A) (A) (A) (A) (A) (A) (A) (A) (A) (A)
                 (A) (A) (A) (A) (A) (A) (A) (A) (A) (A) (A) (A)
                 (A) (A) (A) (A) (A) (A) (A) (A) (A) (A) (A) (A)
                 (A) (A) (A) (A) (A) (A) (A) (A) (A) (A) (A) (A)
                 (A) (A) (A) (A) (A) (A) (A) (A) (A) (A) (A) (A)
                 (A) (A) (A) (A) (A) (A) (A) (A) (A) (A) (A) (A)
                 (A) (A) (A) (A) (A) (A)
 The electronic state of the initial guess is 1-A.
 Requested convergence on RMS density matrix=1.00D-08 within 128 cycles.
 Requested convergence on MAX density matrix=1.00D-06.
 Requested convergence on             energy=1.00D-06.
 No special actions if energy rises.
 SCF Done:  E(RB3LYP) =  -1298.00001146     A.U. after   13 cycles
             Convg  =    0.5213D-08             -V/T =  2.0064
 Range of M.O.s used for correlation:     1   685
 NBasis=   685 NAE=    91 NBE=    91 NFC=     0 NFV=     0
 NROrb=    685 NOA=    91 NOB=    91 NVA=   594 NVB=   594

 **** Warning!!: The largest alpha MO coefficient is  0.80094876D+02

          Differentiating once with respect to electric field.
                with respect to dipole field.
          Electric field/nuclear overlap derivatives assumed to be zero.
          There are     3 degrees of freedom in the 1st order CPHF.  IDoFFX=0.
      3 vectors produced by pass  0 Test12= 1.80D-12 3.33D-08 XBig12= 1.23D+02 1.23D+00.
 AX will form     3 AO Fock derivatives at one time.
      3 vectors produced by pass  1 Test12= 1.80D-12 3.33D-08 XBig12= 2.33D+01 4.18D-01.
      3 vectors produced by pass  2 Test12= 1.80D-12 3.33D-08 XBig12= 1.01D+01 2.23D-01.
      3 vectors produced by pass  3 Test12= 1.80D-12 3.33D-08 XBig12= 1.04D+00 8.75D-02.
      3 vectors produced by pass  4 Test12= 1.80D-12 3.33D-08 XBig12= 3.11D-01 4.22D-02.
      3 vectors produced by pass  5 Test12= 1.80D-12 3.33D-08 XBig12= 5.87D-02 1.97D-02.
      3 vectors produced by pass  6 Test12= 1.80D-12 3.33D-08 XBig12= 2.09D-02 1.83D-02.
      3 vectors produced by pass  7 Test12= 1.80D-12 3.33D-08 XBig12= 2.69D-03 8.38D-03.
      3 vectors produced by pass  8 Test12= 1.80D-12 3.33D-08 XBig12= 5.12D-04 2.69D-03.
      3 vectors produced by pass  9 Test12= 1.80D-12 3.33D-08 XBig12= 1.46D-04 1.58D-03.
      3 vectors produced by pass 10 Test12= 1.80D-12 3.33D-08 XBig12= 4.05D-05 6.40D-04.
      3 vectors produced by pass 11 Test12= 1.80D-12 3.33D-08 XBig12= 9.20D-06 4.16D-04.
      3 vectors produced by pass 12 Test12= 1.80D-12 3.33D-08 XBig12= 1.51D-06 1.09D-04.
      3 vectors produced by pass 13 Test12= 1.80D-12 3.33D-08 XBig12= 5.70D-07 5.00D-05.
      3 vectors produced by pass 14 Test12= 1.80D-12 3.33D-08 XBig12= 7.55D-08 2.71D-05.
      3 vectors produced by pass 15 Test12= 1.80D-12 3.33D-08 XBig12= 1.54D-08 1.00D-05.
      3 vectors produced by pass 16 Test12= 1.80D-12 3.33D-08 XBig12= 2.58D-09 4.94D-06.
      3 vectors produced by pass 17 Test12= 1.80D-12 3.33D-08 XBig12= 1.86D-10 1.18D-06.
      3 vectors produced by pass 18 Test12= 1.80D-12 3.33D-08 XBig12= 3.77D-11 6.53D-07.
      3 vectors produced by pass 19 Test12= 1.80D-12 3.33D-08 XBig12= 1.09D-11 3.42D-07.
      3 vectors produced by pass 20 Test12= 1.80D-12 3.33D-08 XBig12= 5.49D-12 1.83D-07.
      2 vectors produced by pass 21 Test12= 1.80D-12 3.33D-08 XBig12= 1.92D-12 7.21D-08.
      1 vectors produced by pass 22 Test12= 1.80D-12 3.33D-08 XBig12= 4.09D-13 4.53D-08.
 Inverted reduced A of dimension    66 with in-core refinement.
 End of Minotr Frequency-dependent properties file   721 does not exist.
 End of Minotr Frequency-dependent properties file   722 does not exist.
 Symmetrizing basis deriv contribution to polar:
 IMax=3 JMax=2 DiffMx= 0.00D+00
 G2DrvN: will do    16 centers at a time, making    3 passes doing MaxLOS=2.
 Calling FoFCou, ICntrl=  3107 FMM=F I1Cent=   0 AccDes= 0.00D+00.
 Calling FoFCou, ICntrl=  3107 FMM=F I1Cent=   0 AccDes= 0.00D+00.
 Calling FoFCou, ICntrl=  3107 FMM=F I1Cent=   0 AccDes= 0.00D+00.
 FoFDir/FoFCou used for L=0 through L=2.
 End of G2Drv Frequency-dependent properties file   721 does not exist.
 End of G2Drv Frequency-dependent properties file   722 does not exist.
          IDoAtm=111111111111111111111111111111111111111111111
          Differentiating once with respect to electric field.
                with respect to dipole field.
          Differentiating once with respect to nuclear coordinates.
          There are   138 degrees of freedom in the 1st order CPHF.  IDoFFX=5.
 Will reuse    3 saved solutions.
    135 vectors produced by pass  0 Test12= 5.41D-14 1.00D-09 XBig12= 1.60D-01 7.57D-02.
 AX will form    45 AO Fock derivatives at one time.
    135 vectors produced by pass  1 Test12= 5.41D-14 1.00D-09 XBig12= 1.75D-02 1.01D-02.
    132 vectors produced by pass  2 Test12= 5.41D-14 1.00D-09 XBig12= 1.17D-04 1.42D-03.
    132 vectors produced by pass  3 Test12= 5.41D-14 1.00D-09 XBig12= 4.56D-07 5.54D-05.
    132 vectors produced by pass  4 Test12= 5.41D-14 1.00D-09 XBig12= 1.01D-09 2.23D-06.
    132 vectors produced by pass  5 Test12= 5.41D-14 1.00D-09 XBig12= 3.02D-12 1.02D-07.
     80 vectors produced by pass  6 Test12= 5.41D-14 1.00D-09 XBig12= 1.25D-13 2.42D-08.
 Inverted reduced A of dimension   878 with in-core refinement.
 Isotropic polarizability for W=    0.000000      191.56 Bohr**3.
 End of Minotr Frequency-dependent properties file   721 does not exist.
 End of Minotr Frequency-dependent properties file   722 does not exist.

 **********************************************************************

            Population analysis using the SCF density.

 **********************************************************************

 Orbital symmetries:
       Occupied  (A) (A) (A) (A) (A) (A) (A) (A) (A) (A) (A) (A)
                 (A) (A) (A) (A) (A) (A) (A) (A) (A) (A) (A) (A)
                 (A) (A) (A) (A) (A) (A) (A) (A) (A) (A) (A) (A)
                 (A) (A) (A) (A) (A) (A) (A) (A) (A) (A) (A) (A)
                 (A) (A) (A) (A) (A) (A) (A) (A) (A) (A) (A) (A)
                 (A) (A) (A) (A) (A) (A) (A) (A) (A) (A) (A) (A)
                 (A) (A) (A) (A) (A) (A) (A) (A) (A) (A) (A) (A)
                 (A) (A) (A) (A) (A) (A) (A)
       Virtual   (A) (A) (A) (A) (A) (A) (A) (A) (A) (A) (A) (A)
                 (A) (A) (A) (A) (A) (A) (A) (A) (A) (A) (A) (A)
                 (A) (A) (A) (A) (A) (A) (A) (A) (A) (A) (A) (A)
                 (A) (A) (A) (A) (A) (A) (A) (A) (A) (A) (A) (A)
                 (A) (A) (A) (A) (A) (A) (A) (A) (A) (A) (A) (A)
                 (A) (A) (A) (A) (A) (A) (A) (A) (A) (A) (A) (A)
                 (A) (A) (A) (A) (A) (A) (A) (A) (A) (A) (A) (A)
                 (A) (A) (A) (A) (A) (A) (A) (A) (A) (A) (A) (A)
                 (A) (A) (A) (A) (A) (A) (A) (A) (A) (A) (A) (A)
                 (A) (A) (A) (A) (A) (A) (A) (A) (A) (A) (A) (A)
                 (A) (A) (A) (A) (A) (A) (A) (A) (A) (A) (A) (A)
                 (A) (A) (A) (A) (A) (A) (A) (A) (A) (A) (A) (A)
                 (A) (A) (A) (A) (A) (A) (A) (A) (A) (A) (A) (A)
                 (A) (A) (A) (A) (A) (A) (A) (A) (A) (A) (A) (A)
                 (A) (A) (A) (A) (A) (A) (A) (A) (A) (A) (A) (A)
                 (A) (A) (A) (A) (A) (A) (A) (A) (A) (A) (A) (A)
                 (A) (A) (A) (A) (A) (A) (A) (A) (A) (A) (A) (A)
                 (A) (A) (A) (A) (A) (A) (A) (A) (A) (A) (A) (A)
                 (A) (A) (A) (A) (A) (A) (A) (A) (A) (A) (A) (A)
                 (A) (A) (A) (A) (A) (A) (A) (A) (A) (A) (A) (A)
                 (A) (A) (A) (A) (A) (A) (A) (A) (A) (A) (A) (A)
                 (A) (A) (A) (A) (A) (A) (A) (A) (A) (A) (A) (A)
                 (A) (A) (A) (A) (A) (A) (A) (A) (A) (A) (A) (A)
                 (A) (A) (A) (A) (A) (A) (A) (A) (A) (A) (A) (A)
                 (A) (A) (A) (A) (A) (A) (A) (A) (A) (A) (A) (A)
                 (A) (A) (A) (A) (A) (A) (A) (A) (A) (A) (A) (A)
                 (A) (A) (A) (A) (A) (A) (A) (A) (A) (A) (A) (A)
                 (A) (A) (A) (A) (A) (A) (A) (A) (A) (A) (A) (A)
                 (A) (A) (A) (A) (A) (A) (A) (A) (A) (A) (A) (A)
                 (A) (A) (A) (A) (A) (A) (A) (A) (A) (A) (A) (A)
                 (A) (A) (A) (A) (A) (A) (A) (A) (A) (A) (A) (A)
                 (A) (A) (A) (A) (A) (A) (A) (A) (A) (A) (A) (A)
                 (A) (A) (A) (A) (A) (A) (A) (A) (A) (A) (A) (A)
                 (A) (A) (A) (A) (A) (A) (A) (A) (A) (A) (A) (A)
                 (A) (A) (A) (A) (A) (A) (A) (A) (A) (A) (A) (A)
                 (A) (A) (A) (A) (A) (A) (A) (A) (A) (A) (A) (A)
                 (A) (A) (A) (A) (A) (A) (A) (A) (A) (A) (A) (A)
                 (A) (A) (A) (A) (A) (A) (A) (A) (A) (A) (A) (A)
                 (A) (A) (A) (A) (A) (A) (A) (A) (A) (A) (A) (A)
                 (A) (A) (A) (A) (A) (A) (A) (A) (A) (A) (A) (A)
                 (A) (A) (A) (A) (A) (A) (A) (A) (A) (A) (A) (A)
                 (A) (A) (A) (A) (A) (A) (A) (A) (A) (A) (A) (A)
                 (A) (A) (A) (A) (A) (A) (A) (A) (A) (A) (A) (A)
                 (A) (A) (A) (A) (A) (A) (A) (A) (A) (A) (A) (A)
                 (A) (A) (A) (A) (A) (A) (A) (A) (A) (A) (A) (A)
                 (A) (A) (A) (A) (A) (A) (A) (A) (A) (A) (A) (A)
                 (A) (A) (A) (A) (A) (A) (A) (A) (A) (A) (A) (A)
                 (A) (A) (A) (A) (A) (A) (A) (A) (A) (A) (A) (A)
                 (A) (A) (A) (A) (A) (A) (A) (A) (A) (A) (A) (A)
                 (A) (A) (A) (A) (A) (A)
 The electronic state is 1-A.
 Alpha  occ. eigenvalues --  -19.18734 -19.18529 -19.18085 -19.18053 -19.17197
 Alpha  occ. eigenvalues --  -19.17179 -19.16300 -19.15559 -19.14954 -19.13957
 Alpha  occ. eigenvalues --  -19.13433 -10.30463 -10.30155 -10.25853 -10.25641
 Alpha  occ. eigenvalues --  -10.25424 -10.25414 -10.25002 -10.24287 -10.24124
 Alpha  occ. eigenvalues --  -10.23989 -10.23975 -10.23762  -1.10297  -1.08601
 Alpha  occ. eigenvalues --   -1.05606  -1.05416  -1.04092  -1.03226  -1.02807
 Alpha  occ. eigenvalues --   -1.02173  -1.01929  -1.00499  -1.00124  -0.82031
 Alpha  occ. eigenvalues --   -0.80350  -0.79236  -0.77938  -0.71658  -0.69889
 Alpha  occ. eigenvalues --   -0.67383  -0.64868  -0.62805  -0.62778  -0.61057
 Alpha  occ. eigenvalues --   -0.59772  -0.56325  -0.55805  -0.54973  -0.54635
 Alpha  occ. eigenvalues --   -0.54372  -0.53075  -0.52593  -0.51159  -0.50832
 Alpha  occ. eigenvalues --   -0.50511  -0.49993  -0.49655  -0.48802  -0.46336
 Alpha  occ. eigenvalues --   -0.46151  -0.44977  -0.43862  -0.43493  -0.43005
 Alpha  occ. eigenvalues --   -0.42318  -0.41823  -0.41035  -0.40326  -0.39009
 Alpha  occ. eigenvalues --   -0.38896  -0.37820  -0.37720  -0.36750  -0.36281
 Alpha  occ. eigenvalues --   -0.35681  -0.35071  -0.34313  -0.33905  -0.33565
 Alpha  occ. eigenvalues --   -0.32644  -0.31192  -0.31042  -0.29937  -0.29675
 Alpha  occ. eigenvalues --   -0.29331  -0.28862  -0.27877  -0.27553  -0.26597
 Alpha  occ. eigenvalues --   -0.26155
 Alpha virt. eigenvalues --   -0.01982  -0.01841  -0.01783  -0.00322   0.00556
 Alpha virt. eigenvalues --    0.01139   0.01904   0.02458   0.03114   0.03542
 Alpha virt. eigenvalues --    0.03992   0.04241   0.05050   0.05488   0.05829
 Alpha virt. eigenvalues --    0.06148   0.06628   0.07282   0.07695   0.08252
 Alpha virt. eigenvalues --    0.08527   0.08882   0.09189   0.09848   0.10132
 Alpha virt. eigenvalues --    0.10364   0.10815   0.11305   0.11963   0.12122
 Alpha virt. eigenvalues --    0.12660   0.13062   0.13757   0.13807   0.13966
 Alpha virt. eigenvalues --    0.14354   0.14423   0.14849   0.14963   0.15406
 Alpha virt. eigenvalues --    0.15792   0.16263   0.16872   0.17230   0.17363
 Alpha virt. eigenvalues --    0.17461   0.17652   0.17777   0.18035   0.18204
 Alpha virt. eigenvalues --    0.18930   0.19085   0.19353   0.19729   0.20096
 Alpha virt. eigenvalues --    0.20659   0.20835   0.21033   0.21129   0.21631
 Alpha virt. eigenvalues --    0.21880   0.22206   0.22620   0.22882   0.23516
 Alpha virt. eigenvalues --    0.23745   0.23782   0.24010   0.24373   0.24575
 Alpha virt. eigenvalues --    0.24923   0.25379   0.25457   0.25693   0.26114
 Alpha virt. eigenvalues --    0.26236   0.26589   0.26617   0.27264   0.27436
 Alpha virt. eigenvalues --    0.27722   0.27936   0.28115   0.28477   0.28760
 Alpha virt. eigenvalues --    0.29155   0.29602   0.29769   0.30076   0.30381
 Alpha virt. eigenvalues --    0.31268   0.31351   0.31613   0.31901   0.32398
 Alpha virt. eigenvalues --    0.32746   0.32820   0.33154   0.33541   0.33843
 Alpha virt. eigenvalues --    0.34381   0.34615   0.35020   0.35161   0.35684
 Alpha virt. eigenvalues --    0.36129   0.36469   0.36703   0.37139   0.37624
 Alpha virt. eigenvalues --    0.38013   0.38344   0.38864   0.39070   0.39535
 Alpha virt. eigenvalues --    0.39739   0.40750   0.40951   0.41355   0.41737
 Alpha virt. eigenvalues --    0.42064   0.42392   0.42750   0.43431   0.44312
 Alpha virt. eigenvalues --    0.44899   0.45481   0.45860   0.46824   0.46871
 Alpha virt. eigenvalues --    0.47736   0.48261   0.48631   0.49189   0.49600
 Alpha virt. eigenvalues --    0.50765   0.51448   0.54552   0.57236   0.58701
 Alpha virt. eigenvalues --    0.59976   0.60356   0.60940   0.61373   0.61522
 Alpha virt. eigenvalues --    0.62861   0.63817   0.64382   0.65605   0.65855
 Alpha virt. eigenvalues --    0.67060   0.67561   0.69199   0.69868   0.70389
 Alpha virt. eigenvalues --    0.71247   0.72038   0.73431   0.73621   0.74319
 Alpha virt. eigenvalues --    0.74549   0.75971   0.76417   0.76865   0.77818
 Alpha virt. eigenvalues --    0.78161   0.79467   0.79888   0.81659   0.81901
 Alpha virt. eigenvalues --    0.82438   0.83420   0.83799   0.84893   0.85436
 Alpha virt. eigenvalues --    0.86335   0.87763   0.88137   0.88944   0.89561
 Alpha virt. eigenvalues --    0.89921   0.90079   0.90856   0.91538   0.92085
 Alpha virt. eigenvalues --    0.92328   0.93111   0.93470   0.93793   0.94270
 Alpha virt. eigenvalues --    0.94885   0.95326   0.95586   0.96105   0.96544
 Alpha virt. eigenvalues --    0.97507   0.97564   0.98518   0.99231   0.99679
 Alpha virt. eigenvalues --    1.00062   1.00641   1.01684   1.02123   1.03364
 Alpha virt. eigenvalues --    1.03842   1.04550   1.05336   1.05571   1.05969
 Alpha virt. eigenvalues --    1.07094   1.07579   1.08034   1.08149   1.08698
 Alpha virt. eigenvalues --    1.09259   1.10121   1.10440   1.11288   1.11969
 Alpha virt. eigenvalues --    1.12418   1.13312   1.14028   1.14537   1.14697
 Alpha virt. eigenvalues --    1.15746   1.15954   1.16366   1.17028   1.17186
 Alpha virt. eigenvalues --    1.18095   1.18339   1.19516   1.19917   1.20147
 Alpha virt. eigenvalues --    1.20507   1.21095   1.22240   1.22410   1.22940
 Alpha virt. eigenvalues --    1.23572   1.24345   1.24697   1.25112   1.25515
 Alpha virt. eigenvalues --    1.26311   1.27063   1.27151   1.28158   1.28438
 Alpha virt. eigenvalues --    1.28695   1.29312   1.29664   1.31026   1.32360
 Alpha virt. eigenvalues --    1.33161   1.33602   1.34292   1.34685   1.35200
 Alpha virt. eigenvalues --    1.35657   1.35868   1.36920   1.37042   1.38169
 Alpha virt. eigenvalues --    1.38452   1.39068   1.39549   1.40397   1.40787
 Alpha virt. eigenvalues --    1.42226   1.42651   1.43226   1.43858   1.44126
 Alpha virt. eigenvalues --    1.44452   1.46085   1.46893   1.47337   1.48031
 Alpha virt. eigenvalues --    1.49225   1.49630   1.50821   1.50974   1.52378
 Alpha virt. eigenvalues --    1.53463   1.53925   1.54528   1.54948   1.55572
 Alpha virt. eigenvalues --    1.56694   1.58414   1.59542   1.60075   1.60753
 Alpha virt. eigenvalues --    1.62446   1.62729   1.63963   1.64132   1.65245
 Alpha virt. eigenvalues --    1.65574   1.65851   1.67245   1.68699   1.69390
 Alpha virt. eigenvalues --    1.70413   1.70674   1.71325   1.73104   1.73391
 Alpha virt. eigenvalues --    1.74600   1.75399   1.77378   1.77530   1.77965
 Alpha virt. eigenvalues --    1.79386   1.80027   1.81978   1.82091   1.84213
 Alpha virt. eigenvalues --    1.84501   1.85324   1.86356   1.87694   1.88533
 Alpha virt. eigenvalues --    1.89503   1.90755   1.91594   1.92300   1.94207
 Alpha virt. eigenvalues --    1.94490   1.96580   1.97078   1.98534   1.99061
 Alpha virt. eigenvalues --    2.00044   2.00638   2.01834   2.02049   2.04552
 Alpha virt. eigenvalues --    2.05489   2.06470   2.08816   2.08870   2.09872
 Alpha virt. eigenvalues --    2.10626   2.14719   2.15053   2.16513   2.17793
 Alpha virt. eigenvalues --    2.17997   2.20167   2.21737   2.23054   2.24656
 Alpha virt. eigenvalues --    2.25105   2.25718   2.28117   2.30035   2.31304
 Alpha virt. eigenvalues --    2.33810   2.35141   2.36198   2.37794   2.39048
 Alpha virt. eigenvalues --    2.39741   2.41649   2.43347   2.45021   2.51428
 Alpha virt. eigenvalues --    2.53118   2.54129   2.54942   2.57093   2.57298
 Alpha virt. eigenvalues --    2.60880   2.63554   2.65772   2.66810   2.67761
 Alpha virt. eigenvalues --    2.67972   2.69085   2.71189   2.71663   2.73764
 Alpha virt. eigenvalues --    2.74453   2.74845   2.75280   2.77795   2.79553
 Alpha virt. eigenvalues --    2.80380   2.81596   2.82320   2.84849   2.85534
 Alpha virt. eigenvalues --    2.88291   2.90655   2.91625   2.91891   2.93506
 Alpha virt. eigenvalues --    2.93708   2.94975   2.96185   2.96563   2.97266
 Alpha virt. eigenvalues --    2.98460   2.98789   2.99509   3.00034   3.00366
 Alpha virt. eigenvalues --    3.01861   3.01937   3.02704   3.03696   3.04382
 Alpha virt. eigenvalues --    3.05095   3.06468   3.06916   3.07696   3.08823
 Alpha virt. eigenvalues --    3.08891   3.10515   3.11264   3.12921   3.14488
 Alpha virt. eigenvalues --    3.15703   3.17122   3.19825   3.20249   3.23388
 Alpha virt. eigenvalues --    3.24582   3.25503   3.30740   3.73433   3.81155
 Alpha virt. eigenvalues --    3.98956   4.05078   4.08003   4.09346   4.11342
 Alpha virt. eigenvalues --    4.14115   4.15016   4.15468   4.16391   4.17563
 Alpha virt. eigenvalues --    4.18178   4.19013   4.21650   4.21962   4.22892
 Alpha virt. eigenvalues --    4.23159   4.24383   4.24689   4.26000   4.26660
 Alpha virt. eigenvalues --    4.27229   4.28348   4.28839   4.29699   4.30156
 Alpha virt. eigenvalues --    4.30878   4.31406   4.31902   4.32130   4.32986
 Alpha virt. eigenvalues --    4.33576   4.34561   4.35227   4.35287   4.35659
 Alpha virt. eigenvalues --    4.36124   4.37173   4.38246   4.38753   4.39417
 Alpha virt. eigenvalues --    4.40081   4.41258   4.42251   4.43043   4.44376
 Alpha virt. eigenvalues --    4.45549   4.46852   4.46985   4.49204   4.49818
 Alpha virt. eigenvalues --    4.51854   4.52049   4.53708   4.54875   4.55490
 Alpha virt. eigenvalues --    4.56385   4.58018   4.59858   4.60053   4.60755
 Alpha virt. eigenvalues --    4.61052   4.62826   4.63064   4.63410   4.64367
 Alpha virt. eigenvalues --    4.64693   4.65698   4.65953   4.66385   4.66485
 Alpha virt. eigenvalues --    4.67748   4.68096   4.69185   4.70193   4.70489
 Alpha virt. eigenvalues --    4.71219   4.72663   4.72720   4.73684   4.74023
 Alpha virt. eigenvalues --    4.75093   4.75883   4.76155   4.76569   4.77271
 Alpha virt. eigenvalues --    4.77993   4.78979   4.79226   4.79899   4.81633
 Alpha virt. eigenvalues --    4.82170   4.82871   4.84520   4.85305   4.86029
 Alpha virt. eigenvalues --    4.87682   4.89099   4.89999   4.90861   4.91737
 Alpha virt. eigenvalues --    4.93201   4.93919   4.94740   4.96848   4.98051
 Alpha virt. eigenvalues --    4.98535   4.99444   5.00524   5.03404   5.04587
 Alpha virt. eigenvalues --    5.05473   5.08913   5.12535   5.13381   5.15193
 Alpha virt. eigenvalues --    5.22258   5.23931   5.27434   5.29861   5.41285
 Alpha virt. eigenvalues --    5.44098   5.86425   5.95530   6.02300   6.47426
 Alpha virt. eigenvalues --    6.72804   6.75156   6.79073   6.79814   6.83199
 Alpha virt. eigenvalues --    6.88901   6.92538   6.95553   6.96012   7.04298
 Alpha virt. eigenvalues --    7.09961  11.82589  11.95019  12.06624  12.15702
 Alpha virt. eigenvalues --   12.26163  12.38479  12.66559  12.79482  12.82753
 Alpha virt. eigenvalues --   12.94528  13.13128  13.15741  13.24157  13.27824
 Alpha virt. eigenvalues --   13.31635  13.35713  13.40857  13.41319  13.43261
 Alpha virt. eigenvalues --   13.48083  13.64927  13.70453  13.94604
          Condensed to atoms (all electrons):
              1          2          3          4          5          6
     1  O    8.194243   0.191927  -0.087581  -0.019443   0.020007   0.087196
     2  C    0.191927   7.837604  -0.557898   0.073374  -0.029142  -2.057725
     3  C   -0.087581  -0.557898   7.081085   0.147301   0.021929  -0.447199
     4  O   -0.019443   0.073374   0.147301   8.232422   0.218080  -0.098718
     5  H    0.020007  -0.029142   0.021929   0.218080   0.451714  -0.024735
     6  C    0.087196  -2.057725  -0.447199  -0.098718  -0.024735   9.820273
     7  O   -0.000355   0.014920  -0.098788   0.005873  -0.000244   0.297150
     8  H    0.000004  -0.004934   0.024401  -0.000513   0.000016   0.028570
     9  C   -0.016294   0.093806  -0.249555   0.008133  -0.002073   0.052129
    10  O   -0.025915   0.017251   0.027610  -0.000202  -0.000031  -0.008487
    11  H    0.001748  -0.010673  -0.002706   0.000004   0.000000   0.000004
    12  C   -0.033424  -1.043093  -0.083009  -0.002393   0.012106   0.568726
    13  O    0.002018  -0.050953  -0.070960  -0.001028  -0.000093   0.057564
    14  C   -0.035542   0.955713   0.053286   0.016287   0.007935  -2.198655
    15  O   -0.000128   0.003583   0.002042   0.000383  -0.000008  -0.029571
    16  C    0.000150   0.076556  -0.004931  -0.006112   0.000694  -0.014816
    17  C    0.000080  -0.020611  -0.004851   0.000422   0.000025  -0.004151
    18  O    0.000014   0.006867  -0.002089  -0.000002   0.000000  -0.001484
    19  H   -0.000017  -0.004085   0.005575  -0.000004   0.000000   0.008579
    20  C    0.000022   0.003089  -0.008007  -0.000057   0.000001   0.049163
    21  O    0.000000  -0.000027   0.000000   0.000000   0.000000  -0.000097
    22  H    0.000000   0.000001   0.000001   0.000000   0.000000  -0.000028
    23  C   -0.000041   0.009461   0.000837   0.000187  -0.000019  -0.093593
    24  O    0.000000  -0.001514  -0.009128  -0.000059  -0.000002   0.005802
    25  H    0.000000   0.000076   0.000934   0.000002   0.000000  -0.000600
    26  C    0.000052  -0.003238  -0.019099  -0.000013   0.000007  -0.010341
    27  O    0.000000  -0.000026   0.000254   0.000000   0.000000   0.001447
    28  C    0.000000   0.000919  -0.001065  -0.000001   0.000000  -0.003358
    29  O    0.000000   0.000012   0.000014   0.000000   0.000000  -0.000351
    30  H    0.000000   0.000000   0.000000   0.000000   0.000000   0.000007
    31  H    0.263559   0.056433  -0.035278   0.000948  -0.002651  -0.005002
    32  H    0.001662   0.013009  -0.005293  -0.000004  -0.000001   0.006190
    33  H   -0.000690  -0.015424   0.004494  -0.000005   0.000000   0.000131
    34  H    0.001887   0.120251  -0.074679   0.000401  -0.000005  -0.024761
    35  H   -0.020612   0.415061  -0.104552   0.001903  -0.000603  -0.010569
    36  H   -0.006170   0.054925   0.357910  -0.025936   0.000082  -0.279913
    37  H   -0.000179   0.031806  -0.110551   0.004310  -0.000137   0.355374
    38  H    0.000036   0.001251  -0.036940  -0.000085   0.000003   0.026040
    39  H    0.000000  -0.000004  -0.000034   0.000000   0.000000  -0.000319
    40  H    0.000000   0.000081   0.000676  -0.000001   0.000000  -0.002107
    41  H    0.000000  -0.000252   0.001448   0.000000   0.000000  -0.006483
    42  H   -0.000001  -0.003271   0.007150   0.000007   0.000000   0.005782
    43  H    0.000000   0.000023   0.000686   0.000000   0.000000   0.005501
    44  H    0.000000   0.000115   0.000007   0.000000   0.000000   0.001070
    45  H    0.000000   0.000004   0.000003   0.000000   0.000000  -0.000072
              7          8          9         10         11         12
     1  O   -0.000355   0.000004  -0.016294  -0.025915   0.001748  -0.033424
     2  C    0.014920  -0.004934   0.093806   0.017251  -0.010673  -1.043093
     3  C   -0.098788   0.024401  -0.249555   0.027610  -0.002706  -0.083009
     4  O    0.005873  -0.000513   0.008133  -0.000202   0.000004  -0.002393
     5  H   -0.000244   0.000016  -0.002073  -0.000031   0.000000   0.012106
     6  C    0.297150   0.028570   0.052129  -0.008487   0.000004   0.568726
     7  O    8.205289   0.249254   0.000015  -0.000006   0.000000   0.010872
     8  H    0.249254   0.352117  -0.000070   0.000000   0.000000  -0.002133
     9  C    0.000015  -0.000070   6.223858  -0.018413  -0.005974  -0.571608
    10  O   -0.000006   0.000000  -0.018413   8.279198   0.221663   0.075642
    11  H    0.000000   0.000000  -0.005974   0.221663   0.447181   0.025579
    12  C    0.010872  -0.002133  -0.571608   0.075642   0.025579   8.333783
    13  O    0.001485  -0.000716  -0.022055  -0.003193  -0.000011   0.003610
    14  C   -0.081598  -0.063677  -0.315945   0.017523  -0.002899  -0.974610
    15  O    0.012492   0.005321  -0.012037   0.000020   0.000004  -0.007752
    16  C    0.004439   0.015896  -0.115530  -0.000400  -0.000096   0.000544
    17  C   -0.001206   0.002354   0.020552   0.000080   0.000070  -0.154587
    18  O    0.000041  -0.000025   0.001898  -0.000112  -0.000002  -0.009590
    19  H   -0.000136   0.000001   0.000683  -0.000008   0.000000  -0.007416
    20  C    0.002003   0.000483   0.002513  -0.000002   0.000003  -0.014614
    21  O   -0.000001   0.000000   0.000225   0.000000   0.000000  -0.000095
    22  H    0.000000   0.000000  -0.000001   0.000000   0.000000   0.000012
    23  C    0.000703  -0.000325   0.000054   0.000000   0.000000   0.004569
    24  O   -0.043519   0.011233   0.000214   0.000000   0.000000   0.003321
    25  H    0.002083  -0.002760  -0.000010   0.000000   0.000000  -0.000198
    26  C    0.001025  -0.009820   0.001859   0.000005   0.000002  -0.013537
    27  O   -0.000233  -0.000093   0.000016   0.000000   0.000000   0.000136
    28  C    0.000010  -0.000148  -0.001232   0.000001   0.000000   0.004957
    29  O   -0.000004   0.000000  -0.000011   0.000000   0.000000   0.000029
    30  H    0.000000   0.000000   0.000000   0.000000   0.000000  -0.000002
    31  H   -0.000010   0.000000  -0.003081   0.000173  -0.000045  -0.018914
    32  H    0.000003   0.000000   0.545812  -0.045713  -0.003231  -0.204183
    33  H   -0.000008   0.000000   0.411011  -0.022652  -0.008776  -0.021404
    34  H   -0.000025   0.000000   0.067386   0.002174  -0.000288   0.046650
    35  H    0.000440   0.000002  -0.003249  -0.000962  -0.000024  -0.109375
    36  H    0.006128  -0.000124   0.011550  -0.000068   0.000000   0.021597
    37  H   -0.027147  -0.008322   0.013641   0.000018   0.000000   0.049435
    38  H   -0.001718   0.000001   0.014253   0.000058   0.000000   0.039137
    39  H   -0.000500   0.000223  -0.000001   0.000000   0.000000   0.000035
    40  H    0.000381   0.000057   0.000008   0.000000   0.000000   0.000147
    41  H   -0.000277   0.000008   0.000159   0.000000   0.000000   0.001389
    42  H   -0.002026   0.000039   0.000176   0.000000   0.000000  -0.000090
    43  H   -0.000006   0.000000  -0.000547   0.000000   0.000000  -0.000935
    44  H    0.000002   0.000000  -0.000073   0.000000   0.000000   0.000249
    45  H    0.000000   0.000000   0.000003   0.000000   0.000000   0.000058
             13         14         15         16         17         18
     1  O    0.002018  -0.035542  -0.000128   0.000150   0.000080   0.000014
     2  C   -0.050953   0.955713   0.003583   0.076556  -0.020611   0.006867
     3  C   -0.070960   0.053286   0.002042  -0.004931  -0.004851  -0.002089
     4  O   -0.001028   0.016287   0.000383  -0.006112   0.000422  -0.000002
     5  H   -0.000093   0.007935  -0.000008   0.000694   0.000025   0.000000
     6  C    0.057564  -2.198655  -0.029571  -0.014816  -0.004151  -0.001484
     7  O    0.001485  -0.081598   0.012492   0.004439  -0.001206   0.000041
     8  H   -0.000716  -0.063677   0.005321   0.015896   0.002354  -0.000025
     9  C   -0.022055  -0.315945  -0.012037  -0.115530   0.020552   0.001898
    10  O   -0.003193   0.017523   0.000020  -0.000400   0.000080  -0.000112
    11  H   -0.000011  -0.002899   0.000004  -0.000096   0.000070  -0.000002
    12  C    0.003610  -0.974610  -0.007752   0.000544  -0.154587  -0.009590
    13  O    8.214480   0.179108  -0.029725   0.022455  -0.001954  -0.013764
    14  C    0.179108   8.559635   0.213599  -0.817567   0.047554  -0.020929
    15  O   -0.029725   0.213599   8.056079   0.184283   0.003688  -0.008984
    16  C    0.022455  -0.817567   0.184283  10.647476  -2.275508   0.017286
    17  C   -0.001954   0.047554   0.003688  -2.275508   7.911502   0.188363
    18  O   -0.013764  -0.020929  -0.008984   0.017286   0.188363   8.228096
    19  H    0.018833   0.010848   0.015962  -0.086488   0.055530   0.225510
    20  C   -0.012641  -0.155590   0.019416  -1.056799   0.281120  -0.066615
    21  O   -0.000092   0.004031   0.000129   0.066108  -0.114218   0.008546
    22  H    0.000002  -0.000431  -0.000017  -0.008497   0.008107  -0.000147
    23  C    0.003416   0.173008  -0.000953   0.069365  -0.255535   0.009945
    24  O    0.000017   0.084512  -0.015219   0.010369  -0.002717  -0.000057
    25  H   -0.000015  -0.007804   0.000988  -0.016943  -0.001731   0.000000
    26  C   -0.019393  -0.429291  -0.107596  -2.147773   0.550320   0.037328
    27  O    0.000083   0.017616  -0.000014   0.100517  -0.059059  -0.000383
    28  C    0.003085  -0.005580  -0.002890   0.936877  -0.437307  -0.005734
    29  O    0.000036  -0.001957  -0.000192  -0.029878  -0.038856   0.000258
    30  H    0.000000   0.000017   0.000001   0.000323   0.012983  -0.000019
    31  H   -0.000674   0.003250  -0.000004   0.000183  -0.000037   0.000000
    32  H   -0.005632   0.008057  -0.000525  -0.004320   0.002720  -0.000091
    33  H   -0.005007  -0.005666  -0.000361   0.001691  -0.000742   0.000335
    34  H   -0.026952   0.134501  -0.002545  -0.001659   0.006781  -0.000302
    35  H    0.008520   0.084152  -0.000129  -0.002689   0.001719   0.000026
    36  H    0.004681   0.101243   0.000489  -0.004574   0.001587   0.000041
    37  H    0.008661  -0.030961  -0.010576  -0.023322   0.002893   0.000156
    38  H   -0.035841   0.282713  -0.037079  -0.018107   0.016370  -0.001714
    39  H    0.000017   0.006429   0.000391  -0.008382   0.001883   0.000000
    40  H    0.000036   0.005002   0.001030   0.061884  -0.002667   0.000049
    41  H   -0.000371   0.068108  -0.001290   0.038888  -0.062182   0.000386
    42  H   -0.003596   0.007572  -0.026826   0.115987   0.048513  -0.001428
    43  H    0.000322  -0.015467  -0.004232  -0.115051   0.288565  -0.028649
    44  H    0.000132  -0.009182   0.000420   0.094480  -0.209593   0.008147
    45  H    0.000011   0.001577   0.000114   0.066706  -0.022215   0.000555
             19         20         21         22         23         24
     1  O   -0.000017   0.000022   0.000000   0.000000  -0.000041   0.000000
     2  C   -0.004085   0.003089  -0.000027   0.000001   0.009461  -0.001514
     3  C    0.005575  -0.008007   0.000000   0.000001   0.000837  -0.009128
     4  O   -0.000004  -0.000057   0.000000   0.000000   0.000187  -0.000059
     5  H    0.000000   0.000001   0.000000   0.000000  -0.000019  -0.000002
     6  C    0.008579   0.049163  -0.000097  -0.000028  -0.093593   0.005802
     7  O   -0.000136   0.002003  -0.000001   0.000000   0.000703  -0.043519
     8  H    0.000001   0.000483   0.000000   0.000000  -0.000325   0.011233
     9  C    0.000683   0.002513   0.000225  -0.000001   0.000054   0.000214
    10  O   -0.000008  -0.000002   0.000000   0.000000   0.000000   0.000000
    11  H    0.000000   0.000003   0.000000   0.000000   0.000000   0.000000
    12  C   -0.007416  -0.014614  -0.000095   0.000012   0.004569   0.003321
    13  O    0.018833  -0.012641  -0.000092   0.000002   0.003416   0.000017
    14  C    0.010848  -0.155590   0.004031  -0.000431   0.173008   0.084512
    15  O    0.015962   0.019416   0.000129  -0.000017  -0.000953  -0.015219
    16  C   -0.086488  -1.056799   0.066108  -0.008497   0.069365   0.010369
    17  C    0.055530   0.281120  -0.114218   0.008107  -0.255535  -0.002717
    18  O    0.225510  -0.066615   0.008546  -0.000147   0.009945  -0.000057
    19  H    0.373263   0.004522  -0.000243   0.000011  -0.004988  -0.000003
    20  C    0.004522   6.888977   0.158137  -0.008171   0.040023  -0.008323
    21  O   -0.000243   0.158137   8.235124   0.231823  -0.000057   0.000016
    22  H    0.000011  -0.008171   0.231823   0.431187  -0.000084   0.000000
    23  C   -0.004988   0.040023  -0.000057  -0.000084   5.883178   0.026407
    24  O   -0.000003  -0.008323   0.000016   0.000000   0.026407   8.294283
    25  H    0.000000   0.000946   0.000000   0.000000  -0.025702   0.249150
    26  C   -0.007457   0.442949  -0.026401   0.003518  -0.488385   0.002994
    27  O    0.000026  -0.096515   0.001286  -0.000703  -0.093625   0.001782
    28  C    0.002012  -0.674643   0.030598  -0.003646  -0.091278   0.007558
    29  O   -0.000010  -0.016919  -0.009613   0.015035   0.010570  -0.000042
    30  H    0.000000  -0.021513  -0.000782  -0.002338   0.000110  -0.000001
    31  H    0.000000   0.000000   0.000000   0.000000   0.000002   0.000000
    32  H    0.000039   0.000132   0.000000   0.000000  -0.000023   0.000000
    33  H    0.000336  -0.000331   0.000001   0.000000  -0.000004   0.000000
    34  H    0.000100   0.000227   0.000000   0.000000   0.000031   0.000001
    35  H   -0.000008   0.000010   0.000000   0.000000   0.000048   0.000006
    36  H   -0.000001  -0.000013   0.000000   0.000000   0.000295   0.000035
    37  H   -0.000021   0.000605   0.000000   0.000000   0.001565   0.001225
    38  H   -0.000017   0.010554   0.000007   0.000000   0.000386   0.000020
    39  H    0.000000   0.000727  -0.000004   0.000000   0.416950  -0.029159
    40  H    0.000000  -0.001541  -0.000001   0.000000   0.547842  -0.048645
    41  H    0.000050  -0.024211   0.000207   0.000002   0.088797   0.003248
    42  H    0.000534   0.042388  -0.000351   0.000004   0.006335   0.000744
    43  H   -0.004630  -0.014028  -0.000396  -0.000227   0.016479  -0.000044
    44  H   -0.000207   0.334430  -0.026696  -0.003558   0.006091   0.000015
    45  H    0.000001  -0.132011   0.001592   0.000035   0.000544   0.000031
             25         26         27         28         29         30
     1  O    0.000000   0.000052   0.000000   0.000000   0.000000   0.000000
     2  C    0.000076  -0.003238  -0.000026   0.000919   0.000012   0.000000
     3  C    0.000934  -0.019099   0.000254  -0.001065   0.000014   0.000000
     4  O    0.000002  -0.000013   0.000000  -0.000001   0.000000   0.000000
     5  H    0.000000   0.000007   0.000000   0.000000   0.000000   0.000000
     6  C   -0.000600  -0.010341   0.001447  -0.003358  -0.000351   0.000007
     7  O    0.002083   0.001025  -0.000233   0.000010  -0.000004   0.000000
     8  H   -0.002760  -0.009820  -0.000093  -0.000148   0.000000   0.000000
     9  C   -0.000010   0.001859   0.000016  -0.001232  -0.000011   0.000000
    10  O    0.000000   0.000005   0.000000   0.000001   0.000000   0.000000
    11  H    0.000000   0.000002   0.000000   0.000000   0.000000   0.000000
    12  C   -0.000198  -0.013537   0.000136   0.004957   0.000029  -0.000002
    13  O   -0.000015  -0.019393   0.000083   0.003085   0.000036   0.000000
    14  C   -0.007804  -0.429291   0.017616  -0.005580  -0.001957   0.000017
    15  O    0.000988  -0.107596  -0.000014  -0.002890  -0.000192   0.000001
    16  C   -0.016943  -2.147773   0.100517   0.936877  -0.029878   0.000323
    17  C   -0.001731   0.550320  -0.059059  -0.437307  -0.038856   0.012983
    18  O    0.000000   0.037328  -0.000383  -0.005734   0.000258  -0.000019
    19  H    0.000000  -0.007457   0.000026   0.002012  -0.000010   0.000000
    20  C    0.000946   0.442949  -0.096515  -0.674643  -0.016919  -0.021513
    21  O    0.000000  -0.026401   0.001286   0.030598  -0.009613  -0.000782
    22  H    0.000000   0.003518  -0.000703  -0.003646   0.015035  -0.002338
    23  C   -0.025702  -0.488385  -0.093625  -0.091278   0.010570   0.000110
    24  O    0.249150   0.002994   0.001782   0.007558  -0.000042  -0.000001
    25  H    0.420916   0.045165  -0.000584  -0.000988  -0.000001   0.000000
    26  C    0.045165   8.947493   0.058423  -0.699333   0.018319  -0.004396
    27  O   -0.000584   0.058423   8.213370   0.210525  -0.025992   0.001310
    28  C   -0.000988  -0.699333   0.210525   5.761901   0.247091   0.003503
    29  O   -0.000001   0.018319  -0.025992   0.247091   8.139357   0.259843
    30  H    0.000000  -0.004396   0.001310   0.003503   0.259843   0.427617
    31  H    0.000000  -0.000006   0.000000   0.000000   0.000000   0.000000
    32  H    0.000000  -0.000071   0.000000  -0.000009   0.000000   0.000000
    33  H    0.000000   0.000104   0.000000   0.000012   0.000000   0.000000
    34  H    0.000000   0.000748   0.000001  -0.000032   0.000000   0.000000
    35  H    0.000000   0.000051   0.000000  -0.000005   0.000000   0.000000
    36  H    0.000000  -0.000340   0.000000  -0.000010   0.000000   0.000000
    37  H   -0.000007  -0.003822  -0.000002  -0.000012   0.000000   0.000000
    38  H    0.000008   0.010784   0.000243  -0.000659  -0.000004   0.000000
    39  H   -0.008522  -0.028042  -0.011920  -0.005590  -0.000154   0.000001
    40  H   -0.003544  -0.259444   0.003125   0.003877  -0.000110   0.000000
    41  H   -0.000265   0.112317  -0.023342   0.044673  -0.001096   0.000012
    42  H   -0.000016   0.048788   0.006040  -0.002072  -0.000374   0.000002
    43  H    0.000000   0.124381   0.000132  -0.023189   0.000426   0.000013
    44  H    0.000000   0.012065   0.001132   0.044776  -0.004815   0.000203
    45  H    0.000000  -0.029343  -0.049814   0.465059  -0.025452  -0.009191
             31         32         33         34         35         36
     1  O    0.263559   0.001662  -0.000690   0.001887  -0.020612  -0.006170
     2  C    0.056433   0.013009  -0.015424   0.120251   0.415061   0.054925
     3  C   -0.035278  -0.005293   0.004494  -0.074679  -0.104552   0.357910
     4  O    0.000948  -0.000004  -0.000005   0.000401   0.001903  -0.025936
     5  H   -0.002651  -0.000001   0.000000  -0.000005  -0.000603   0.000082
     6  C   -0.005002   0.006190   0.000131  -0.024761  -0.010569  -0.279913
     7  O   -0.000010   0.000003  -0.000008  -0.000025   0.000440   0.006128
     8  H    0.000000   0.000000   0.000000   0.000000   0.000002  -0.000124
     9  C   -0.003081   0.545812   0.411011   0.067386  -0.003249   0.011550
    10  O    0.000173  -0.045713  -0.022652   0.002174  -0.000962  -0.000068
    11  H   -0.000045  -0.003231  -0.008776  -0.000288  -0.000024   0.000000
    12  C   -0.018914  -0.204183  -0.021404   0.046650  -0.109375   0.021597
    13  O   -0.000674  -0.005632  -0.005007  -0.026952   0.008520   0.004681
    14  C    0.003250   0.008057  -0.005666   0.134501   0.084152   0.101243
    15  O   -0.000004  -0.000525  -0.000361  -0.002545  -0.000129   0.000489
    16  C    0.000183  -0.004320   0.001691  -0.001659  -0.002689  -0.004574
    17  C   -0.000037   0.002720  -0.000742   0.006781   0.001719   0.001587
    18  O    0.000000  -0.000091   0.000335  -0.000302   0.000026   0.000041
    19  H    0.000000   0.000039   0.000336   0.000100  -0.000008  -0.000001
    20  C    0.000000   0.000132  -0.000331   0.000227   0.000010  -0.000013
    21  O    0.000000   0.000000   0.000001   0.000000   0.000000   0.000000
    22  H    0.000000   0.000000   0.000000   0.000000   0.000000   0.000000
    23  C    0.000002  -0.000023  -0.000004   0.000031   0.000048   0.000295
    24  O    0.000000   0.000000   0.000000   0.000001   0.000006   0.000035
    25  H    0.000000   0.000000   0.000000   0.000000   0.000000   0.000000
    26  C   -0.000006  -0.000071   0.000104   0.000748   0.000051  -0.000340
    27  O    0.000000   0.000000   0.000000   0.000001   0.000000   0.000000
    28  C    0.000000  -0.000009   0.000012  -0.000032  -0.000005  -0.000010
    29  O    0.000000   0.000000   0.000000   0.000000   0.000000   0.000000
    30  H    0.000000   0.000000   0.000000   0.000000   0.000000   0.000000
    31  H    0.413756  -0.000088   0.000009  -0.000172  -0.013096   0.000112
    32  H   -0.000088   0.591157  -0.049736   0.006273   0.003216  -0.000005
    33  H    0.000009  -0.049736   0.566779  -0.006188   0.000003   0.000005
    34  H   -0.000172   0.006273  -0.006188   0.624427   0.006713   0.001484
    35  H   -0.013096   0.003216   0.000003   0.006713   0.611921   0.005997
    36  H    0.000112  -0.000005   0.000005   0.001484   0.005997   0.615703
    37  H    0.000012  -0.000015   0.000000  -0.000064   0.001813   0.006942
    38  H    0.000001  -0.000007  -0.000011   0.002353  -0.000013   0.001332
    39  H    0.000000   0.000000   0.000000   0.000000   0.000000   0.000000
    40  H    0.000000   0.000000   0.000000   0.000000   0.000000   0.000000
    41  H    0.000000   0.000000   0.000000   0.000000   0.000000   0.000000
    42  H    0.000000   0.000000   0.000000  -0.000002   0.000000  -0.000002
    43  H    0.000000   0.000000   0.000000   0.000000   0.000000   0.000000
    44  H    0.000000   0.000000   0.000000   0.000000   0.000000   0.000000
    45  H    0.000000   0.000000   0.000000   0.000000   0.000000   0.000000
             37         38         39         40         41         42
     1  O   -0.000179   0.000036   0.000000   0.000000   0.000000  -0.000001
     2  C    0.031806   0.001251  -0.000004   0.000081  -0.000252  -0.003271
     3  C   -0.110551  -0.036940  -0.000034   0.000676   0.001448   0.007150
     4  O    0.004310  -0.000085   0.000000  -0.000001   0.000000   0.000007
     5  H   -0.000137   0.000003   0.000000   0.000000   0.000000   0.000000
     6  C    0.355374   0.026040  -0.000319  -0.002107  -0.006483   0.005782
     7  O   -0.027147  -0.001718  -0.000500   0.000381  -0.000277  -0.002026
     8  H   -0.008322   0.000001   0.000223   0.000057   0.000008   0.000039
     9  C    0.013641   0.014253  -0.000001   0.000008   0.000159   0.000176
    10  O    0.000018   0.000058   0.000000   0.000000   0.000000   0.000000
    11  H    0.000000   0.000000   0.000000   0.000000   0.000000   0.000000
    12  C    0.049435   0.039137   0.000035   0.000147   0.001389  -0.000090
    13  O    0.008661  -0.035841   0.000017   0.000036  -0.000371  -0.003596
    14  C   -0.030961   0.282713   0.006429   0.005002   0.068108   0.007572
    15  O   -0.010576  -0.037079   0.000391   0.001030  -0.001290  -0.026826
    16  C   -0.023322  -0.018107  -0.008382   0.061884   0.038888   0.115987
    17  C    0.002893   0.016370   0.001883  -0.002667  -0.062182   0.048513
    18  O    0.000156  -0.001714   0.000000   0.000049   0.000386  -0.001428
    19  H   -0.000021  -0.000017   0.000000   0.000000   0.000050   0.000534
    20  C    0.000605   0.010554   0.000727  -0.001541  -0.024211   0.042388
    21  O    0.000000   0.000007  -0.000004  -0.000001   0.000207  -0.000351
    22  H    0.000000   0.000000   0.000000   0.000000   0.000002   0.000004
    23  C    0.001565   0.000386   0.416950   0.547842   0.088797   0.006335
    24  O    0.001225   0.000020  -0.029159  -0.048645   0.003248   0.000744
    25  H   -0.000007   0.000008  -0.008522  -0.003544  -0.000265  -0.000016
    26  C   -0.003822   0.010784  -0.028042  -0.259444   0.112317   0.048788
    27  O   -0.000002   0.000243  -0.011920   0.003125  -0.023342   0.006040
    28  C   -0.000012  -0.000659  -0.005590   0.003877   0.044673  -0.002072
    29  O    0.000000  -0.000004  -0.000154  -0.000110  -0.001096  -0.000374
    30  H    0.000000   0.000000   0.000001   0.000000   0.000012   0.000002
    31  H    0.000012   0.000001   0.000000   0.000000   0.000000   0.000000
    32  H   -0.000015  -0.000007   0.000000   0.000000   0.000000   0.000000
    33  H    0.000000  -0.000011   0.000000   0.000000   0.000000   0.000000
    34  H   -0.000064   0.002353   0.000000   0.000000   0.000000  -0.000002
    35  H    0.001813  -0.000013   0.000000   0.000000   0.000000   0.000000
    36  H    0.006942   0.001332   0.000000   0.000000   0.000000  -0.000002
    37  H    0.599018   0.004978   0.000001  -0.000001  -0.000007  -0.000011
    38  H    0.004978   0.584877   0.000000   0.000013  -0.000014   0.006295
    39  H    0.000001   0.000000   0.566252  -0.045752  -0.003952   0.000055
    40  H   -0.000001   0.000013  -0.045752   0.577433   0.006180   0.003501
    41  H   -0.000007  -0.000014  -0.003952   0.006180   0.626820   0.006423
    42  H   -0.000011   0.006295   0.000055   0.003501   0.006423   0.614458
    43  H   -0.000006  -0.000026   0.000004  -0.000009   0.001858   0.006216
    44  H    0.000000  -0.000006   0.000000  -0.000024  -0.000063   0.001891
    45  H    0.000000   0.000000  -0.000032  -0.000004   0.002469  -0.000018
             43         44         45
     1  O    0.000000   0.000000   0.000000
     2  C    0.000023   0.000115   0.000004
     3  C    0.000686   0.000007   0.000003
     4  O    0.000000   0.000000   0.000000
     5  H    0.000000   0.000000   0.000000
     6  C    0.005501   0.001070  -0.000072
     7  O   -0.000006   0.000002   0.000000
     8  H    0.000000   0.000000   0.000000
     9  C   -0.000547  -0.000073   0.000003
    10  O    0.000000   0.000000   0.000000
    11  H    0.000000   0.000000   0.000000
    12  C   -0.000935   0.000249   0.000058
    13  O    0.000322   0.000132   0.000011
    14  C   -0.015467  -0.009182   0.001577
    15  O   -0.004232   0.000420   0.000114
    16  C   -0.115051   0.094480   0.066706
    17  C    0.288565  -0.209593  -0.022215
    18  O   -0.028649   0.008147   0.000555
    19  H   -0.004630  -0.000207   0.000001
    20  C   -0.014028   0.334430  -0.132011
    21  O   -0.000396  -0.026696   0.001592
    22  H   -0.000227  -0.003558   0.000035
    23  C    0.016479   0.006091   0.000544
    24  O   -0.000044   0.000015   0.000031
[...]
 254,0.00000417,-0.00002010,0.00008501,0.00002937,0.00028936,-0.0000006
 4,0.00014004,-0.00021409,-0.00019079,-0.00526788,-0.01768852,-0.001223
 89,0.00843170,-0.34733241,0.01810986,-0.04141309,-0.00923975,0.0000362
 1,-0.00369708,0.00200798,-0.00053658,0.00098741,-0.00055044,-0.0000392
 1,0.00007613,-0.00043147,0.00016230,0.00066266,0.00032652,-0.00014013,
 -0.00004681,-0.00001389,0.00005880,-0.00006616,0.00042064,0.00070702,0
 .00046420,0.00019040,0.00003218,-0.00012223,0.00000188,-0.00004886,-0.
 00000320,-0.00972753,0.00031246,-0.00142197,0.00116447,0.00034704,-0.0
 0107934,-0.00001952,-0.00020828,0.00008466,0.00006211,0.00000075,-0.00
 011086,0.00000752,-0.00000040,-0.00000477,-0.00000141,-0.00000181,-0.0
 0000380,0.00001425,0.00000115,-0.00000848,-0.00000246,0.00000731,-0.00
 000111,0.00002252,0.00001512,0.00004067,0.00001041,-0.00000134,-0.0000
 1075,0.00001568,0.00000542,0.00003038,0.00007975,0.00023913,-0.0003352
 1,0.00192436,0.00022886,0.00086762,0.00035346,0.00012438,-0.00000686,0
 .00053512,-0.00074504,-0.00003333,0.00026566,-0.00065091,-0.00064497,0
 .37603336,0.00000026,-0.00001964,0.00002531,-0.00000109,0.00003782,-0.
 00002559,0.00002936,0.00002060,-0.00001762,0.00000151,-0.00003061,0.00
 000210,-0.00000107,0.00000646,-0.00000536,-0.00020807,0.00018697,0.000
 04763,0.00015977,-0.00011134,-0.00024230,-0.00021905,-0.00017985,0.000
 26173,0.00001986,-0.00002173,-0.00000917,-0.00001240,0.00002027,0.0000
 2668,0.00000645,-0.00000182,-0.00000188,-0.00002684,0.00001718,-0.0000
 7870,0.00015130,0.00000044,0.00023436,-0.00042208,0.00104793,-0.000554
 87,-0.00675897,0.00083756,0.00159607,0.01954319,-0.04505004,0.00183378
 ,0.03265025,-0.00276695,0.00731134,-0.00244991,0.00367573,0.00006820,0
 .00052862,-0.00014712,-0.00026325,0.00133213,0.00106281,-0.00170410,-0
 .00050651,-0.00018001,0.00014339,-0.00010492,-0.00005285,0.00003757,-0
 .00163053,0.00183973,0.00073935,0.00035450,-0.00002829,-0.00014399,-0.
 00002251,-0.00008711,0.00002049,-0.02646654,0.00007405,-0.00441773,0.0
 0147566,0.00083807,0.00050512,0.00031560,-0.00074598,0.00004374,-0.000
 05727,0.00014259,0.00007922,-0.00000919,0.00002223,-0.00000639,0.00000
 220,0.00000010,-0.00000338,-0.00000954,-0.00000101,0.00000614,0.000006
 50,-0.00001246,0.00000056,-0.00000802,0.00000839,-0.00000826,-0.000001
 91,-0.00000693,0.00000311,-0.00000078,0.00000552,0.00000965,0.00005304
 ,-0.00003125,0.00000117,0.00002977,0.00034754,0.00015908,0.00031304,0.
 00030598,0.00006722,0.00095815,-0.00033790,0.00005331,-0.00176822,-0.0
 0287408,-0.00317020,-0.01790752,0.04745479,-0.00000759,-0.00001706,-0.
 00004558,0.00000085,0.00001751,0.00003962,-0.00000343,0.00004319,0.000
 05317,-0.00001632,0.00000866,-0.00004012,-0.00000171,0.00000119,-0.000
 00112,0.00034694,0.00008798,-0.00030722,-0.00024801,0.00005388,0.00006
 863,0.00011684,-0.00008930,-0.00012135,-0.00003032,0.00004486,-0.00002
 626,0.00000063,-0.00004228,-0.00001551,0.00000258,0.00000036,-0.000006
 96,-0.00000717,-0.00009286,-0.00003827,-0.00095218,-0.00045466,-0.0003
 5009,0.00803682,0.00067545,0.00250214,0.03491719,0.00191269,-0.0131022
 0,-0.05040775,0.00210422,-0.04886877,-0.01330575,-0.00084794,-0.000888
 02,0.00148172,-0.00037695,0.00088009,0.00017766,0.00026476,-0.00015510
 ,-0.00118208,-0.00030632,0.00075257,0.00038684,0.00001128,0.00000920,0
 .00000870,-0.00001812,-0.00001399,-0.00026105,0.00143306,0.00069258,0.
 00020292,-0.00007520,0.00002981,-0.00003989,-0.00000318,0.00005338,-0.
 02260970,0.00050736,-0.00160485,0.00148033,0.00066076,0.00121931,-0.00
 029172,0.00000531,-0.00008296,0.00012402,0.00002464,-0.00018831,0.0000
 1770,-0.00000052,0.00001282,-0.00000242,0.00000512,0.00000573,-0.00000
 111,0.00000491,0.00000217,-0.00000381,-0.00001088,-0.00000133,-0.00001
 792,-0.00003020,-0.00007773,-0.00000903,0.00000608,0.00000976,-0.00003
 792,-0.00000732,-0.00006265,-0.00033392,-0.00005442,-0.00003157,-0.000
 51469,0.00002447,-0.00119355,0.00014094,0.00018152,-0.00001941,0.00064
 565,-0.00035201,0.00013740,-0.00121538,-0.00261860,-0.00270714,0.04339
 135,-0.00519360,0.06424697,0.00001122,0.00003015,-0.00006005,-0.000039
 43,-0.00004849,0.00002935,-0.00001975,-0.00005425,0.00002523,0.0000251
 5,0.00005681,-0.00002182,-0.00000864,-0.00001496,0.00000571,0.00005735
 ,-0.00005117,0.00004653,0.00005355,0.00012454,0.00004610,-0.00006337,-
 0.00004437,-0.00009610,-0.00005841,-0.00002562,0.00011365,0.00002685,-
 0.00001448,-0.00009455,-0.00001962,0.00000777,0.00002018,0.00001847,0.
 00010004,0.00011938,-0.00000748,0.00037815,-0.00042068,0.00015042,-0.0
 0060060,-0.00027416,0.00211319,-0.00057719,0.00044017,-0.01472871,0.00
 207824,0.00035784,-0.34638527,0.00733292,-0.00997119,-0.00533316,-0.01
 071789,-0.01176316,-0.00006304,-0.00103795,0.00085685,-0.01689996,0.00
 154047,0.00235857,0.00176519,-0.00048055,-0.00014110,0.00012397,-0.000
 04870,-0.00005771,0.00067371,0.00037062,0.00013213,0.00001582,-0.00002
 945,0.00007715,-0.00001227,0.00000650,-0.00000875,-0.00103173,-0.00146
 605,-0.00053850,0.00033782,0.00077595,0.00032152,-0.00109574,-0.000969
 00,-0.00071795,0.00071952,-0.00000529,0.00007895,-0.00000989,0.0000524
 4,0.00018653,-0.00000881,-0.00000182,0.00000617,0.00001948,0.00000450,
 -0.00001455,0.00001390,0.00005307,0.00000222,0.00000614,-0.00001322,0.
 00001349,0.00001174,0.00000308,-0.00001159,0.00001189,0.00000072,0.000
 00421,0.00000481,0.00002653,-0.00004155,0.00010511,-0.00000338,0.00027
 664,-0.00000894,0.00012468,0.00000275,0.00013421,-0.00037314,-0.000002
 44,0.00116823,0.00051178,0.00037879,0.00029324,0.00157613,-0.00057014,
 0.37698271,0.00000274,0.00002679,-0.00005910,-0.00002797,-0.00005355,0
 .00002583,0.00001531,0.00000173,-0.00000377,0.00000269,0.00003827,-0.0
 0002666,0.00000033,-0.00000827,0.00000322,-0.00013003,-0.00008866,-0.0
 0011381,-0.00005261,0.00006921,0.00010090,0.00004110,-0.00000193,-0.00
 006093,-0.00004977,-0.00001993,0.00010761,0.00002228,-0.00002098,-0.00
 008287,-0.00001674,0.00000864,0.00001365,0.00003569,0.00011790,0.00010
 788,0.00002928,0.00044136,-0.00036262,0.00034843,-0.00009162,-0.000068
 23,-0.00126416,0.00196689,-0.00200927,0.03428318,-0.00598726,0.0029806
 8,0.00518632,-0.03791571,0.00638039,-0.03268703,-0.01192222,-0.0173225
 1,-0.00019769,-0.00037414,0.00157182,-0.00879067,0.00194925,0.00104887
 ,0.00009636,0.00076516,-0.00115196,0.00014442,0.00004827,-0.00012184,0
 .00010433,0.00001752,0.00012261,-0.00006884,-0.00002252,0.00003846,0.0
 0001064,0.00001741,-0.00000471,0.00199545,0.00147445,0.00058959,-0.000
 41863,-0.00022336,-0.00017817,0.00062164,0.00007199,-0.00035894,0.0000
 5768,-0.00011270,0.00012096,0.00002985,0.00007022,0.00005762,-0.000006
 12,0.00000121,0.00000502,0.00002091,0.00001352,-0.00002148,-0.00000387
 ,0.00005117,0.00000599,-0.00000084,-0.00002543,0.00000598,0.00000368,0
 .00000480,-0.00000466,-0.00000139,-0.00000053,-0.00000204,-0.00001763,
 -0.00001891,0.00003291,-0.00025622,-0.00003064,-0.00005591,-0.00010623
 ,-0.00000984,-0.00000716,-0.00024770,0.00004297,-0.00002436,-0.0004654
 9,-0.00068343,-0.00025690,0.00119675,-0.00508385,0.00242233,0.00115028
 ,0.05510227,0.00001078,0.00001582,-0.00003333,-0.00003412,-0.00002911,
 0.00001098,-0.00000625,-0.00004208,0.00001722,0.00001426,0.00002663,-0
 .00000589,-0.00000504,-0.00000780,0.00000410,-0.00000127,0.00000666,0.
 00006391,0.00004233,0.00003742,-0.00001381,-0.00003546,0.00000033,-0.0
 0000019,-0.00007258,-0.00003359,0.00007611,0.00003692,-0.00000050,-0.0
 0004700,-0.00001750,0.00000173,0.00001251,0.00000623,0.00007845,0.0000
 5469,0.00019147,0.00024880,-0.00036324,-0.00038117,-0.00038570,-0.0004
 3777,-0.00004704,-0.00117592,0.00152132,-0.01450734,0.00459361,0.00006
 097,-0.00874557,0.00618480,-0.04105344,-0.02846840,-0.01583349,-0.0115
 5592,-0.00138343,-0.00052953,0.00105067,0.03702543,0.00025753,-0.00280
 896,-0.00187663,-0.00088545,0.00218486,-0.00015900,-0.00025863,0.00021
 948,0.00012585,0.00014872,0.00003455,0.00001327,-0.00000977,0.00000908
 ,-0.00000244,-0.00000927,-0.00000270,0.00032064,-0.00116144,-0.0002929
 9,-0.00036209,-0.00016915,0.00007750,0.00144658,0.00053168,0.00086082,
 -0.00052001,0.00005306,0.00007633,-0.00014338,-0.00009331,-0.00006087,
 -0.00000580,-0.00000014,0.00000085,0.00003278,0.00000732,-0.00002779,-
 0.00000237,0.00004005,0.00000469,0.00001655,-0.00001202,0.00002475,0.0
 0001103,0.00000313,-0.00001217,0.00000906,0.00000070,0.00000624,0.0000
 2048,0.00003302,-0.00002960,0.00019907,-0.00000400,0.00000269,0.000033
 10,0.00006759,-0.00000019,0.00006623,-0.00009458,-0.00002042,0.0003854
 8,-0.00003150,0.00023031,-0.00061381,0.00208774,-0.00066043,0.01575195
 ,0.00510763,0.05704025,0.00000487,-0.00000693,-0.00000589,-0.00000183,
 0.00000647,0.00000497,-0.00001477,-0.00001079,0.00001251,0.00001165,0.
 00000100,-0.00000787,-0.00000393,0.00000046,0.00000077,0.00001207,0.00
 001535,0.00002771,0.00002274,-0.00001468,-0.00002546,-0.00001043,0.000
 00306,0.00001941,-0.00001706,0.00000639,-0.00000656,0.00001526,-0.0000
 0334,0.00000531,-0.00000657,-0.00000078,-0.00000192,-0.00001856,-0.000
 00091,0.00000714,0.00003909,-0.00004457,-0.00001731,-0.00011725,0.0000
 0332,0.00007598,0.00047628,-0.00007470,0.00013021,-0.00049635,0.000900
 06,-0.00040334,-0.01461113,-0.00309920,0.00116809,0.00172233,0.0007912
 1,0.00012301,0.00010306,0.00006211,-0.00013303,-0.35424658,-0.00697266
 ,-0.00468775,-0.00700613,0.01179905,-0.00606208,0.00000051,0.00050990,
 0.00038119,-0.00011124,-0.00004103,0.00001008,0.00006440,0.00003113,-0
 .00004282,-0.00001403,-0.00001173,0.00000085,-0.00009955,-0.00017663,0
 .00000661,0.00186457,-0.00069825,0.00052596,-0.01347880,0.00007920,0.0
 0009194,0.00199498,0.00036390,0.00178461,0.00057096,0.00048672,0.00063
 852,-0.00000202,0.00000234,0.00000093,0.00001061,0.00000126,-0.0000060
 5,-0.00000863,-0.00000086,-0.00000081,0.00000899,-0.00000166,0.0000065
 9,0.00000446,0.00000105,-0.00000415,0.00000606,0.00000010,0.00000120,0
 .00000647,0.00000618,-0.00000782,0.00002861,-0.00001621,0.00003264,0.0
 0001258,-0.00001255,0.00001301,0.00005582,-0.00004435,0.00001752,0.000
 09404,0.00015562,-0.00002665,0.00052399,-0.00076259,0.00046683,0.00021
 838,-0.00066102,0.00210696,0.38219499,0.00000102,-0.00000300,0.0000156
 8,0.00000210,0.00000643,-0.00000808,-0.00000051,0.00000758,-0.00000744
 ,-0.00000059,-0.00000970,0.00000794,0.00000024,0.00000256,-0.00000194,
 -0.00000085,0.00001150,-0.00000563,0.00000913,-0.00001420,-0.00000346,
 -0.00000616,0.00000162,-0.00000213,0.00000407,-0.00000122,-0.00001881,
 -0.00000376,0.00000700,0.00001847,0.00000422,-0.00000236,-0.00000300,-
 0.00000160,-0.00001731,-0.00002363,0.00001542,-0.00004220,0.00006069,-
 0.00001068,0.00007363,-0.00000960,0.00013749,-0.00003482,-0.00007401,-
 0.00088254,0.00030386,-0.00007215,-0.00581357,0.00171577,0.00034751,0.
 00068342,0.00039297,0.00064336,-0.00009761,-0.00000025,-0.00012165,-0.
 00754359,-0.03792000,-0.00399208,0.03964978,-0.01970632,0.01042971,0.0
 0106497,0.00078699,-0.00072637,-0.00010445,0.00002956,0.00000151,0.000
 03583,-0.00002370,-0.00000890,-0.00000889,-0.00000304,0.00000579,-0.00
 014194,-0.00025094,0.00004927,0.00150373,0.00168987,0.00038105,-0.0269
 8948,-0.00094538,-0.00264850,0.00075565,0.00112081,0.00230791,-0.00002
 912,0.00007705,0.00041004,0.00000119,-0.00000054,-0.00000255,-0.000001
 91,-0.00000266,0.00000245,0.00000236,-0.00000717,0.00000016,0.00000061
 ,0.00000432,0.00000083,-0.00000028,-0.00000102,0.00000054,-0.00000064,
 0.00000027,0.00000088,0.00000141,0.00000141,-0.00000376,0.00001223,0.0
 0000551,0.00001683,0.00000326,-0.00001004,-0.00000050,0.00002987,-0.00
 004300,0.00002155,0.00009139,0.00006250,-0.00001889,0.00014888,-0.0001
 2409,0.00013040,-0.00017086,0.00025966,0.00139495,-0.00159308,0.055511
 93,-0.00000426,-0.00000646,-0.00000392,0.00000447,0.00000805,0.0000038
 1,0.00001217,0.00001397,0.00000591,-0.00000295,-0.00000373,-0.00001077
 ,0.00000149,0.00000265,-0.00000107,-0.00001322,-0.00001957,-0.00001459
 ,-0.00001312,0.00000308,-0.00000522,0.00000584,-0.00000935,0.00000172,
 0.00001495,0.00001330,-0.00001013,-0.00001109,-0.00001021,0.00000153,0
 .00000519,0.00000161,-0.00000381,0.00001314,-0.00000889,0.00001666,-0.
 00000741,-0.00009270,0.00005834,0.00005221,0.00014994,0.00011311,-0.00
 058119,-0.00002444,-0.00027789,0.00087732,-0.00117318,0.00136266,0.036
 24747,0.00257576,-0.00215504,-0.00214368,-0.00010414,0.00275452,-0.000
 12639,0.00030560,0.00022010,-0.00065397,-0.00348666,-0.04333935,-0.014
 24264,0.01039380,-0.00049160,-0.00113160,-0.00004736,0.00027010,0.0000
 0186,0.00000361,0.00009119,-0.00000083,-0.00001994,0.00000995,-0.00000
 632,-0.00000218,0.00000514,0.00040064,0.00019933,-0.00044483,0.0014419
 1,0.00059189,0.00061341,-0.02471797,-0.00382534,-0.00329464,-0.0004822
 0,0.00052092,0.00157044,-0.00009565,0.00013624,0.00037349,0.00000060,0
 .00000143,0.00000077,-0.00000722,-0.00000081,0.00000510,0.00000079,-0.
 00000630,0.00000036,-0.00000806,0.00000279,-0.00001074,-0.00000319,-0.
 00000129,0.00000341,-0.00000324,0.00000031,-0.00000164,-0.00000138,-0.
 00000792,0.00001028,-0.00003171,0.00000671,-0.00005328,-0.00000931,0.0
 0003116,0.00000576,-0.00000826,0.00003210,0.00000244,-0.00016409,-0.00
 001362,-0.00009787,-0.00057480,0.00048096,-0.00019045,0.00237226,0.001
 39402,-0.00583517,0.00456701,-0.00556382,0.05149141,0.00000197,-0.0000
 0882,-0.00001943,-0.00000746,0.00000879,0.00001049,-0.00000124,-0.0000
 0545,0.00001892,0.00001033,0.00000379,-0.00002067,-0.00000331,0.000000
 54,0.00000087,-0.00002245,0.00001706,0.00001041,0.00000773,-0.00002785
 ,-0.00006175,0.00000321,0.00001272,0.00007598,-0.00001293,0.00001203,0
 .00000088,0.00000770,-0.00001180,-0.00000623,-0.00000378,0.00000110,-0
 .00000079,0.00000386,0.00000620,0.00002669,0.00001886,-0.00005602,-0.0
 0005875,0.00001012,0.00006138,0.00009210,0.00001146,-0.00004027,-0.000
 20612,0.00008670,0.00028693,0.00013819,-0.00064905,-0.00041864,0.00038
 701,0.00040856,0.00008535,0.00001042,-0.00003790,-0.00000959,-0.000070
 91,-0.00911503,0.00240855,-0.00341565,0.00237294,0.00018214,0.00152923
 ,-0.00066679,-0.00027763,0.00000599,0.00017544,-0.00018770,-0.00016437
 ,-0.00000474,0.00018936,-0.00013218,-0.00000092,-0.00001276,-0.0000198
 7,-0.00000606,0.00025735,0.00005824,0.00254556,0.00725088,-0.00394331,
 -0.33600755,0.02055066,-0.07736896,-0.01900454,-0.00178685,0.00431246,
 0.00026372,0.00023249,0.00020406,-0.00000287,0.00000267,0.00000241,0.0
 0000551,0.00000064,-0.00000300,-0.00000305,-0.00000046,-0.00000007,0.0
 0000158,-0.00000095,-0.00000156,0.00000319,0.00000009,-0.00000254,0.00
 000263,0.00000022,0.00000008,0.00000438,-0.00000140,0.00000051,0.00000
 580,-0.00000393,-0.00000483,0.00000106,-0.00003834,0.00000013,0.000002
 61,-0.00008038,0.00006149,-0.00023456,0.00041098,-0.00095258,0.0000030
 4,-0.00015175,0.00012451,0.00073216,0.00007131,-0.00047574,0.00019706,
 -0.00075620,-0.00097352,0.35889702,0.00000299,0.00001889,0.00002069,0.
 00000120,-0.00002472,-0.00001196,-0.00000871,0.00000496,-0.00002221,-0
 .00000612,0.00000492,0.00002363,0.00000150,-0.00000231,-0.00000096,0.0
 0003480,-0.00006320,-0.00002331,0.00000697,0.00008725,0.00013131,-0.00
 002562,-0.00004832,-0.00018378,0.00000181,-0.00002134,0.00001369,0.000
 00253,0.00001640,-0.00000163,-0.00000309,-0.00000069,0.00000345,-0.000
 00981,0.00001776,-0.00001400,-0.00000849,0.00015881,0.00002327,-0.0001
 0268,-0.00010988,-0.00016627,0.00009000,0.00038356,0.00039499,-0.00033
 429,-0.00095090,0.00020577,-0.00090606,-0.00023862,0.00156689,0.000405
 17,0.00007085,-0.00059890,0.00009706,-0.00019760,0.00008135,-0.0221558
 2,0.00217965,-0.00759939,0.00094789,0.00320116,0.00045782,-0.00048290,
 -0.00028972,0.00014018,-0.00024918,0.00033892,0.00032019,-0.00008761,-
 0.00050412,0.00031639,-0.00003110,0.00001825,0.00005080,0.00370934,0.0
 0096270,-0.00372506,0.03043077,-0.01769439,0.01852306,0.02173532,-0.04
 204267,0.00275507,-0.00274092,0.00406449,0.00117997,-0.00033867,0.0003
 0889,-0.00040304,0.00000137,-0.00000348,-0.00000320,-0.00000009,0.0000
 0127,0.00000027,0.00000276,0.00000863,0.00000004,0.00000272,-0.0000023
 9,0.00000447,-0.00000028,0.00000135,0.00000059,0.00000087,-0.00000061,
 0.00000167,-0.00000400,0.00000687,-0.00000693,0.00000597,-0.00000160,0
 .00001160,0.00001209,0.00005930,-0.00000910,-0.00013076,0.00014968,-0.
 00004571,-0.00117775,0.00014952,0.00038916,0.00002159,-0.00005785,-0.0
 0004059,0.00044308,0.00013483,-0.00016036,-0.00097737,-0.00290985,-0.0
 0244133,-0.02817646,0.05281535,-0.00000133,-0.00000843,-0.00004068,-0.
 00001008,0.00000748,0.00002346,0.00000329,-0.00000741,0.00003422,0.000
 01012,0.00001489,-0.00003853,-0.00000239,-0.00000125,0.00000224,-0.000
 02413,-0.00000960,0.00000046,0.00000313,-0.00000548,-0.00006423,0.0000
 0182,0.00000152,0.00007587,-0.00001267,0.00002036,0.00001567,0.0000034
 9,-0.00002342,-0.00002550,-0.00000253,0.00000343,0.00000200,0.00001729
 ,0.00001958,0.00006073,0.00000682,-0.00006577,-0.00012545,0.00008101,0
 .00007846,0.00017457,0.00007855,-0.00003292,-0.00043749,-0.00004755,-0
 .00003486,0.00002944,-0.00173372,0.00037530,0.00175279,0.00067606,-0.0
 0014374,-0.00023057,0.00002850,-0.00002845,0.00003158,-0.02371965,0.00
 192745,-0.00363354,0.00225802,0.00140538,0.00165215,0.00016050,-0.0004
 4828,0.00004966,0.00012207,-0.00008099,0.00000972,0.00006527,0.0002193
 2,-0.00016035,0.00000782,-0.00001953,-0.00001495,-0.00158494,-0.000648
 58,0.00297648,-0.01218501,0.01122724,-0.00411226,-0.08563220,0.0006082
 8,-0.06871759,0.03798184,0.00011490,-0.00502873,0.00152668,-0.00020160
 ,0.00376631,-0.00000357,0.00000308,0.00000552,0.00000347,-0.00000007,-
 0.00000316,-0.00000062,0.00000361,-0.00000037,-0.00000230,-0.00000165,
 -0.00000487,0.00000264,0.00000028,-0.00000315,0.00000150,-0.00000003,-
 0.00000113,0.00000181,-0.00000087,0.00000034,0.00000265,-0.00000809,0.
 00000218,-0.00000053,-0.00004071,0.00000167,0.00010572,-0.00011363,-0.
 00000507,0.00084295,-0.00007132,-0.00037441,0.00014480,0.00000136,0.00
 008557,0.00078166,0.00005396,-0.00038304,-0.00078804,-0.00293064,-0.00
 274960,0.08083177,-0.01115858,0.07540204\\0.00242227,-0.00594436,-0.01
 017943,0.00119185,-0.00851131,-0.01168749,-0.00364928,-0.03136953,0.01
 209078,-0.00792961,0.01374450,0.02505205,0.00824176,-0.01220414,-0.027
 19968,0.00385346,0.00051452,-0.00591620,-0.00756342,0.00934756,0.00092
 708,0.01299551,0.00794896,0.01550082,0.00370856,0.00092658,0.01196524,
 -0.00714544,0.02608802,-0.00371561,0.00942917,-0.03039174,0.00352556,0
 .00886140,0.02265093,0.00647946,-0.00091122,-0.01401073,0.02376869,-0.
 04887887,0.00668388,-0.01318527,0.02770072,-0.00286928,-0.00157473,-0.
 01455518,-0.00640742,-0.01860147,-0.00480916,0.03442046,0.01200921,-0.
 00437239,-0.02216206,0.00760348,0.00917949,0.02424412,-0.01311061,-0.0
 0204122,0.00524731,-0.00712317,-0.00651388,0.00593373,-0.00686273,-0.0
 0060366,-0.01503324,0.03276045,0.00529466,0.00196454,0.00538246,0.0044
 0865,-0.02612338,-0.00857538,-0.01414278,0.02723351,0.01112921,-0.0042
 3967,-0.00223022,-0.00695874,0.00848865,-0.00054673,-0.01360909,0.0415
 7733,-0.00375409,0.01127572,-0.01400173,-0.00763571,0.00671841,-0.0020
 6431,-0.00543334,-0.00353844,-0.00100222,0.00597431,-0.00062371,-0.020
 47283,-0.00142931,-0.00382956,0.00542172,0.00784407,-0.01582866,0.0219
 1867,0.00139170,0.00328609,-0.01963447,-0.00057617,0.00088086,0.022690
 14,0.00143652,0.00298282,-0.01946779,0.00187683,-0.00051471,0.01718383
 ,0.00165784,-0.00308977,-0.00469725,-0.00533507,-0.01605148,0.02028901
 ,0.00071421,-0.00063718,-0.02167265,0.00049700,0.00421535,0.01753414,-
 0.00056676,0.00275458,-0.02420922,-0.00204228,-0.00102014,0.01995196,-
 0.00317840,-0.00171527,-0.01776471,-0.00058585,-0.00515982\\\@


 NEVER LISTEN TO CRITICISM
 OR YOU'LL BE DOIN' EVERYBODY ELSE'S THING BUT BUT YOUR OWN.

                                               -- ANDY CAPP
 Job cpu time:  1 days  6 hours 23 minutes 39.4 seconds.
 File lengths (MBytes):  RWF=   1769 Int=      0 D2E=      0 Chk=     28 Scr=      1
 Normal termination of Gaussian 09 at Sun Mar 27 03:21:19 2016.
Gaussian '09 finished on node030 at Sun Mar 27 03:21:19 EDT 2016.
