Gaussian '09 started on node025 at Wed Apr  1 15:03:43 EDT 2015.
 Entering Gaussian System, Link 0=/usr/local/gaussian/g09/g09
 Initial command:
 /usr/local/gaussian/g09/l1.exe /home/srmcgrat/gaussian/glucose/alpha/unopt/gaussian5707/Gau-5743.inp -scrdir=/home/srmcgrat/gaussian/glucose/alpha/unopt/gaussian5707/
 Entering Link 1 = /usr/local/gaussian/g09/l1.exe PID=      5745.
  
 Copyright (c) 1988,1990,1992,1993,1995,1998,2003,2009,2010,
            Gaussian, Inc.  All Rights Reserved.
  
 This is part of the Gaussian(R) 09 program.  It is based on
 the Gaussian(R) 03 system (copyright 2003, Gaussian, Inc.),
 the Gaussian(R) 98 system (copyright 1998, Gaussian, Inc.),
 the Gaussian(R) 94 system (copyright 1995, Gaussian, Inc.),
 the Gaussian 92(TM) system (copyright 1992, Gaussian, Inc.),
 the Gaussian 90(TM) system (copyright 1990, Gaussian, Inc.),
 the Gaussian 88(TM) system (copyright 1988, Gaussian, Inc.),
 the Gaussian 86(TM) system (copyright 1986, Carnegie Mellon
 University), and the Gaussian 82(TM) system (copyright 1983,
 Carnegie Mellon University). Gaussian is a federally registered
 trademark of Gaussian, Inc.
  
 This software contains proprietary and confidential information,
 including trade secrets, belonging to Gaussian, Inc.
  
 This software is provided under written license and may be
 used, copied, transmitted, or stored only in accord with that
 written license.
  
 The following legend is applicable only to US Government
 contracts under FAR:
  
                    RESTRICTED RIGHTS LEGEND
  
 Use, reproduction and disclosure by the US Government is
 subject to restrictions as set forth in subparagraphs (a)
 and (c) of the Commercial Computer Software - Restricted
 Rights clause in FAR 52.227-19.
  
 Gaussian, Inc.
 340 Quinnipiac St., Bldg. 40, Wallingford CT 06492
  
  
 ---------------------------------------------------------------
 Warning -- This program may not be used in any manner that
 competes with the business of Gaussian, Inc. or will provide
 assistance to any competitor of Gaussian, Inc.  The licensee
 of this program is prohibited from giving any competitor of
 Gaussian, Inc. access to this program.  By using this program,
 the user acknowledges that Gaussian, Inc. is engaged in the
 business of creating and licensing software in the field of
 computational chemistry and represents and warrants to the
 licensee that it is not a competitor of Gaussian, Inc. and that
 it will not use this program in any manner prohibited above.
 ---------------------------------------------------------------
  

 Cite this work as:
 Gaussian 09, Revision B.01,
 M. J. Frisch, G. W. Trucks, H. B. Schlegel, G. E. Scuseria, 
 M. A. Robb, J. R. Cheeseman, G. Scalmani, V. Barone, B. Mennucci, 
 G. A. Petersson, H. Nakatsuji, M. Caricato, X. Li, H. P. Hratchian, 
 A. F. Izmaylov, J. Bloino, G. Zheng, J. L. Sonnenberg, M. Hada, 
 M. Ehara, K. Toyota, R. Fukuda, J. Hasegawa, M. Ishida, T. Nakajima, 
 Y. Honda, O. Kitao, H. Nakai, T. Vreven, J. A. Montgomery, Jr., 
 J. E. Peralta, F. Ogliaro, M. Bearpark, J. J. Heyd, E. Brothers, 
 K. N. Kudin, V. N. Staroverov, T. Keith, R. Kobayashi, J. Normand, 
 K. Raghavachari, A. Rendell, J. C. Burant, S. S. Iyengar, J. Tomasi, 
 M. Cossi, N. Rega, J. M. Millam, M. Klene, J. E. Knox, J. B. Cross, 
 V. Bakken, C. Adamo, J. Jaramillo, R. Gomperts, R. E. Stratmann, 
 O. Yazyev, A. J. Austin, R. Cammi, C. Pomelli, J. W. Ochterski, 
 R. L. Martin, K. Morokuma, V. G. Zakrzewski, G. A. Voth, 
 P. Salvador, J. J. Dannenberg, S. Dapprich, A. D. Daniels, 
 O. Farkas, J. B. Foresman, J. V. Ortiz, J. Cioslowski, 
 and D. J. Fox, Gaussian, Inc., Wallingford CT, 2010.
 
 ******************************************
 Gaussian 09:  EM64L-G09RevB.01 12-Aug-2010
                 1-Apr-2015 
 ******************************************
 %chk=alpha-d-glucose-unopt.chk
 ----------------------------------------------------------------------
 # freq=raman b3lyp/6-31+g(2df,p) scrf=(smd,solvent=water) geom=connect
 ivity
 ----------------------------------------------------------------------
 1/10=4,30=1,38=1,57=2/1,3;
 2/12=2,17=6,18=5,40=1/2;
 3/5=1,6=6,7=114,11=2,16=1,25=1,30=1,70=32201,71=2,72=1,74=-5/1,2,3;
 4//1;
 5/5=2,38=5,53=1,98=1/2;
 8/6=4,10=90,11=11/1;
 10/13=10,15=4/2;
 11/6=3,8=1,9=11,15=111,16=1/1,2,10;
 10/6=1/2;
 6/7=2,8=2,9=2,10=2,18=1,28=1/1;
 7/8=1,10=1,25=1/1,2,3,16;
 1/10=4,30=1/3;
 99//99;
 ---------------------------------
 alpha-d-glucose raman unoptimized
 ---------------------------------
 Symbolic Z-matrix:
 Charge =  0 Multiplicity = 1
 O                    -0.7963   -1.0834   -0.5826 
 O                    -0.5345    2.3604    0.7061 
 O                     2.1022    1.8449   -0.3108 
 O                     2.8396   -0.9429   -0.0664 
 O                     0.5453   -2.035     1.1247 
 O                    -3.4321   -0.6821   -0.0417 
 C                    -0.2129    1.2445   -0.1209 
 C                     1.2275    0.8283    0.1841 
 C                    -1.1906    0.0901    0.1376 
 C                     1.561    -0.4949   -0.5021 
 C                     0.5008   -1.5606   -0.2198 
 C                    -2.61      0.4307   -0.3082 
 H                    -0.2879    1.5719   -1.166 
 H                     1.405     0.7692    1.2646 
 H                    -1.2277   -0.1509    1.2082 
 H                     1.6278   -0.3236   -1.5834 
 H                     0.7059   -2.4354   -0.8455 
 H                    -2.6545    0.635    -1.3832 
 H                    -3.0048    1.2962    0.2315 
 H                     0.0018    3.1142    0.4084 
 H                     1.9628    2.6422    0.2273 
 H                     2.7869   -1.1193    0.8883 
 H                     0.7708   -1.2937    1.7096 
 H                    -3.073    -1.441    -0.5325 
 

 GradGradGradGradGradGradGradGradGradGradGradGradGradGradGradGradGradGrad
 Berny optimization.
 Initialization pass.
 Trust Radius=3.00D-01 FncErr=1.00D-07 GrdErr=1.00D-07
 Number of steps in this run=      2 maximum allowed number of steps=      2.
 GradGradGradGradGradGradGradGradGradGradGradGradGradGradGradGradGradGrad

                          Input orientation:                          
 ---------------------------------------------------------------------
 Center     Atomic      Atomic             Coordinates (Angstroms)
 Number     Number       Type             X           Y           Z
 ---------------------------------------------------------------------
      1          8           0       -0.796300   -1.083400   -0.582600
      2          8           0       -0.534500    2.360400    0.706100
      3          8           0        2.102200    1.844900   -0.310800
      4          8           0        2.839600   -0.942900   -0.066400
      5          8           0        0.545300   -2.035000    1.124700
      6          8           0       -3.432100   -0.682100   -0.041700
      7          6           0       -0.212900    1.244500   -0.120900
      8          6           0        1.227500    0.828300    0.184100
      9          6           0       -1.190600    0.090100    0.137600
     10          6           0        1.561000   -0.494900   -0.502100
     11          6           0        0.500800   -1.560600   -0.219800
     12          6           0       -2.610000    0.430700   -0.308200
     13          1           0       -0.287900    1.571900   -1.166000
     14          1           0        1.405000    0.769200    1.264600
     15          1           0       -1.227700   -0.150900    1.208200
     16          1           0        1.627800   -0.323600   -1.583400
     17          1           0        0.705900   -2.435400   -0.845500
     18          1           0       -2.654500    0.635000   -1.383200
     19          1           0       -3.004800    1.296200    0.231500
     20          1           0        0.001800    3.114200    0.408400
     21          1           0        1.962800    2.642200    0.227300
     22          1           0        2.786900   -1.119300    0.888300
     23          1           0        0.770800   -1.293700    1.709600
     24          1           0       -3.073000   -1.441000   -0.532500
 ---------------------------------------------------------------------
                    Distance matrix (angstroms):
                    1          2          3          4          5
     1  O    0.000000
     2  O    3.686332   0.000000
     3  O    4.129179   2.872632   0.000000
     4  O    3.675047   4.784673   2.894014   0.000000
     5  O    2.370719   4.545408   4.420206   2.806281   0.000000
     6  O    2.720488   4.267563   6.089879   6.277169   4.360108
     7  C    2.443899   1.425689   2.399214   3.755722   3.589082
     8  C    2.887593   2.392584   1.429511   2.408063   3.090083
     9  C    1.432223   2.430622   3.758047   4.165479   2.916122
    10  C    2.430982   3.742139   2.409182   1.423150   2.459681
    11  C    1.428920   4.159733   3.764332   2.423854   1.426435
    12  C    2.378508   3.010024   4.919837   5.625245   4.253093
    13  H    2.765763   2.046290   2.553130   4.161081   4.353304
    14  H    3.419064   2.570117   2.031035   2.600178   2.936357
    15  H    2.064613   2.653160   4.168790   4.335297   2.588500
    16  H    2.730413   4.137778   2.558702   2.037960   3.381494
    17  H    2.038044   5.190930   4.533931   2.717946   2.016879
    18  H    2.654575   3.440433   5.023952   5.865907   4.863865
    19  H    3.347048   2.731327   5.164940   6.265726   4.949536
    20  H    4.386216   0.971832   2.557352   4.973792   5.227116
    21  H    4.706237   2.558353   0.971942   3.702429   4.968987
    22  H    3.873520   4.813856   3.270036   0.972289   2.432933
    23  H    2.784638   4.007901   3.963010   2.749031   0.970816
    24  H    2.305157   4.735901   6.134247   5.951823   4.023834
                    6          7          8          9         10
     6  O    0.000000
     7  C    3.752507   0.000000
     8  C    4.903485   1.530033   0.000000
     9  C    2.377554   1.534718   2.528697   0.000000
    10  C    5.017774   2.513473   1.527400   2.884917   0.000000
    11  C    4.033756   2.896159   2.529441   2.390268   1.529521
    12  C    1.408969   2.538393   3.889325   1.526251   4.276865
    13  H    4.028717   1.097748   2.161515   2.170247   2.851466
    14  H    5.216342   2.182458   1.096576   2.910059   2.177961
    15  H    2.589170   2.177950   2.834717   1.098017   3.289424
    16  H    5.301693   2.825955   2.147363   3.328118   1.096821
    17  H    4.565435   3.861464   3.461774   3.307771   2.148176
    18  H    2.034462   2.815369   4.190909   2.180081   4.452353
    19  H    2.042277   2.814527   4.258349   2.180554   4.959107
    20  H    5.138692   1.955002   2.603457   3.261952   4.035557
    21  H    6.342577   2.609306   1.957745   4.057732   3.245746
    22  H    6.303333   3.950296   2.592445   4.224536   1.955995
    23  H    4.594070   3.280374   2.653038   2.869351   2.480749
    24  H    0.972505   3.944806   4.915032   2.517286   4.729692
                   11         12         13         14         15
    11  C    0.000000
    12  C    3.694613   0.000000
    13  H    3.365991   2.725859   0.000000
    14  H    2.906714   4.325333   3.068885   0.000000
    15  H    2.648424   2.132717   3.080274   2.789422   0.000000
    16  H    2.158635   4.489326   2.727095   3.058587   3.997091
    17  H    1.094916   4.415701   4.141112   3.900093   3.629798
    18  H    4.016227   1.095146   2.554555   4.848546   3.060842
    19  H    4.544690   1.093725   3.067664   4.559754   2.491210
    20  H    4.743141   3.812635   2.222915   2.863752   3.579417
    21  H    4.472233   5.107641   2.855254   2.212524   4.352340
    22  H    2.578543   5.741136   4.573522   2.370165   4.142119
    23  H    1.966398   4.298242   4.195424   2.203586   2.356140
    24  H    3.589447   1.941118   4.151587   5.307263   2.845967
                   16         17         18         19         20
    16  H    0.000000
    17  H    2.419524   0.000000
    18  H    4.392845   4.583532   0.000000
    19  H    5.232456   5.371598   1.779649   0.000000
    20  H    4.292972   5.732895   4.051196   3.517963   0.000000
    21  H    3.490964   5.339730   5.286021   5.146726   2.025118
    22  H    2.843581   3.011435   6.151920   6.309502   5.090148
    23  H    3.538275   2.799326   5.001797   4.811187   4.659835
    24  H    4.944744   3.920062   2.282238   2.842642   5.575799
                   21         22         23         24
    21  H    0.000000
    22  H    3.907038   0.000000
    23  H    4.371428   2.183943   0.000000
    24  H    6.527565   6.038261   4.452360   0.000000
 Stoichiometry    C6H12O6
 Framework group  C1[X(C6H12O6)]
 Deg. of freedom    66
 Full point group                 C1      NOp   1
 Largest Abelian subgroup         C1      NOp   1
 Largest concise Abelian subgroup C1      NOp   1
                         Standard orientation:                         
 ---------------------------------------------------------------------
 Center     Atomic      Atomic             Coordinates (Angstroms)
 Number     Number       Type             X           Y           Z
 ---------------------------------------------------------------------
      1          8           0       -0.834698   -1.088170   -0.591460
      2          8           0       -0.480283    2.344026    0.706025
      3          8           0        2.123541    1.784121   -0.370365
      4          8           0        2.813560   -1.018097   -0.154107
      5          8           0        0.525569   -2.072715    1.082054
      6          8           0       -3.450113   -0.640219    0.008537
      7          6           0       -0.197759    1.226217   -0.132587
      8          6           0        1.240854    0.781731    0.139122
      9          6           0       -1.191131    0.089091    0.142213
     10          6           0        1.534438   -0.544226   -0.559877
     11          6           0        0.460784   -1.591238   -0.259101
     12          6           0       -2.613233    0.458261   -0.271045
     13          1           0       -0.289288    1.559881   -1.174384
     14          1           0        1.440652    0.714234    1.215228
     15          1           0       -1.209478   -0.156214    1.212321
     16          1           0        1.580930   -0.369113   -1.641630
     17          1           0        0.635762   -2.466762   -0.892885
     18          1           0       -2.677237    0.668419   -1.343929
     19          1           0       -2.979876    1.328439    0.280858
     20          1           0        0.063491    3.089062    0.399942
     21          1           0        2.010876    2.581344    0.174073
     22          1           0        2.778314   -1.197976    0.800748
     23          1           0        0.777618   -1.338523    1.665079
     24          1           0       -3.116089   -1.403379   -0.493241
 ---------------------------------------------------------------------
 Rotational constants (GHZ):      1.2662317      0.7694779      0.5338354
 Standard basis: 6-31+G(2df,p) (6D, 7F)
 There are   444 symmetry adapted basis functions of A   symmetry.
 Integral buffers will be    131072 words long.
 Raffenetti 2 integral format.
 Two-electron integral symmetry is turned on.
   444 basis functions,   660 primitive gaussians,   480 cartesian basis functions
    48 alpha electrons       48 beta electrons
       nuclear repulsion energy       832.0015628924 Hartrees.
 NAtoms=   24 NActive=   24 NUniq=   24 SFac= 1.00D+00 NAtFMM=   50 NAOKFM=F Big=F
 ------------------------------------------------------------------------------
 Polarizable Continuum Model (PCM)
 =================================
 Model                : PCM.
 Atomic radii         : SMD-Coulomb.
 Polarization charges : Total charges.
 Charge compensation  : None.
 Solution method      : Matrix inversion.
 Cavity type          : VdW (van der Waals Surface) (Alpha=1.000).
 Cavity algorithm     : GePol (No added spheres)
                        Default sphere list used, NSphG=   24.
                        Lebedev-Laikov grids with approx.  5.0 points / Ang**2.
                        Smoothing algorithm: Karplus/York (Gamma=1.0000).
                        Polarization charges: spherical gaussians, with
                                              point-specific exponents (IZeta= 3).
                        Self-potential: point-specific (ISelfS= 7).
                        Self-field    : sphere-specific E.n sum rule (ISelfD= 2).
 1st derivatives      : Analytical E(r).r(x)/FMM algorithm (CHGder, D1EAlg=3).
                        Cavity 1st derivative terms included.
 2nd derivatives      : Analytical E(r).r(xy)/FMM algorithm (CHGder, D2EAlg=3).
                        Cavity 2nd derivative terms included.
 Solvent              : Water, Eps=  78.355300 Eps(inf)=   1.777849
 ------------------------------------------------------------------------------
 ------------------------------------------------------------------------------
 Atomic radii for non-electrostatic terms: SMD-CDS.
 ------------------------------------------------------------------------------
 Nuclear repulsion after PCM non-electrostatic terms =      832.0071681199 Hartrees.
 One-electron integrals computed using PRISM.
 NBasis=   444 RedAO= T  NBF=   444
 NBsUse=   444 1.00D-06 NBFU=   444
 Harris functional with IExCor=  402 diagonalized for initial guess.
 ExpMin= 4.38D-02 ExpMax= 5.48D+03 ExpMxC= 8.25D+02 IAcc=2 IRadAn=         0 AccDes= 0.00D+00
 HarFok:  IExCor=  402 AccDes= 0.00D+00 IRadAn=         0 IDoV= 1
 ScaDFX=  1.000000  1.000000  1.000000  1.000000
 FoFCou: FMM=F IPFlag=           0 FMFlag=      100000 FMFlg1=           0
         NFxFlg=           0 DoJE=T BraDBF=F KetDBF=T FulRan=T
         Omega=  0.000000  0.000000  1.000000  0.000000  0.000000 ICntrl=     500 IOpCl=  0
         NMat0=    1 NMatS0=    1 NMatT0=    0 NMatD0=    1 NMtDS0=    0 NMtDT0=    0
         I1Cent=           4 NGrid=           0.
 Petite list used in FoFCou.
 Initial guess orbital symmetries:
       Occupied  (A) (A) (A) (A) (A) (A) (A) (A) (A) (A) (A) (A)
                 (A) (A) (A) (A) (A) (A) (A) (A) (A) (A) (A) (A)
                 (A) (A) (A) (A) (A) (A) (A) (A) (A) (A) (A) (A)
                 (A) (A) (A) (A) (A) (A) (A) (A) (A) (A) (A) (A)
       Virtual   (A) (A) (A) (A) (A) (A) (A) (A) (A) (A) (A) (A)
                 (A) (A) (A) (A) (A) (A) (A) (A) (A) (A) (A) (A)
                 (A) (A) (A) (A) (A) (A) (A) (A) (A) (A) (A) (A)
                 (A) (A) (A) (A) (A) (A) (A) (A) (A) (A) (A) (A)
                 (A) (A) (A) (A) (A) (A) (A) (A) (A) (A) (A) (A)
                 (A) (A) (A) (A) (A) (A) (A) (A) (A) (A) (A) (A)
                 (A) (A) (A) (A) (A) (A) (A) (A) (A) (A) (A) (A)
                 (A) (A) (A) (A) (A) (A) (A) (A) (A) (A) (A) (A)
                 (A) (A) (A) (A) (A) (A) (A) (A) (A) (A) (A) (A)
                 (A) (A) (A) (A) (A) (A) (A) (A) (A) (A) (A) (A)
                 (A) (A) (A) (A) (A) (A) (A) (A) (A) (A) (A) (A)
                 (A) (A) (A) (A) (A) (A) (A) (A) (A) (A) (A) (A)
                 (A) (A) (A) (A) (A) (A) (A) (A) (A) (A) (A) (A)
                 (A) (A) (A) (A) (A) (A) (A) (A) (A) (A) (A) (A)
                 (A) (A) (A) (A) (A) (A) (A) (A) (A) (A) (A) (A)
                 (A) (A) (A) (A) (A) (A) (A) (A) (A) (A) (A) (A)
                 (A) (A) (A) (A) (A) (A) (A) (A) (A) (A) (A) (A)
                 (A) (A) (A) (A) (A) (A) (A) (A) (A) (A) (A) (A)
                 (A) (A) (A) (A) (A) (A) (A) (A) (A) (A) (A) (A)
                 (A) (A) (A) (A) (A) (A) (A) (A) (A) (A) (A) (A)
                 (A) (A) (A) (A) (A) (A) (A) (A) (A) (A) (A) (A)
                 (A) (A) (A) (A) (A) (A) (A) (A) (A) (A) (A) (A)
                 (A) (A) (A) (A) (A) (A) (A) (A) (A) (A) (A) (A)
                 (A) (A) (A) (A) (A) (A) (A) (A) (A) (A) (A) (A)
                 (A) (A) (A) (A) (A) (A) (A) (A) (A) (A) (A) (A)
                 (A) (A) (A) (A) (A) (A) (A) (A) (A) (A) (A) (A)
                 (A) (A) (A) (A) (A) (A) (A) (A) (A) (A) (A) (A)
                 (A) (A) (A) (A) (A) (A) (A) (A) (A) (A) (A) (A)
                 (A) (A) (A) (A) (A) (A) (A) (A) (A) (A) (A) (A)
                 (A) (A) (A) (A) (A) (A) (A) (A) (A) (A) (A) (A)
                 (A) (A) (A) (A) (A) (A) (A) (A) (A) (A) (A) (A)
                 (A) (A) (A) (A) (A) (A) (A) (A) (A) (A) (A) (A)
                 (A) (A) (A) (A) (A) (A) (A) (A) (A) (A) (A) (A)
 The electronic state of the initial guess is 1-A.
 Requested convergence on RMS density matrix=1.00D-08 within 128 cycles.
 Requested convergence on MAX density matrix=1.00D-06.
 Requested convergence on             energy=1.00D-06.
 No special actions if energy rises.
 Error on total polarization charges =  0.06637
 SCF Done:  E(RB3LYP) =  -687.294756897     A.U. after   12 cycles
             Convg  =    0.3492D-08             -V/T =  2.0069
 SMD-CDS (non-electrostatic) energy       (kcal/mol) =       3.52
 (included in total energy above)
 Range of M.O.s used for correlation:     1   444
 NBasis=   444 NAE=    48 NBE=    48 NFC=     0 NFV=     0
 NROrb=    444 NOA=    48 NOB=    48 NVA=   396 NVB=   396

 **** Warning!!: The largest alpha MO coefficient is  0.65031944D+02

 NEqPCM:  Using equilibrium solvation (IEInf=0, Eps=  78.3553, EpsInf=   1.7778)
          Differentiating once with respect to electric field.
                with respect to dipole field.
          Electric field/nuclear overlap derivatives assumed to be zero.
          There are     3 degrees of freedom in the 1st order CPHF.  IDoFFX=0.
      3 vectors produced by pass  0 Test12= 6.34D-13 3.33D-08 XBig12= 5.75D+01 9.98D-01.
 AX will form     3 AO Fock derivatives at one time.
      3 vectors produced by pass  1 Test12= 6.34D-13 3.33D-08 XBig12= 7.32D+00 2.43D-01.
      3 vectors produced by pass  2 Test12= 6.34D-13 3.33D-08 XBig12= 2.81D+00 1.54D-01.
      3 vectors produced by pass  3 Test12= 6.34D-13 3.33D-08 XBig12= 2.00D-01 3.70D-02.
      3 vectors produced by pass  4 Test12= 6.34D-13 3.33D-08 XBig12= 4.96D-02 1.99D-02.
      3 vectors produced by pass  5 Test12= 6.34D-13 3.33D-08 XBig12= 5.12D-03 7.87D-03.
      3 vectors produced by pass  6 Test12= 6.34D-13 3.33D-08 XBig12= 1.73D-03 4.18D-03.
      3 vectors produced by pass  7 Test12= 6.34D-13 3.33D-08 XBig12= 1.81D-04 1.52D-03.
      3 vectors produced by pass  8 Test12= 6.34D-13 3.33D-08 XBig12= 3.70D-05 6.33D-04.
      3 vectors produced by pass  9 Test12= 6.34D-13 3.33D-08 XBig12= 2.85D-06 1.77D-04.
      3 vectors produced by pass 10 Test12= 6.34D-13 3.33D-08 XBig12= 1.44D-07 4.62D-05.
      3 vectors produced by pass 11 Test12= 6.34D-13 3.33D-08 XBig12= 2.43D-08 1.64D-05.
      3 vectors produced by pass 12 Test12= 6.34D-13 3.33D-08 XBig12= 8.12D-10 3.76D-06.
      3 vectors produced by pass 13 Test12= 6.34D-13 3.33D-08 XBig12= 2.14D-11 3.95D-07.
      1 vectors produced by pass 14 Test12= 6.34D-13 3.33D-08 XBig12= 8.28D-13 6.36D-08.
 Inverted reduced A of dimension    43 with in-core refinement.
 End of Minotr Frequency-dependent properties file   721 does not exist.
 End of Minotr Frequency-dependent properties file   722 does not exist.
 Symmetrizing basis deriv contribution to polar:
 IMax=3 JMax=2 DiffMx= 0.00D+00
 G2DrvN: will do    25 centers at a time, making    1 passes doing MaxLOS=3.
 Calling FoFCou, ICntrl=  3107 FMM=F I1Cent=   0 AccDes= 0.00D+00.
 FoFDir/FoFCou used for L=0 through L=3.
 G2PCM: DoFxE=T DoFxN=T DoGrad=T DoPD/DQ/DG=TFF NFrqRd=   0 IEInf=0 DoCFld=F IF1Alg=4.
 End of G2Drv Frequency-dependent properties file   721 does not exist.
 End of G2Drv Frequency-dependent properties file   722 does not exist.
          IDoAtm=111111111111111111111111
 NEqPCM:  Using equilibrium solvation (IEInf=0, Eps=  78.3553, EpsInf=   1.7778)
          Differentiating once with respect to electric field.
                with respect to dipole field.
          Differentiating once with respect to nuclear coordinates.
          There are    75 degrees of freedom in the 1st order CPHF.  IDoFFX=5.
 Will reuse    3 saved solutions.
     72 vectors produced by pass  0 Test12= 2.53D-14 1.33D-09 XBig12= 1.08D-01 4.43D-02.
 AX will form    36 AO Fock derivatives at one time.
     69 vectors produced by pass  1 Test12= 2.53D-14 1.33D-09 XBig12= 1.48D-02 1.52D-02.
     69 vectors produced by pass  2 Test12= 2.53D-14 1.33D-09 XBig12= 2.31D-04 1.95D-03.
     69 vectors produced by pass  3 Test12= 2.53D-14 1.33D-09 XBig12= 1.05D-06 7.69D-05.
     69 vectors produced by pass  4 Test12= 2.53D-14 1.33D-09 XBig12= 2.35D-09 3.78D-06.
     69 vectors produced by pass  5 Test12= 2.53D-14 1.33D-09 XBig12= 3.09D-12 1.44D-07.
     34 vectors produced by pass  6 Test12= 2.53D-14 1.33D-09 XBig12= 4.94D-14 1.99D-08.
 Inverted reduced A of dimension   451 with in-core refinement.
 Isotropic polarizability for W=    0.000000      134.89 Bohr**3.
 End of Minotr Frequency-dependent properties file   721 does not exist.
 End of Minotr Frequency-dependent properties file   722 does not exist.

 **********************************************************************

            Population analysis using the SCF density.

 **********************************************************************

 Orbital symmetries:
       Occupied  (A) (A) (A) (A) (A) (A) (A) (A) (A) (A) (A) (A)
                 (A) (A) (A) (A) (A) (A) (A) (A) (A) (A) (A) (A)
                 (A) (A) (A) (A) (A) (A) (A) (A) (A) (A) (A) (A)
                 (A) (A) (A) (A) (A) (A) (A) (A) (A) (A) (A) (A)
       Virtual   (A) (A) (A) (A) (A) (A) (A) (A) (A) (A) (A) (A)
                 (A) (A) (A) (A) (A) (A) (A) (A) (A) (A) (A) (A)
                 (A) (A) (A) (A) (A) (A) (A) (A) (A) (A) (A) (A)
                 (A) (A) (A) (A) (A) (A) (A) (A) (A) (A) (A) (A)
                 (A) (A) (A) (A) (A) (A) (A) (A) (A) (A) (A) (A)
                 (A) (A) (A) (A) (A) (A) (A) (A) (A) (A) (A) (A)
                 (A) (A) (A) (A) (A) (A) (A) (A) (A) (A) (A) (A)
                 (A) (A) (A) (A) (A) (A) (A) (A) (A) (A) (A) (A)
                 (A) (A) (A) (A) (A) (A) (A) (A) (A) (A) (A) (A)
                 (A) (A) (A) (A) (A) (A) (A) (A) (A) (A) (A) (A)
                 (A) (A) (A) (A) (A) (A) (A) (A) (A) (A) (A) (A)
                 (A) (A) (A) (A) (A) (A) (A) (A) (A) (A) (A) (A)
                 (A) (A) (A) (A) (A) (A) (A) (A) (A) (A) (A) (A)
                 (A) (A) (A) (A) (A) (A) (A) (A) (A) (A) (A) (A)
                 (A) (A) (A) (A) (A) (A) (A) (A) (A) (A) (A) (A)
                 (A) (A) (A) (A) (A) (A) (A) (A) (A) (A) (A) (A)
                 (A) (A) (A) (A) (A) (A) (A) (A) (A) (A) (A) (A)
                 (A) (A) (A) (A) (A) (A) (A) (A) (A) (A) (A) (A)
                 (A) (A) (A) (A) (A) (A) (A) (A) (A) (A) (A) (A)
                 (A) (A) (A) (A) (A) (A) (A) (A) (A) (A) (A) (A)
                 (A) (A) (A) (A) (A) (A) (A) (A) (A) (A) (A) (A)
                 (A) (A) (A) (A) (A) (A) (A) (A) (A) (A) (A) (A)
                 (A) (A) (A) (A) (A) (A) (A) (A) (A) (A) (A) (A)
                 (A) (A) (A) (A) (A) (A) (A) (A) (A) (A) (A) (A)
                 (A) (A) (A) (A) (A) (A) (A) (A) (A) (A) (A) (A)
                 (A) (A) (A) (A) (A) (A) (A) (A) (A) (A) (A) (A)
                 (A) (A) (A) (A) (A) (A) (A) (A) (A) (A) (A) (A)
                 (A) (A) (A) (A) (A) (A) (A) (A) (A) (A) (A) (A)
                 (A) (A) (A) (A) (A) (A) (A) (A) (A) (A) (A) (A)
                 (A) (A) (A) (A) (A) (A) (A) (A) (A) (A) (A) (A)
                 (A) (A) (A) (A) (A) (A) (A) (A) (A) (A) (A) (A)
                 (A) (A) (A) (A) (A) (A) (A) (A) (A) (A) (A) (A)
                 (A) (A) (A) (A) (A) (A) (A) (A) (A) (A) (A) (A)
 The electronic state is 1-A.
 Alpha  occ. eigenvalues --  -19.17386 -19.17240 -19.16190 -19.16177 -19.16073
 Alpha  occ. eigenvalues --  -19.15334 -10.29358 -10.24674 -10.24161 -10.24100
 Alpha  occ. eigenvalues --  -10.24071 -10.23002  -1.08679  -1.05131  -1.04360
 Alpha  occ. eigenvalues --   -1.03233  -1.02145  -1.01550  -0.78954  -0.77547
 Alpha  occ. eigenvalues --   -0.69322  -0.65625  -0.62563  -0.58660  -0.56123
 Alpha  occ. eigenvalues --   -0.54611  -0.52263  -0.52036  -0.49803  -0.49289
 Alpha  occ. eigenvalues --   -0.46556  -0.46231  -0.45829  -0.43156  -0.41833
 Alpha  occ. eigenvalues --   -0.40615  -0.38966  -0.37925  -0.36765  -0.35732
 Alpha  occ. eigenvalues --   -0.34726  -0.34167  -0.31997  -0.31319  -0.30865
 Alpha  occ. eigenvalues --   -0.28789  -0.27807  -0.27058
 Alpha virt. eigenvalues --    0.00346   0.00917   0.01590   0.02420   0.03853
 Alpha virt. eigenvalues --    0.04448   0.04892   0.05621   0.06430   0.07631
 Alpha virt. eigenvalues --    0.08135   0.08772   0.09501   0.10794   0.11053
 Alpha virt. eigenvalues --    0.11486   0.12021   0.13393   0.13520   0.13961
 Alpha virt. eigenvalues --    0.15276   0.15433   0.16219   0.16530   0.16987
 Alpha virt. eigenvalues --    0.17111   0.18473   0.18618   0.19327   0.19970
 Alpha virt. eigenvalues --    0.20047   0.21018   0.22193   0.22597   0.22828
 Alpha virt. eigenvalues --    0.23257   0.23755   0.24413   0.24808   0.25435
 Alpha virt. eigenvalues --    0.26191   0.26751   0.27155   0.27655   0.28159
 Alpha virt. eigenvalues --    0.28619   0.29146   0.29608   0.29870   0.30574
 Alpha virt. eigenvalues --    0.31037   0.31720   0.32108   0.32473   0.33007
 Alpha virt. eigenvalues --    0.34234   0.34346   0.34778   0.35298   0.35421
 Alpha virt. eigenvalues --    0.37119   0.37697   0.38024   0.39301   0.39927
 Alpha virt. eigenvalues --    0.40720   0.40947   0.41157   0.42551   0.43255
 Alpha virt. eigenvalues --    0.44189   0.48168   0.55435   0.57644   0.58471
 Alpha virt. eigenvalues --    0.59957   0.61311   0.63081   0.64440   0.66118
 Alpha virt. eigenvalues --    0.67198   0.69642   0.70526   0.70845   0.72880
 Alpha virt. eigenvalues --    0.73774   0.73868   0.75771   0.76458   0.79632
 Alpha virt. eigenvalues --    0.81902   0.84457   0.86151   0.87727   0.88797
 Alpha virt. eigenvalues --    0.89979   0.90681   0.90820   0.92133   0.92740
 Alpha virt. eigenvalues --    0.93284   0.94309   0.95733   0.96595   0.97169
 Alpha virt. eigenvalues --    0.97797   0.99170   1.00240   1.00744   1.01716
 Alpha virt. eigenvalues --    1.03259   1.04356   1.06063   1.06716   1.09380
 Alpha virt. eigenvalues --    1.10544   1.10931   1.12587   1.12996   1.14073
 Alpha virt. eigenvalues --    1.14767   1.16523   1.17331   1.17669   1.18905
 Alpha virt. eigenvalues --    1.19812   1.20294   1.20838   1.21656   1.22562
 Alpha virt. eigenvalues --    1.23055   1.24791   1.25667   1.26556   1.28102
 Alpha virt. eigenvalues --    1.29673   1.30017   1.31312   1.32394   1.34178
 Alpha virt. eigenvalues --    1.36319   1.36509   1.38324   1.39374   1.41723
 Alpha virt. eigenvalues --    1.41851   1.43718   1.45864   1.47269   1.47978
 Alpha virt. eigenvalues --    1.50137   1.51311   1.54108   1.54905   1.56572
 Alpha virt. eigenvalues --    1.58345   1.58992   1.61520   1.62388   1.64448
 Alpha virt. eigenvalues --    1.66399   1.66916   1.69850   1.70587   1.71624
 Alpha virt. eigenvalues --    1.75365   1.75693   1.78347   1.79512   1.80504
 Alpha virt. eigenvalues --    1.84003   1.86005   1.88092   1.90494   1.90997
 Alpha virt. eigenvalues --    1.92395   1.93164   1.96326   1.96840   1.98726
 Alpha virt. eigenvalues --    2.01614   2.04204   2.08827   2.10505   2.14433
 Alpha virt. eigenvalues --    2.16418   2.19613   2.22878   2.25796   2.26712
 Alpha virt. eigenvalues --    2.28451   2.31060   2.38430   2.41133   2.42169
 Alpha virt. eigenvalues --    2.43286   2.47983   2.51348   2.54038   2.55068
 Alpha virt. eigenvalues --    2.57337   2.59478   2.60207   2.60934   2.63546
 Alpha virt. eigenvalues --    2.64330   2.67794   2.72699   2.74506   2.77608
 Alpha virt. eigenvalues --    2.78320   2.80593   2.82965   2.85956   2.88039
 Alpha virt. eigenvalues --    2.89750   2.90778   2.91653   2.93670   2.95480
 Alpha virt. eigenvalues --    2.98260   2.99114   3.00938   3.03461   3.04090
 Alpha virt. eigenvalues --    3.06377   3.07384   3.08477   3.09429   3.11120
 Alpha virt. eigenvalues --    3.12152   3.12571   3.18172   3.19436   3.23808
 Alpha virt. eigenvalues --    3.25662   3.28954   3.29861   3.31196   3.34418
 Alpha virt. eigenvalues --    3.37196   3.40403   3.41351   3.43898   3.45390
 Alpha virt. eigenvalues --    3.46651   3.48655   3.51405   3.54199   3.56573
 Alpha virt. eigenvalues --    3.60206   3.63678   3.65890   3.67420   3.69397
 Alpha virt. eigenvalues --    3.73376   3.73815   3.76216   3.79169   3.85974
 Alpha virt. eigenvalues --    3.87617   3.91465   3.96712   3.97213   4.03278
 Alpha virt. eigenvalues --    4.08549   4.10032   4.12905   4.16189   4.19504
 Alpha virt. eigenvalues --    4.21558   4.25001   4.26473   4.27195   4.28300
 Alpha virt. eigenvalues --    4.30871   4.32040   4.32496   4.33386   4.35847
 Alpha virt. eigenvalues --    4.37830   4.39415   4.43406   4.43995   4.45208
 Alpha virt. eigenvalues --    4.46136   4.47955   4.48865   4.50363   4.50556
 Alpha virt. eigenvalues --    4.52946   4.56344   4.57049   4.57961   4.59250
 Alpha virt. eigenvalues --    4.60059   4.60962   4.64193   4.65008   4.65518
 Alpha virt. eigenvalues --    4.67853   4.68548   4.69873   4.70278   4.71100
 Alpha virt. eigenvalues --    4.72681   4.74391   4.74834   4.75686   4.77637
 Alpha virt. eigenvalues --    4.80384   4.80629   4.83449   4.84140   4.86033
 Alpha virt. eigenvalues --    4.87685   4.88722   4.90677   4.92206   4.94410
 Alpha virt. eigenvalues --    4.97010   4.98273   4.99975   5.05972   5.06488
 Alpha virt. eigenvalues --    5.10271   5.15458   5.16897   5.18420   5.22158
 Alpha virt. eigenvalues --    5.25124   5.27099   5.30409   5.32891   5.34560
 Alpha virt. eigenvalues --    5.35720   5.37411   5.38673   5.41083   5.41872
 Alpha virt. eigenvalues --    5.43631   5.44496   5.46532   5.47520   5.48403
 Alpha virt. eigenvalues --    5.49781   5.53171   5.55927   5.58421   5.59623
 Alpha virt. eigenvalues --    5.64359   5.64912   5.67507   5.73368   5.75298
 Alpha virt. eigenvalues --    5.76697   5.79089   5.88088   5.91432   5.93448
 Alpha virt. eigenvalues --    5.94365   5.96175   5.98794   5.99317   6.02276
 Alpha virt. eigenvalues --    6.04260   6.05168   6.06232   6.08332   6.09956
 Alpha virt. eigenvalues --    6.11267   6.13135   6.15032   6.20523   6.28269
 Alpha virt. eigenvalues --    6.44372   6.87761   7.04955   7.10006   7.19107
 Alpha virt. eigenvalues --    7.20737   7.30636   7.34287   7.60109  11.88090
 Alpha virt. eigenvalues --   12.13015  12.35308  12.72814  12.85955  13.16414
 Alpha virt. eigenvalues --   13.28974  13.47160  13.47639  13.59352  13.64833
 Alpha virt. eigenvalues --   13.91381
          Condensed to atoms (all electrons):
              1          2          3          4          5          6
     1  O    7.947605   0.003364  -0.002232   0.001737  -0.028883  -0.011898
     2  O    0.003364   8.168401  -0.017115   0.000434  -0.000391  -0.000606
     3  O   -0.002232  -0.017115   8.174694  -0.000126   0.000140   0.000023
     4  O    0.001737   0.000434  -0.000126   8.141947  -0.010884   0.000022
     5  O   -0.028883  -0.000391   0.000140  -0.010884   8.055312  -0.002054
     6  O   -0.011898  -0.000606   0.000023   0.000022  -0.002054   8.141611
     7  C   -0.040887   0.221622  -0.031702  -0.018151  -0.014893   0.014042
     8  C    0.005883  -0.003641   0.245373  -0.057250  -0.003487   0.000857
     9  C    0.208262  -0.066667  -0.002568   0.011861  -0.012673   0.018173
    10  C   -0.043795  -0.015809  -0.099879   0.235006  -0.044777  -0.001618
    11  C    0.196946   0.010604   0.023181  -0.045868   0.279830   0.004965
    12  C   -0.048811  -0.028336  -0.000728  -0.000309   0.025747   0.113369
    13  H    0.003844  -0.031550   0.003209   0.000357   0.000120   0.000437
    14  H    0.002390   0.002419  -0.025384  -0.000467  -0.005622  -0.000002
    15  H   -0.035643   0.000388   0.000185  -0.000181   0.007011   0.003563
    16  H   -0.000947   0.000296   0.001329  -0.042889   0.002976  -0.000019
    17  H   -0.044907  -0.000041  -0.000306   0.002418  -0.044475   0.000197
    18  H    0.002095  -0.000741   0.000006   0.000000  -0.000025  -0.035999
    19  H    0.001691   0.000982  -0.000045  -0.000005   0.000083  -0.040885
    20  H   -0.000421   0.277914   0.004433   0.000010  -0.000009  -0.000001
    21  H   -0.000013   0.004400   0.277966  -0.000788   0.000071   0.000002
    22  H   -0.000144  -0.000017  -0.000860   0.270152   0.010080   0.000000
    23  H   -0.006505  -0.000259  -0.000231  -0.006244   0.287734   0.000213
    24  H    0.010942  -0.000013   0.000000  -0.000005   0.000183   0.284566
              7          8          9         10         11         12
     1  O   -0.040887   0.005883   0.208262  -0.043795   0.196946  -0.048811
     2  O    0.221622  -0.003641  -0.066667  -0.015809   0.010604  -0.028336
     3  O   -0.031702   0.245373  -0.002568  -0.099879   0.023181  -0.000728
     4  O   -0.018151  -0.057250   0.011861   0.235006  -0.045868  -0.000309
     5  O   -0.014893  -0.003487  -0.012673  -0.044777   0.279830   0.025747
     6  O    0.014042   0.000857   0.018173  -0.001618   0.004965   0.113369
     7  C    6.001903  -0.078160  -0.274729  -0.131094   0.038600   0.033700
     8  C   -0.078160   5.346555   0.149990   0.247592   0.051074  -0.137218
     9  C   -0.274729   0.149990   6.553921   0.020416  -0.194609  -0.475406
    10  C   -0.131094   0.247592   0.020416   5.486106   0.002381   0.024909
    11  C    0.038600   0.051074  -0.194609   0.002381   5.449120  -0.092181
    12  C    0.033700  -0.137218  -0.475406   0.024909  -0.092181   5.979261
    13  H    0.387286  -0.032551  -0.050985  -0.006471   0.013729  -0.011399
    14  H   -0.060653   0.405901   0.001266  -0.066957   0.024733  -0.001743
    15  H    0.065523  -0.052870   0.235487   0.009088  -0.010511   0.049178
    16  H   -0.005215  -0.041961   0.005570   0.392159  -0.020964   0.001307
    17  H    0.001919  -0.005550   0.017885  -0.009643   0.371253   0.004520
    18  H    0.034461  -0.012866  -0.157025   0.000765   0.001481   0.485404
    19  H   -0.009302  -0.002490  -0.074154   0.002224  -0.003863   0.463392
    20  H   -0.022652  -0.017968   0.026437  -0.003372  -0.001501   0.002097
    21  H   -0.059747   0.011825   0.009429   0.025686  -0.003647  -0.001213
    22  H    0.003553  -0.031278  -0.004388   0.044663  -0.027903  -0.000354
    23  H   -0.019971   0.018266   0.002703   0.007985  -0.015038   0.000574
    24  H    0.003938  -0.000885  -0.055231   0.003080  -0.004333   0.021021
             13         14         15         16         17         18
     1  O    0.003844   0.002390  -0.035643  -0.000947  -0.044907   0.002095
     2  O   -0.031550   0.002419   0.000388   0.000296  -0.000041  -0.000741
     3  O    0.003209  -0.025384   0.000185   0.001329  -0.000306   0.000006
     4  O    0.000357  -0.000467  -0.000181  -0.042889   0.002418   0.000000
     5  O    0.000120  -0.005622   0.007011   0.002976  -0.044475  -0.000025
     6  O    0.000437  -0.000002   0.003563  -0.000019   0.000197  -0.035999
     7  C    0.387286  -0.060653   0.065523  -0.005215   0.001919   0.034461
     8  C   -0.032551   0.405901  -0.052870  -0.041961  -0.005550  -0.012866
     9  C   -0.050985   0.001266   0.235487   0.005570   0.017885  -0.157025
    10  C   -0.006471  -0.066957   0.009088   0.392159  -0.009643   0.000765
    11  C    0.013729   0.024733  -0.010511  -0.020964   0.371253   0.001481
    12  C   -0.011399  -0.001743   0.049178   0.001307   0.004520   0.485404
    13  H    0.551877   0.003874   0.004277   0.000823  -0.000038   0.002386
    14  H    0.003874   0.544161   0.000956   0.004127  -0.000151  -0.000002
    15  H    0.004277   0.000956   0.561149  -0.000083  -0.000005   0.004213
    16  H    0.000823   0.004127  -0.000083   0.516613  -0.003955  -0.000006
    17  H   -0.000038  -0.000151  -0.000005  -0.003955   0.540223   0.000001
    18  H    0.002386  -0.000002   0.004213  -0.000006   0.000001   0.548683
    19  H   -0.000021  -0.000009  -0.002292  -0.000001   0.000003  -0.036186
    20  H   -0.005852  -0.000126  -0.000229  -0.000001   0.000000  -0.000040
    21  H   -0.000019  -0.005916  -0.000003  -0.000080   0.000004   0.000000
    22  H   -0.000007   0.002028  -0.000006   0.004933  -0.000234   0.000000
    23  H    0.000007   0.002334  -0.001300   0.000060   0.004649  -0.000001
    24  H    0.000007   0.000000   0.000021  -0.000001   0.000010  -0.004992
             19         20         21         22         23         24
     1  O    0.001691  -0.000421  -0.000013  -0.000144  -0.006505   0.010942
     2  O    0.000982   0.277914   0.004400  -0.000017  -0.000259  -0.000013
     3  O   -0.000045   0.004433   0.277966  -0.000860  -0.000231   0.000000
     4  O   -0.000005   0.000010  -0.000788   0.270152  -0.006244  -0.000005
     5  O    0.000083  -0.000009   0.000071   0.010080   0.287734   0.000183
     6  O   -0.040885  -0.000001   0.000002   0.000000   0.000213   0.284566
     7  C   -0.009302  -0.022652  -0.059747   0.003553  -0.019971   0.003938
     8  C   -0.002490  -0.017968   0.011825  -0.031278   0.018266  -0.000885
     9  C   -0.074154   0.026437   0.009429  -0.004388   0.002703  -0.055231
    10  C    0.002224  -0.003372   0.025686   0.044663   0.007985   0.003080
    11  C   -0.003863  -0.001501  -0.003647  -0.027903  -0.015038  -0.004333
    12  C    0.463392   0.002097  -0.001213  -0.000354   0.000574   0.021021
    13  H   -0.000021  -0.005852  -0.000019  -0.000007   0.000007   0.000007
    14  H   -0.000009  -0.000126  -0.005916   0.002028   0.002334   0.000000
    15  H   -0.002292  -0.000229  -0.000003  -0.000006  -0.001300   0.000021
    16  H   -0.000001  -0.000001  -0.000080   0.004933   0.000060  -0.000001
    17  H    0.000003   0.000000   0.000004  -0.000234   0.004649   0.000010
    18  H   -0.036186  -0.000040   0.000000   0.000000  -0.000001  -0.004992
    19  H    0.506930   0.000049   0.000000   0.000000   0.000000   0.005064
    20  H    0.000049   0.350513   0.003825  -0.000001   0.000002   0.000001
    21  H    0.000000   0.003825   0.353470  -0.000017   0.000011   0.000000
    22  H    0.000000  -0.000001  -0.000017   0.350029   0.000386   0.000000
    23  H    0.000000   0.000002   0.000011   0.000386   0.335367  -0.000004
    24  H    0.005064   0.000001   0.000000   0.000000  -0.000004   0.351970
 Mulliken atomic charges:
              1
     1  O   -0.119674
     2  O   -0.525638
     3  O   -0.549366
     4  O   -0.480776
     5  O   -0.501113
     6  O   -0.488958
     7  C   -0.039389
     8  C   -0.005139
     9  C    0.107035
    10  C   -0.078645
    11  C   -0.047478
    12  C   -0.406779
    13  H    0.166659
    14  H    0.172843
    15  H    0.162085
    16  H    0.185932
    17  H    0.166223
    18  H    0.168387
    19  H    0.188833
    20  H    0.386893
    21  H    0.384754
    22  H    0.379386
    23  H    0.389263
    24  H    0.384663
 Sum of Mulliken atomic charges =   0.00000
 Mulliken charges with hydrogens summed into heavy atoms:
              1
     1  O   -0.119674
     2  O   -0.138745
     3  O   -0.164612
     4  O   -0.101390
     5  O   -0.111850
     6  O   -0.104296
     7  C    0.127270
     8  C    0.167704
     9  C    0.269120
    10  C    0.107287
    11  C    0.118744
    12  C   -0.049558
 Sum of Mulliken charges with hydrogens summed into heavy atoms =   0.00000
 APT atomic charges:
              1
     1  O   -1.097203
     2  O   -0.888801
     3  O   -0.896767
     4  O   -0.878114
     5  O   -0.902871
     6  O   -0.891908
     7  C    0.566079
     8  C    0.518093
     9  C    0.542014
    10  C    0.534780
    11  C    1.177902
    12  C    0.640726
    13  H   -0.062002
    14  H   -0.063257
    15  H   -0.055814
    16  H   -0.003568
    17  H   -0.036174
    18  H   -0.071399
    19  H   -0.001527
    20  H    0.364651
    21  H    0.359043
    22  H    0.375811
    23  H    0.381902
    24  H    0.388403
 Sum of APT charges=   0.00000
 APT Atomic charges with hydrogens summed into heavy atoms:
              1
     1  O   -1.097203
     2  O   -0.524149
     3  O   -0.537723
     4  O   -0.502303
     5  O   -0.520968
     6  O   -0.503505
     7  C    0.504077
     8  C    0.454835
     9  C    0.486200
    10  C    0.531212
    11  C    1.141728
    12  C    0.567800
    13  H    0.000000
    14  H    0.000000
    15  H    0.000000
    16  H    0.000000
    17  H    0.000000
    18  H    0.000000
    19  H    0.000000
    20  H    0.000000
    21  H    0.000000
    22  H    0.000000
    23  H    0.000000
    24  H    0.000000
 Sum of APT charges=   0.00000
 Electronic spatial extent (au):  <R**2>=           2122.2302
 Charge=              0.0000 electrons
 Dipole moment (field-independent basis, Debye):
    X=              1.6775    Y=              3.5969    Z=              0.7795  Tot=              4.0447
 Quadrupole moment (field-independent basis, Debye-Ang):
   XX=            -95.8175   YY=            -67.8417   ZZ=            -68.5803
   XY=              1.4484   XZ=             12.6557   YZ=              2.4121
 Traceless Quadrupole moment (field-independent basis, Debye-Ang):
   XX=            -18.4043   YY=              9.5714   ZZ=              8.8329
   XY=              1.4484   XZ=             12.6557   YZ=              2.4121
 Octapole moment (field-independent basis, Debye-Ang**2):
  XXX=             14.2614  YYY=             48.8560  ZZZ=              6.1006  XYY=              7.6284
  XXY=              8.8855  XXZ=             12.5194  XZZ=              9.4265  YZZ=             -5.8899
  YYZ=             -9.3811  XYZ=              1.8433
 Hexadecapole moment (field-independent basis, Debye-Ang**3):
 XXXX=          -1916.2508 YYYY=           -751.6296 ZZZZ=           -197.7970 XXXY=            -19.1945
 XXXZ=            105.5167 YYYX=             90.1919 YYYZ=             42.6328 ZZZX=             16.6566
 ZZZY=             -8.3340 XXYY=           -385.6917 XXZZ=           -269.2706 YYZZ=           -197.7418
 XXYZ=             11.2575 YYXZ=             33.1099 ZZXY=             -6.9129
 N-N= 8.320071681199D+02 E-N=-3.275123961796D+03  KE= 6.826036252696D+02
  Exact polarizability: 137.921  -1.783 138.291   0.702  -0.735 128.453
 Approx polarizability: 129.868  -1.009 134.154   0.352   0.503 129.656
 D2PCM: PCM CHGder 2nd derivatives, FixD1E=F FixD2E=F DoIter=F DoCFld=F I1PDM=0
 Calling FoFJK, ICntrl=    100127 FMM=F ISym2X=0 I1Cent= 0 IOpClX= 0 NMat=1 NMatS=1 NMatT=0.
 Full mass-weighted force constant matrix:
 Low frequencies ---  -55.4057  -43.2938  -34.8836    0.0005    0.0011    0.0011
 Low frequencies ---   38.5837   39.6595  101.1309
 ******    1 imaginary frequencies (negative Signs) ****** 
 Harmonic frequencies (cm**-1), IR intensities (KM/Mole), Raman scattering
 activities (A**4/AMU), depolarization ratios for plane and unpolarized
 incident light, reduced masses (AMU), force constants (mDyne/A),
 and normal coordinates:
                     1                      2                      3
                     A                      A                      A
 Frequencies --   -33.3851                36.2459                99.0728
 Red. masses --     5.7832                 4.7988                 3.9322
 Frc consts  --     0.0038                 0.0037                 0.0227
 IR Inten    --     3.5227                 6.6010                 7.7194
 Raman Activ --     0.0796                 0.0355                 0.1425
 Depolar (P) --     0.4860                 0.4932                 0.6589
 Depolar (U) --     0.6541                 0.6606                 0.7944
  Atom  AN      X      Y      Z        X      Y      Z        X      Y      Z
     1   8     0.01   0.06  -0.08     0.00  -0.02  -0.08     0.05  -0.04  -0.10
     2   8    -0.03   0.09  -0.14    -0.04   0.03  -0.18    -0.02  -0.14   0.19
     3   8     0.01   0.03  -0.06     0.06  -0.02   0.31    -0.03   0.02  -0.11
     4   8    -0.02   0.03   0.27     0.01  -0.01  -0.09     0.03   0.03   0.10
     5   8    -0.08  -0.29  -0.20     0.00   0.10  -0.01    -0.02   0.05   0.01
     6   8     0.05  -0.02   0.19    -0.01   0.02   0.25    -0.09   0.15   0.17
     7   6     0.00   0.04  -0.07     0.01  -0.02  -0.09    -0.01  -0.01   0.01
     8   6    -0.01   0.07  -0.01    -0.02  -0.05   0.07     0.01   0.01  -0.05
     9   6     0.03   0.03  -0.02     0.00  -0.01  -0.11     0.00  -0.05  -0.11
    10   6     0.04   0.02   0.10     0.01   0.01  -0.04     0.05  -0.01   0.00
    11   6     0.00  -0.01  -0.10     0.01   0.01  -0.05     0.04  -0.01  -0.01
    12   6    -0.01   0.00   0.10    -0.02  -0.04  -0.05     0.03  -0.02  -0.17
    13   1     0.00  -0.02  -0.09     0.11  -0.07  -0.12    -0.02   0.13   0.06
    14   1    -0.05   0.18   0.00    -0.17  -0.19   0.09     0.05   0.04  -0.06
    15   1     0.13   0.00  -0.02     0.00   0.02  -0.10    -0.08  -0.06  -0.11
    16   1     0.19   0.00   0.10    -0.01   0.08  -0.03     0.11  -0.05   0.00
    17   1     0.01   0.11  -0.26     0.03  -0.02   0.00     0.08  -0.03   0.03
    18   1    -0.11  -0.02   0.10    -0.13  -0.25  -0.09     0.02  -0.32  -0.23
    19   1     0.02   0.00   0.12     0.05   0.07  -0.18     0.14   0.17  -0.40
    20   1     0.01   0.06  -0.13    -0.09   0.03  -0.24     0.00  -0.10   0.33
    21   1     0.04   0.05  -0.09     0.11  -0.12   0.47    -0.13   0.07  -0.20
    22   1    -0.10   0.17   0.30     0.02  -0.08  -0.10    -0.02   0.11   0.11
    23   1     0.11  -0.49  -0.04    -0.08   0.19  -0.08    -0.05   0.08  -0.02
    24   1     0.04  -0.02   0.19    -0.12  -0.06   0.29    -0.31   0.02   0.22
                     4                      5                      6
                     A                      A                      A
 Frequencies --   120.3948               201.1042               243.9760
 Red. masses --     6.0861                 3.0736                 3.4562
 Frc consts  --     0.0520                 0.0732                 0.1212
 IR Inten    --     2.3288                 0.7271                28.9376
 Raman Activ --     0.1185                 0.3373                 0.6966
 Depolar (P) --     0.0881                 0.1815                 0.7461
 Depolar (U) --     0.1620                 0.3072                 0.8546
  Atom  AN      X      Y      Z        X      Y      Z        X      Y      Z
     1   8    -0.01  -0.12   0.18     0.02  -0.02  -0.11    -0.04   0.00   0.05
     2   8    -0.08   0.01  -0.12    -0.03  -0.06  -0.08     0.23   0.03   0.06
     3   8    -0.06   0.04   0.05    -0.06   0.02   0.00     0.00  -0.09   0.06
     4   8     0.05   0.08  -0.08     0.05   0.00   0.09     0.00   0.13   0.11
     5   8     0.22  -0.23  -0.04    -0.01   0.14  -0.01     0.11   0.02  -0.04
     6   8    -0.19   0.27  -0.06    -0.10   0.08  -0.04    -0.07  -0.04  -0.02
     7   6    -0.02  -0.06   0.01     0.00  -0.11   0.00    -0.04   0.02  -0.04
     8   6    -0.02   0.01   0.06     0.01  -0.04  -0.01    -0.08  -0.08  -0.10
     9   6    -0.01  -0.06   0.08     0.03  -0.11   0.04    -0.06   0.03   0.01
    10   6     0.00   0.03   0.02     0.07  -0.02  -0.02    -0.01  -0.04  -0.08
    11   6     0.06  -0.05   0.03     0.04   0.00  -0.05    -0.01  -0.02  -0.04
    12   6     0.06   0.07  -0.07     0.02   0.06   0.21    -0.08  -0.03  -0.02
    13   1    -0.01  -0.17  -0.02    -0.03  -0.18  -0.02    -0.13   0.09  -0.01
    14   1    -0.02   0.02   0.05     0.03  -0.06  -0.02    -0.16  -0.16  -0.09
    15   1    -0.06   0.02   0.10     0.10  -0.22   0.01    -0.05   0.07   0.02
    16   1    -0.08   0.06   0.03     0.15  -0.02  -0.02     0.09  -0.10  -0.09
    17   1     0.06   0.02  -0.08     0.06  -0.04   0.01    -0.10  -0.04  -0.04
    18   1     0.23  -0.04  -0.10    -0.03   0.36   0.28    -0.06  -0.05  -0.03
    19   1     0.15   0.19  -0.21     0.13  -0.05   0.46    -0.11  -0.02  -0.05
    20   1    -0.10   0.00  -0.19    -0.08  -0.06  -0.15     0.04   0.06  -0.21
    21   1    -0.04   0.02   0.09    -0.05  -0.02   0.06     0.08  -0.17   0.20
    22   1     0.11   0.00  -0.09     0.04   0.20   0.13     0.04   0.67   0.22
    23   1     0.25  -0.32   0.05     0.02   0.20  -0.11     0.18   0.06  -0.11
    24   1    -0.37   0.19  -0.05    -0.20   0.16  -0.23    -0.07  -0.03  -0.03
                     7                      8                      9
                     A                      A                      A
 Frequencies --   260.7028               277.3975               307.2029
 Red. masses --     2.9302                 4.1854                 3.1241
 Frc consts  --     0.1173                 0.1898                 0.1737
 IR Inten    --    83.8709                12.3060                33.0125
 Raman Activ --     0.4314                 0.2989                 1.9910
 Depolar (P) --     0.7495                 0.3516                 0.3367
 Depolar (U) --     0.8568                 0.5203                 0.5037
  Atom  AN      X      Y      Z        X      Y      Z        X      Y      Z
     1   8     0.01  -0.01  -0.03     0.07   0.05  -0.08    -0.06  -0.06   0.06
     2   8    -0.12  -0.04   0.00     0.19   0.08  -0.02     0.01  -0.11   0.02
     3   8     0.12  -0.15   0.01    -0.14   0.09  -0.02    -0.10   0.16   0.07
     4   8     0.04   0.19  -0.08     0.11   0.04  -0.13    -0.06  -0.06   0.00
     5   8    -0.11  -0.04   0.06    -0.24  -0.06   0.05    -0.04  -0.02   0.02
     6   8     0.03   0.02  -0.01    -0.06  -0.01   0.01     0.17   0.05  -0.01
     7   6     0.00   0.03  -0.04     0.01  -0.05   0.10     0.02  -0.03  -0.08
     8   6    -0.03   0.00   0.00     0.02  -0.02   0.07    -0.01   0.00  -0.09
     9   6     0.03   0.00  -0.04    -0.02  -0.04   0.04     0.06   0.02  -0.03
    10   6    -0.05  -0.01   0.02     0.03  -0.02   0.06    -0.02  -0.03  -0.06
    11   6    -0.01  -0.05   0.05     0.01  -0.02   0.05    -0.05  -0.04   0.02
    12   6     0.03   0.04   0.04     0.00  -0.07  -0.05     0.10   0.09  -0.01
    13   1     0.01   0.06  -0.03     0.03  -0.12   0.07    -0.02   0.04  -0.06
    14   1    -0.08   0.01   0.02     0.10   0.02   0.06    -0.06  -0.06  -0.09
    15   1     0.09   0.00  -0.04    -0.06  -0.16   0.01     0.08   0.09  -0.01
    16   1    -0.15  -0.02   0.01    -0.09   0.00   0.06    -0.01  -0.13  -0.07
    17   1     0.00  -0.05   0.05     0.03  -0.01   0.04    -0.06  -0.04   0.02
    18   1    -0.02   0.13   0.06     0.07  -0.18  -0.07     0.10   0.10  -0.01
    19   1     0.06   0.00   0.12    -0.01   0.00  -0.16     0.10   0.07   0.01
    20   1     0.12  -0.09   0.31    -0.14   0.13  -0.49    -0.26   0.03  -0.12
    21   1     0.09  -0.05  -0.14    -0.11   0.02   0.08    -0.23   0.06   0.20
    22   1     0.30   0.64   0.01     0.35   0.26  -0.08     0.08   0.53   0.12
    23   1     0.32  -0.15   0.01     0.26  -0.23   0.05     0.16  -0.07  -0.01
    24   1     0.06   0.04  -0.02    -0.12  -0.05   0.02     0.42  -0.01   0.24
                    10                     11                     12
                     A                      A                      A
 Frequencies --   338.0447               344.9118               357.0225
 Red. masses --     1.9730                 1.9458                 1.3735
 Frc consts  --     0.1328                 0.1364                 0.1031
 IR Inten    --   149.6898                97.9399               384.3207
 Raman Activ --     0.4067                 4.0024                 2.2747
 Depolar (P) --     0.4998                 0.2557                 0.2364
 Depolar (U) --     0.6665                 0.4072                 0.3824
  Atom  AN      X      Y      Z        X      Y      Z        X      Y      Z
     1   8     0.02  -0.04  -0.02    -0.01  -0.02   0.03    -0.01  -0.01   0.00
     2   8     0.08  -0.04   0.03     0.00  -0.03   0.00     0.00   0.01  -0.03
     3   8    -0.02   0.04   0.03     0.06   0.13   0.00    -0.06   0.00  -0.05
     4   8     0.03   0.13   0.00     0.01  -0.09  -0.02    -0.02   0.06   0.02
     5   8    -0.04  -0.07   0.06    -0.02  -0.03   0.03    -0.02   0.02  -0.02
     6   8     0.01   0.01   0.01    -0.08  -0.04   0.00     0.03   0.02  -0.01
     7   6    -0.01   0.02  -0.09     0.01   0.02  -0.06     0.00  -0.03   0.04
     8   6    -0.04   0.01  -0.08     0.06   0.07  -0.06    -0.02  -0.01   0.01
     9   6     0.02   0.00  -0.07    -0.02   0.01  -0.04     0.01  -0.03   0.05
    10   6    -0.01  -0.01  -0.01     0.04   0.01   0.01    -0.02   0.00  -0.01
    11   6     0.01  -0.04   0.06     0.00   0.02   0.04    -0.01  -0.01  -0.02
    12   6    -0.01   0.03   0.05    -0.08  -0.03   0.02     0.06  -0.01  -0.02
    13   1    -0.05   0.10  -0.06     0.00   0.07  -0.05    -0.01  -0.09   0.02
    14   1    -0.12  -0.01  -0.07     0.03   0.10  -0.05     0.05  -0.02  -0.01
    15   1     0.06   0.05  -0.06     0.03   0.06  -0.03    -0.02  -0.06   0.04
    16   1    -0.05  -0.09  -0.02     0.02  -0.05  -0.01    -0.01   0.02  -0.01
    17   1     0.04  -0.06   0.09     0.02   0.04   0.03    -0.01  -0.02  -0.01
    18   1    -0.11   0.16   0.08    -0.14   0.01   0.03     0.14  -0.07  -0.04
    19   1     0.05  -0.03   0.18    -0.07  -0.06   0.06     0.04   0.03  -0.09
    20   1    -0.02   0.01  -0.03     0.30  -0.13   0.30     0.36  -0.15   0.20
    21   1     0.00  -0.03   0.13     0.45  -0.10   0.40     0.57  -0.27   0.46
    22   1    -0.23  -0.69  -0.16     0.13   0.24   0.05    -0.09  -0.09  -0.01
    23   1    -0.38  -0.03   0.16     0.19  -0.13   0.06    -0.12   0.06  -0.02
    24   1    -0.09   0.07  -0.16    -0.30   0.04  -0.27     0.19  -0.06   0.21
                    13                     14                     15
                     A                      A                      A
 Frequencies --   390.0049               404.5854               426.1675
 Red. masses --     3.6154                 1.9333                 3.3190
 Frc consts  --     0.3240                 0.1865                 0.3552
 IR Inten    --   108.8967                86.3136                49.7774
 Raman Activ --     5.0180                 6.3471                 2.2390
 Depolar (P) --     0.5343                 0.5280                 0.5780
 Depolar (U) --     0.6965                 0.6911                 0.7326
  Atom  AN      X      Y      Z        X      Y      Z        X      Y      Z
     1   8    -0.06  -0.14   0.05     0.06   0.03  -0.04     0.13   0.00  -0.12
     2   8     0.07   0.02   0.00    -0.03   0.07   0.02    -0.01   0.13   0.06
     3   8     0.15   0.05   0.02    -0.10  -0.04  -0.01     0.05   0.01   0.02
     4   8    -0.15   0.07   0.02    -0.06  -0.04  -0.01    -0.11  -0.09  -0.02
     5   8    -0.11   0.04  -0.04     0.06  -0.01   0.03     0.05  -0.03   0.07
     6   8     0.00  -0.02   0.00     0.11   0.00   0.05    -0.12   0.04  -0.06
     7   6     0.05  -0.02   0.03    -0.03   0.05   0.02    -0.07   0.12  -0.01
     8   6     0.05   0.09  -0.02    -0.07  -0.03   0.01    -0.07   0.06  -0.07
     9   6     0.08  -0.13   0.08     0.04   0.01  -0.02     0.07  -0.07  -0.01
    10   6    -0.09   0.10  -0.04    -0.05  -0.04   0.00    -0.06  -0.02  -0.02
    11   6    -0.05   0.02  -0.05     0.01  -0.04   0.01     0.06  -0.06   0.04
    12   6     0.13  -0.12   0.00     0.07   0.00  -0.02     0.07  -0.08   0.06
    13   1    -0.05  -0.06   0.02    -0.01   0.06   0.03    -0.19   0.17   0.02
    14   1     0.06   0.05  -0.02    -0.05  -0.03   0.01    -0.13   0.05  -0.06
    15   1     0.09  -0.12   0.08     0.03  -0.01  -0.03     0.17  -0.16  -0.03
    16   1    -0.09   0.10  -0.04    -0.06  -0.03   0.00    -0.09  -0.08  -0.03
    17   1     0.09   0.04  -0.04     0.00  -0.06   0.04     0.12  -0.08   0.09
    18   1     0.27  -0.23  -0.03     0.02  -0.01  -0.01     0.13   0.00   0.07
    19   1     0.13  -0.04  -0.13     0.08   0.01  -0.02     0.14  -0.06   0.09
    20   1    -0.07   0.05  -0.18    -0.01   0.05   0.00    -0.12   0.15  -0.09
    21   1    -0.08   0.16  -0.18     0.08  -0.11   0.13     0.08  -0.03   0.09
    22   1    -0.23   0.09   0.02     0.00   0.14   0.03    -0.07   0.09   0.01
    23   1    -0.22   0.07  -0.03     0.05   0.02   0.00     0.02  -0.03   0.07
    24   1    -0.43   0.06  -0.39    -0.51   0.24  -0.72     0.32  -0.20   0.60
                    16                     17                     18
                     A                      A                      A
 Frequencies --   440.5819               505.2539               538.3491
 Red. masses --     3.9768                 1.4693                 2.3000
 Frc consts  --     0.4548                 0.2210                 0.3927
 IR Inten    --    31.3773                22.1475                14.2653
 Raman Activ --     1.3079                 3.1829                 8.8551
 Depolar (P) --     0.4865                 0.0827                 0.1048
 Depolar (U) --     0.6545                 0.1528                 0.1898
  Atom  AN      X      Y      Z        X      Y      Z        X      Y      Z
     1   8     0.06   0.15   0.12     0.03   0.04   0.01    -0.03  -0.05  -0.03
     2   8    -0.14   0.01   0.01     0.07  -0.02  -0.05    -0.04   0.14  -0.02
     3   8     0.05   0.00   0.05    -0.07   0.00   0.05     0.00   0.09   0.03
     4   8     0.13  -0.01   0.02    -0.03  -0.02  -0.01     0.03   0.04   0.01
     5   8    -0.12   0.01  -0.03    -0.01   0.01   0.00     0.02  -0.04   0.02
     6   8    -0.03   0.00  -0.01    -0.02   0.00  -0.01    -0.01  -0.01   0.01
     7   6    -0.07   0.04  -0.02    -0.02   0.00  -0.07     0.07   0.03   0.10
     8   6    -0.02  -0.05  -0.18    -0.06   0.00   0.01     0.08  -0.05   0.00
     9   6     0.04   0.05   0.19     0.03   0.00   0.03    -0.01   0.00  -0.03
    10   6     0.11  -0.11  -0.14    -0.01   0.02   0.01     0.01  -0.09  -0.10
    11   6     0.00  -0.01  -0.03     0.01   0.02   0.00    -0.03  -0.12   0.00
    12   6     0.07  -0.07   0.00     0.04  -0.04   0.02    -0.04   0.02  -0.01
    13   1    -0.26   0.02  -0.01    -0.03  -0.05  -0.08     0.16   0.00   0.08
    14   1    -0.06  -0.19  -0.18    -0.16   0.01   0.03     0.25  -0.21  -0.04
    15   1     0.09   0.10   0.20     0.09   0.03   0.04    -0.10  -0.04  -0.04
    16   1     0.19  -0.25  -0.16    -0.02   0.04   0.02     0.02  -0.16  -0.11
    17   1    -0.18  -0.05  -0.02     0.01   0.03  -0.01    -0.07  -0.17   0.05
    18   1     0.32  -0.28  -0.05     0.10  -0.07   0.01    -0.12   0.06   0.00
    19   1    -0.04   0.03  -0.24     0.03  -0.01  -0.03    -0.03  -0.01   0.05
    20   1    -0.19   0.07   0.05     0.60  -0.20   0.49     0.36  -0.01   0.33
    21   1    -0.10  -0.05   0.10    -0.33   0.20  -0.30    -0.28   0.18  -0.17
    22   1    -0.04  -0.21  -0.02     0.00  -0.02  -0.01    -0.06   0.23   0.05
    23   1    -0.09  -0.01  -0.02     0.07  -0.02   0.00    -0.43   0.15  -0.01
    24   1    -0.19   0.00  -0.11    -0.02  -0.02   0.03     0.01  -0.01   0.02
                    19                     20                     21
                     A                      A                      A
 Frequencies --   540.6015               600.9251               615.5212
 Red. masses --     4.7180                 1.9790                 2.6753
 Frc consts  --     0.8124                 0.4211                 0.5972
 IR Inten    --    55.7623                86.6893                56.8492
 Raman Activ --     4.8358                 4.1490                 2.8228
 Depolar (P) --     0.3818                 0.2473                 0.4445
 Depolar (U) --     0.5526                 0.3966                 0.6154
  Atom  AN      X      Y      Z        X      Y      Z        X      Y      Z
     1   8     0.09   0.26  -0.11     0.09  -0.01   0.11     0.04  -0.05   0.00
     2   8     0.00  -0.18  -0.08    -0.01  -0.03   0.01     0.02   0.03   0.00
     3   8     0.06   0.04   0.00    -0.07  -0.06  -0.03     0.06  -0.02   0.02
     4   8    -0.15   0.07  -0.01    -0.02  -0.02  -0.03     0.03  -0.07  -0.03
     5   8     0.10  -0.11   0.09    -0.06  -0.01  -0.05    -0.03  -0.04   0.00
     6   8    -0.02  -0.01   0.01    -0.06  -0.01  -0.01     0.10   0.03   0.03
     7   6     0.07  -0.14   0.05     0.06   0.04  -0.04    -0.16  -0.07   0.04
     8   6     0.09  -0.03  -0.03     0.01  -0.03   0.06    -0.06   0.05  -0.07
     9   6    -0.02   0.03   0.08     0.06   0.06  -0.05    -0.13  -0.08   0.05
    10   6    -0.09   0.02  -0.06     0.01   0.04  -0.01     0.06   0.07  -0.02
    11   6    -0.04   0.06   0.11     0.08   0.03  -0.01     0.11   0.06   0.03
    12   6    -0.04   0.01  -0.01     0.00  -0.03   0.02    -0.05   0.10  -0.04
    13   1     0.05  -0.28   0.00     0.19   0.09  -0.03    -0.37  -0.13   0.04
    14   1     0.21  -0.13  -0.06     0.02  -0.05   0.06    -0.14   0.04  -0.06
    15   1    -0.11  -0.10   0.05     0.07   0.22   0.00    -0.33  -0.16   0.03
    16   1    -0.19  -0.09  -0.08    -0.02   0.11   0.00     0.06   0.03  -0.03
    17   1    -0.10   0.05   0.11     0.13   0.05  -0.03     0.21   0.09   0.02
    18   1     0.04  -0.10  -0.04    -0.08   0.04   0.04    -0.08   0.12  -0.03
    19   1    -0.13   0.03  -0.12     0.03  -0.06   0.09    -0.01   0.08   0.01
    20   1    -0.12  -0.12  -0.14    -0.14   0.06  -0.03     0.19  -0.11  -0.05
    21   1    -0.02   0.01   0.04     0.05  -0.09   0.05     0.04   0.05  -0.10
    22   1    -0.22   0.33   0.04    -0.02   0.40   0.06     0.02   0.27   0.04
    23   1    -0.42  -0.04   0.25    -0.72   0.15   0.04    -0.52   0.02   0.14
    24   1    -0.02  -0.01   0.00    -0.02  -0.05   0.07     0.11   0.10  -0.07
                    22                     23                     24
                     A                      A                      A
 Frequencies --   664.6635               755.5933               843.6264
 Red. masses --     2.3355                 4.4759                 2.4022
 Frc consts  --     0.6079                 1.5056                 1.0073
 IR Inten    --    60.0820                25.4572                81.2205
 Raman Activ --     2.8717                 2.5241                14.5500
 Depolar (P) --     0.1896                 0.7141                 0.1264
 Depolar (U) --     0.3187                 0.8332                 0.2244
  Atom  AN      X      Y      Z        X      Y      Z        X      Y      Z
     1   8     0.13  -0.04   0.08    -0.18  -0.03  -0.08    -0.04  -0.08  -0.10
     2   8    -0.02   0.02  -0.01    -0.03   0.07   0.02     0.00  -0.03   0.00
     3   8    -0.02  -0.02   0.01    -0.10  -0.12   0.02    -0.03  -0.02   0.00
     4   8    -0.12   0.03   0.04     0.06  -0.03   0.02    -0.02  -0.01   0.00
     5   8    -0.08   0.02   0.01     0.03  -0.09   0.12    -0.02  -0.02   0.08
     6   8     0.00   0.00   0.01    -0.01   0.00  -0.01     0.00  -0.02   0.00
     7   6     0.04  -0.03   0.07     0.04   0.02   0.00     0.05   0.04  -0.04
     8   6     0.03  -0.05  -0.03     0.05  -0.06  -0.05     0.00   0.02   0.03
     9   6    -0.02   0.00  -0.04     0.01  -0.03  -0.06     0.02   0.10   0.14
    10   6     0.00   0.04  -0.13     0.11   0.15  -0.14     0.03   0.06  -0.05
    11   6     0.11   0.05  -0.01    -0.07   0.29   0.06     0.11  -0.09  -0.06
    12   6    -0.07   0.04  -0.03     0.10  -0.07   0.04    -0.11   0.09   0.06
    13   1     0.10  -0.04   0.06     0.11   0.10   0.02     0.04   0.02  -0.05
    14   1     0.16  -0.22  -0.06     0.08  -0.30  -0.07    -0.04   0.02   0.04
    15   1    -0.11   0.01  -0.04     0.16  -0.09  -0.08     0.25   0.02   0.11
    16   1     0.03  -0.01  -0.14     0.20   0.08  -0.14     0.08   0.17  -0.03
    17   1     0.15   0.04  -0.01     0.05   0.29   0.10     0.24  -0.12   0.01
    18   1    -0.22   0.15   0.00     0.16  -0.08   0.03     0.27  -0.32  -0.05
    19   1    -0.01  -0.02   0.10     0.12  -0.04   0.01    -0.46   0.25  -0.41
    20   1     0.04  -0.01   0.02     0.00   0.06   0.05    -0.08   0.06   0.05
    21   1    -0.07  -0.02   0.00    -0.06  -0.11   0.01     0.03  -0.02   0.00
    22   1    -0.26  -0.24  -0.03    -0.12   0.09   0.04    -0.09   0.01   0.00
    23   1     0.67  -0.27   0.03    -0.03  -0.31   0.43     0.02   0.04  -0.01
    24   1     0.04   0.01   0.02    -0.06  -0.06   0.04     0.12   0.13  -0.14
                    25                     26                     27
                     A                      A                      A
 Frequencies --   882.9051               975.8697              1013.8183
 Red. masses --     3.3284                 5.2710                 5.7755
 Frc consts  --     1.5287                 2.9575                 3.4975
 IR Inten    --   203.4947               243.0705                88.7536
 Raman Activ --     9.9822                 3.4878                 1.7702
 Depolar (P) --     0.4187                 0.3019                 0.5159
 Depolar (U) --     0.5902                 0.4638                 0.6807
  Atom  AN      X      Y      Z        X      Y      Z        X      Y      Z
     1   8     0.04   0.05   0.05     0.20  -0.13   0.00     0.07  -0.02   0.01
     2   8     0.02  -0.04  -0.01    -0.02   0.05   0.02     0.02  -0.06  -0.05
     3   8     0.02   0.01  -0.02    -0.02  -0.01   0.01    -0.10  -0.12   0.08
     4   8     0.02  -0.02   0.01    -0.02   0.03  -0.03     0.18  -0.08   0.05
     5   8    -0.01  -0.07   0.20     0.03  -0.04   0.12     0.01   0.02  -0.07
     6   8     0.00   0.01   0.00     0.01   0.00   0.00    -0.02  -0.02   0.01
     7   6    -0.06   0.00   0.01     0.07   0.00  -0.05     0.19   0.03   0.15
     8   6    -0.06   0.08   0.12     0.07  -0.08  -0.15    -0.08   0.31  -0.10
     9   6     0.00   0.01  -0.03     0.02  -0.02   0.09     0.19  -0.09   0.03
    10   6     0.07   0.07  -0.14    -0.02  -0.05   0.21    -0.16   0.06  -0.12
    11   6    -0.11  -0.09  -0.22    -0.26   0.20  -0.25    -0.15   0.00   0.09
    12   6     0.03  -0.04  -0.04    -0.09   0.06  -0.02    -0.12   0.08  -0.07
    13   1    -0.03  -0.04   0.00    -0.13  -0.01  -0.03     0.04  -0.10   0.11
    14   1    -0.09   0.15   0.13    -0.02  -0.04  -0.13    -0.28   0.22  -0.06
    15   1    -0.10   0.05  -0.02    -0.01  -0.19   0.03     0.02  -0.29  -0.02
    16   1     0.29   0.43  -0.08     0.04  -0.04   0.21    -0.15  -0.21  -0.16
    17   1    -0.31  -0.22  -0.08     0.03   0.26  -0.25    -0.21  -0.04   0.13
    18   1    -0.15   0.17   0.01    -0.06   0.02  -0.03    -0.25   0.06  -0.07
    19   1     0.18  -0.12   0.19    -0.14   0.07  -0.06    -0.21   0.03  -0.05
    20   1     0.02  -0.09  -0.13    -0.04   0.13   0.19    -0.05   0.02   0.01
    21   1     0.20   0.11  -0.13    -0.26  -0.16   0.18     0.19   0.06  -0.14
    22   1    -0.15   0.05   0.01     0.32  -0.02  -0.02    -0.11   0.01   0.06
    23   1     0.04   0.18  -0.13    -0.12   0.21  -0.12    -0.02  -0.07   0.05
    24   1    -0.06  -0.06   0.07     0.07   0.03   0.00     0.05   0.02  -0.01
                    28                     29                     30
                     A                      A                      A
 Frequencies --  1024.8467              1035.9535              1063.5953
 Red. masses --     2.7589                 5.0830                 3.1856
 Frc consts  --     1.7073                 3.2140                 2.1232
 IR Inten    --   105.3774               302.9135                94.4328
 Raman Activ --     2.7585                 3.1399                 8.0247
 Depolar (P) --     0.7423                 0.7470                 0.3834
 Depolar (U) --     0.8521                 0.8552                 0.5543
  Atom  AN      X      Y      Z        X      Y      Z        X      Y      Z
     1   8     0.12  -0.06   0.02     0.03  -0.12  -0.07    -0.05   0.00   0.02
     2   8     0.00   0.01   0.02     0.04  -0.16  -0.14    -0.02   0.00  -0.01
     3   8     0.05   0.06  -0.04     0.06   0.05  -0.02     0.03   0.02   0.01
     4   8     0.06  -0.01   0.02     0.13  -0.05   0.05    -0.06   0.02  -0.03
     5   8     0.01   0.02  -0.05     0.00  -0.01   0.02     0.00  -0.01   0.03
     6   8     0.00   0.00  -0.01     0.00   0.01   0.00    -0.04  -0.02  -0.01
     7   6    -0.11  -0.02  -0.04    -0.10   0.22   0.20    -0.04  -0.12   0.22
     8   6    -0.04  -0.07   0.15    -0.08  -0.08  -0.01    -0.13   0.01  -0.10
     9   6    -0.01  -0.03  -0.09    -0.09   0.24   0.05     0.18   0.11  -0.15
    10   6    -0.05  -0.05  -0.10    -0.21   0.04   0.00     0.08  -0.04   0.08
    11   6    -0.13   0.09   0.05     0.01   0.06  -0.05     0.03   0.03  -0.05
    12   6    -0.04   0.05   0.11     0.09  -0.07   0.01    -0.01   0.02   0.04
    13   1     0.09   0.08  -0.02     0.02   0.10   0.14    -0.06  -0.06   0.23
    14   1     0.06  -0.06   0.13     0.25  -0.29  -0.08    -0.10  -0.02  -0.11
    15   1     0.29  -0.03  -0.09    -0.16   0.15   0.02     0.34   0.18  -0.13
    16   1    -0.10   0.00  -0.09    -0.28  -0.10  -0.02     0.18  -0.18   0.06
    17   1    -0.22   0.02   0.12     0.40   0.13  -0.05     0.06   0.07  -0.08
    18   1     0.24  -0.35   0.01     0.05   0.14   0.05    -0.02  -0.17   0.00
    19   1    -0.11   0.28  -0.31     0.09  -0.17   0.16    -0.13   0.08  -0.14
    20   1     0.08  -0.13  -0.18    -0.02  -0.07  -0.01     0.25  -0.34  -0.37
    21   1     0.14   0.12  -0.10    -0.06   0.00   0.03     0.06   0.10  -0.11
    22   1    -0.16   0.06   0.03     0.06  -0.02   0.05     0.20  -0.04  -0.03
    23   1    -0.02  -0.15   0.16     0.03   0.00  -0.01    -0.06   0.05  -0.01
    24   1     0.23   0.17  -0.13    -0.18  -0.13   0.10     0.04   0.02  -0.03
                    31                     32                     33
                     A                      A                      A
 Frequencies --  1085.7892              1091.4736              1098.0267
 Red. masses --     3.4155                 3.6933                 2.4537
 Frc consts  --     2.3724                 2.5923                 1.7430
 IR Inten    --    76.3595                98.8523                90.5012
 Raman Activ --    13.8097                15.8654                18.9175
 Depolar (P) --     0.5308                 0.5962                 0.4699
 Depolar (U) --     0.6935                 0.7470                 0.6393
  Atom  AN      X      Y      Z        X      Y      Z        X      Y      Z
     1   8     0.04  -0.01   0.00     0.04  -0.11  -0.06    -0.01   0.05   0.06
     2   8     0.00   0.00   0.01     0.02  -0.07  -0.04     0.03  -0.08  -0.09
     3   8    -0.10  -0.10   0.08    -0.05  -0.04   0.04    -0.02  -0.02   0.01
     4   8     0.01   0.00   0.01    -0.13   0.07  -0.06    -0.05   0.01  -0.02
     5   8     0.00  -0.01  -0.01     0.01   0.02  -0.06    -0.01  -0.01   0.02
     6   8     0.00   0.00  -0.01     0.01   0.01   0.00    -0.01  -0.02  -0.01
     7   6    -0.19  -0.04  -0.02    -0.01   0.09   0.04     0.01   0.18   0.09
     8   6     0.30   0.13  -0.04     0.04   0.13   0.07     0.01   0.02  -0.04
     9   6    -0.01   0.09  -0.07    -0.07   0.12   0.07    -0.08  -0.14  -0.09
    10   6    -0.05   0.07   0.02     0.23  -0.20  -0.03     0.06   0.01   0.04
    11   6    -0.04  -0.09   0.01    -0.07   0.08   0.04     0.02  -0.02  -0.01
    12   6     0.02  -0.02   0.05     0.04  -0.03  -0.01     0.01   0.03   0.09
    13   1    -0.42   0.05   0.02    -0.08   0.05   0.03     0.14   0.24   0.08
    14   1     0.50  -0.09  -0.07    -0.13   0.30   0.12     0.14  -0.08  -0.07
    15   1     0.10   0.20  -0.04    -0.15  -0.02   0.03    -0.22  -0.27  -0.12
    16   1    -0.13  -0.05   0.00     0.31  -0.39  -0.06     0.17  -0.03   0.04
    17   1     0.00  -0.04  -0.04    -0.15  -0.08   0.22    -0.14   0.00  -0.08
    18   1     0.07  -0.11   0.02     0.05   0.12   0.03     0.09  -0.34   0.01
    19   1     0.05   0.06  -0.06    -0.03  -0.12   0.09     0.21   0.29  -0.20
    20   1     0.18  -0.23  -0.23    -0.05  -0.02  -0.04    -0.10   0.11   0.15
    21   1    -0.01  -0.01  -0.05     0.24   0.14  -0.17    -0.06  -0.06   0.05
    22   1    -0.02  -0.02   0.01    -0.06   0.05  -0.06     0.13  -0.04  -0.02
    23   1     0.05   0.16  -0.24    -0.04  -0.19   0.23     0.00   0.12  -0.15
    24   1     0.05   0.04  -0.04    -0.14  -0.09   0.07     0.30   0.22  -0.17
                    34                     35                     36
                     A                      A                      A
 Frequencies --  1133.2459              1145.3792              1192.5736
 Red. masses --     2.5456                 2.9415                 1.2501
 Frc consts  --     1.9262                 2.2736                 1.0475
 IR Inten    --    75.5512                79.9396                25.8432
 Raman Activ --     9.0798                 9.3569                 7.1131
 Depolar (P) --     0.7009                 0.5599                 0.6350
 Depolar (U) --     0.8241                 0.7179                 0.7768
  Atom  AN      X      Y      Z        X      Y      Z        X      Y      Z
     1   8    -0.01  -0.01  -0.01     0.08  -0.06  -0.03    -0.02   0.00   0.00
     2   8     0.02  -0.04  -0.05    -0.01   0.02   0.01     0.00   0.00  -0.01
     3   8     0.01   0.02  -0.02     0.02   0.00  -0.01     0.00   0.00   0.00
     4   8    -0.03   0.01  -0.01    -0.01  -0.01  -0.01     0.02   0.00   0.00
     5   8     0.01   0.01  -0.04     0.00   0.01  -0.07     0.00   0.03   0.00
     6   8     0.01   0.01   0.01    -0.01  -0.01  -0.01    -0.03  -0.03   0.00
     7   6    -0.11   0.13   0.03     0.08  -0.08   0.05     0.00   0.00   0.03
     8   6     0.04  -0.12   0.03    -0.06  -0.04  -0.11     0.05  -0.03  -0.01
     9   6     0.18  -0.07   0.05    -0.09   0.13  -0.02     0.04   0.04  -0.02
    10   6     0.08   0.07   0.02     0.07   0.17   0.02    -0.03  -0.06   0.00
    11   6    -0.06  -0.04   0.09    -0.13  -0.12   0.13     0.03   0.01  -0.05
    12   6    -0.08   0.03  -0.10     0.06  -0.03   0.06     0.02   0.01   0.01
    13   1    -0.40   0.11   0.04     0.12  -0.10   0.04    -0.34  -0.10   0.03
    14   1     0.17  -0.18   0.00    -0.17   0.04  -0.09    -0.16   0.42   0.06
    15   1     0.34  -0.13   0.04    -0.25   0.11  -0.03    -0.11  -0.02  -0.03
    16   1     0.20   0.37   0.08     0.31   0.58   0.10    -0.13   0.28   0.04
    17   1    -0.17  -0.11   0.16    -0.23  -0.21   0.23    -0.02  -0.10   0.08
    18   1    -0.19   0.23  -0.06     0.11  -0.11   0.05    -0.20  -0.13  -0.01
    19   1    -0.25  -0.13   0.06     0.09   0.04  -0.02     0.27   0.14  -0.03
    20   1     0.01  -0.02   0.01    -0.02   0.06   0.09    -0.02   0.06   0.10
    21   1    -0.14  -0.08   0.09    -0.14  -0.10   0.10    -0.22  -0.14   0.15
    22   1     0.03   0.01  -0.01     0.06  -0.02  -0.01    -0.21   0.08   0.01
    23   1    -0.02  -0.08   0.09     0.02   0.00  -0.07    -0.01  -0.23   0.33
    24   1    -0.10  -0.07   0.06     0.01   0.01  -0.02     0.18   0.12  -0.10
                    37                     38                     39
                     A                      A                      A
 Frequencies --  1215.7045              1247.8201              1262.2480
 Red. masses --     1.3172                 1.2498                 1.1759
 Frc consts  --     1.1470                 1.1466                 1.1039
 IR Inten    --   128.8011                23.1824                21.8534
 Raman Activ --     8.4012                 2.3173                 3.6574
 Depolar (P) --     0.5908                 0.5319                 0.5080
 Depolar (U) --     0.7428                 0.6944                 0.6737
  Atom  AN      X      Y      Z        X      Y      Z        X      Y      Z
     1   8     0.01   0.01   0.03     0.00   0.00   0.01     0.00   0.00  -0.01
     2   8     0.01   0.00  -0.02     0.00   0.00  -0.01    -0.02  -0.01  -0.01
     3   8     0.00  -0.01   0.01     0.00   0.01  -0.02    -0.01   0.00   0.01
     4   8     0.01   0.00   0.00     0.00   0.00   0.01     0.01   0.00   0.00
[...]
 317103,-0.00006833,-0.00003368,-0.00000374,0.00006237,-0.00040252,0.00
 023419,0.00081683,-0.00202082,0.00812386,-0.00000118,-0.00007247,-0.00
 004147,-0.05070433,-0.00547288,0.02998920,0.00003898,-0.00051754,0.019
 92603,0.00008371,-0.00000330,0.00004874,-0.00005554,0.00025434,0.00008
 400,0.00003595,0.00133932,0.00022990,0.00004216,-0.00002109,0.00002373
 ,0.06268630,0.00038820,0.00054609,-0.00094056,0.00033873,-0.00052418,0
 .00020908,0.00013631,0.00281335,0.00101156,0.00312209,-0.00157549,0.01
 302303,-0.00341270,-0.00361285,0.00354822,0.00006738,0.00004318,0.0000
 2081,-0.00060761,0.00079909,0.00000502,0.00258613,0.00172129,-0.029978
 45,-0.00004978,-0.00051112,-0.00008362,-0.00415639,-0.05496724,0.03347
 811,-0.00233784,-0.00295589,0.02166275,-0.00005379,0.00009624,-0.00003
 941,0.00020252,-0.00017676,0.00006528,0.00104073,-0.00440055,-0.001933
 44,0.00003451,-0.00000044,-0.00001630,0.00016105,0.06194037,0.00027084
 ,-0.00025769,0.00095592,0.00029142,-0.00037593,0.00019697,-0.00040078,
 0.00098168,0.00153506,-0.00559379,0.00369266,-0.01009389,0.00028487,0.
 00039124,0.00098775,0.00005357,0.00001339,0.00000045,-0.00077221,0.000
 18644,-0.00042816,0.00261736,0.00044603,-0.01634639,0.00012722,-0.0000
 9325,-0.00004112,0.02107291,0.03748486,-0.30030333,-0.00032129,-0.0004
 5623,-0.00553401,-0.00004618,0.00004276,-0.00002134,0.00029893,-0.0000
 5810,0.00041120,0.00094523,-0.00179086,-0.00014503,-0.00004099,-0.0000
 0617,0.00004457,-0.01737996,-0.04041354,0.32559848,-0.01717165,0.03516
 611,0.01594326,0.00044201,0.00023418,-0.00009134,0.00010543,-0.0020744
 1,-0.00076954,0.00185653,0.00076388,0.00050703,0.00357787,0.00066123,-
 0.00218224,-0.00012068,-0.00023300,-0.00005246,-0.00112027,-0.00011725
 ,0.00039505,-0.00341108,-0.00011383,0.00145220,-0.00358083,-0.00098058
 ,-0.00373561,0.00444650,-0.02019663,-0.01151015,-0.05761893,0.02501150
 ,0.02379494,0.00018349,0.00179558,0.00116045,0.00014264,0.00000541,-0.
 00000392,0.00011545,-0.00009828,-0.00016000,-0.00002414,0.00009837,0.0
 0029897,0.00084393,0.00067268,-0.00000743,0.07037649,0.00799822,-0.008
 44695,-0.00363600,0.00022951,-0.00044799,-0.00015226,-0.00016994,-0.00
 193730,-0.00071449,-0.00040075,0.00191064,0.00026195,-0.00102065,0.012
 07583,0.01054805,0.00020333,0.00016914,0.00001123,-0.00053478,0.000722
 12,0.00001875,-0.00265826,0.00089532,0.00220548,0.00065102,0.00232032,
 0.00176010,0.00274215,-0.02092973,-0.01244900,0.03320374,-0.22614547,-
 0.12434167,-0.00028117,-0.00057335,-0.00049340,0.00005715,-0.00007613,
 0.00002036,0.00001079,-0.00000707,-0.00023022,-0.00000496,-0.00006077,
 -0.00013461,0.00031927,0.00084297,0.00015101,-0.04004638,0.23913737,-0
 .00302767,0.00694524,0.00654337,-0.00003151,0.00016528,0.00002462,0.00
 008399,0.00050806,0.00013299,-0.00037018,-0.00022968,-0.00015055,-0.00
 091081,-0.02205388,-0.03773692,-0.00000417,-0.00006755,-0.00001625,0.0
 0004350,-0.00035574,-0.00005223,0.00110959,0.00060296,0.00043135,-0.00
 177318,0.00073808,0.00101857,0.00032790,0.00550537,0.00497755,0.026934
 71,-0.11848298,-0.12840223,0.00002995,0.00031717,0.00023895,-0.0000074
 3,0.00004065,-0.00003594,-0.00003153,0.00016208,0.00015828,-0.00017923
 ,0.00024055,0.00008285,-0.00047950,0.00011849,0.00084904,-0.02488230,0
 .12367846,0.15667334,0.00264936,-0.00151145,0.00062572,-0.00001344,-0.
 00027540,-0.00000301,-0.00027699,-0.00012752,0.00006020,-0.00006706,0.
 00003634,0.00000038,-0.00026735,0.00027014,0.00017876,-0.00433611,-0.0
 1783343,0.02627827,0.00190087,0.00152998,-0.00080782,0.00032186,0.0000
 4184,0.00010760,-0.00421170,0.00500694,-0.03207420,0.00013150,-0.00008
 023,-0.00003464,0.00023382,-0.00028626,-0.00024826,-0.04892684,0.00705
 000,-0.01624150,0.00020384,-0.00034524,0.00060613,0.00000788,-0.000034
 64,0.00008118,-0.00535709,0.00164909,-0.00136727,-0.00002384,0.0000053
 3,0.00000787,-0.00000804,0.00003342,-0.00000324,0.05577574,-0.00085857
 ,0.00088206,0.00089755,-0.00004065,-0.00018355,0.00005399,0.00009306,0
 .00000643,0.00000368,-0.00001229,0.00000059,-0.00000469,0.00005487,-0.
 00006900,-0.00008412,-0.01316193,-0.02023527,0.03418218,-0.00011517,0.
 00009512,-0.00042975,-0.00000472,0.00009832,-0.00017852,0.00244218,-0.
 00050770,0.00679118,-0.00000576,0.00001099,-0.00000633,-0.00000433,0.0
 0008595,0.00010067,0.00732583,-0.05375159,0.03006699,0.00007579,0.0001
 1795,-0.00015052,-0.00006783,0.00000599,0.00000826,0.00054300,0.000277
 60,0.00069790,0.00000456,0.00000162,-0.00000384,-0.00001831,0.00000189
 ,-0.00000471,0.00492786,0.06559579,0.00012852,0.00028302,0.00144436,-0
 .00019164,-0.00020614,0.00005373,-0.00027303,-0.00008706,0.00001290,-0
 .00009406,0.00001020,-0.00001605,-0.00000565,-0.00006550,0.00000021,0.
 00669733,0.01185446,-0.00313174,0.00027740,0.00056055,0.00010508,0.000
 12770,-0.00018885,0.00027000,0.00036335,0.00024882,-0.01095281,0.00009
 730,-0.00002030,-0.00005192,0.00021418,-0.00004475,0.00029417,-0.01533
 092,0.03566428,-0.29755104,-0.00037399,-0.00045043,0.00035272,0.000092
 15,0.00000024,-0.00001619,-0.00202924,0.00051109,0.00041398,-0.0000087
 5,0.00000588,0.00000868,-0.00007606,0.00004266,-0.00002751,0.01118433,
 -0.05018672,0.32145456,-0.00818288,0.00312546,-0.00235430,-0.00051796,
 -0.00049822,-0.00025231,-0.00004238,-0.00011709,-0.00002357,-0.0003314
 2,-0.00007201,-0.00007510,-0.00021533,0.00012599,-0.00081564,0.0082472
 4,-0.02473210,-0.01254879,0.00059753,0.00033940,0.00036247,0.00002794,
 0.00020229,0.00003927,-0.00461074,0.01942451,0.01719221,0.00028243,0.0
 0022041,-0.00010400,0.00135947,0.00064812,0.00206360,-0.09267520,0.084
 65005,0.05245030,-0.00005091,-0.00020780,-0.00002086,0.00000327,-0.000
 01410,-0.00000671,0.00137502,-0.00032464,-0.00032466,-0.00002129,-0.00
 001417,-0.00000046,-0.00063561,0.00021675,-0.00013386,0.00204870,-0.00
 090015,-0.00150877,0.09538609,0.00049121,0.00080314,0.00052371,-0.0016
 8283,-0.00036870,-0.00007367,0.00007719,0.00008204,-0.00000770,0.00005
 217,0.00001993,0.00001978,0.00000973,-0.00000044,0.00004901,0.00433196
 ,-0.03051773,-0.01339929,0.00080309,-0.00061550,-0.00009859,-0.0000209
 1,0.00010840,0.00003902,0.00339316,-0.00404144,-0.00330996,-0.00006062
 ,-0.00006328,0.00001793,-0.00034945,0.00014007,-0.00031607,0.07607175,
 -0.20271268,-0.10014566,0.00010397,-0.00002042,0.00002646,0.00001554,-
 0.00000824,0.00000536,-0.00021396,0.00024616,0.00006193,0.00000487,0.0
 0000087,-0.00000135,0.00003957,-0.00001649,0.00001808,-0.00150333,0.00
 600530,0.00238152,-0.07808553,0.23331249,-0.00244286,0.00077989,0.0001
 0559,-0.00066329,-0.00037999,0.00004407,0.00008227,0.00002854,-0.00000
 796,-0.00004686,-0.00001418,-0.00001353,0.00009699,-0.00007805,-0.0000
 3318,-0.00377020,0.00730013,0.00694447,0.00063010,-0.00042659,0.000032
 00,-0.00008040,0.00015423,-0.00001633,-0.00406668,0.00818441,0.0041337
 1,0.00003721,0.00004140,-0.00001322,-0.00016058,0.00035283,0.00074216,
 0.05260722,-0.10842468,-0.12369927,-0.00001035,-0.00001303,0.00007139,
 0.00000474,-0.00000787,0.00000804,0.00075092,0.00003581,0.00067026,-0.
 00000139,-0.00000060,0.00000034,-0.00018543,0.00009242,-0.00005746,0.0
 1180018,-0.02272510,-0.01370789,-0.05479512,0.11266550,0.12392163,0.00
 017542,0.00059292,0.00033152,-0.16149292,-0.21144008,0.09327294,0.0001
 8363,-0.00036001,0.00021671,0.00016324,-0.00017745,0.00001406,-0.00005
 571,-0.00004534,0.00002665,-0.00000445,-0.00008628,-0.00002309,0.00476
 227,0.01076584,-0.00145890,-0.00023929,0.00382619,-0.00041618,-0.00095
 380,0.00057038,-0.00016714,-0.00040234,-0.00015838,0.00030130,0.000291
 46,-0.00017442,-0.00011066,-0.00012340,0.00019713,0.00012782,0.0000877
 4,0.00079846,0.00095583,-0.00014464,-0.00014124,0.00004135,0.00001853,
 0.00004173,0.00000174,0.00000945,0.00000490,-0.00000551,-0.00006453,-0
 .00004972,0.00000982,0.00000386,-0.00006317,-0.00005544,0.00004292,-0.
 00024483,-0.00013504,0.16790236,-0.00064338,-0.00127571,-0.00005851,-0
 .18109897,-0.29543603,0.08771719,-0.00035585,0.00069881,0.00006985,-0.
 00049874,0.00061961,-0.00003376,0.00011261,0.00006357,-0.00000893,0.00
 010742,0.00014679,0.00010191,-0.01857660,-0.03009027,0.00812510,0.0000
 8717,-0.00104330,0.00168481,0.00304969,-0.00150359,-0.00357588,-0.0001
 1687,-0.00041165,-0.00031135,-0.00066520,0.00008729,0.00000018,0.00000
 495,0.00011897,-0.00006356,-0.00038543,0.00204967,0.00044812,0.0001876
 8,-0.00002077,-0.00009000,0.00029928,0.00036210,0.00004331,-0.00000734
 ,0.00001345,0.00003339,0.00010774,0.00007033,-0.00000790,-0.00000731,-
 0.00000855,0.00002781,-0.00010783,0.00008156,0.00002566,0.19677749,0.3
 2460113,-0.00038219,-0.00242021,-0.00002714,0.10812436,0.12439283,-0.0
 7558514,-0.00083333,0.00101947,-0.00068032,0.00023851,-0.00011494,-0.0
 0001075,0.00007587,-0.00008062,0.00018165,-0.00016599,-0.00008994,-0.0
 0002584,-0.01470834,-0.02692622,0.00357999,-0.00029341,-0.00061496,0.0
 0038277,0.00253807,-0.00138337,-0.00249812,-0.00002862,0.00015827,0.00
 010326,-0.00050403,0.00036339,-0.00030514,0.00028329,0.00012467,0.0000
 6637,-0.00077804,-0.00000384,0.00083776,-0.00001561,0.00013815,-0.0000
 2573,-0.00016576,-0.00011342,0.00028850,0.00000366,-0.00001756,-0.0000
 3471,0.00007495,-0.00002985,0.00001051,-0.00006984,-0.00000865,-0.0000
 4189,-0.00004515,-0.00005508,-0.00003035,-0.09591979,-0.09400067,0.073
 36864,-0.00007434,0.00055171,0.00012057,0.00330633,0.00036578,0.001092
 29,-0.03405058,0.06363949,0.06520772,0.00036683,0.00046005,0.00012379,
 -0.00008510,0.00001160,0.00007134,0.00023319,0.00015132,0.00003478,-0.
 00137688,-0.00317130,-0.00176915,0.00045615,-0.02603254,-0.01349471,0.
 00018485,-0.00043145,0.00028836,-0.00348059,-0.00181382,0.00130861,0.0
 0093369,-0.00076930,-0.00042518,-0.00016393,0.00007712,-0.00011629,-0.
 00016793,0.00014189,0.00008106,0.00049777,-0.00009428,0.00053103,0.000
 03337,0.00004961,-0.00002235,-0.00005917,0.00016629,0.00005518,-0.0002
 0637,-0.00014862,0.00001298,0.00001964,0.00000391,0.00001851,-0.000004
 13,0.00004121,0.00001895,-0.01017014,0.00169399,0.00254671,0.04374841,
 -0.00017319,0.00020163,0.00006789,0.00049845,0.00039384,0.00006488,0.0
 3301521,-0.32538191,-0.19324591,-0.00009373,0.00059945,-0.00000810,-0.
 00008299,0.00009000,0.00009932,0.00020804,0.00010487,0.00003514,0.0004
 6042,0.00104703,-0.00120918,0.00312313,-0.02548380,-0.01548679,0.00056
 962,-0.00063283,-0.00007943,-0.00402387,-0.00322674,0.00286165,0.00122
 172,-0.00079609,-0.00097619,-0.00015367,0.00021637,-0.00003916,-0.0001
 2163,-0.00002813,0.00002850,0.00149503,0.00190155,-0.00051927,0.000025
 44,0.00002338,0.00001224,-0.00010474,0.00045863,0.00025436,-0.00029763
 ,-0.00022160,0.00009223,0.00002660,-0.00000759,0.00001780,-0.00001307,
 -0.00000719,-0.00001386,-0.00073383,0.00106460,-0.00038569,-0.03488984
 ,0.34998115,0.00004416,-0.00010509,-0.00005377,-0.00073992,0.00011752,
 -0.00111562,0.05106646,-0.22989696,-0.17479390,-0.00013003,0.00008945,
 -0.00013998,0.00000306,-0.00002581,0.00002383,0.00017008,0.00007041,0.
 00001657,0.00015991,0.00041180,0.00026678,0.00006712,0.01816249,0.0068
 6326,0.00022192,-0.00029779,0.00006437,0.00240763,0.00163755,-0.000715
 35,-0.00048756,0.00073637,0.00091612,-0.00010321,0.00012937,-0.0000642
 6,-0.00012473,-0.00010842,-0.00001959,-0.00014407,0.00081587,0.0008123
 1,0.00001330,0.00002229,-0.00004207,-0.00004706,0.00007082,0.00034096,
 0.00024749,0.00028506,-0.00009534,0.00001006,-0.00000335,0.00000777,0.
 00001002,-0.00001482,-0.00000657,0.00305860,-0.00025096,0.00048695,-0.
 05567336,0.20837693,0.16710282,0.00147521,-0.00053908,0.00082056,0.000
 13398,-0.00033785,-0.00007708,-0.00025709,-0.00067107,0.00037099,-0.04
 541538,-0.00017112,0.06318375,0.00415037,0.00026391,0.00069170,0.00012
 454,0.00002962,0.00000221,-0.00043865,0.00001999,0.00020962,0.00088441
 ,0.00162812,-0.00265890,-0.00025446,0.00037925,0.00023015,-0.00405591,
 0.00924308,-0.04184907,-0.00248205,0.00014811,-0.00498161,-0.00010963,
 -0.00005090,-0.00005122,0.00020100,-0.00007498,0.00011773,0.00034196,0
 .00081299,0.00118426,-0.00005518,0.00002021,-0.00002798,-0.00526882,0.
 00160600,-0.00113329,0.00011197,0.00001881,0.00029049,0.00002394,-0.00
 000154,0.00001326,0.00005012,-0.00000625,0.00000287,-0.00003559,0.0000
 4366,-0.00002345,0.00004179,0.00005708,0.00004633,0.05965916,0.0002592
 0,-0.00027146,0.00035319,-0.00033023,0.00040450,0.00010638,0.00023285,
 0.00013427,-0.00039772,0.00909903,-0.02222570,0.07354043,0.00128484,-0
 .00033751,0.00002461,-0.00006985,-0.00004736,-0.00000797,0.00058712,0.
 00015788,-0.00039078,-0.00077939,-0.00091703,0.00336932,0.00002374,0.0
 0034562,0.00008730,0.00098106,-0.00340121,0.01566626,-0.00095064,0.001
 16359,-0.00218507,0.00005242,-0.00006850,0.00001656,-0.00026987,0.0000
 7558,-0.00009436,-0.00003287,-0.00021670,-0.00112848,-0.00002672,-0.00
 001368,0.00000279,0.00177336,-0.00010783,0.00003427,-0.00002917,-0.000
 08421,0.00010774,-0.00000444,-0.00000127,-0.00000216,0.00000959,0.0000
 0041,0.00000181,0.00004738,-0.00007598,0.00002163,0.00002492,-0.000092
 92,-0.00005268,-0.00934803,0.02582794,0.00116566,0.00024191,-0.0002834
 1,0.00034906,-0.00047916,-0.00023207,-0.00008959,-0.00037827,-0.000343
 47,0.01537379,0.08653879,-0.46515260,0.00063790,0.00028868,-0.00041986
 ,0.00009913,0.00001950,0.00000173,-0.00037947,-0.00042553,0.00010245,0
 .00150252,0.00143220,0.00175539,-0.00021340,0.00010007,0.00022138,0.00
 021444,0.00296887,-0.01558900,0.00022301,-0.00070400,0.00049720,-0.000
 07186,-0.00002122,-0.00006270,0.00017671,-0.00007535,-0.00001023,0.000
 24488,0.00029384,-0.00010173,0.00001674,-0.00000844,-0.00002859,-0.001
 96074,0.00067159,0.00154190,-0.00002877,0.00002769,-0.00005241,0.00000
 638,0.00000151,0.00000872,0.00003131,-0.00000511,0.00000480,-0.0000281
 2,0.00006335,-0.00001808,0.00001734,-0.00003825,0.00007997,-0.01828054
 ,-0.09016021,0.47648943,-0.00104410,0.00048438,-0.00179421,-0.00022688
 ,0.00007252,0.00006061,0.00006373,0.00081707,-0.00042125,0.00021235,-0
 .00000234,-0.00087077,-0.03174860,-0.08945308,-0.07146401,0.00008690,0
 .00011904,-0.00001111,0.00055832,0.00040003,-0.00023837,0.00136773,-0.
 00059583,0.00082025,0.00149472,-0.00071275,-0.00222087,-0.00115021,-0.
 00004207,0.00216929,-0.00132152,0.00062614,0.00269802,-0.00043152,-0.0
 0021737,0.00048814,-0.00020209,-0.00007612,0.00000451,-0.00039741,-0.0
 0161074,-0.00083318,-0.00243573,0.00128656,0.00055031,0.00005572,0.000
 09633,-0.00031678,0.00164051,-0.00027042,0.00299942,0.00022847,-0.0000
 3844,0.00009291,0.00003493,-0.00000940,0.00000035,0.00004573,-0.000055
 92,-0.00000612,0.00002586,-0.00001131,-0.00005718,-0.00875390,-0.00252
 359,0.00104664,0.04191448,0.00168788,-0.00167536,0.00190914,-0.0002570
 0,0.00043482,0.00011711,0.00052582,0.00187513,-0.00171654,0.00046213,-
 0.00094704,0.00052918,-0.09349269,-0.31660133,-0.22301032,-0.00018801,
 -0.00017459,0.00000413,0.00074502,-0.00088261,-0.00019801,0.00127684,0
 .00212070,0.00183934,-0.00122764,0.00159354,0.00098076,-0.00226509,0.0
 0075545,0.00532012,0.00343753,0.01185493,0.01136548,0.00033237,-0.0000
 1144,-0.00025314,-0.00026332,0.00021568,-0.00009340,-0.00097971,0.0011
 6531,-0.00276796,0.00192779,-0.00112599,-0.00015155,0.00005851,-0.0004
 3915,-0.00025122,-0.00039991,0.00085204,0.00196863,-0.00013986,0.00002
 490,-0.00003152,0.00001225,0.00001130,0.00000281,0.00007180,-0.0001103
 0,0.00002060,-0.00000878,-0.00018654,-0.00015229,-0.00304786,-0.000254
 62,-0.00033606,0.09174305,0.30148181,0.00074791,-0.00002299,0.00044627
 ,0.00026084,-0.00067609,-0.00017593,-0.00051268,-0.00133388,0.00069489
 ,-0.00047252,-0.00033173,0.00081622,-0.05934620,-0.17569002,-0.1907393
 1,0.00031136,0.00016335,-0.00000383,-0.00062879,0.00097887,-0.00018976
 ,-0.00111403,0.00048807,0.00094049,-0.00005114,0.00035161,-0.00020840,
 0.00185362,0.00031885,0.00068935,-0.00852822,-0.03163260,-0.03298766,-
 0.00047777,-0.00009183,0.00032341,0.00014688,-0.00021219,0.00009378,-0
 .00013962,-0.00106692,0.00214811,-0.00023631,0.00004773,0.00096728,-0.
 00094313,-0.00045837,0.00048071,-0.00025749,0.00312446,-0.00452394,0.0
 0021039,-0.00003510,0.00007368,0.00006570,-0.00001625,-0.00001287,-0.0
 0004959,0.00008051,-0.00004569,-0.00000748,0.00010596,0.00007525,0.001
 93333,0.00108311,0.00160040,0.06734050,0.20487626,0.21958438,0.0015906
 9,-0.00072337,0.00083952,-0.00000940,0.00042230,0.00007527,0.00015634,
 0.00018325,0.00000130,0.00063468,0.00012948,0.00010831,0.00030140,-0.0
 0031136,0.00087600,-0.09751487,0.14448738,0.11260040,0.00001940,-0.000
 29699,0.00032521,-0.00015812,-0.00016453,-0.00008016,-0.00034286,-0.00
 335755,-0.00181552,-0.00002813,-0.00050907,0.00027970,-0.00126213,0.00
 248829,-0.00124056,0.00618856,-0.02574250,-0.01294094,0.00001407,0.000
 04868,-0.00002790,0.00001211,0.00000854,0.00001382,-0.00009257,0.00017
 329,0.00012936,0.00002113,0.00000309,-0.00000674,0.00011932,-0.0000985
 2,-0.00000774,-0.00006102,-0.00017820,0.00064063,-0.00216781,-0.003258
 31,0.00032639,0.00000022,0.00004776,0.00005425,-0.00000871,-0.00000126
 ,-0.00001903,-0.00007181,-0.00001070,-0.00005300,-0.00001749,-0.000011
 12,-0.00010555,0.09267702,0.00118445,0.00018282,0.00036196,-0.00014729
 ,0.00011029,0.00005666,0.00028644,0.00013488,-0.00001582,0.00019154,-0
 .00001213,0.00003198,0.00011702,-0.00012262,0.00022598,0.10436005,-0.2
 9467814,-0.16409736,0.00077818,-0.00086032,0.00004133,-0.00018079,0.00
 019905,-0.00004004,0.00048138,0.00050510,-0.00136570,-0.00004390,-0.00
 001945,0.00007382,-0.00049036,0.00063151,-0.00030057,0.00917476,-0.033
 86548,-0.01780276,0.00001949,0.00001011,0.00001519,0.00004017,-0.00001
 727,0.00002645,-0.00009804,0.00001480,-0.00000137,0.00000920,-0.000005
 66,-0.00000390,0.00004913,-0.00005092,-0.00000663,0.00157157,0.0015540
 1,-0.00032490,-0.00388811,-0.00243955,0.00241852,-0.00001949,-0.000001
 71,0.00000599,-0.00001894,-0.00001715,-0.00001776,-0.00002216,0.000006
 20,-0.00001639,-0.00002573,0.00002336,-0.00005082,-0.11332858,0.328718
 29,0.00141446,0.00067103,0.00009304,0.00002151,0.00014858,0.00006166,0
 .00023337,0.00010314,-0.00001812,0.00011167,-0.00001444,0.00001808,0.0
 0003149,-0.00003747,0.00002845,0.09984506,-0.19311202,-0.13930681,0.00
 036915,-0.00060949,0.00010581,-0.00013557,0.00014801,-0.00008022,0.000
 68473,-0.00049997,-0.00006850,-0.00005301,0.00001902,0.00005613,-0.000
 29417,0.00012270,-0.00038690,-0.00262082,0.00966658,0.00282655,0.00001
 146,0.00004490,-0.00004551,0.00001386,-0.00001014,0.00000962,-0.000161
 65,-0.00002204,-0.00005619,0.00000709,-0.00000877,-0.00000406,0.000068
 40,-0.00004617,0.00000939,-0.00030766,0.00101747,0.00099643,0.00079442
 ,0.00163524,0.00092017,0.00001113,-0.00001968,0.00002249,-0.00002071,-
 0.00001506,-0.00001050,-0.00001410,0.00000403,-0.00000925,-0.00003709,
 0.00002842,-0.00004683,-0.09997302,0.18078613,0.13488505\\-0.01110079,
 0.00073451,-0.00088002,0.00567114,-0.00583650,-0.00290418,-0.00573442,
 -0.00415804,0.00008578,-0.00427157,0.00493207,0.00114264,-0.00174203,-
 0.00867231,0.00691699,0.01658217,0.01471125,-0.00340837,-0.00433203,0.
 00108590,-0.00416843,0.00314998,-0.00675710,0.01252386,0.00561695,-0.0
 1501983,-0.00230422,-0.00912320,-0.00877885,-0.00861065,0.00428530,0.0
 0729287,-0.00068536,-0.00818985,0.00339087,0.00518293,-0.00169138,0.00
 537385,0.00157231,0.00632274,0.00447901,-0.00175262,-0.00103893,-0.002
 27544,-0.00040066,0.00032645,0.00297646,-0.00232631,0.00536213,-0.0018
 5732,-0.00040471,-0.00499038,-0.00476568,0.00196027,-0.00150785,0.0026
 4866,-0.00126379,0.00715797,0.00333393,-0.00194189,-0.00503738,0.00554
 875,0.00326905,-0.00307061,-0.00013298,0.00524412,0.00500950,0.0068103
 4,-0.00350108,0.00234607,-0.00506442,-0.00334566\\\@


 AND THIS OUR LIFE, EXEMPT FROM PUBLIC HAUNT,
 FINDS TONGUES IN TREES, BOOKS IN THE RUNNING BROOKS,
 SERMONS IN STONES, AND GOOD IN EVERYTHING.
 I WOULD NOT CHANGE IT. -- W. SHAKESPEARE
 AS YOU LIKE IT, ACT II, SCENE 1.
 Job cpu time:  0 days  7 hours 24 minutes 10.3 seconds.
 File lengths (MBytes):  RWF=    446 Int=      0 D2E=      0 Chk=     17 Scr=      1
 Normal termination of Gaussian 09 at Wed Apr  1 22:28:03 2015.
Gaussian '09 finished on node025 at Wed Apr  1 22:28:03 EDT 2015.
