Gaussian '09 started on node008 at Fri Feb 12 10:19:15 EST 2016.
 Entering Gaussian System, Link 0=/usr/local/gaussian/g09/g09
 Initial command:
 /usr/local/gaussian/g09/l1.exe /home/srmcgrat/thesis/gaussian/cellobiose/400/8000/1/2dfp/gaussian29066/Gau-29102.inp -scrdir=/home/srmcgrat/thesis/gaussian/cellobiose/400/8000/1/2dfp/gaussian29066/
 Entering Link 1 = /usr/local/gaussian/g09/l1.exe PID=     29104.
  
 Copyright (c) 1988,1990,1992,1993,1995,1998,2003,2009,2010,
            Gaussian, Inc.  All Rights Reserved.
  
 This is part of the Gaussian(R) 09 program.  It is based on
 the Gaussian(R) 03 system (copyright 2003, Gaussian, Inc.),
 the Gaussian(R) 98 system (copyright 1998, Gaussian, Inc.),
 the Gaussian(R) 94 system (copyright 1995, Gaussian, Inc.),
 the Gaussian 92(TM) system (copyright 1992, Gaussian, Inc.),
 the Gaussian 90(TM) system (copyright 1990, Gaussian, Inc.),
 the Gaussian 88(TM) system (copyright 1988, Gaussian, Inc.),
 the Gaussian 86(TM) system (copyright 1986, Carnegie Mellon
 University), and the Gaussian 82(TM) system (copyright 1983,
 Carnegie Mellon University). Gaussian is a federally registered
 trademark of Gaussian, Inc.
  
 This software contains proprietary and confidential information,
 including trade secrets, belonging to Gaussian, Inc.
  
 This software is provided under written license and may be
 used, copied, transmitted, or stored only in accord with that
 written license.
  
 The following legend is applicable only to US Government
 contracts under FAR:
  
                    RESTRICTED RIGHTS LEGEND
  
 Use, reproduction and disclosure by the US Government is
 subject to restrictions as set forth in subparagraphs (a)
 and (c) of the Commercial Computer Software - Restricted
 Rights clause in FAR 52.227-19.
  
 Gaussian, Inc.
 340 Quinnipiac St., Bldg. 40, Wallingford CT 06492
  
  
 ---------------------------------------------------------------
 Warning -- This program may not be used in any manner that
 competes with the business of Gaussian, Inc. or will provide
 assistance to any competitor of Gaussian, Inc.  The licensee
 of this program is prohibited from giving any competitor of
 Gaussian, Inc. access to this program.  By using this program,
 the user acknowledges that Gaussian, Inc. is engaged in the
 business of creating and licensing software in the field of
 computational chemistry and represents and warrants to the
 licensee that it is not a competitor of Gaussian, Inc. and that
 it will not use this program in any manner prohibited above.
 ---------------------------------------------------------------
  

 Cite this work as:
 Gaussian 09, Revision B.01,
 M. J. Frisch, G. W. Trucks, H. B. Schlegel, G. E. Scuseria, 
 M. A. Robb, J. R. Cheeseman, G. Scalmani, V. Barone, B. Mennucci, 
 G. A. Petersson, H. Nakatsuji, M. Caricato, X. Li, H. P. Hratchian, 
 A. F. Izmaylov, J. Bloino, G. Zheng, J. L. Sonnenberg, M. Hada, 
 M. Ehara, K. Toyota, R. Fukuda, J. Hasegawa, M. Ishida, T. Nakajima, 
 Y. Honda, O. Kitao, H. Nakai, T. Vreven, J. A. Montgomery, Jr., 
 J. E. Peralta, F. Ogliaro, M. Bearpark, J. J. Heyd, E. Brothers, 
 K. N. Kudin, V. N. Staroverov, T. Keith, R. Kobayashi, J. Normand, 
 K. Raghavachari, A. Rendell, J. C. Burant, S. S. Iyengar, J. Tomasi, 
 M. Cossi, N. Rega, J. M. Millam, M. Klene, J. E. Knox, J. B. Cross, 
 V. Bakken, C. Adamo, J. Jaramillo, R. Gomperts, R. E. Stratmann, 
 O. Yazyev, A. J. Austin, R. Cammi, C. Pomelli, J. W. Ochterski, 
 R. L. Martin, K. Morokuma, V. G. Zakrzewski, G. A. Voth, 
 P. Salvador, J. J. Dannenberg, S. Dapprich, A. D. Daniels, 
 O. Farkas, J. B. Foresman, J. V. Ortiz, J. Cioslowski, 
 and D. J. Fox, Gaussian, Inc., Wallingford CT, 2010.
 
 ******************************************
 Gaussian 09:  EM64L-G09RevB.01 12-Aug-2010
                12-Feb-2016 
 ******************************************
 --------------------------------------------------
 # freq=raman b3lyp/6-31+g(2df,p) geom=connectivity
 --------------------------------------------------
 1/10=4,30=1,38=1,57=2/1,3;
 2/12=2,17=6,18=5,40=1/2;
 3/5=1,6=6,7=114,11=2,16=1,25=1,30=1,71=2,74=-5/1,2,3;
 4//1;
 5/5=2,38=5,98=1/2;
 8/6=4,10=90,11=11/1;
 10/13=10,15=4/2;
 11/6=3,8=1,9=11,15=111,16=1/1,2,10;
 10/6=1/2;
 6/7=2,8=2,9=2,10=2,18=1,28=1/1;
 7/8=1,10=1,25=1/1,2,3,16;
 1/10=4,30=1/3;
 99//99;
 ------------
 400 8000.com
 ------------
 Symbolic Z-matrix:
 Charge =  0 Multiplicity = 1
 O                     9.664     7.656     12.094 
 C                     10.342    7.829     13.347 
 C                     10.319    9.252     13.882 
 O                     10.796    10.209    12.925 
 H                     10.448    9.881     12.047 
 C                     10.993    9.461     15.228 
 O                     10.46     10.651    15.825 
 H                     10.838    10.846    16.73 
 C                     10.349    5.399     14.061 
 O                     9.473     4.795     13.098 
 H                     9.433     3.857     13.444 
 C                     10.05     6.835     14.459 
 O                     10.897    7.1       15.587 
 C                     10.541    8.36      16.173 
 O                     11.385    8.255     17.329 
 C                     10.731    8.186     18.605 
 C                     10.537    6.833     19.27 
 O                     9.917     6.005     18.276 
 H                     10.256    6.165     17.349 
 C                     9.829     6.813     20.616 
 O                     9.923     5.528     21.249 
 H                     9.68      5.549     22.219 
 C                     11.697    10.355    19.201 
 O                     10.775    11.229    18.533 
 H                     11.042    12.193    18.554 
 C                     11.389    8.964     19.732 
 O                     10.52     9.128     20.862 
 C                     10.385    7.876     21.549 
 O                     9.505     7.943     22.681 
 H                     10.02386   7.99072   23.48729 
 H                     11.35198   7.56493   21.88529 
 H                     8.79377   7.02601   20.44917 
 H                     11.51475   6.43227   19.4383 
 H                     9.75595   8.60427   18.46632 
 H                     12.29385   8.47861   20.03291 
 H                     12.51948   10.2324   18.52766 
 H                     12.06672   10.9093   20.03823 
 H                     10.31055   7.55894   11.39104 
 H                     10.32523   4.80053   14.94766 
 H                     11.34299   5.36763   13.66617 
 H                     9.02482   6.91863   14.75381 
 H                     11.37006   7.65461   13.10705 
 H                     9.28607   9.4844    14.03675 
 H                     12.0588   9.50056   15.14199 
 H                     9.502     8.41781   16.42208 
 

 GradGradGradGradGradGradGradGradGradGradGradGradGradGradGradGradGradGrad
 Berny optimization.
 Initialization pass.
 Trust Radius=3.00D-01 FncErr=1.00D-07 GrdErr=1.00D-07
 Number of steps in this run=      2 maximum allowed number of steps=      2.
 GradGradGradGradGradGradGradGradGradGradGradGradGradGradGradGradGradGrad

                          Input orientation:                          
 ---------------------------------------------------------------------
 Center     Atomic      Atomic             Coordinates (Angstroms)
 Number     Number       Type             X           Y           Z
 ---------------------------------------------------------------------
      1          8           0        9.664000    7.656000   12.094000
      2          6           0       10.342000    7.829000   13.347000
      3          6           0       10.319000    9.252000   13.882000
      4          8           0       10.796000   10.209000   12.925000
      5          1           0       10.448000    9.881000   12.047000
      6          6           0       10.993000    9.461000   15.228000
      7          8           0       10.460000   10.651000   15.825000
      8          1           0       10.838000   10.846000   16.730000
      9          6           0       10.349000    5.399000   14.061000
     10          8           0        9.473000    4.795000   13.098000
     11          1           0        9.433000    3.857000   13.444000
     12          6           0       10.050000    6.835000   14.459000
     13          8           0       10.897000    7.100000   15.587000
     14          6           0       10.541000    8.360000   16.173000
     15          8           0       11.385000    8.255000   17.329000
     16          6           0       10.731000    8.186000   18.605000
     17          6           0       10.537000    6.833000   19.270000
     18          8           0        9.917000    6.005000   18.276000
     19          1           0       10.256000    6.165000   17.349000
     20          6           0        9.829000    6.813000   20.616000
     21          8           0        9.923000    5.528000   21.249000
     22          1           0        9.680000    5.549000   22.219000
     23          6           0       11.697000   10.355000   19.201000
     24          8           0       10.775000   11.229000   18.533000
     25          1           0       11.042000   12.193000   18.554000
     26          6           0       11.389000    8.964000   19.732000
     27          8           0       10.520000    9.128000   20.862000
     28          6           0       10.385000    7.876000   21.549000
     29          8           0        9.505000    7.943000   22.681000
     30          1           0       10.023861    7.990722   23.487291
     31          1           0       11.351977    7.564933   21.885292
     32          1           0        8.793773    7.026009   20.449170
     33          1           0       11.514745    6.432265   19.438304
     34          1           0        9.755953    8.604272   18.466323
     35          1           0       12.293848    8.478607   20.032907
     36          1           0       12.519485   10.232402   18.527659
     37          1           0       12.066716   10.909302   20.038233
     38          1           0       10.310547    7.558943   11.391037
     39          1           0       10.325234    4.800533   14.947663
     40          1           0       11.342993    5.367626   13.666167
     41          1           0        9.024820    6.918631   14.753808
     42          1           0       11.370062    7.654613   13.107047
     43          1           0        9.286071    9.484402   14.036750
     44          1           0       12.058803    9.500564   15.141988
     45          1           0        9.502002    8.417810   16.422081
 ---------------------------------------------------------------------
                    Distance matrix (angstroms):
                    1          2          3          4          5
     1  O    0.000000
     2  C    1.435138   0.000000
     3  C    2.484590   1.520422   0.000000
     4  O    2.913725   2.459390   1.435001   0.000000
     5  H    2.359553   2.431448   1.944095   0.999786   0.000000
     6  C    3.853080   2.573983   1.519761   2.429428   3.254564
     7  O    4.850155   3.757405   2.398402   2.952670   3.855688
     8  H    5.748641   4.559934   3.304739   3.858181   4.797272
     9  C    3.071215   2.532735   3.857272   4.962500   4.914705
    10  O    3.038062   3.165804   4.603827   5.575989   5.284186
    11  H    4.038349   4.075840   5.484785   6.517287   6.266611
    12  C    2.533034   1.519817   2.499436   3.780681   3.905671
    13  O    3.745727   2.420138   2.805746   4.094182   4.524065
    14  C    4.231192   2.882332   2.468528   3.746109   4.398405
    15  O    5.543092   4.138315   3.743284   4.853891   5.605477
    16  C    6.619102   5.284443   4.859303   6.029855   6.779416
    17  C    7.275605   6.009324   5.910129   7.191904   7.840278
    18  O    6.403666   5.272821   5.478307   6.861447   7.355663
    19  H    5.494413   4.335008   4.642588   6.018082   6.477401
    20  C    8.565183   7.357567   7.178828   8.462824   9.122694
    21  O    9.402632   8.240860   8.264241   9.589727  10.193186
    22  H   10.341921   9.184173   9.144731  10.456553  11.082673
    23  C    7.869380   6.518130   5.604218   6.342026   7.277664
    24  O    7.447239   6.216276   5.074275   5.700044   6.632664
    25  H    8.013417   6.829886   5.567746   5.973476   6.931034
    26  C    7.938862   6.569068   5.954019   6.945281   7.796512
    27  O    8.931816   7.628520   6.983994   8.015030   8.847396
    28  C    9.485002   8.202247   7.789777   8.943444   9.711436
    29  O   10.592083   9.372146   8.932999  10.098563  10.850210
    30  H   11.403886  10.146570   9.692242  10.820303  11.603159
    31  H    9.936144   8.601873   8.244145   9.358794  10.147578
    32  H    8.423957   7.313181   7.099935   8.411508   9.026843
    33  H    7.672130   6.358473   6.344543   7.563296   8.225758
    34  H    6.443149   5.210754   4.663967   5.862005   6.581540
    35  H    8.403512   6.995216   6.506290   7.467271   8.315561
    36  H    7.495573   6.112038   5.233113   5.861803   6.812744
    37  H    8.914475   7.565415   6.610626   7.259699   8.218118
    38  H    0.960000   1.974768   3.011878   3.100243   2.416843
    39  H    4.090760   3.425495   4.577252   5.793471   5.851501
    40  H    3.244593   2.676232   4.022873   4.928228   4.877834
    41  H    2.833168   2.131395   2.807056   4.160306   4.257685
    42  H    1.984166   1.070000   2.063233   2.624420   2.632621
    43  H    2.694469   2.081129   1.070000   2.010203   2.338049
    44  H    4.292753   2.993914   2.162468   2.647941   3.509754
    45  H    4.397600   3.241669   2.795598   4.136710   4.709264
                    6          7          8          9         10
     6  C    0.000000
     7  O    1.434084   0.000000
     8  H    2.048964   0.999967   0.000000
     9  C    4.275099   5.541437   6.085433   0.000000
    10  O    5.349659   6.534786   7.188133   1.435117   0.000000
    11  H    6.084494   7.272024   7.849710   1.896710   1.000580
    12  C    2.894216   4.073808   4.676164   1.519836   2.519296
    13  O    2.390067   3.585696   3.916943   2.349975   3.679120
    14  C    1.519714   2.318695   2.564889   3.642105   4.827574
    15  O    2.454038   2.976316   2.715012   4.462046   5.790398
    16  C    3.619171   3.725328   3.256175   5.344271   6.588512
    17  C    4.842735   5.143061   4.758820   5.406050   6.586283
    18  O    4.732020   5.280868   5.164653   4.280197   5.336002
    19  H    3.988161   4.742192   4.757483   3.377329   4.534423
    20  C    6.115337   6.171068   5.690709   6.725907   7.792264
    21  O    7.270889   7.480192   7.038445   7.201768   8.196255
    22  H    8.117992   8.217180   7.715458   8.186759   9.154453
    23  C    4.132745   3.607653   2.661729   7.266267   8.550227
    24  O    3.754514   2.786857   1.844307   7.359970   8.522370
    25  H    4.304475   3.188092   2.276621   8.174701   9.325240
    26  C    4.548609   4.355876   3.585740   6.778722   8.066075
    27  O    5.663618   5.262556   4.486209   7.758111   8.952698
    28  C    6.544993   6.361637   5.678809   7.887139   9.041223
    29  O    7.750205   7.433036   6.754162   9.027108  10.086864
    30  H    8.444930   8.122684   7.380814   9.781498  10.883633
    31  H    6.931340   6.859050   6.132423   8.180267   9.403169
    32  H    6.166554   6.107358   5.709940   6.773079   7.712227
    33  H    5.212687   5.653864   5.222447   5.598392   6.859213
    34  H    3.570854   3.414874   3.034960   5.480177   6.588589
    35  H    5.073897   5.078264   4.316623   6.995004   8.343804
    36  H    3.716580   3.423605   2.536823   6.929922   8.266051
    37  H    5.137002   4.516591   3.529612   8.309109   9.606190
    38  H    4.336571   5.407696   6.291858   3.434463   3.354786
    39  H    4.716403   5.917419   6.323553   1.070000   2.036563
    40  H    4.395171   5.775317   6.297196   1.070000   2.036563
    41  H    3.249959   4.139779   4.755753   2.131364   2.729904
    42  H    2.811344   4.146543   4.857348   2.653372   3.431663
    43  H    2.081641   2.436575   3.393527   4.221483   4.786093
    44  H    1.070000   2.084749   2.412953   4.573269   5.745137
    45  H    2.176499   2.502280   2.788514   3.924961   4.916819
                   11         12         13         14         15
    11  H    0.000000
    12  C    3.206150   0.000000
    13  O    4.153648   1.435276   0.000000
    14  C    5.380717   2.346168   1.434480   0.000000
    15  O    6.184330   3.469225   2.146330   1.435164   0.000000
    16  C    6.860100   4.413420   3.211740   2.445608   1.435497
    17  C    6.634581   4.835586   3.710172   3.452992   2.551209
    18  O    5.310027   3.908462   3.064335   3.218386   2.848567
    19  H    4.610121   2.973792   2.095173   2.506437   2.375530
    20  C    7.767389   6.161004   5.149159   4.758193   3.912144
    21  O    7.996897   6.915814   5.956350   5.845334   4.994034
    22  H    8.940050   7.874535   6.918823   6.722883   5.843078
    23  C    8.971775   6.131034   4.929099   3.805935   2.830500
    24  O    9.057884   6.035755   5.073701   3.722300   3.265944
    25  H    9.909081   6.816249   5.895996   4.540050   4.138371
    26  C    8.333446   5.842096   4.571388   3.708153   2.505415
    27  O    9.164700   6.817416   5.663968   4.751525   3.740647
    28  C    9.096686   7.173842   6.034050   5.399997   4.353394
    29  O   10.100631   8.314203   7.278266   6.603124   5.681166
    30  H   10.876786   9.102001   7.998147   7.341843   6.312455
    31  H    9.417359   7.574811   6.331797   5.824096   4.608371
    32  H    7.715156   6.123457   5.298088   4.808114   4.237963
    33  H    6.848162   5.205875   3.957274   3.914914   2.790763
    34  H    6.918426   4.390378   3.443156   2.436246   2.017248
    35  H    8.541510   6.229344   4.859818   4.240922   2.861313
    36  H    8.718700   5.847622   4.592589   3.600654   2.575647
    37  H   10.007764   7.196869   5.974320   4.875118   3.853570
    38  H    4.323092   3.162969   4.261532   4.854067   6.074401
    39  H    1.986791   2.110356   2.454225   3.770652   4.327495
    40  H    2.445286   2.110356   2.624811   3.985186   4.664230
    41  H    3.354965   1.070000   2.057222   2.527934   3.740046
    42  H    4.276402   2.059638   2.584870   3.253457   4.264455
    43  H    5.660441   2.789483   3.268599   2.720788   4.093390
    44  H    6.451963   3.406904   2.703799   2.160463   2.605468
    45  H    5.447450   2.580557   2.092846   1.070000   2.096352
                   16         17         18         19         20
    16  C    0.000000
    17  C    1.520023   0.000000
    18  O    2.351084   1.434580   0.000000
    19  H    2.426438   2.053150   0.999925   0.000000
    20  C    2.596701   1.520980   2.477137   3.357904   0.000000
    21  O    3.835175   2.448767   3.011029   3.965685   1.435531
    22  H    4.595581   3.328619   3.976349   4.942482   2.046828
    23  C    2.448047   3.708752   4.790253   4.802342   4.247048
    24  O    3.044170   4.463701   5.300225   5.226405   4.973415
    25  H    4.019374   5.431140   6.295574   6.197306   5.887921
    26  C    1.519334   2.341049   3.611426   3.846658   2.800332
    27  O    2.454778   2.793166   4.099285   4.603285   2.428420
    28  C    2.980428   2.510935   3.798973   4.536977   1.519735
    29  O    4.263320   3.732565   4.830074   5.670583   2.376153
    30  H    4.937099   4.403314   5.577819   6.408258   3.109552
    31  H    3.395829   2.835430   4.185635   4.872261   2.120369
    32  H    2.915371   2.113418   2.650805   3.534190   1.070000
    33  H    2.093857   1.070000   2.021458   2.453785   2.091331
    34  H    1.070000   2.096029   2.611202   2.729195   2.799126
    35  H    2.137061   2.525186   3.854200   4.087659   3.031455
    36  H    2.718900   4.004653   4.970632   4.801704   4.826198
    37  H    3.354798   4.421137   5.637279   5.746222   4.703283
    38  H    7.253361   7.915575   7.069111   6.119099   9.267592
    39  H    5.000215   4.781042   3.563035   2.762785   6.035422
    40  H    5.719252   5.848068   4.867265   3.921813   7.258200
    41  H    4.398745   4.763403   3.746537   2.969644   5.918037
    42  H    5.560419   6.273040   5.617000   4.631873   7.711522
    43  H    4.964129   5.998472   5.520466   4.788548   7.121635
    44  H    3.934919   5.145121   5.160264   4.387139   6.493060
    45  H    2.515811   3.419574   3.070975   2.550067   4.502366
                   21         22         23         24         25
    21  O    0.000000
    22  H    1.000195   0.000000
    23  C    5.535459   6.022811   0.000000
    24  O    6.372124   6.859156   1.435334   0.000000
    25  H    7.275810   7.709086   2.055694   1.000513   0.000000
    26  C    4.031940   4.557200   1.520430   2.635303   3.454639
    27  O    3.669629   3.918710   2.376926   3.146977   3.872154
    28  C    2.411752   2.522073   3.657853   4.526695   5.295107
    29  O    2.838586   2.444444   4.767914   5.442114   6.120212
    30  H    3.329433   2.772870   5.173151   5.966209   6.559963
    31  H    2.568256   2.640238   3.887022   4.999615   5.710744
    32  H    2.039341   2.469667   4.590080   5.026142   5.945081
    33  H    2.574873   3.446552   3.934130   4.937151   5.847354
    34  H    4.151464   4.839736   2.715228   2.816398   3.813210
    35  H    3.975662   4.493752   2.137556   3.481563   4.189391
    36  H    6.023191   6.604765   1.070000   2.009096   2.455117
    37  H    5.917760   6.259791   1.070000   2.009096   2.213792
    38  H   10.072455  11.030967   8.410452   8.043175   8.562566
    39  H    6.355930   7.338179   7.129146   7.374423   8.256391
    40  H    7.716311   8.714895   7.458794   7.639659   8.400431
    41  H    6.702843   7.618021   6.223078   5.993722   6.806573
    42  H    8.538611   9.503558   6.673473   6.524669   7.097456
    43  H    8.250778   9.088002   5.765414   5.047454   5.552057
    44  H    7.592003   8.447346   4.163717   4.016790   4.463734
    45  H    5.641577   6.470396   4.036473   3.738889   4.600949
                   26         27         28         29         30
    26  C    0.000000
    27  O    1.434907   0.000000
    28  C    2.343768   1.434468   0.000000
    29  O    3.645339   2.396500   1.435379   0.000000
    30  H    4.112552   2.903741   1.974982   0.960000   0.000000
    31  H    2.568156   2.045114   1.070000   2.046316   2.124051
    32  H    3.317430   2.751119   2.112845   2.515508   3.416719
    33  H    2.551813   3.206777   2.795663   4.103227   4.587573
    34  H    2.097185   2.568527   3.229393   4.273613   5.065407
    35  H    1.070000   2.062921   2.511050   3.882904   4.162168
    36  H    2.082613   3.266005   4.386018   5.619495   5.987589
    37  H    2.082613   2.498791   3.783055   4.727108   4.958564
    38  H    8.526952   9.602341  10.163182  11.325178  12.107353
    39  H    6.430858   7.331049   7.282837   8.387633   9.121041
    40  H    7.051975   8.160744   8.327590   9.553952  10.250621
    41  H    5.878374   6.665349   6.995804   8.007514   8.855574
    42  H    6.753137   7.939318   8.502114   9.758187  10.472569
    43  H    6.093357   6.945044   7.760702   8.783331   9.596257
    44  H    4.669555   5.935087   6.818404   8.110772   8.721508
    45  H    3.848980   4.610159   5.230539   6.276904   7.097319
                   31         32         33         34         35
    31  H    0.000000
    32  H    2.982833   0.000000
    33  H    2.701330   2.962781   0.000000
    34  H    3.913678   2.710791   2.959005   0.000000
    35  H    2.270078   3.812327   2.268936   2.985111   0.000000
    36  H    4.444341   5.277697   4.034825   3.208064   2.322171
    37  H    3.886808   5.095192   4.550653   3.622663   2.441289
    38  H   10.545805   9.199695   8.214499   7.173559   8.914099
    39  H    7.538355   6.129004   4.923752   5.212819   6.577490
    40  H    8.507776   7.433565   5.872012   6.003005   7.149665
    41  H    7.529371   5.701058   5.327361   4.142307   6.402261
    42  H    8.778722   7.806355   6.449797   5.677063   7.035615
    43  H    8.339781   6.885142   6.592367   4.540543   6.783232
    44  H    7.051129   6.704478   5.307427   4.142180   5.002072
    45  H    5.830650   4.319275   4.134141   2.068377   4.564664
                   36         37         38         39         40
    36  H    0.000000
    37  H    1.716109   0.000000
    38  H    7.934618   9.438381   0.000000
    39  H    6.865589   8.140253   4.500959   0.000000
    40  H    6.977412   8.475682   3.323256   1.731953   0.000000
    41  H    6.118473   7.287231   3.656682   2.492990   2.993745
    42  H    6.111400   7.688932   2.019013   3.553211   2.354498
    43  H    5.584150   6.766101   3.428810   4.883468   4.616937
    44  H    3.494364   5.094882   4.571206   5.013314   4.446528
    45  H    4.102610   5.085454   5.167475   3.992031   4.504213
                   41         42         43         44         45
    41  H    0.000000
    42  H    2.958657   0.000000
    43  H    2.676865   2.924977   0.000000
    44  H    4.002764   2.832470   2.984938   0.000000
    45  H    2.293115   3.880924   2.621841   3.057487   0.000000
 Stoichiometry    C12H22O11
 Framework group  C1[X(C12H22O11)]
 Deg. of freedom   129
 Full point group                 C1      NOp   1
 Largest Abelian subgroup         C1      NOp   1
 Largest concise Abelian subgroup C1      NOp   1
                         Standard orientation:                         
 ---------------------------------------------------------------------
 Center     Atomic      Atomic             Coordinates (Angstroms)
 Number     Number       Type             X           Y           Z
 ---------------------------------------------------------------------
      1          8           0        5.073436   -0.341346   -0.652280
      2          6           0        3.804615   -0.074595   -0.037008
      3          6           0        3.221657    1.290381   -0.366679
      4          8           0        4.137627    2.361423   -0.096318
      5          1           0        5.031767    1.999574   -0.359282
      6          6           0        1.858734    1.588011    0.236256
      7          8           0        1.229914    2.614888   -0.542658
      8          1           0        0.312867    2.852238   -0.222306
      9          6           0        3.174185   -2.472307    0.480952
     10          8           0        4.171116   -3.212653   -0.238476
     11          1           0        3.858105   -4.149849   -0.080844
     12          6           0        2.732078   -1.148195   -0.120022
     13          8           0        1.582329   -0.751118    0.641835
     14          6           0        0.959287    0.382103    0.021059
     15          8           0       -0.205730    0.416206    0.858478
     16          6           0       -1.468049    0.162966    0.223596
     17          6           0       -2.083177   -1.223927    0.316418
     18          8           0       -1.051676   -2.127510   -0.104964
     19          1           0       -0.136209   -1.865147    0.199891
     20          6           0       -3.416263   -1.443362   -0.382230
     21          8           0       -4.006326   -2.701521   -0.022216
     22          1           0       -4.972486   -2.768336   -0.272139
     23          6           0       -2.153240    2.464165    0.701014
     24          8           0       -1.500954    3.146458   -0.380274
     25          1           0       -1.559184    4.143727   -0.324681
     26          6           0       -2.631348    1.020895    0.691644
     27          8           0       -3.752324    0.954905   -0.201673
     28          6           0       -4.393832   -0.321643   -0.072876
     29          8           0       -5.513311   -0.484762   -0.956320
     30          1           0       -6.328920   -0.357684   -0.466184
     31          1           0       -4.734630   -0.432463    0.935328
     32          1           0       -3.240364   -1.449028   -1.437657
     33          1           0       -2.253208   -1.413835    1.355612
     34          1           0       -1.328266    0.369481   -0.816938
     35          1           0       -2.929830    0.727956    1.676528
     36          1           0       -1.489275    2.543888    1.536295
     37          1           0       -3.014734    3.053111    0.937383
     38          1           0        5.768928   -0.272949    0.005909
     39          1           0        2.309016   -3.094413    0.577729
     40          1           0        3.553988   -2.277344    1.462094
     41          1           0        2.450936   -1.295068   -1.141926
     42          1           0        4.034002   -0.017754    1.006568
     43          1           0        3.075505    1.292296   -1.426649
     44          1           0        1.926365    1.856120    1.269911
     45          1           0        0.724943    0.208766   -1.008473
 ---------------------------------------------------------------------
 Rotational constants (GHZ):      0.4190083      0.1424566      0.1105411
 Standard basis: 6-31+G(2df,p) (6D, 7F)
 There are   846 symmetry adapted basis functions of A   symmetry.
 Integral buffers will be    131072 words long.
 Raffenetti 2 integral format.
 Two-electron integral symmetry is turned on.
   846 basis functions,  1258 primitive gaussians,   915 cartesian basis functions
    91 alpha electrons       91 beta electrons
       nuclear repulsion energy      2285.0582417396 Hartrees.
 NAtoms=   45 NActive=   45 NUniq=   45 SFac= 1.00D+00 NAtFMM=   50 NAOKFM=F Big=F
 One-electron integrals computed using PRISM.
 NBasis=   846 RedAO= T  NBF=   846
 NBsUse=   846 1.00D-06 NBFU=   846
 Harris functional with IExCor=  402 diagonalized for initial guess.
 ExpMin= 4.38D-02 ExpMax= 5.48D+03 ExpMxC= 8.25D+02 IAcc=2 IRadAn=         0 AccDes= 0.00D+00
 HarFok:  IExCor=  402 AccDes= 0.00D+00 IRadAn=         0 IDoV= 1
 ScaDFX=  1.000000  1.000000  1.000000  1.000000
 FoFCou: FMM=F IPFlag=           0 FMFlag=      100000 FMFlg1=           0
         NFxFlg=           0 DoJE=T BraDBF=F KetDBF=T FulRan=T
         Omega=  0.000000  0.000000  1.000000  0.000000  0.000000 ICntrl=     500 IOpCl=  0
         NMat0=    1 NMatS0=    1 NMatT0=    0 NMatD0=    1 NMtDS0=    0 NMtDT0=    0
         I1Cent=           4 NGrid=           0.
 Petite list used in FoFCou.
 Initial guess orbital symmetries:
       Occupied  (A) (A) (A) (A) (A) (A) (A) (A) (A) (A) (A) (A)
                 (A) (A) (A) (A) (A) (A) (A) (A) (A) (A) (A) (A)
                 (A) (A) (A) (A) (A) (A) (A) (A) (A) (A) (A) (A)
                 (A) (A) (A) (A) (A) (A) (A) (A) (A) (A) (A) (A)
                 (A) (A) (A) (A) (A) (A) (A) (A) (A) (A) (A) (A)
                 (A) (A) (A) (A) (A) (A) (A) (A) (A) (A) (A) (A)
                 (A) (A) (A) (A) (A) (A) (A) (A) (A) (A) (A) (A)
                 (A) (A) (A) (A) (A) (A) (A)
       Virtual   (A) (A) (A) (A) (A) (A) (A) (A) (A) (A) (A) (A)
                 (A) (A) (A) (A) (A) (A) (A) (A) (A) (A) (A) (A)
                 (A) (A) (A) (A) (A) (A) (A) (A) (A) (A) (A) (A)
                 (A) (A) (A) (A) (A) (A) (A) (A) (A) (A) (A) (A)
                 (A) (A) (A) (A) (A) (A) (A) (A) (A) (A) (A) (A)
                 (A) (A) (A) (A) (A) (A) (A) (A) (A) (A) (A) (A)
                 (A) (A) (A) (A) (A) (A) (A) (A) (A) (A) (A) (A)
                 (A) (A) (A) (A) (A) (A) (A) (A) (A) (A) (A) (A)
                 (A) (A) (A) (A) (A) (A) (A) (A) (A) (A) (A) (A)
                 (A) (A) (A) (A) (A) (A) (A) (A) (A) (A) (A) (A)
                 (A) (A) (A) (A) (A) (A) (A) (A) (A) (A) (A) (A)
                 (A) (A) (A) (A) (A) (A) (A) (A) (A) (A) (A) (A)
                 (A) (A) (A) (A) (A) (A) (A) (A) (A) (A) (A) (A)
                 (A) (A) (A) (A) (A) (A) (A) (A) (A) (A) (A) (A)
                 (A) (A) (A) (A) (A) (A) (A) (A) (A) (A) (A) (A)
                 (A) (A) (A) (A) (A) (A) (A) (A) (A) (A) (A) (A)
                 (A) (A) (A) (A) (A) (A) (A) (A) (A) (A) (A) (A)
                 (A) (A) (A) (A) (A) (A) (A) (A) (A) (A) (A) (A)
                 (A) (A) (A) (A) (A) (A) (A) (A) (A) (A) (A) (A)
                 (A) (A) (A) (A) (A) (A) (A) (A) (A) (A) (A) (A)
                 (A) (A) (A) (A) (A) (A) (A) (A) (A) (A) (A) (A)
                 (A) (A) (A) (A) (A) (A) (A) (A) (A) (A) (A) (A)
                 (A) (A) (A) (A) (A) (A) (A) (A) (A) (A) (A) (A)
                 (A) (A) (A) (A) (A) (A) (A) (A) (A) (A) (A) (A)
                 (A) (A) (A) (A) (A) (A) (A) (A) (A) (A) (A) (A)
                 (A) (A) (A) (A) (A) (A) (A) (A) (A) (A) (A) (A)
                 (A) (A) (A) (A) (A) (A) (A) (A) (A) (A) (A) (A)
                 (A) (A) (A) (A) (A) (A) (A) (A) (A) (A) (A) (A)
                 (A) (A) (A) (A) (A) (A) (A) (A) (A) (A) (A) (A)
                 (A) (A) (A) (A) (A) (A) (A) (A) (A) (A) (A) (A)
                 (A) (A) (A) (A) (A) (A) (A) (A) (A) (A) (A) (A)
                 (A) (A) (A) (A) (A) (A) (A) (A) (A) (A) (A) (A)
                 (A) (A) (A) (A) (A) (A) (A) (A) (A) (A) (A) (A)
                 (A) (A) (A) (A) (A) (A) (A) (A) (A) (A) (A) (A)
                 (A) (A) (A) (A) (A) (A) (A) (A) (A) (A) (A) (A)
                 (A) (A) (A) (A) (A) (A) (A) (A) (A) (A) (A) (A)
                 (A) (A) (A) (A) (A) (A) (A) (A) (A) (A) (A) (A)
                 (A) (A) (A) (A) (A) (A) (A) (A) (A) (A) (A) (A)
                 (A) (A) (A) (A) (A) (A) (A) (A) (A) (A) (A) (A)
                 (A) (A) (A) (A) (A) (A) (A) (A) (A) (A) (A) (A)
                 (A) (A) (A) (A) (A) (A) (A) (A) (A) (A) (A) (A)
                 (A) (A) (A) (A) (A) (A) (A) (A) (A) (A) (A) (A)
                 (A) (A) (A) (A) (A) (A) (A) (A) (A) (A) (A) (A)
                 (A) (A) (A) (A) (A) (A) (A) (A) (A) (A) (A) (A)
                 (A) (A) (A) (A) (A) (A) (A) (A) (A) (A) (A) (A)
                 (A) (A) (A) (A) (A) (A) (A) (A) (A) (A) (A) (A)
                 (A) (A) (A) (A) (A) (A) (A) (A) (A) (A) (A) (A)
                 (A) (A) (A) (A) (A) (A) (A) (A) (A) (A) (A) (A)
                 (A) (A) (A) (A) (A) (A) (A) (A) (A) (A) (A) (A)
                 (A) (A) (A) (A) (A) (A) (A) (A) (A) (A) (A) (A)
                 (A) (A) (A) (A) (A) (A) (A) (A) (A) (A) (A) (A)
                 (A) (A) (A) (A) (A) (A) (A) (A) (A) (A) (A) (A)
                 (A) (A) (A) (A) (A) (A) (A) (A) (A) (A) (A) (A)
                 (A) (A) (A) (A) (A) (A) (A) (A) (A) (A) (A) (A)
                 (A) (A) (A) (A) (A) (A) (A) (A) (A) (A) (A) (A)
                 (A) (A) (A) (A) (A) (A) (A) (A) (A) (A) (A) (A)
                 (A) (A) (A) (A) (A) (A) (A) (A) (A) (A) (A) (A)
                 (A) (A) (A) (A) (A) (A) (A) (A) (A) (A) (A) (A)
                 (A) (A) (A) (A) (A) (A) (A) (A) (A) (A) (A) (A)
                 (A) (A) (A) (A) (A) (A) (A) (A) (A) (A) (A) (A)
                 (A) (A) (A) (A) (A) (A) (A) (A) (A) (A) (A) (A)
                 (A) (A) (A) (A) (A) (A) (A) (A) (A) (A) (A) (A)
                 (A) (A) (A) (A) (A) (A) (A) (A) (A) (A) (A)
 The electronic state of the initial guess is 1-A.
 Requested convergence on RMS density matrix=1.00D-08 within 128 cycles.
 Requested convergence on MAX density matrix=1.00D-06.
 Requested convergence on             energy=1.00D-06.
 No special actions if energy rises.
 SCF Done:  E(RB3LYP) =  -1297.99296126     A.U. after   13 cycles
             Convg  =    0.4900D-08             -V/T =  2.0066
 Range of M.O.s used for correlation:     1   846
 NBasis=   846 NAE=    91 NBE=    91 NFC=     0 NFV=     0
 NROrb=    846 NOA=    91 NOB=    91 NVA=   755 NVB=   755

 **** Warning!!: The largest alpha MO coefficient is  0.63172617D+02

          Differentiating once with respect to electric field.
                with respect to dipole field.
          Electric field/nuclear overlap derivatives assumed to be zero.
          There are     3 degrees of freedom in the 1st order CPHF.  IDoFFX=0.
      3 vectors produced by pass  0 Test12= 2.29D-12 3.33D-08 XBig12= 1.25D+02 1.11D+00.
 AX will form     3 AO Fock derivatives at one time.
      3 vectors produced by pass  1 Test12= 2.29D-12 3.33D-08 XBig12= 2.81D+01 4.03D-01.
      3 vectors produced by pass  2 Test12= 2.29D-12 3.33D-08 XBig12= 1.05D+01 2.15D-01.
      3 vectors produced by pass  3 Test12= 2.29D-12 3.33D-08 XBig12= 1.24D+00 1.02D-01.
      3 vectors produced by pass  4 Test12= 2.29D-12 3.33D-08 XBig12= 3.95D-01 4.52D-02.
      3 vectors produced by pass  5 Test12= 2.29D-12 3.33D-08 XBig12= 7.35D-02 2.94D-02.
      3 vectors produced by pass  6 Test12= 2.29D-12 3.33D-08 XBig12= 2.29D-02 1.86D-02.
      3 vectors produced by pass  7 Test12= 2.29D-12 3.33D-08 XBig12= 3.37D-03 1.04D-02.
      3 vectors produced by pass  8 Test12= 2.29D-12 3.33D-08 XBig12= 7.01D-04 3.40D-03.
      3 vectors produced by pass  9 Test12= 2.29D-12 3.33D-08 XBig12= 1.87D-04 2.09D-03.
      3 vectors produced by pass 10 Test12= 2.29D-12 3.33D-08 XBig12= 4.59D-05 9.30D-04.
      3 vectors produced by pass 11 Test12= 2.29D-12 3.33D-08 XBig12= 1.08D-05 4.62D-04.
      3 vectors produced by pass 12 Test12= 2.29D-12 3.33D-08 XBig12= 1.59D-06 1.49D-04.
      3 vectors produced by pass 13 Test12= 2.29D-12 3.33D-08 XBig12= 5.92D-07 7.66D-05.
      3 vectors produced by pass 14 Test12= 2.29D-12 3.33D-08 XBig12= 6.41D-08 2.96D-05.
      3 vectors produced by pass 15 Test12= 2.29D-12 3.33D-08 XBig12= 1.37D-08 1.07D-05.
      3 vectors produced by pass 16 Test12= 2.29D-12 3.33D-08 XBig12= 2.92D-09 5.37D-06.
      3 vectors produced by pass 17 Test12= 2.29D-12 3.33D-08 XBig12= 2.91D-10 1.42D-06.
      3 vectors produced by pass 18 Test12= 2.29D-12 3.33D-08 XBig12= 5.54D-11 5.18D-07.
      3 vectors produced by pass 19 Test12= 2.29D-12 3.33D-08 XBig12= 2.15D-11 3.07D-07.
      3 vectors produced by pass 20 Test12= 2.29D-12 3.33D-08 XBig12= 1.43D-11 3.39D-07.
      2 vectors produced by pass 21 Test12= 2.29D-12 3.33D-08 XBig12= 3.34D-12 1.28D-07.
      1 vectors produced by pass 22 Test12= 2.29D-12 3.33D-08 XBig12= 6.82D-13 4.90D-08.
 Inverted reduced A of dimension    66 with in-core refinement.
 End of Minotr Frequency-dependent properties file   721 does not exist.
 End of Minotr Frequency-dependent properties file   722 does not exist.
 Symmetrizing basis deriv contribution to polar:
 IMax=3 JMax=2 DiffMx= 0.00D+00
 G2DrvN: will do     8 centers at a time, making    6 passes doing MaxLOS=3.
 Calling FoFCou, ICntrl=  3107 FMM=F I1Cent=   0 AccDes= 0.00D+00.
 Calling FoFCou, ICntrl=  3107 FMM=F I1Cent=   0 AccDes= 0.00D+00.
 Calling FoFCou, ICntrl=  3107 FMM=F I1Cent=   0 AccDes= 0.00D+00.
 Calling FoFCou, ICntrl=  3107 FMM=F I1Cent=   0 AccDes= 0.00D+00.
 Calling FoFCou, ICntrl=  3107 FMM=F I1Cent=   0 AccDes= 0.00D+00.
 Calling FoFCou, ICntrl=  3107 FMM=F I1Cent=   0 AccDes= 0.00D+00.
 FoFDir/FoFCou used for L=0 through L=3.
 End of G2Drv Frequency-dependent properties file   721 does not exist.
 End of G2Drv Frequency-dependent properties file   722 does not exist.
          IDoAtm=111111111111111111111111111111111111111111111
          Differentiating once with respect to electric field.
                with respect to dipole field.
          Differentiating once with respect to nuclear coordinates.
          There are   138 degrees of freedom in the 1st order CPHF.  IDoFFX=5.
 Will reuse    3 saved solutions.
    135 vectors produced by pass  0 Test12= 6.87D-14 1.00D-09 XBig12= 1.79D-01 9.00D-02.
 AX will form    27 AO Fock derivatives at one time.
    135 vectors produced by pass  1 Test12= 6.87D-14 1.00D-09 XBig12= 2.36D-02 1.18D-02.
    132 vectors produced by pass  2 Test12= 6.87D-14 1.00D-09 XBig12= 1.51D-04 1.13D-03.
    132 vectors produced by pass  3 Test12= 6.87D-14 1.00D-09 XBig12= 8.39D-07 7.25D-05.
    132 vectors produced by pass  4 Test12= 6.87D-14 1.00D-09 XBig12= 2.40D-09 2.92D-06.
    132 vectors produced by pass  5 Test12= 6.87D-14 1.00D-09 XBig12= 6.00D-12 1.41D-07.
     93 vectors produced by pass  6 Test12= 6.87D-14 1.00D-09 XBig12= 2.67D-13 3.43D-08.
      5 vectors produced by pass  7 Test12= 6.87D-14 1.00D-09 XBig12= 1.05D-15 1.58D-09.
 Inverted reduced A of dimension   896 with in-core refinement.
 Isotropic polarizability for W=    0.000000      191.62 Bohr**3.
 End of Minotr Frequency-dependent properties file   721 does not exist.
 End of Minotr Frequency-dependent properties file   722 does not exist.

 **********************************************************************

            Population analysis using the SCF density.

 **********************************************************************

 Orbital symmetries:
       Occupied  (A) (A) (A) (A) (A) (A) (A) (A) (A) (A) (A) (A)
                 (A) (A) (A) (A) (A) (A) (A) (A) (A) (A) (A) (A)
                 (A) (A) (A) (A) (A) (A) (A) (A) (A) (A) (A) (A)
                 (A) (A) (A) (A) (A) (A) (A) (A) (A) (A) (A) (A)
                 (A) (A) (A) (A) (A) (A) (A) (A) (A) (A) (A) (A)
                 (A) (A) (A) (A) (A) (A) (A) (A) (A) (A) (A) (A)
                 (A) (A) (A) (A) (A) (A) (A) (A) (A) (A) (A) (A)
                 (A) (A) (A) (A) (A) (A) (A)
       Virtual   (A) (A) (A) (A) (A) (A) (A) (A) (A) (A) (A) (A)
                 (A) (A) (A) (A) (A) (A) (A) (A) (A) (A) (A) (A)
                 (A) (A) (A) (A) (A) (A) (A) (A) (A) (A) (A) (A)
                 (A) (A) (A) (A) (A) (A) (A) (A) (A) (A) (A) (A)
                 (A) (A) (A) (A) (A) (A) (A) (A) (A) (A) (A) (A)
                 (A) (A) (A) (A) (A) (A) (A) (A) (A) (A) (A) (A)
                 (A) (A) (A) (A) (A) (A) (A) (A) (A) (A) (A) (A)
                 (A) (A) (A) (A) (A) (A) (A) (A) (A) (A) (A) (A)
                 (A) (A) (A) (A) (A) (A) (A) (A) (A) (A) (A) (A)
                 (A) (A) (A) (A) (A) (A) (A) (A) (A) (A) (A) (A)
                 (A) (A) (A) (A) (A) (A) (A) (A) (A) (A) (A) (A)
                 (A) (A) (A) (A) (A) (A) (A) (A) (A) (A) (A) (A)
                 (A) (A) (A) (A) (A) (A) (A) (A) (A) (A) (A) (A)
                 (A) (A) (A) (A) (A) (A) (A) (A) (A) (A) (A) (A)
                 (A) (A) (A) (A) (A) (A) (A) (A) (A) (A) (A) (A)
                 (A) (A) (A) (A) (A) (A) (A) (A) (A) (A) (A) (A)
                 (A) (A) (A) (A) (A) (A) (A) (A) (A) (A) (A) (A)
                 (A) (A) (A) (A) (A) (A) (A) (A) (A) (A) (A) (A)
                 (A) (A) (A) (A) (A) (A) (A) (A) (A) (A) (A) (A)
                 (A) (A) (A) (A) (A) (A) (A) (A) (A) (A) (A) (A)
                 (A) (A) (A) (A) (A) (A) (A) (A) (A) (A) (A) (A)
                 (A) (A) (A) (A) (A) (A) (A) (A) (A) (A) (A) (A)
                 (A) (A) (A) (A) (A) (A) (A) (A) (A) (A) (A) (A)
                 (A) (A) (A) (A) (A) (A) (A) (A) (A) (A) (A) (A)
                 (A) (A) (A) (A) (A) (A) (A) (A) (A) (A) (A) (A)
                 (A) (A) (A) (A) (A) (A) (A) (A) (A) (A) (A) (A)
                 (A) (A) (A) (A) (A) (A) (A) (A) (A) (A) (A) (A)
                 (A) (A) (A) (A) (A) (A) (A) (A) (A) (A) (A) (A)
                 (A) (A) (A) (A) (A) (A) (A) (A) (A) (A) (A) (A)
                 (A) (A) (A) (A) (A) (A) (A) (A) (A) (A) (A) (A)
                 (A) (A) (A) (A) (A) (A) (A) (A) (A) (A) (A) (A)
                 (A) (A) (A) (A) (A) (A) (A) (A) (A) (A) (A) (A)
                 (A) (A) (A) (A) (A) (A) (A) (A) (A) (A) (A) (A)
                 (A) (A) (A) (A) (A) (A) (A) (A) (A) (A) (A) (A)
                 (A) (A) (A) (A) (A) (A) (A) (A) (A) (A) (A) (A)
                 (A) (A) (A) (A) (A) (A) (A) (A) (A) (A) (A) (A)
                 (A) (A) (A) (A) (A) (A) (A) (A) (A) (A) (A) (A)
                 (A) (A) (A) (A) (A) (A) (A) (A) (A) (A) (A) (A)
                 (A) (A) (A) (A) (A) (A) (A) (A) (A) (A) (A) (A)
                 (A) (A) (A) (A) (A) (A) (A) (A) (A) (A) (A) (A)
                 (A) (A) (A) (A) (A) (A) (A) (A) (A) (A) (A) (A)
                 (A) (A) (A) (A) (A) (A) (A) (A) (A) (A) (A) (A)
                 (A) (A) (A) (A) (A) (A) (A) (A) (A) (A) (A) (A)
                 (A) (A) (A) (A) (A) (A) (A) (A) (A) (A) (A) (A)
                 (A) (A) (A) (A) (A) (A) (A) (A) (A) (A) (A) (A)
                 (A) (A) (A) (A) (A) (A) (A) (A) (A) (A) (A) (A)
                 (A) (A) (A) (A) (A) (A) (A) (A) (A) (A) (A) (A)
                 (A) (A) (A) (A) (A) (A) (A) (A) (A) (A) (A) (A)
                 (A) (A) (A) (A) (A) (A) (A) (A) (A) (A) (A) (A)
                 (A) (A) (A) (A) (A) (A) (A) (A) (A) (A) (A) (A)
                 (A) (A) (A) (A) (A) (A) (A) (A) (A) (A) (A) (A)
                 (A) (A) (A) (A) (A) (A) (A) (A) (A) (A) (A) (A)
                 (A) (A) (A) (A) (A) (A) (A) (A) (A) (A) (A) (A)
                 (A) (A) (A) (A) (A) (A) (A) (A) (A) (A) (A) (A)
                 (A) (A) (A) (A) (A) (A) (A) (A) (A) (A) (A) (A)
                 (A) (A) (A) (A) (A) (A) (A) (A) (A) (A) (A) (A)
                 (A) (A) (A) (A) (A) (A) (A) (A) (A) (A) (A) (A)
                 (A) (A) (A) (A) (A) (A) (A) (A) (A) (A) (A) (A)
                 (A) (A) (A) (A) (A) (A) (A) (A) (A) (A) (A) (A)
                 (A) (A) (A) (A) (A) (A) (A) (A) (A) (A) (A) (A)
                 (A) (A) (A) (A) (A) (A) (A) (A) (A) (A) (A) (A)
                 (A) (A) (A) (A) (A) (A) (A) (A) (A) (A) (A) (A)
                 (A) (A) (A) (A) (A) (A) (A) (A) (A) (A) (A)
 The electronic state is 1-A.
 Alpha  occ. eigenvalues --  -19.18950 -19.18592 -19.18393 -19.18285 -19.18277
 Alpha  occ. eigenvalues --  -19.17411 -19.16246 -19.16028 -19.15512 -19.14102
 Alpha  occ. eigenvalues --  -19.13793 -10.30900 -10.30434 -10.26612 -10.25381
 Alpha  occ. eigenvalues --  -10.25312 -10.25282 -10.25137 -10.24928 -10.24718
 Alpha  occ. eigenvalues --  -10.24617 -10.24145 -10.23889  -1.10417  -1.09228
 Alpha  occ. eigenvalues --   -1.05434  -1.05000  -1.04032  -1.03790  -1.02852
 Alpha  occ. eigenvalues --   -1.02540  -1.02322  -1.00781  -1.00405  -0.82680
 Alpha  occ. eigenvalues --   -0.80185  -0.79263  -0.78445  -0.71903  -0.70081
 Alpha  occ. eigenvalues --   -0.67682  -0.65375  -0.63209  -0.62210  -0.61880
 Alpha  occ. eigenvalues --   -0.60495  -0.56658  -0.55957  -0.55131  -0.54614
 Alpha  occ. eigenvalues --   -0.54156  -0.53631  -0.52982  -0.52403  -0.51982
 Alpha  occ. eigenvalues --   -0.50669  -0.50029  -0.49068  -0.48459  -0.46070
 Alpha  occ. eigenvalues --   -0.45935  -0.45818  -0.44500  -0.44045  -0.43510
 Alpha  occ. eigenvalues --   -0.42616  -0.41979  -0.41259  -0.40554  -0.39595
 Alpha  occ. eigenvalues --   -0.38955  -0.38339  -0.36742  -0.36338  -0.35645
 Alpha  occ. eigenvalues --   -0.35318  -0.35156  -0.34650  -0.33915  -0.33644
 Alpha  occ. eigenvalues --   -0.33081  -0.31684  -0.31515  -0.30600  -0.30037
 Alpha  occ. eigenvalues --   -0.29663  -0.28940  -0.28415  -0.28164  -0.26703
 Alpha  occ. eigenvalues --   -0.25953
 Alpha virt. eigenvalues --   -0.02318  -0.02029  -0.01941  -0.00495   0.00227
 Alpha virt. eigenvalues --    0.01253   0.01727   0.02222   0.02851   0.03237
 Alpha virt. eigenvalues --    0.03658   0.03995   0.04487   0.05080   0.05649
 Alpha virt. eigenvalues --    0.06201   0.07011   0.07314   0.07551   0.07739
 Alpha virt. eigenvalues --    0.08234   0.08703   0.09102   0.09746   0.10065
 Alpha virt. eigenvalues --    0.10889   0.11062   0.11228   0.11428   0.11907
 Alpha virt. eigenvalues --    0.12290   0.12531   0.12900   0.13271   0.13330
 Alpha virt. eigenvalues --    0.13683   0.14511   0.14761   0.15233   0.15489
 Alpha virt. eigenvalues --    0.15736   0.16041   0.16165   0.16440   0.16624
 Alpha virt. eigenvalues --    0.16907   0.17312   0.17459   0.18021   0.18293
 Alpha virt. eigenvalues --    0.18483   0.18836   0.18983   0.19698   0.19992
 Alpha virt. eigenvalues --    0.20470   0.20616   0.20870   0.21083   0.21429
 Alpha virt. eigenvalues --    0.21759   0.21970   0.22364   0.22840   0.23231
 Alpha virt. eigenvalues --    0.23389   0.23775   0.24134   0.24303   0.24529
 Alpha virt. eigenvalues --    0.24750   0.24899   0.25200   0.25729   0.25958
 Alpha virt. eigenvalues --    0.26254   0.26593   0.26797   0.26951   0.27071
 Alpha virt. eigenvalues --    0.27330   0.27593   0.27736   0.28175   0.28600
 Alpha virt. eigenvalues --    0.29213   0.29342   0.29611   0.30242   0.30374
 Alpha virt. eigenvalues --    0.30545   0.31092   0.31257   0.31705   0.32081
 Alpha virt. eigenvalues --    0.32577   0.33116   0.33245   0.33451   0.33827
 Alpha virt. eigenvalues --    0.34185   0.34356   0.34553   0.35107   0.35799
 Alpha virt. eigenvalues --    0.35954   0.36093   0.36392   0.36616   0.37339
 Alpha virt. eigenvalues --    0.37658   0.37941   0.38519   0.39001   0.39519
 Alpha virt. eigenvalues --    0.39892   0.40252   0.40880   0.41088   0.41370
 Alpha virt. eigenvalues --    0.41969   0.42103   0.42710   0.42777   0.43597
 Alpha virt. eigenvalues --    0.44068   0.44363   0.44633   0.45440   0.46439
 Alpha virt. eigenvalues --    0.46764   0.47291   0.47947   0.48858   0.49867
 Alpha virt. eigenvalues --    0.50224   0.51506   0.53720   0.55889   0.58208
 Alpha virt. eigenvalues --    0.58924   0.59680   0.60132   0.61051   0.61877
 Alpha virt. eigenvalues --    0.62787   0.63443   0.64309   0.64979   0.66036
 Alpha virt. eigenvalues --    0.66754   0.67238   0.67366   0.68653   0.69259
 Alpha virt. eigenvalues --    0.70133   0.70815   0.71674   0.72600   0.72693
 Alpha virt. eigenvalues --    0.73451   0.74786   0.75294   0.75722   0.76045
 Alpha virt. eigenvalues --    0.76730   0.76885   0.78197   0.78998   0.80334
 Alpha virt. eigenvalues --    0.81440   0.82362   0.82846   0.83677   0.84061
 Alpha virt. eigenvalues --    0.84866   0.86359   0.87224   0.87426   0.87919
 Alpha virt. eigenvalues --    0.88853   0.89159   0.90198   0.90523   0.91007
 Alpha virt. eigenvalues --    0.91188   0.91607   0.92362   0.93027   0.93409
 Alpha virt. eigenvalues --    0.93921   0.94209   0.94772   0.95216   0.95434
 Alpha virt. eigenvalues --    0.95570   0.95874   0.96445   0.97179   0.97258
 Alpha virt. eigenvalues --    0.98739   0.99799   1.00216   1.00334   1.02308
 Alpha virt. eigenvalues --    1.02836   1.03430   1.03922   1.04167   1.05261
 Alpha virt. eigenvalues --    1.05747   1.06600   1.07425   1.07514   1.08221
 Alpha virt. eigenvalues --    1.09061   1.09692   1.09896   1.10554   1.11022
 Alpha virt. eigenvalues --    1.11368   1.11847   1.12481   1.13039   1.13168
 Alpha virt. eigenvalues --    1.13791   1.14108   1.14855   1.15682   1.15827
 Alpha virt. eigenvalues --    1.16217   1.17395   1.17662   1.17854   1.18380
 Alpha virt. eigenvalues --    1.18936   1.19380   1.20235   1.20451   1.21606
 Alpha virt. eigenvalues --    1.22079   1.23019   1.23265   1.23944   1.24321
 Alpha virt. eigenvalues --    1.24987   1.25591   1.26249   1.26834   1.27497
 Alpha virt. eigenvalues --    1.27927   1.28219   1.29128   1.29760   1.30791
 Alpha virt. eigenvalues --    1.31388   1.32004   1.32759   1.33186   1.33493
 Alpha virt. eigenvalues --    1.34287   1.34996   1.35827   1.36381   1.37037
 Alpha virt. eigenvalues --    1.37279   1.38288   1.38731   1.39714   1.40175
 Alpha virt. eigenvalues --    1.40856   1.41528   1.42211   1.42550   1.43345
 Alpha virt. eigenvalues --    1.44182   1.45157   1.45721   1.46585   1.46812
 Alpha virt. eigenvalues --    1.47657   1.48689   1.48991   1.50069   1.51336
 Alpha virt. eigenvalues --    1.52051   1.52472   1.53985   1.54499   1.54747
 Alpha virt. eigenvalues --    1.55900   1.57116   1.57728   1.58299   1.59014
 Alpha virt. eigenvalues --    1.59418   1.60254   1.61090   1.62359   1.63000
 Alpha virt. eigenvalues --    1.64482   1.64965   1.65228   1.65857   1.67797
 Alpha virt. eigenvalues --    1.68142   1.69088   1.70168   1.70691   1.71667
 Alpha virt. eigenvalues --    1.72151   1.73544   1.74158   1.76050   1.76480
 Alpha virt. eigenvalues --    1.76812   1.77955   1.78512   1.80279   1.81260
 Alpha virt. eigenvalues --    1.81797   1.83304   1.83813   1.84584   1.86218
 Alpha virt. eigenvalues --    1.87404   1.87934   1.88934   1.89800   1.90117
 Alpha virt. eigenvalues --    1.90786   1.92470   1.93198   1.93682   1.94166
 Alpha virt. eigenvalues --    1.95871   1.97318   1.98358   1.98554   2.01194
 Alpha virt. eigenvalues --    2.01284   2.02480   2.04151   2.05792   2.06275
 Alpha virt. eigenvalues --    2.06592   2.08097   2.08861   2.11221   2.13247
 Alpha virt. eigenvalues --    2.13735   2.15882   2.16396   2.18038   2.19619
 Alpha virt. eigenvalues --    2.21021   2.22033   2.23405   2.24238   2.25146
 Alpha virt. eigenvalues --    2.26894   2.27475   2.28736   2.29417   2.31431
 Alpha virt. eigenvalues --    2.33052   2.33805   2.36073   2.38290   2.41122
 Alpha virt. eigenvalues --    2.42295   2.43530   2.46952   2.48618   2.49854
 Alpha virt. eigenvalues --    2.51143   2.52098   2.53110   2.54035   2.54579
 Alpha virt. eigenvalues --    2.56143   2.57120   2.57462   2.58888   2.60508
 Alpha virt. eigenvalues --    2.60612   2.61893   2.62105   2.63987   2.64780
 Alpha virt. eigenvalues --    2.65113   2.66279   2.67054   2.68254   2.70278
 Alpha virt. eigenvalues --    2.70752   2.72866   2.75039   2.76724   2.77568
 Alpha virt. eigenvalues --    2.78755   2.79739   2.80723   2.81343   2.82712
 Alpha virt. eigenvalues --    2.84369   2.85051   2.85235   2.87102   2.88023
 Alpha virt. eigenvalues --    2.88926   2.90965   2.91097   2.91200   2.92173
 Alpha virt. eigenvalues --    2.94506   2.94940   2.95831   2.96452   2.98145
 Alpha virt. eigenvalues --    2.99578   3.00028   3.00902   3.01706   3.02520
 Alpha virt. eigenvalues --    3.03407   3.04134   3.04776   3.05829   3.06980
 Alpha virt. eigenvalues --    3.07572   3.08083   3.09082   3.09800   3.11762
 Alpha virt. eigenvalues --    3.12564   3.13700   3.14849   3.16251   3.16912
 Alpha virt. eigenvalues --    3.18594   3.19779   3.20577   3.21606   3.22373
 Alpha virt. eigenvalues --    3.23287   3.23851   3.25671   3.26668   3.27314
 Alpha virt. eigenvalues --    3.27960   3.28993   3.31135   3.32163   3.33174
 Alpha virt. eigenvalues --    3.34931   3.36811   3.37514   3.38753   3.39201
 Alpha virt. eigenvalues --    3.40433   3.41912   3.42471   3.43552   3.44772
 Alpha virt. eigenvalues --    3.45775   3.47697   3.50282   3.51408   3.53549
 Alpha virt. eigenvalues --    3.54958   3.56431   3.58440   3.58646   3.60015
 Alpha virt. eigenvalues --    3.60542   3.63744   3.64463   3.65389   3.66753
 Alpha virt. eigenvalues --    3.67694   3.69967   3.70993   3.71603   3.73559
 Alpha virt. eigenvalues --    3.73761   3.74528   3.75466   3.77855   3.78686
 Alpha virt. eigenvalues --    3.80351   3.81284   3.82633   3.85196   3.86331
 Alpha virt. eigenvalues --    3.87929   3.89319   3.89484   3.91351   3.91934
 Alpha virt. eigenvalues --    3.93215   3.94607   3.96883   3.99176   4.02848
 Alpha virt. eigenvalues --    4.04029   4.06919   4.09402   4.11609   4.13147
 Alpha virt. eigenvalues --    4.13317   4.15127   4.16926   4.19317   4.19811
 Alpha virt. eigenvalues --    4.21476   4.21732   4.23278   4.24266   4.25374
 Alpha virt. eigenvalues --    4.26406   4.26972   4.28336   4.29126   4.30416
 Alpha virt. eigenvalues --    4.30591   4.31477   4.32111   4.33119   4.34466
 Alpha virt. eigenvalues --    4.35631   4.36000   4.37707   4.38170   4.39036
 Alpha virt. eigenvalues --    4.40338   4.41291   4.41610   4.42535   4.43427
 Alpha virt. eigenvalues --    4.43809   4.44718   4.45004   4.46331   4.47247
 Alpha virt. eigenvalues --    4.47837   4.48584   4.49813   4.50112   4.50663
 Alpha virt. eigenvalues --    4.51222   4.52606   4.52748   4.53857   4.54334
 Alpha virt. eigenvalues --    4.54496   4.55389   4.56708   4.57155   4.58313
 Alpha virt. eigenvalues --    4.59097   4.59792   4.60146   4.61059   4.61319
 Alpha virt. eigenvalues --    4.62770   4.64022   4.64295   4.64321   4.65366
 Alpha virt. eigenvalues --    4.65652   4.66540   4.67100   4.67919   4.68127
 Alpha virt. eigenvalues --    4.68922   4.69663   4.70364   4.71214   4.72271
 Alpha virt. eigenvalues --    4.72525   4.73153   4.74257   4.74740   4.75336
 Alpha virt. eigenvalues --    4.75594   4.76089   4.77114   4.78226   4.78868
 Alpha virt. eigenvalues --    4.79389   4.80437   4.80748   4.82216   4.83209
 Alpha virt. eigenvalues --    4.83917   4.84422   4.84979   4.85994   4.86085
 Alpha virt. eigenvalues --    4.87124   4.87420   4.88539   4.88816   4.90266
 Alpha virt. eigenvalues --    4.91455   4.92309   4.93547   4.93875   4.94462
 Alpha virt. eigenvalues --    4.95652   4.97027   4.97535   4.98376   4.99271
 Alpha virt. eigenvalues --    5.04817   5.05960   5.07390   5.08883   5.10224
 Alpha virt. eigenvalues --    5.11719   5.12550   5.14171   5.15919   5.17835
 Alpha virt. eigenvalues --    5.18252   5.19757   5.20422   5.20848   5.22211
 Alpha virt. eigenvalues --    5.23671   5.24439   5.26026   5.26605   5.26895
 Alpha virt. eigenvalues --    5.28584   5.29091   5.30647   5.31946   5.33961
 Alpha virt. eigenvalues --    5.34699   5.36554   5.37043   5.38884   5.39574
 Alpha virt. eigenvalues --    5.39862   5.41268   5.42174   5.43050   5.44379
 Alpha virt. eigenvalues --    5.45023   5.45526   5.45942   5.47365   5.47464
 Alpha virt. eigenvalues --    5.48574   5.48768   5.50669   5.51271   5.52942
 Alpha virt. eigenvalues --    5.53357   5.54034   5.55135   5.57412   5.58997
 Alpha virt. eigenvalues --    5.60098   5.61251   5.61595   5.63753   5.65085
 Alpha virt. eigenvalues --    5.67097   5.68845   5.71159   5.72541   5.74171
 Alpha virt. eigenvalues --    5.75350   5.75710   5.77804   5.81145   5.84506
 Alpha virt. eigenvalues --    5.85929   5.87523   5.87784   5.89086   5.90075
 Alpha virt. eigenvalues --    5.90615   5.91829   5.92824   5.93587   5.94947
 Alpha virt. eigenvalues --    5.95573   5.96576   5.98220   5.99213   6.00794
 Alpha virt. eigenvalues --    6.02792   6.03369   6.04418   6.05110   6.06130
 Alpha virt. eigenvalues --    6.06727   6.09133   6.09328   6.10892   6.11996
 Alpha virt. eigenvalues --    6.13980   6.14954   6.16741   6.17658   6.18533
 Alpha virt. eigenvalues --    6.22442   6.25176   6.29580   6.33110   6.37262
 Alpha virt. eigenvalues --    6.52966   6.58571   6.95182   7.00742   7.05328
 Alpha virt. eigenvalues --    7.10881   7.16363   7.22914   7.24328   7.27124
 Alpha virt. eigenvalues --    7.30789   7.38986   7.47852   7.59448   7.73515
 Alpha virt. eigenvalues --    7.92364   8.06322  12.06682  12.12134  12.19890
 Alpha virt. eigenvalues --   12.30986  12.45861  12.52432  12.79890  12.92334
 Alpha virt. eigenvalues --   12.98560  13.11539  13.25094  13.34235  13.38744
 Alpha virt. eigenvalues --   13.42546  13.45048  13.51704  13.56900  13.64796
 Alpha virt. eigenvalues --   13.74042  13.79677  13.90107  14.06087  14.28336
          Condensed to atoms (all electrons):
              1          2          3          4          5          6
     1  O    8.027240   0.428005  -0.119331  -0.014684   0.023005   0.014528
     2  C    0.428005   8.272184  -1.350940   0.077321  -0.023038  -1.314303
     3  C   -0.119331  -1.350940   7.629065   0.131995  -0.039461   0.490469
     4  O   -0.014684   0.077321   0.131995   8.105074   0.239199  -0.096742
     5  H    0.023005  -0.023038  -0.039461   0.239199   0.428763   0.015581
     6  C    0.014528  -1.314303   0.490469  -0.096742   0.015581   9.336333
     7  O    0.000355   0.043091  -0.077829   0.009090  -0.000259   0.086592
     8  H    0.000004  -0.008289   0.010528  -0.000731   0.000013   0.065286
     9  C   -0.025771  -0.195340  -0.343606   0.007029  -0.000909   0.267322
    10  O   -0.006999   0.013856   0.013839  -0.000117   0.000000  -0.001990
    11  H    0.000456  -0.015122  -0.002192   0.000001   0.000000   0.000509
    12  C   -0.117957  -1.162201   0.217801   0.001344   0.019172   0.037160
    13  O    0.002150  -0.054281  -0.065203  -0.003526  -0.000003   0.044760
    14  C   -0.022544   1.050569  -0.528014   0.031804   0.002455  -2.548303
    15  O    0.000108   0.012702  -0.019090   0.000729   0.000009  -0.104004
    16  C    0.001806   0.089537  -0.113698  -0.000803   0.000577   0.018622
    17  C    0.000032  -0.035041  -0.019082   0.000593   0.000046  -0.035178
    18  O    0.000005   0.000678   0.000551  -0.000016   0.000000   0.014770
    19  H   -0.000024   0.001456   0.003244   0.000006   0.000000  -0.004560
    20  C    0.000019   0.007836  -0.005742   0.000009   0.000001  -0.003894
    21  O    0.000000   0.000033   0.000024   0.000000   0.000000  -0.000105
    22  H    0.000000  -0.000001   0.000000   0.000000   0.000000  -0.000033
    23  C    0.000031   0.010395  -0.014265   0.000101  -0.000025   0.033768
    24  O   -0.000006   0.002686  -0.011258  -0.000166  -0.000002   0.008362
    25  H    0.000000  -0.000111   0.000189   0.000002   0.000000  -0.002411
    26  C   -0.000112  -0.022385   0.039608   0.000580   0.000001  -0.228519
    27  O    0.000000   0.000036   0.000012   0.000001   0.000000  -0.002102
    28  C    0.000001   0.000145  -0.000053   0.000010   0.000000  -0.017845
    29  O    0.000000   0.000003  -0.000001   0.000000   0.000000  -0.000097
    30  H    0.000000   0.000000   0.000000   0.000000   0.000000   0.000009
    31  H    0.000000   0.000004   0.000000   0.000000   0.000000  -0.000056
    32  H    0.000000   0.000147  -0.000079   0.000000   0.000000   0.001193
    33  H    0.000000  -0.000148   0.000165   0.000000   0.000000   0.007933
    34  H    0.000000  -0.002191   0.004149   0.000011   0.000000  -0.004033
    35  H    0.000000  -0.000103  -0.000055   0.000000   0.000000  -0.002280
    36  H    0.000000   0.000456   0.001237   0.000005   0.000000  -0.005246
    37  H    0.000000   0.000033  -0.000485   0.000000   0.000000   0.001710
    38  H    0.277652  -0.006730  -0.023574   0.001281  -0.002082  -0.003631
    39  H   -0.000118  -0.027162   0.005716   0.000010   0.000000  -0.006907
    40  H    0.001072   0.021462  -0.020742   0.000020  -0.000001   0.013536
    41  H    0.002355   0.131307  -0.102509   0.000215  -0.000005   0.002196
    42  H   -0.026599   0.413729  -0.116575   0.001385  -0.000378  -0.011391
    43  H   -0.003565   0.079440   0.299979  -0.022857  -0.001352  -0.270613
    44  H   -0.000389  -0.006708  -0.045006   0.003316  -0.000153   0.257445
    45  H    0.000047  -0.046657   0.001624  -0.000137   0.000004   0.013755
              7          8          9         10         11         12
     1  O    0.000355   0.000004  -0.025771  -0.006999   0.000456  -0.117957
     2  C    0.043091  -0.008289  -0.195340   0.013856  -0.015122  -1.162201
     3  C   -0.077829   0.010528  -0.343606   0.013839  -0.002192   0.217801
     4  O    0.009090  -0.000731   0.007029  -0.000117   0.000001   0.001344
     5  H   -0.000259   0.000013  -0.000909   0.000000   0.000000   0.019172
     6  C    0.086592   0.065286   0.267322  -0.001990   0.000509   0.037160
     7  O    8.158922   0.237173   0.001815  -0.000007   0.000001  -0.009980
     8  H    0.237173   0.353024   0.000177   0.000000   0.000000   0.002487
     9  C    0.001815   0.000177   7.486199   0.105164   0.006885  -1.300273
    10  O   -0.000007   0.000000   0.105164   8.109986   0.229802   0.002508
    11  H    0.000001   0.000000   0.006885   0.229802   0.447779   0.017974
    12  C   -0.009980   0.002487  -1.300273   0.002508   0.017974   9.547881
    13  O    0.005473  -0.000264  -0.027011   0.001729  -0.001095   0.061160
    14  C    0.027194  -0.077087  -0.654550   0.005400  -0.003705  -1.046687
    15  O    0.001852   0.009841  -0.004683   0.000220   0.000000  -0.027490
    16  C    0.054233   0.009754  -0.047041   0.000739  -0.000364  -0.027198
    17  C    0.015360  -0.000358  -0.007671  -0.000587   0.000047  -0.212217
    18  O    0.000024  -0.000063  -0.005112  -0.000214  -0.000016   0.017015
    19  H   -0.000079  -0.000003  -0.007795   0.000043   0.000001  -0.006160
    20  C    0.000817   0.000194  -0.009063  -0.000083   0.000013   0.002295
    21  O   -0.000010   0.000000   0.000043   0.000000   0.000000   0.000333
    22  H    0.000000   0.000000  -0.000005   0.000000   0.000000  -0.000002
    23  C    0.013028   0.001736  -0.001189  -0.000011  -0.000001  -0.023153
    24  O   -0.058224   0.022342  -0.000236   0.000000   0.000000  -0.002586
    25  H    0.002942  -0.003578  -0.000002   0.000000   0.000000   0.000010
    26  C   -0.034716  -0.018673   0.001082   0.000090  -0.000005   0.087006
    27  O    0.000278  -0.000022  -0.000004   0.000000   0.000000  -0.000149
    28  C    0.000822  -0.000170   0.000644   0.000006   0.000000   0.004253
    29  O   -0.000006   0.000000   0.000000   0.000000   0.000000   0.000024
    30  H    0.000000   0.000000   0.000000   0.000000   0.000000  -0.000001
    31  H    0.000000   0.000000  -0.000001   0.000000   0.000000   0.000039
    32  H    0.000005   0.000000  -0.000033   0.000000   0.000000  -0.000023
    33  H    0.000004  -0.000001   0.000275   0.000000   0.000000  -0.001259
    34  H   -0.002678  -0.000402  -0.000748   0.000000   0.000000   0.001631
    35  H    0.000009  -0.000003   0.000060   0.000000   0.000000   0.000179
    36  H    0.003994  -0.001477  -0.000090   0.000000   0.000000  -0.000874
    37  H   -0.000612   0.000336   0.000002   0.000000   0.000000  -0.000104
    38  H   -0.000028   0.000000   0.002139  -0.000901  -0.000009   0.011829
    39  H   -0.000014   0.000000   0.401744  -0.017222  -0.016422  -0.013431
    40  H    0.000015   0.000000   0.610028  -0.051283   0.001895  -0.263774
    41  H    0.000331   0.000004   0.051623   0.001105  -0.000277   0.012855
    42  H    0.001133   0.000004  -0.028584  -0.001437  -0.000022  -0.062747
    43  H    0.008920  -0.000187   0.005202  -0.000068   0.000000   0.017995
    44  H   -0.023238  -0.005435   0.010120   0.000005   0.000000   0.064782
    45  H   -0.003403  -0.000386   0.017397   0.000034   0.000000   0.092710
             13         14         15         16         17         18
     1  O    0.002150  -0.022544   0.000108   0.001806   0.000032   0.000005
     2  C   -0.054281   1.050569   0.012702   0.089537  -0.035041   0.000678
     3  C   -0.065203  -0.528014  -0.019090  -0.113698  -0.019082   0.000551
     4  O   -0.003526   0.031804   0.000729  -0.000803   0.000593  -0.000016
     5  H   -0.000003   0.002455   0.000009   0.000577   0.000046   0.000000
     6  C    0.044760  -2.548303  -0.104004   0.018622  -0.035178   0.014770
     7  O    0.005473   0.027194   0.001852   0.054233   0.015360   0.000024
     8  H   -0.000264  -0.077087   0.009841   0.009754  -0.000358  -0.000063
     9  C   -0.027011  -0.654550  -0.004683  -0.047041  -0.007671  -0.005112
    10  O    0.001729   0.005400   0.000220   0.000739  -0.000587  -0.000214
    11  H   -0.001095  -0.003705   0.000000  -0.000364   0.000047  -0.000016
    12  C    0.061160  -1.046687  -0.027490  -0.027198  -0.212217   0.017015
    13  O    7.920551   0.253978  -0.021922  -0.018381   0.003221  -0.017931
    14  C    0.253978  10.978443   0.311465  -1.231245  -0.403846   0.090388
    15  O   -0.021922   0.311465   7.858014   0.139739   0.013322  -0.015262
    16  C   -0.018381  -1.231245   0.139739  12.732195  -3.211353   0.045824
    17  C    0.003221  -0.403846   0.013322  -3.211353  10.389106   0.157763
    18  O   -0.017931   0.090388  -0.015262   0.045824   0.157763   8.140092
    19  H    0.022734  -0.022176   0.016025  -0.086830   0.066291   0.232828
    20  C   -0.007986  -0.277097   0.012012  -1.122094  -0.021647  -0.111862
    21  O    0.000078   0.003605   0.000076   0.098848  -0.169465   0.014892
    22  H    0.000001  -0.000766  -0.000004  -0.017872   0.019694  -0.000453
    23  C   -0.000645   0.004529  -0.090962   0.573911  -0.250234   0.012089
    24  O   -0.000104   0.050396  -0.001910   0.008611  -0.002147   0.000162
    25  H    0.000013  -0.003850   0.000527   0.016555   0.000627  -0.000001
    26  C   -0.016191  -0.575448   0.059611  -3.301314   0.046582  -0.055686
    27  O    0.000056  -0.003043   0.003396   0.090495  -0.038736  -0.003649
    28  C    0.003186   0.019500   0.009779   0.857397  -0.260168   0.003694
    29  O    0.000010  -0.000761  -0.000170  -0.021128   0.017092   0.000052
    30  H    0.000000   0.000177  -0.000002   0.002663   0.006105   0.000002
    31  H    0.000011   0.000828   0.000370   0.057051  -0.044283   0.000439
    32  H    0.000010  -0.010211  -0.000313   0.109207  -0.238377   0.008782
    33  H   -0.000863   0.024593  -0.009417   0.043281   0.201182  -0.022180
    34  H   -0.001317  -0.041340  -0.034692   0.168876  -0.014348  -0.003732
    35  H   -0.000275   0.023625  -0.001523   0.021517   0.015760   0.000306
    36  H    0.000068  -0.010956   0.003632   0.011091  -0.001786  -0.000052
    37  H   -0.000009   0.004302  -0.002659   0.083172   0.005667   0.000043
    38  H   -0.000413   0.003630   0.000005   0.000274  -0.000012   0.000000
    39  H   -0.002600  -0.007174  -0.000302   0.004014   0.002758   0.000106
    40  H   -0.006353   0.000875  -0.000536  -0.002386   0.000653  -0.000019
    41  H   -0.015225   0.160785   0.000337   0.000966   0.005309   0.000291
    42  H    0.003531   0.074674  -0.000993  -0.008653   0.000860   0.000025
    43  H    0.000612   0.130227   0.000809  -0.010671   0.001816   0.000050
    44  H    0.006412   0.035900  -0.008162  -0.029778   0.001114   0.000055
    45  H   -0.018019   0.200645  -0.030284   0.020976  -0.004205  -0.001691
             19         20         21         22         23         24
     1  O   -0.000024   0.000019   0.000000   0.000000   0.000031  -0.000006
     2  C    0.001456   0.007836   0.000033  -0.000001   0.010395   0.002686
     3  C    0.003244  -0.005742   0.000024   0.000000  -0.014265  -0.011258
     4  O    0.000006   0.000009   0.000000   0.000000   0.000101  -0.000166
     5  H    0.000000   0.000001   0.000000   0.000000  -0.000025  -0.000002
     6  C   -0.004560  -0.003894  -0.000105  -0.000033   0.033768   0.008362
     7  O   -0.000079   0.000817  -0.000010   0.000000   0.013028  -0.058224
     8  H   -0.000003   0.000194   0.000000   0.000000   0.001736   0.022342
     9  C   -0.007795  -0.009063   0.000043  -0.000005  -0.001189  -0.000236
    10  O    0.000043  -0.000083   0.000000   0.000000  -0.000011   0.000000
    11  H    0.000001   0.000013   0.000000   0.000000  -0.000001   0.000000
    12  C   -0.006160   0.002295   0.000333  -0.000002  -0.023153  -0.002586
    13  O    0.022734  -0.007986   0.000078   0.000001  -0.000645  -0.000104
    14  C   -0.022176  -0.277097   0.003605  -0.000766   0.004529   0.050396
    15  O    0.016025   0.012012   0.000076  -0.000004  -0.090962  -0.001910
    16  C   -0.086830  -1.122094   0.098848  -0.017872   0.573911   0.008611
    17  C    0.066291  -0.021647  -0.169465   0.019694  -0.250234  -0.002147
    18  O    0.232828  -0.111862   0.014892  -0.000453   0.012089   0.000162
    19  H    0.368614   0.013211  -0.000539   0.000010  -0.003422  -0.000035
    20  C    0.013211   7.113746   0.219169  -0.010687   0.040070  -0.000890
    21  O   -0.000539   0.219169   8.109152   0.241858   0.001052   0.000029
    22  H    0.000010  -0.010687   0.241858   0.410995   0.000096   0.000000
    23  C   -0.003422   0.040070   0.001052   0.000096   6.342913   0.195803
    24  O   -0.000035  -0.000890   0.000029   0.000000   0.195803   8.205032
    25  H    0.000000  -0.000076   0.000000   0.000000  -0.039591   0.260931
    26  C    0.020297   0.945586  -0.037544   0.004039  -1.152742  -0.089852
    27  O    0.000073  -0.077128   0.002266  -0.000171  -0.073627   0.010144
    28  C   -0.001634  -0.936587   0.020479  -0.006850  -0.142018  -0.000912
    29  O    0.000001  -0.089708  -0.013759   0.011271   0.006834  -0.000070
    30  H    0.000000   0.001770   0.000319  -0.002044   0.000672  -0.000005
    31  H    0.000004  -0.089195   0.000128  -0.000137   0.012288   0.000013
    32  H   -0.000094   0.348190  -0.027279  -0.001622   0.011110  -0.000013
    33  H   -0.001875  -0.033221  -0.000318  -0.000238   0.021969   0.000015
    34  H   -0.000182   0.030218  -0.000250   0.000003  -0.029156   0.002829
    35  H    0.000007  -0.038442  -0.000216   0.000009  -0.011340   0.004021
    36  H    0.000001  -0.000640   0.000000   0.000000   0.526036  -0.067248
    37  H    0.000000  -0.004289  -0.000002   0.000000   0.469756  -0.027549
    38  H    0.000000   0.000000   0.000000   0.000000   0.000001   0.000000
    39  H    0.000840   0.000041   0.000002   0.000000  -0.000025   0.000000
    40  H   -0.000009  -0.000042   0.000000   0.000000   0.000012   0.000000
    41  H   -0.001014   0.000241  -0.000001   0.000000   0.000459  -0.000001
    42  H   -0.000014   0.000015   0.000000   0.000000   0.000240   0.000003
    43  H   -0.000003   0.000090   0.000000   0.000000   0.000623   0.000048
    44  H   -0.000010   0.000295   0.000000   0.000000   0.000341  -0.000283
    45  H   -0.001745   0.008238   0.000012   0.000000  -0.002874  -0.001104
             25         26         27         28         29         30
     1  O    0.000000  -0.000112   0.000000   0.000001   0.000000   0.000000
     2  C   -0.000111  -0.022385   0.000036   0.000145   0.000003   0.000000
     3  C    0.000189   0.039608   0.000012  -0.000053  -0.000001   0.000000
     4  O    0.000002   0.000580   0.000001   0.000010   0.000000   0.000000
     5  H    0.000000   0.000001   0.000000   0.000000   0.000000   0.000000
     6  C   -0.002411  -0.228519  -0.002102  -0.017845  -0.000097   0.000009
     7  O    0.002942  -0.034716   0.000278   0.000822  -0.000006   0.000000
     8  H   -0.003578  -0.018673  -0.000022  -0.000170   0.000000   0.000000
     9  C   -0.000002   0.001082  -0.000004   0.000644   0.000000   0.000000
    10  O    0.000000   0.000090   0.000000   0.000006   0.000000   0.000000
    11  H    0.000000  -0.000005   0.000000   0.000000   0.000000   0.000000
    12  C    0.000010   0.087006  -0.000149   0.004253   0.000024  -0.000001
    13  O    0.000013  -0.016191   0.000056   0.003186   0.000010   0.000000
    14  C   -0.003850  -0.575448  -0.003043   0.019500  -0.000761   0.000177
    15  O    0.000527   0.059611   0.003396   0.009779  -0.000170  -0.000002
    16  C    0.016555  -3.301314   0.090495   0.857397  -0.021128   0.002663
    17  C    0.000627   0.046582  -0.038736  -0.260168   0.017092   0.006105
    18  O   -0.000001  -0.055686  -0.003649   0.003694   0.000052   0.000002
    19  H    0.000000   0.020297   0.000073  -0.001634   0.000001   0.000000
    20  C   -0.000076   0.945586  -0.077128  -0.936587  -0.089708   0.001770
    21  O    0.000000  -0.037544   0.002266   0.020479  -0.013759   0.000319
    22  H    0.000000   0.004039  -0.000171  -0.006850   0.011271  -0.002044
    23  C   -0.039591  -1.152742  -0.073627  -0.142018   0.006834   0.000672
    24  O    0.260931  -0.089852   0.010144  -0.000912  -0.000070  -0.000005
    25  H    0.386059   0.010293  -0.000046   0.001612  -0.000011   0.000000
    26  C    0.010293  11.042108   0.138755  -0.992790  -0.006753   0.000168
    27  O   -0.000046   0.138755   7.847259   0.255977  -0.009689   0.000354
    28  C    0.001612  -0.992790   0.255977   6.429046   0.321780  -0.028150
    29  O   -0.000011  -0.006753  -0.009689   0.321780   8.032831   0.268145
    30  H    0.000000   0.000168   0.000354  -0.028150   0.268145   0.412750
    31  H    0.000000  -0.039091  -0.045638   0.433846  -0.026571  -0.009332
    32  H    0.000000  -0.000115   0.001301   0.054712  -0.004078   0.000042
    33  H    0.000000   0.019992   0.000382  -0.021328  -0.000119   0.000017
    34  H   -0.000048   0.172250   0.002546   0.006968  -0.000580   0.000003
    35  H   -0.000081   0.197647  -0.028029   0.075832  -0.000414  -0.000012
    36  H    0.000136  -0.158889   0.005254   0.002818   0.000005   0.000000
    37  H   -0.008578  -0.192645  -0.006260  -0.004726   0.000072  -0.000001
    38  H    0.000000   0.000003   0.000000   0.000000   0.000000   0.000000
    39  H    0.000000   0.000613   0.000000  -0.000017   0.000000   0.000000
    40  H    0.000000  -0.000282   0.000000   0.000006   0.000000   0.000000
    41  H    0.000000  -0.003067   0.000001   0.000066   0.000000   0.000000
    42  H    0.000000  -0.000915   0.000000   0.000004   0.000000   0.000000
    43  H    0.000000  -0.001620   0.000000   0.000004   0.000000   0.000000
    44  H    0.000013  -0.001119   0.000006   0.000004   0.000000   0.000000
    45  H    0.000008   0.029789   0.000340  -0.000368  -0.000001   0.000000
             31         32         33         34         35         36
     1  O    0.000000   0.000000   0.000000   0.000000   0.000000   0.000000
     2  C    0.000004   0.000147  -0.000148  -0.002191  -0.000103   0.000456
     3  C    0.000000  -0.000079   0.000165   0.004149  -0.000055   0.001237
     4  O    0.000000   0.000000   0.000000   0.000011   0.000000   0.000005
     5  H    0.000000   0.000000   0.000000   0.000000   0.000000   0.000000
     6  C   -0.000056   0.001193   0.007933  -0.004033  -0.002280  -0.005246
     7  O    0.000000   0.000005   0.000004  -0.002678   0.000009   0.003994
     8  H    0.000000   0.000000  -0.000001  -0.000402  -0.000003  -0.001477
     9  C   -0.000001  -0.000033   0.000275  -0.000748   0.000060  -0.000090
    10  O    0.000000   0.000000   0.000000   0.000000   0.000000   0.000000
    11  H    0.000000   0.000000   0.000000   0.000000   0.000000   0.000000
    12  C    0.000039  -0.000023  -0.001259   0.001631   0.000179  -0.000874
    13  O    0.000011   0.000010  -0.000863  -0.001317  -0.000275   0.000068
    14  C    0.000828  -0.010211   0.024593  -0.041340   0.023625  -0.010956
    15  O    0.000370  -0.000313  -0.009417  -0.034692  -0.001523   0.003632
    16  C    0.057051   0.109207   0.043281   0.168876   0.021517   0.011091
    17  C   -0.044283  -0.238377   0.201182  -0.014348   0.015760  -0.001786
    18  O    0.000439   0.008782  -0.022180  -0.003732   0.000306  -0.000052
    19  H    0.000004  -0.000094  -0.001875  -0.000182   0.000007   0.000001
    20  C   -0.089195   0.348190  -0.033221   0.030218  -0.038442  -0.000640
    21  O    0.000128  -0.027279  -0.000318  -0.000250  -0.000216   0.000000
    22  H   -0.000137  -0.001622  -0.000238   0.000003   0.000009   0.000000
    23  C    0.012288   0.011110   0.021969  -0.029156  -0.011340   0.526036
    24  O    0.000013  -0.000013   0.000015   0.002829   0.004021  -0.067248
    25  H    0.000000   0.000000   0.000000  -0.000048  -0.000081   0.000136
    26  C   -0.039091  -0.000115   0.019992   0.172250   0.197647  -0.158889
    27  O   -0.045638   0.001301   0.000382   0.002546  -0.028029   0.005254
    28  C    0.433846   0.054712  -0.021328   0.006968   0.075832   0.002818
    29  O   -0.026571  -0.004078  -0.000119  -0.000580  -0.000414   0.000005
    30  H   -0.009332   0.000042   0.000017   0.000003  -0.000012   0.000000
    31  H    0.606247   0.005364   0.001947  -0.000004   0.005578  -0.000004
    32  H    0.005364   0.592643   0.006870   0.001686  -0.000026   0.000000
    33  H    0.001947   0.006870   0.630537   0.006477   0.002851  -0.000021
    34  H   -0.000004   0.001686   0.006477   0.586332   0.005707   0.000103
    35  H    0.005578  -0.000026   0.002851   0.005707   0.595627  -0.001323
    36  H   -0.000004   0.000000  -0.000021   0.000103  -0.001323   0.571810
    37  H   -0.000034   0.000000  -0.000004  -0.000019  -0.001356  -0.040787
    38  H    0.000000   0.000000   0.000000   0.000000   0.000000   0.000000
    39  H    0.000000   0.000000  -0.000002   0.000000   0.000000   0.000000
    40  H    0.000000   0.000000   0.000000   0.000000   0.000000   0.000000
    41  H    0.000000   0.000000  -0.000002  -0.000022   0.000000   0.000000
    42  H    0.000000   0.000000   0.000000   0.000000   0.000000   0.000000
    43  H    0.000000   0.000000   0.000000  -0.000001   0.000000   0.000000
    44  H    0.000000   0.000000  -0.000001  -0.000014   0.000000   0.000034
    45  H    0.000000  -0.000005  -0.000034   0.006496   0.000000  -0.000003
             37         38         39         40         41         42
[...]
 .00003237,-0.00000534,0.00001477,-0.00000382,0.00004348,-0.00003280,-0
 .00002276,-0.00005071,0.00002314,0.00005358,-0.00000980,0.00000357,-0.
 00000820,0.00000906,-0.00001084,0.00000887,-0.00000360,0.00000100,-0.0
 0000197,-0.00003510,0.00002847,-0.00001308,0.00002209,-0.00001342,0.00
 006243,-0.00000589,-0.00000137,-0.00000330,-0.00001490,-0.00000442,-0.
 00000851,0.00001115,-0.00000532,0.00000823,-0.00000563,0.00000831,-0.0
 0001079,0.00000273,-0.00000325,0.00000334,-0.00000126,0.00000106,-0.00
 000135,0.00000337,-0.00000085,0.00000243,0.00000441,-0.00000088,-0.000
 00213,0.00000887,-0.00000076,0.00000901,0.00000655,-0.00000333,-0.0000
 0720,0.00000391,-0.00000234,0.00000758,0.00000457,-0.00000243,-0.00000
 524,0.00000522,-0.00000103,0.00000578,0.00124591,-0.00012851,-0.000502
 00,0.00055578,0.00009881,-0.00022168,0.00081688,-0.00088569,-0.0003677
 5,0.00054310,-0.00128898,0.00130575,0.35093980,-0.00578724,0.00342364,
 -0.00195680,0.05137965,-0.05077077,-0.01163594,0.03618270,-0.01324722,
 -0.01285958,-0.00174622,0.00469496,0.00015452,0.00075999,-0.00045120,0
 .00055272,0.00088282,0.00089141,0.00073792,-0.00045358,-0.00025543,-0.
 00010523,-0.00018895,0.00001900,0.00002692,-0.00278357,0.00141034,0.00
 037855,0.00045228,-0.00008600,0.00010067,-0.00005689,-0.00005121,-0.00
 001566,-0.02528547,0.00014615,0.01146026,0.00063967,0.00072667,-0.0022
 0755,0.00001317,-0.00044343,-0.00007795,0.00002148,0.00006607,-0.00008
 867,-0.00003049,0.00001851,0.00001573,0.00000210,-0.00003140,-0.000034
 18,0.00006298,0.00002024,-0.00000244,-0.00011456,-0.00001253,0.0000249
 9,-0.00000177,0.00000346,0.00000405,0.00000247,0.00000568,-0.00000305,
 -0.00000029,-0.00000074,-0.00000016,0.00003779,-0.00003423,0.00002409,
 -0.00001038,0.00001035,-0.00009047,0.00000454,0.00000643,0.00000782,-0
 .00000153,0.00000356,0.00000372,0.00000169,0.00000944,-0.00001417,-0.0
 0000249,-0.00001496,0.00001092,0.00000233,0.00000287,-0.00000432,0.000
 00021,-0.00000039,0.00000113,-0.00000034,0.00000203,-0.00000048,-0.000
 00008,-0.00000190,-0.00000224,0.00000673,0.00000676,0.00000809,-0.0000
 0187,-0.00000766,0.00000514,-0.00000020,0.00000293,-0.00000315,-0.0000
 0295,0.00000387,0.00000575,-0.00000591,0.00000265,-0.00000614,-0.00026
 215,0.00154582,0.00032437,0.00021522,0.00025996,-0.00015438,0.00078020
 ,-0.00044084,-0.00024403,-0.00084083,-0.00265780,0.00378066,-0.0530851
 6,0.06170276,-0.04563066,0.00242762,-0.01665602,0.07964484,-0.01246502
 ,-0.05697601,0.01535356,-0.00458332,-0.00315495,-0.00178039,0.00085967
 ,0.00120647,-0.00032834,-0.00016439,-0.00007373,0.00077862,0.00009029,
 0.00027732,-0.00031669,-0.00001982,-0.00002393,-0.00004342,0.00004663,
 0.00002283,0.00052837,-0.00170448,0.00069308,-0.00024274,0.00007502,0.
 00004326,0.00003046,-0.00000189,0.00003597,0.02599641,0.00051444,-0.00
 953351,-0.00066874,-0.00010425,0.00264710,0.00034674,-0.00054301,-0.00
 028176,-0.00003265,0.00007724,-0.00016307,-0.00000887,-0.00002643,0.00
 000131,0.00002474,0.00002483,0.00004198,-0.00009804,-0.00000647,-0.000
 02468,0.00014470,0.00001029,-0.00003891,0.00000166,-0.00001546,0.00001
 454,-0.00000625,0.00001517,-0.00001812,0.00000234,-0.00000188,0.000003
 51,0.00003267,-0.00001782,0.00000455,-0.00001551,0.00000271,-0.0000429
 5,0.00000312,0.00000397,0.00000357,0.00001303,0.00001265,0.00001687,-0
 .00000842,0.00000155,-0.00001911,0.00000325,-0.00000152,0.00002397,0.0
 0000286,-0.00000135,-0.00001766,0.00000075,-0.00000047,0.00000358,-0.0
 0000333,0.00000014,-0.00000360,-0.00000499,0.00000217,0.00000374,-0.00
 001603,-0.00000510,-0.00001886,-0.00000817,0.00000665,0.00001566,-0.00
 000427,0.00000161,-0.00000805,-0.00000310,0.00000173,0.00000421,-0.000
 00487,-0.00000281,-0.00000487,-0.00416705,0.00064527,0.00336816,-0.000
 23098,-0.00024768,0.00004379,-0.00071046,0.00043119,0.00041925,0.00022
 872,0.00291194,-0.00351629,-0.06766083,0.01459269,0.08231344,0.0012385
 4,0.00054913,0.00104129,-0.00378762,0.00300515,0.00012637,-0.32411742,
 0.07244674,0.03241052,-0.01146071,-0.00914470,0.01476004,-0.00052699,-
 0.00068399,-0.00023194,-0.02045167,0.00575507,-0.00155991,0.00242428,0
 .00078289,0.00222728,0.00060874,0.00003460,0.00010560,0.00035134,0.000
 18338,-0.00029900,0.00002649,0.00000332,0.00000422,-0.00000540,0.00000
 488,0.00000378,-0.00021479,0.00041709,0.00032280,0.00036767,0.00011192
 ,-0.00011643,-0.00155971,-0.00081631,0.00106440,0.00055947,0.00004213,
 -0.00047135,-0.00009167,0.00014379,-0.00005457,0.00002067,-0.00003050,
 -0.00008171,0.00005584,-0.00001732,0.00002630,-0.00005933,0.00001447,0
 .00002433,-0.00002039,0.00003028,-0.00000062,0.00001381,-0.00000990,0.
 00000289,-0.00000322,0.00000403,-0.00000404,-0.00011598,0.00009082,-0.
 00002396,0.00003849,-0.00001931,0.00020788,-0.00001604,-0.00000839,-0.
 00000198,0.00000590,0.00000177,0.00000026,0.00002088,-0.00000590,-0.00
 000800,-0.00000800,0.00000281,-0.00001165,0.00000347,-0.00000161,0.000
 00674,-0.00000083,0.00000071,-0.00000265,0.00000404,-0.00000108,0.0000
 0337,0.00000774,-0.00000211,-0.00000486,0.00000898,-0.00000841,0.00001
 180,0.00002189,-0.00000538,-0.00004661,0.00000413,-0.00000630,0.000012
 10,0.00002627,-0.00000448,-0.00000683,0.00001941,-0.00000776,0.0000078
 8,0.00022215,-0.00022039,-0.00015567,-0.00001982,0.00010721,0.00001827
 ,0.00000288,-0.00022340,0.00000712,0.00043289,0.00057189,-0.00049526,0
 .00116534,-0.00015960,-0.00061575,0.35443167,-0.00226735,0.00277999,0.
 00141336,0.03612320,-0.01496142,-0.00689320,0.07685945,-0.05571144,-0.
 01307855,-0.03109858,-0.00333250,0.01773655,-0.00045527,0.00007012,-0.
 00058882,-0.00467752,0.00219384,-0.00176885,-0.00095738,0.00020489,0.0
 0021168,-0.00006518,-0.00013221,-0.00001740,0.00005071,-0.00023234,-0.
 00006182,-0.00011470,-0.00002116,-0.00004025,0.00000327,0.00001517,0.0
 0000298,0.00115164,0.00243397,-0.00106917,-0.00034671,-0.00028319,0.00
 046696,0.00076264,-0.00030721,-0.00000782,-0.00007754,0.00005045,-0.00
 022081,-0.00002883,0.00004339,0.00002626,0.00001154,-0.00001083,-0.000
 02090,-0.00002848,0.00001562,0.00001458,0.00003860,-0.00000949,-0.0000
 4706,0.00000393,0.00000512,0.00000794,-0.00000239,0.00000023,-0.000006
 73,0.00000121,0.00000192,0.00000025,-0.00004874,0.00005298,-0.00002483
 ,0.00002876,-0.00003423,0.00010189,-0.00001221,0.00000155,-0.00001930,
 0.00001494,0.00001667,0.00000366,-0.00000493,-0.00001471,-0.00000302,0
 .00000312,0.00001026,0.00000036,-0.00000151,-0.00000306,0.00000051,0.0
 0000020,0.00000061,-0.00000047,-0.00000059,-0.00000145,-0.00000075,-0.
 00000055,0.00000107,0.00000080,-0.00000348,-0.00000168,-0.00000228,0.0
 0000530,0.00001085,0.00000419,-0.00000388,-0.00000531,-0.00000047,0.00
 000945,-0.00000391,0.00000142,0.00001071,-0.00000841,0.00000555,-0.000
 00128,0.00025571,0.00051145,-0.00015241,-0.00005139,0.00005261,-0.0003
 0811,0.00016606,0.00013629,-0.00083334,-0.00023241,0.00062129,0.000322
 10,-0.00618237,-0.00270416,-0.07331282,0.07318667,-0.00025361,0.001474
 77,0.00163746,0.01341921,-0.00786717,-0.00022299,0.03300137,-0.0138981
 2,-0.04457403,0.03158040,0.00978761,-0.01498990,0.00145429,0.00004878,
 0.00011179,-0.03286047,0.00599032,-0.00043586,0.00107011,0.00117427,0.
 00234640,-0.00000452,0.00011552,0.00006589,-0.00005746,-0.00020141,0.0
 0014308,-0.00002697,0.00001605,-0.00000922,-0.00000044,0.00001258,-0.0
 0000319,-0.00040038,0.00034229,-0.00026799,0.00011539,0.00036362,-0.00
 044552,-0.00111050,-0.00042626,0.00129612,0.00035278,-0.00000064,-0.00
 025027,0.00000901,0.00008559,0.00007032,0.00002989,-0.00002182,-0.0000
 4695,0.00001520,0.00000938,-0.00000734,-0.00002495,-0.00002400,0.00001
 822,-0.00001369,0.00000731,0.00001648,0.00000655,0.00000934,-0.0000188
 4,-0.00000003,0.00000154,0.00000029,-0.00011554,0.00009467,-0.00000915
 ,0.00004457,-0.00003983,0.00019297,-0.00000734,0.00000598,-0.00000953,
 0.00001076,0.00000626,0.00002802,0.00001374,-0.00000022,-0.00003871,-0
 .00000411,-0.00000497,0.00002113,0.00000763,-0.00000264,-0.00001508,0.
 00000019,0.00000114,0.00000219,0.00000014,0.00000055,-0.00000014,0.000
 00183,0.00000052,-0.00000246,-0.00000118,-0.00000379,0.00000337,0.0000
 2217,0.00000452,-0.00004262,-0.00000149,-0.00000673,0.00000475,0.00003
 551,0.00000294,0.00001118,0.00002451,-0.00001632,-0.00000261,0.0000684
 6,0.00040034,0.00013402,-0.00005677,-0.00010095,0.00001529,-0.00007833
 ,0.00011682,0.00001358,-0.00011361,-0.00006744,0.00032439,0.00060171,-
 0.00223478,-0.00058931,-0.04511797,0.00572820,0.06088030,0.00032648,-0
 .00017748,-0.00019110,-0.00074264,0.00105732,0.00017966,-0.01427134,-0
 .00228580,0.00137258,0.00196536,0.00028512,0.00057955,0.00023738,-0.00
 002894,0.00014663,-0.35663726,-0.02235553,0.02055196,-0.00792444,0.008
 96776,0.00645820,0.00032179,0.00037576,-0.00083312,-0.00005510,-0.0000
 3854,0.00003509,0.00005131,0.00003001,0.00002148,-0.00000617,-0.000002
 98,0.00000444,-0.00004766,-0.00001228,-0.00010259,0.00144133,-0.000708
 80,-0.00046760,-0.00885135,0.00094436,-0.00053213,0.00121166,0.0003214
 9,-0.00074807,0.00007522,0.00018520,0.00022306,0.00010451,-0.00000558,
 -0.00008106,0.00005320,-0.00002174,-0.00006467,-0.00005198,-0.00003059
 ,0.00004678,-0.00002721,0.00003733,0.00002431,0.00001549,-0.00000515,-
 0.00002437,-0.00000252,0.00000665,-0.00000128,-0.00036036,0.00028025,-
 0.00008143,0.00013236,-0.00015151,0.00054916,-0.00001370,-0.00001591,-
 0.00005783,0.00000785,0.00001159,0.00004857,0.00001960,-0.00002814,-0.
 00003874,-0.00000273,0.00002358,0.00000983,0.00000789,-0.00001231,-0.0
 0001200,-0.00000076,0.00000331,-0.00000009,0.00000265,-0.00000304,0.00
 000204,0.00000827,-0.00000018,-0.00000366,-0.00000155,-0.00001840,0.00
 001640,0.00005888,0.00001912,-0.00020341,-0.00000178,-0.00001815,0.000
 01665,0.00011575,0.00000483,-0.00003137,0.00007357,-0.00004028,0.00001
 004,-0.00005830,-0.00008282,-0.00005741,0.00000144,-0.00002096,-0.0000
 1274,0.00002882,-0.00002837,-0.00002349,0.00011462,0.00010181,0.000011
 87,0.00041854,-0.00055664,-0.00035323,-0.00030630,-0.00059048,-0.00183
 989,0.38227952,0.00013940,0.00000291,-0.00001428,-0.00025222,0.0002605
 9,0.00059128,-0.00489328,0.00174232,0.00177998,0.00085031,0.00022556,-
 0.00037057,-0.00005646,-0.00006641,0.00001409,-0.02263437,-0.04196417,
 0.00300940,0.03623451,-0.01010241,-0.00983616,0.00054664,0.00140209,0.
 00155131,-0.00005046,0.00005800,0.00006987,0.00001090,-0.00002914,-0.0
 0000763,0.00000067,0.00000572,-0.00000197,-0.00018866,-0.00002407,-0.0
 0007074,0.00109446,0.00172119,-0.00010733,-0.02682730,-0.00129683,0.00
 144418,0.00115785,0.00105565,-0.00163937,0.00000678,0.00038262,-0.0000
 3586,0.00000669,-0.00010730,-0.00024341,0.00013967,-0.00007526,0.00014
 663,-0.00013799,0.00012517,0.00002369,-0.00000134,0.00003417,0.0000082
 5,0.00001220,0.00001502,-0.00000320,-0.00000173,-0.00000071,-0.0000024
 2,0.00028853,-0.00030673,0.00013333,-0.00022839,0.00007610,-0.00064345
 ,0.00005677,0.00001111,0.00000692,-0.00002402,-0.00005827,0.00002679,0
 .00001679,0.00004613,-0.00001969,-0.00001883,-0.00005689,0.00002103,0.
 00000651,0.00001626,-0.00000192,-0.00000078,-0.00000217,0.00000287,-0.
 00000029,0.00000653,-0.00000021,0.00000541,-0.00000338,-0.00000743,0.0
 0002466,-0.00000568,0.00003406,0.00013587,-0.00011175,-0.00004435,0.00
 002084,0.00002765,0.00001303,-0.00007105,0.00007068,0.00000076,-0.0000
 7146,0.00004363,-0.00003564,0.00000280,0.00003256,-0.00001092,0.000003
 31,-0.00002585,-0.00000722,0.00002740,-0.00003505,-0.00002762,0.000172
 33,0.00003682,0.00000466,0.00004589,-0.00015555,-0.00023059,-0.0000737
 5,-0.00000542,-0.00124219,0.01495240,0.05012319,0.00055202,-0.00017235
 ,-0.00063804,-0.00081694,0.00182309,0.00112696,-0.03198169,-0.00266412
 ,0.00167309,0.00215117,-0.00031635,0.00305581,0.00013430,-0.00026048,0
 .00042786,0.01904325,0.00399870,-0.04427515,0.01521405,-0.00806756,-0.
 00225114,0.00096432,0.00020795,0.00076927,-0.00006262,-0.00001352,0.00
 009570,0.00000915,-0.00000438,0.00000542,0.00000733,0.00000010,0.00000
 600,-0.00034846,-0.00015623,-0.00047695,-0.00132122,-0.00032762,0.0003
 7211,0.02321176,0.00368605,-0.00245199,-0.00040372,-0.00124292,0.00232
 498,0.00030714,-0.00038943,-0.00024792,-0.00007093,0.00008585,0.000253
 51,-0.00012123,0.00005434,-0.00009743,0.00011190,-0.00006634,0.0000047
 6,0.00001917,-0.00005088,-0.00002306,-0.00001970,-0.00001463,0.0000216
 9,0.00000218,-0.00000372,0.00000284,0.00031339,-0.00021222,-0.00005092
 ,-0.00020432,0.00008693,-0.00029018,0.00004074,-0.00004151,-0.00000253
 ,-0.00003724,0.00007451,-0.00004057,-0.00006223,-0.00003855,0.00009597
 ,0.00002178,0.00004612,-0.00003320,-0.00001735,-0.00000597,0.00002100,
 0.00000067,-0.00000157,-0.00000355,-0.00000179,-0.00000262,-0.00000190
 ,-0.00000998,0.00000098,0.00000874,-0.00001988,0.00002873,-0.00003198,
 -0.00023080,0.00005957,0.00005474,-0.00001940,0.00000225,-0.00003663,-
 0.00011897,-0.00002007,-0.00010323,-0.00006959,0.00002700,0.00001877,-
 0.00004044,-0.00019124,-0.00009821,0.00000804,-0.00004917,0.00000737,0
 .00000365,-0.00000625,-0.00000278,0.00002902,-0.00002796,-0.00010005,0
 .00048387,-0.00048950,-0.00022966,-0.00257132,-0.00077972,-0.00495442,
 -0.02486627,0.00304621,0.04813392,0.00005059,-0.00000395,0.00008401,-0
 .00012267,0.00018336,0.00008327,-0.00068097,-0.00010799,-0.00027067,0.
 00035208,-0.00001920,-0.00005783,0.00000125,-0.00002279,0.00007783,-0.
 00744424,0.00251656,0.00274458,0.00209536,0.00092528,-0.00158499,-0.00
 030348,-0.00025776,-0.00005020,0.00069789,-0.00001754,-0.00009257,-0.0
 0005331,0.00012054,0.00005360,0.00000206,0.00001146,0.00001105,0.00146
 165,-0.00078065,-0.00035820,-0.00269581,0.00579506,0.00250467,-0.34280
 510,0.00681437,0.07349507,-0.02002183,0.00192986,-0.00530054,-0.000157
 41,-0.00017823,0.00420843,0.00029387,-0.00011211,-0.00055829,0.0005271
 2,-0.00051799,0.00020705,-0.00078025,0.00048137,0.00033382,0.00002774,
 0.00013038,0.00004553,0.00002089,0.00000102,-0.00002708,-0.00000230,0.
 00001201,-0.00000604,-0.00029782,0.00015266,-0.00003169,0.00014638,-0.
 00003301,0.00013321,0.00002603,0.00000728,0.00001751,0.00044635,-0.000
 25999,-0.00000045,0.00002944,-0.00004920,-0.00021982,-0.00003064,-0.00
 006209,0.00002371,0.00000969,0.00001194,-0.00000040,-0.00000114,0.0000
 0213,0.00000012,0.00000177,0.00000467,0.00000196,0.00002330,-0.0000039
 8,-0.00002475,0.00002252,-0.00016399,0.00019248,0.00151581,-0.00034554
 ,-0.00079779,0.00009282,0.00008538,0.00022839,0.00011169,0.00006332,-0
 .00002004,0.00005335,-0.00001890,-0.00001029,0.00000180,0.00000217,0.0
 0000535,-0.00000578,-0.00003270,0.00000774,0.00000544,-0.00026152,-0.0
 0012114,0.00064072,0.00036223,0.00080290,0.00000017,-0.00006885,-0.000
 17305,0.00068291,-0.00000651,0.00020385,0.00028964,-0.00042720,0.00078
 719,0.36577243,0.00002402,0.00034954,-0.00018785,-0.00045534,-0.000561
 83,-0.00010587,-0.00106593,0.00020891,-0.00102549,0.00043180,-0.000066
 08,0.00041240,0.00010681,-0.00012039,0.00004931,-0.02209672,0.00107549
 ,0.00683544,0.00019201,0.00269408,-0.00013270,-0.00034516,-0.00022823,
 0.00006237,0.00015804,0.00011550,0.00010827,-0.00024177,-0.00017873,-0
 .00010059,0.00001066,0.00002405,-0.00002381,0.00469423,0.00126538,0.00
 348469,0.03085064,-0.01406735,-0.01654594,0.00285424,-0.04257648,0.000
 40504,0.00166036,0.00335412,0.00079893,-0.00021663,0.00024000,0.000176
 87,0.00033569,0.00018935,0.00034843,-0.00048282,0.00023855,-0.00034883
 ,0.00102296,-0.00057525,-0.00041876,-0.00002503,-0.00001890,0.00004440
 ,-0.00000156,0.00002349,-0.00006105,0.00000053,0.00000094,0.00000589,-
 0.00010515,0.00010369,-0.00009094,0.00008647,-0.00007724,0.00000016,-0
 .00000744,0.00000506,0.00002049,-0.00008804,0.00003006,0.00002194,0.00
 001754,-0.00003110,-0.00001877,0.00000817,0.00006475,0.00004040,0.0000
 1484,-0.00002509,-0.00005023,0.00000160,0.00000144,0.00000629,-0.00000
 288,-0.00000773,-0.00000525,-0.00000697,0.00001119,0.00001294,-0.00007
 688,-0.00007213,-0.00005741,0.00003811,0.00023842,-0.00020134,-0.00000
 513,-0.00002044,-0.00000640,0.00002292,-0.00000915,0.00001974,0.000008
 21,-0.00002965,0.00001628,-0.00001134,0.00000123,-0.00000875,0.0000544
 9,0.00002580,-0.00000823,-0.00021409,0.00006577,0.00008108,-0.00129367
 ,0.00019088,-0.00004994,-0.00008248,-0.00013993,0.00009244,0.00045937,
 0.00002900,0.00035836,-0.00036731,-0.00308861,0.00238849,-0.01586138,0
 .05134765,-0.00007442,-0.00000037,-0.00025840,-0.00018283,0.00007025,-
 0.00019534,0.00127717,-0.00041437,0.00089864,-0.00048834,0.00003749,0.
 00003838,-0.00004362,-0.00002010,-0.00001782,0.02082289,-0.00046823,-0
 .00126883,-0.00208257,-0.00162550,0.00140672,-0.00010032,0.00018265,-0
 .00003287,0.00001255,0.00001046,-0.00000332,-0.00016197,-0.00012747,-0
 .00008870,0.00001374,0.00000979,-0.00001249,0.00378693,-0.00018442,0.0
 0220914,0.01160727,-0.00882360,-0.00461901,0.08051753,0.00166390,-0.06
 487801,-0.03195357,0.00305920,-0.00807825,-0.00639523,0.00043785,0.004
 21323,-0.00010498,0.00002325,-0.00058050,0.00018977,0.00003489,0.00032
 357,-0.00023501,0.00024065,-0.00042214,-0.00001322,0.00008222,0.000036
 52,0.00003083,0.00002791,-0.00001968,0.00000009,0.00000164,-0.00000406
 ,-0.00024183,0.00011604,0.00004011,0.00010570,-0.00009359,0.00005419,0
 .00001630,0.00001779,0.00000084,0.00015243,-0.00015902,0.00001015,0.00
 014299,-0.00000643,-0.00024320,-0.00004973,-0.00011078,0.00006863,0.00
 002897,0.00001835,-0.00002907,-0.00000051,0.00000013,0.00000680,0.0000
 0221,0.00000730,0.00000644,0.00003638,0.00000381,-0.00004753,0.0001364
 5,-0.00012899,0.00005210,0.00085738,-0.00045581,-0.00094962,0.00013675
 ,0.00001631,0.00010512,0.00012334,0.00007358,-0.00006581,0.00005887,-0
 .00002767,-0.00003816,-0.00002112,0.00000149,-0.00000158,0.00000573,0.
 00004457,-0.00000658,-0.00015089,0.00006129,0.00003085,-0.00088753,-0.
 00024752,-0.00004854,-0.00013314,0.00001014,0.00018684,-0.00051317,0.0
 0030759,-0.00040113,0.00031927,0.00267582,-0.00203902,-0.07654755,0.00
 365750,0.07466140\\0.01548136,-0.00928491,-0.01587797,-0.03722560,-0.0
 0258824,0.00808210,0.01401652,-0.01716104,0.01481806,0.00330005,0.0210
 1427,0.02218372,-0.00882512,-0.01349748,-0.02518895,0.02889159,-0.0132
 7574,-0.02652662,-0.01125637,-0.01204174,-0.00079814,0.00962025,0.0098
 1015,0.01958250,0.00558487,0.00194836,0.00742650,0.00183337,0.02714201
 ,-0.02154951,0.00595406,-0.02918873,0.02096634,0.00581185,0.01490439,0
 .01458945,0.02720063,0.00421941,0.01961053,-0.06430057,0.03676536,-0.0
 0509975,0.00700262,-0.01439049,-0.02247774,0.02058253,-0.00114648,-0.0
 2911974,-0.00886362,0.02879463,0.05659300,0.01293683,0.01361232,0.0081
 9773,-0.00021502,-0.00069154,-0.03139170,0.00920657,0.00644943,-0.0090
 3416,-0.00474376,0.00317915,-0.01277281,-0.00328643,-0.01005432,0.0340
 0992,-0.03722877,-0.02994686,-0.01349045,0.01843041,-0.00694733,0.0056
 8855,0.00206097,0.03707388,-0.00778294,0.03352860,-0.05437285,0.029327
 11,0.00462227,0.01844946,-0.00599366,0.01862855,-0.00500814,-0.0035316
 6,-0.01014901,-0.00485697,0.02166702,-0.00219636,-0.00473942,-0.000875
 82,-0.02001106,0.00444745,-0.00716632,0.01958283,-0.00636730,0.0025489
 9,-0.02174827,0.01010134,-0.00513775,0.01636416,-0.00932102,-0.0004891
 8,-0.02026398,0.00115310,-0.00436584,-0.01643085,0.00528339,0.00997477
 ,-0.00911741,-0.00847889,-0.01613700,-0.00086041,0.00339663,-0.0022463
 1,-0.00192128,0.00597111,-0.01737552,-0.02041739,-0.00004272,0.0049869
 2,0.02063127,0.00028314,-0.00686081,-0.02338678,0.00506473,0.00062118,
 0.02248615,-0.00618252,-0.00669074,-0.01741108,0.00243020,0.00122357,0
 .01610085,-0.00190919,-0.00411688\\\@


 TO DETECT ERRORS, THE PROGRAMMER MUST HAVE A CONNIVING MIND,
 ONE THAT DELIGHTS IN UNCOVERING FLAWS WHERE BEAUTY AND
 PERFECTION WERE ONCE THOUGHT TO LIE.

             -- THE PSYCHOLOGY OF COMPUTER PROGRAMMING
                GERALD M. WEINBERG
 Job cpu time:  3 days 22 hours 10 minutes  2.9 seconds.
 File lengths (MBytes):  RWF=   2351 Int=      0 D2E=      0 Chk=     43 Scr=      1
 Normal termination of Gaussian 09 at Tue Feb 16 08:30:03 2016.
Gaussian '09 finished on node008 at Tue Feb 16 08:30:03 EST 2016.
