Gaussian '09 started on node006 at Mon Feb 29 14:22:29 EST 2016.
 Entering Gaussian System, Link 0=/usr/local/gaussian/g09/g09
 Initial command:
 /usr/local/gaussian/g09/l1.exe /home/srmcgrat/thesis/gaussian/cellobiose/320/10000/2/gdp/gaussian31120/Gau-31156.inp -scrdir=/home/srmcgrat/thesis/gaussian/cellobiose/320/10000/2/gdp/gaussian31120/
 Entering Link 1 = /usr/local/gaussian/g09/l1.exe PID=     31158.
  
 Copyright (c) 1988,1990,1992,1993,1995,1998,2003,2009,2010,
            Gaussian, Inc.  All Rights Reserved.
  
 This is part of the Gaussian(R) 09 program.  It is based on
 the Gaussian(R) 03 system (copyright 2003, Gaussian, Inc.),
 the Gaussian(R) 98 system (copyright 1998, Gaussian, Inc.),
 the Gaussian(R) 94 system (copyright 1995, Gaussian, Inc.),
 the Gaussian 92(TM) system (copyright 1992, Gaussian, Inc.),
 the Gaussian 90(TM) system (copyright 1990, Gaussian, Inc.),
 the Gaussian 88(TM) system (copyright 1988, Gaussian, Inc.),
 the Gaussian 86(TM) system (copyright 1986, Carnegie Mellon
 University), and the Gaussian 82(TM) system (copyright 1983,
 Carnegie Mellon University). Gaussian is a federally registered
 trademark of Gaussian, Inc.
  
 This software contains proprietary and confidential information,
 including trade secrets, belonging to Gaussian, Inc.
  
 This software is provided under written license and may be
 used, copied, transmitted, or stored only in accord with that
 written license.
  
 The following legend is applicable only to US Government
 contracts under FAR:
  
                    RESTRICTED RIGHTS LEGEND
  
 Use, reproduction and disclosure by the US Government is
 subject to restrictions as set forth in subparagraphs (a)
 and (c) of the Commercial Computer Software - Restricted
 Rights clause in FAR 52.227-19.
  
 Gaussian, Inc.
 340 Quinnipiac St., Bldg. 40, Wallingford CT 06492
  
  
 ---------------------------------------------------------------
 Warning -- This program may not be used in any manner that
 competes with the business of Gaussian, Inc. or will provide
 assistance to any competitor of Gaussian, Inc.  The licensee
 of this program is prohibited from giving any competitor of
 Gaussian, Inc. access to this program.  By using this program,
 the user acknowledges that Gaussian, Inc. is engaged in the
 business of creating and licensing software in the field of
 computational chemistry and represents and warrants to the
 licensee that it is not a competitor of Gaussian, Inc. and that
 it will not use this program in any manner prohibited above.
 ---------------------------------------------------------------
  

 Cite this work as:
 Gaussian 09, Revision B.01,
 M. J. Frisch, G. W. Trucks, H. B. Schlegel, G. E. Scuseria, 
 M. A. Robb, J. R. Cheeseman, G. Scalmani, V. Barone, B. Mennucci, 
 G. A. Petersson, H. Nakatsuji, M. Caricato, X. Li, H. P. Hratchian, 
 A. F. Izmaylov, J. Bloino, G. Zheng, J. L. Sonnenberg, M. Hada, 
 M. Ehara, K. Toyota, R. Fukuda, J. Hasegawa, M. Ishida, T. Nakajima, 
 Y. Honda, O. Kitao, H. Nakai, T. Vreven, J. A. Montgomery, Jr., 
 J. E. Peralta, F. Ogliaro, M. Bearpark, J. J. Heyd, E. Brothers, 
 K. N. Kudin, V. N. Staroverov, T. Keith, R. Kobayashi, J. Normand, 
 K. Raghavachari, A. Rendell, J. C. Burant, S. S. Iyengar, J. Tomasi, 
 M. Cossi, N. Rega, J. M. Millam, M. Klene, J. E. Knox, J. B. Cross, 
 V. Bakken, C. Adamo, J. Jaramillo, R. Gomperts, R. E. Stratmann, 
 O. Yazyev, A. J. Austin, R. Cammi, C. Pomelli, J. W. Ochterski, 
 R. L. Martin, K. Morokuma, V. G. Zakrzewski, G. A. Voth, 
 P. Salvador, J. J. Dannenberg, S. Dapprich, A. D. Daniels, 
 O. Farkas, J. B. Foresman, J. V. Ortiz, J. Cioslowski, 
 and D. J. Fox, Gaussian, Inc., Wallingford CT, 2010.
 
 ******************************************
 Gaussian 09:  EM64L-G09RevB.01 12-Aug-2010
                29-Feb-2016 
 ******************************************
 ------------------------------------------------
 # freq=raman b3lyp/6-31+g(d,p) geom=connectivity
 ------------------------------------------------
 1/10=4,30=1,38=1,57=2/1,3;
 2/12=2,17=6,18=5,40=1/2;
 3/5=1,6=6,7=111,11=2,16=1,25=1,30=1,71=2,74=-5/1,2,3;
 4//1;
 5/5=2,38=5,98=1/2;
 8/6=4,10=90,11=11/1;
 10/13=10,15=4/2;
 11/6=3,8=1,9=11,15=111,16=1/1,2,10;
 10/6=1/2;
 6/7=2,8=2,9=2,10=2,18=1,28=1/1;
 7/8=1,10=1,25=1/1,2,3,16;
 1/10=4,30=1/3;
 99//99;
 -------------
 320 10000.com
 -------------
 Symbolic Z-matrix:
 Charge =  0 Multiplicity = 1
 O                     7.712     7.59      22.732 
 C                     8.091     7.83      24.095 
 C                     7.679     9.226     24.533 
 O                     8.108     10.138    23.511 
 H                     8.117     9.67      22.627 
 C                     7.987     9.64      25.963 
 O                     7.596     10.962    26.363 
 H                     8.03      10.997    27.263 
 C                     7.859     5.415     24.894 
 O                     7.713     4.882     23.57 
 H                     8.032     3.935     23.591 
 C                     7.394     6.856     25.03 
 O                     7.696     7.199     26.39 
 C                     7.45      8.534     26.856 
 O                     8.264     8.583     28.036 
 C                     7.742     8.208     29.32 
 C                     8.317     6.84      29.65 
 O                     7.684     5.856     28.82 
 H                     7.643     6.236     27.896 
 C                     8.028     6.382     31.07 
 O                     8.974     5.409     31.537 
 H                     8.703     5.209     32.479 
 C                     7.835     10.644    30.152 
 O                     8.142     11.324    28.926 
 H                     8.012     12.286    29.168 
 C                     8.266     9.199     30.346 
 O                     7.839     8.8       31.656 
 C                     8.415     7.529     31.99 
 O                     7.665     7.491     33.212 
 H                     8.26917   7.46781   33.95768 
 H                     8.50044   7.49502   22.1926 
 H                     7.29262   4.80886   25.56981 
 H                     8.89127   5.3624    25.17068 
 H                     6.33647   6.90644   24.87511 
 H                     9.15101   7.72331   24.19449 
 H                     6.61047   9.22857   24.47702 
 H                     9.05239   9.60987   26.05759 
 H                     6.417     8.68396   27.0912 
 H                     8.26929   11.21333   30.94708 
 H                     6.77255   10.67661   30.2746 
 H                     9.3352    9.16652   30.32021 
 H                     6.67223   8.18701   29.31219 
 H                     9.37262   6.83742   29.47517 
 H                     7.01369   6.0716    31.21047 
 H                     9.46893   7.59107   32.16399 
 

 GradGradGradGradGradGradGradGradGradGradGradGradGradGradGradGradGradGrad
 Berny optimization.
 Initialization pass.
 Trust Radius=3.00D-01 FncErr=1.00D-07 GrdErr=1.00D-07
 Number of steps in this run=      2 maximum allowed number of steps=      2.
 GradGradGradGradGradGradGradGradGradGradGradGradGradGradGradGradGradGrad

                          Input orientation:                          
 ---------------------------------------------------------------------
 Center     Atomic      Atomic             Coordinates (Angstroms)
 Number     Number       Type             X           Y           Z
 ---------------------------------------------------------------------
      1          8           0        7.712000    7.590000   22.732000
      2          6           0        8.091000    7.830000   24.095000
      3          6           0        7.679000    9.226000   24.533000
      4          8           0        8.108000   10.138000   23.511000
      5          1           0        8.117000    9.670000   22.627000
      6          6           0        7.987000    9.640000   25.963000
      7          8           0        7.596000   10.962000   26.363000
      8          1           0        8.030000   10.997000   27.263000
      9          6           0        7.859000    5.415000   24.894000
     10          8           0        7.713000    4.882000   23.570000
     11          1           0        8.032000    3.935000   23.591000
     12          6           0        7.394000    6.856000   25.030000
     13          8           0        7.696000    7.199000   26.390000
     14          6           0        7.450000    8.534000   26.856000
     15          8           0        8.264000    8.583000   28.036000
     16          6           0        7.742000    8.208000   29.320000
     17          6           0        8.317000    6.840000   29.650000
     18          8           0        7.684000    5.856000   28.820000
     19          1           0        7.643000    6.236000   27.896000
     20          6           0        8.028000    6.382000   31.070000
     21          8           0        8.974000    5.409000   31.537000
     22          1           0        8.703000    5.209000   32.479000
     23          6           0        7.835000   10.644000   30.152000
     24          8           0        8.142000   11.324000   28.926000
     25          1           0        8.012000   12.286000   29.168000
     26          6           0        8.266000    9.199000   30.346000
     27          8           0        7.839000    8.800000   31.656000
     28          6           0        8.415000    7.529000   31.990000
     29          8           0        7.665000    7.491000   33.212000
     30          1           0        8.269170    7.467812   33.957682
     31          1           0        8.500435    7.495022   22.192603
     32          1           0        7.292623    4.808863   25.569807
     33          1           0        8.891269    5.362403   25.170684
     34          1           0        6.336473    6.906441   24.875107
     35          1           0        9.151009    7.723310   24.194490
     36          1           0        6.610468    9.228572   24.477024
     37          1           0        9.052385    9.609868   26.057585
     38          1           0        6.416997    8.683956   27.091200
     39          1           0        8.269288   11.213331   30.947083
     40          1           0        6.772547   10.676613   30.274597
     41          1           0        9.335196    9.166522   30.320212
     42          1           0        6.672234    8.187014   29.312191
     43          1           0        9.372617    6.837425   29.475169
     44          1           0        7.013694    6.071596   31.210471
     45          1           0        9.468932    7.591070   32.163993
 ---------------------------------------------------------------------
                    Distance matrix (angstroms):
                    1          2          3          4          5
     1  O    0.000000
     2  C    1.434925   0.000000
     3  C    2.433349   1.520001   0.000000
     4  O    2.693689   2.380800   1.435364   0.000000
     5  H    2.121662   2.353997   2.005447   1.000280   0.000000
     6  C    3.836338   2.603140   1.520250   2.504985   3.338667
     7  O    4.956612   3.898496   2.523784   3.012478   3.987280
     8  H    5.677916   4.479937   3.273002   3.849866   4.822965
     9  C    3.070257   2.554300   3.832289   4.927618   4.828134
    10  O    2.834697   3.018147   4.449591   5.271152   4.896673
    11  H    3.768197   3.927916   5.385783   6.203981   5.816077
    12  C    2.433246   1.519444   2.438265   3.686283   3.770376
    13  O    3.678872   2.412719   2.749085   4.134744   4.521421
    14  C    4.238768   2.920551   2.434673   3.767599   4.429427
    15  O    5.424313   4.016020   3.609250   4.787273   5.519099
    16  C    6.616991   5.250268   4.894452   6.132156   6.861073
    17  C    6.984787   5.647052   5.681877   6.971930   7.574393
    18  O    6.330188   5.136920   5.453008   6.833797   7.286106
    19  H    5.339005   4.145979   4.500129   5.888128   6.307091
    20  C    8.430976   7.123995   7.137402   8.441115   9.061077
    21  O    9.158462   7.875550   8.080998   9.355751   9.913560
    22  H   10.082423   8.805432   8.962354  10.250565  10.830781
    23  C    8.024864   6.683665   5.797260   6.665842   7.593012
    24  O    7.245225   5.962315   4.890237   5.543463   6.512583
    25  H    7.972736   6.752593   5.563966   6.051840   7.045507
    26  C    7.801845   6.401546   5.842625   6.901008   7.734792
    27  O    9.006553   7.627131   7.137521   8.258549   9.075077
    28  C    9.284853   7.907376   7.682991   8.876631   9.609290
    29  O   10.480573   9.133241   8.850732  10.065399  10.816403
    30  H   11.240165   9.870938   9.605423  10.783740  11.543706
    31  H    0.960000   1.974579   3.024649   2.979515   2.250834
    32  H    3.995466   3.455391   4.553609   5.770895   5.741982
    33  H    3.507141   2.808302   4.099221   5.116091   5.062135
    34  H    2.636709   2.130703   2.701809   3.929640   3.982653
    35  H    2.056063   1.070000   2.130605   2.717674   2.704774
    36  H    2.635033   2.072177   1.070000   2.000716   2.426331
    37  H    4.115339   2.818498   2.087559   2.766927   3.556329
    38  H    4.677221   3.536769   2.903592   4.218005   4.877640
    39  H    8.995926   7.643936   6.740800   7.515163   8.463382
    40  H    8.203689   6.930292   5.990983   6.915185   7.829851
    41  H    7.918406   6.487494   6.019829   6.986784   7.805319
    42  H    6.688531   5.418435   4.993369   6.286620   6.998455
    43  H    6.985295   5.619072   5.744447   6.932847   7.516481
    44  H    8.641623   7.408272   7.414952   8.775819   9.372394
    45  H    9.594233   8.189288   8.006804   9.122132   9.854132
                    6          7          8          9         10
     6  C    0.000000
     7  O    1.435467   0.000000
     8  H    1.879707   0.999790   0.000000
     9  C    4.360019   5.744244   6.066311   0.000000
    10  O    5.332925   6.691856   7.150662   1.434706   0.000000
    11  H    6.178627   7.566559   7.959613   1.979429   0.999505
    12  C    2.995462   4.321681   4.747490   1.520264   2.475891
    13  O    2.495093   3.764425   3.911328   2.333933   3.649819
    14  C    1.519557   2.481844   2.562893   3.707410   4.919763
    15  O    2.343354   2.984090   2.545522   4.480225   5.826333
    16  C    3.657882   4.043474   3.477458   5.234884   6.642712
    17  C    4.641430   5.321193   4.802165   4.985973   6.415994
    18  O    4.751096   5.667083   5.382736   3.954565   5.339665
    19  H    3.929636   4.968639   4.818462   3.119728   4.533486
    20  C    6.057862   6.581707   5.982598   6.253529   7.655013
    21  O    7.067178   7.713946   7.098166   6.735927   8.083374
    22  H    7.912311   8.469233   7.820520   7.634592   8.969800
    23  C    4.310318   3.809825   2.917011   7.415496   8.748614
    24  O    3.411635   2.645398   1.698541   7.159148   8.388691
    25  H    4.156196   3.129546   2.300189   8.093277   9.286884
    26  C    4.413956   4.406967   3.576785   6.648955   8.053352
    27  O    5.756540   5.722687   4.915459   7.561962   8.986100
    28  C    6.400331   6.642242   5.875353   7.425049   8.854141
    29  O    7.567687   7.678633   6.914901   8.575345   9.988861
    30  H    8.289328   8.386996   7.571733   9.302290  10.719127
    31  H    4.368116   5.498195   6.180136   3.469218   3.056985
    32  H    4.896595   6.211464   6.457838   1.070000   2.044821
    33  H    4.443343   5.869823   6.071923   1.070000   2.044821
    34  H    3.373440   4.499755   5.030183   2.131394   2.774255
    35  H    2.855914   4.196379   4.624874   2.736220   3.245135
    36  H    2.066939   2.744623   3.592224   4.034356   4.575036
    37  H    1.070000   2.010621   2.102958   4.513869   5.507701
    38  H    2.156795   2.666422   2.825149   4.194416   5.341661
    39  H    5.234132   4.640075   3.698179   8.392186   9.737379
    40  H    4.597753   4.007507   3.279261   7.603668   8.911431
    41  H    4.585533   4.680606   3.794830   6.759945   8.158064
    42  H    3.880317   4.153507   3.733462   5.349101   6.706643
    43  H    4.702095   5.463889   4.898814   5.030054   6.438093
    44  H    6.420030   6.910362   6.393357   6.406517   7.764081
    45  H    6.696757   6.965814   6.139269   7.757575   9.180364
                   11         12         13         14         15
    11  H    0.000000
    12  C    3.318133   0.000000
    13  O    4.312887   1.434731   0.000000
    14  C    5.670075   2.480543   1.435234   0.000000
    15  O    6.435507   3.574278   2.224274   1.434363   0.000000
    16  C    7.152906   4.511442   3.099209   2.502566   1.435885
    17  C    6.725454   4.711325   3.337982   3.380497   2.376101
    18  O    5.581558   3.930420   2.776453   3.329225   2.896133
    19  H    4.896830   2.942848   1.788355   2.529754   2.431800
    20  C    7.869134   6.091653   4.762364   4.766863   3.755696
    21  O    8.136274   6.850639   5.597231   5.830949   4.778638
    22  H    9.003880   7.740393   6.484603   6.651599   5.596146
    23  C    9.385958   6.385790   5.102939   3.932422   2.984831
    24  O    9.114365   5.975060   4.862699   3.542296   2.884452
    25  H   10.042038   6.854916   5.804714   4.442825   3.880353
    26  C    8.567058   5.874512   4.469322   3.645296   2.390724
    27  O    9.420706   6.919612   5.505852   4.823078   3.651317
    28  C    9.143671   7.066610   5.655604   5.319700   4.094854
    29  O   10.263697   8.211077   6.828317   6.444595   5.323743
    30  H   10.954684   8.991315   7.594116   7.227841   6.025777
    31  H    3.853401   3.111811   4.284027   4.891846   5.948520
    32  H    2.286043   2.119537   2.558942   3.944072   4.611918
    33  H    2.295915   2.119537   2.507686   3.869958   4.356116
    34  H    3.654203   1.070000   2.056406   2.795144   4.064168
    35  H    3.995957   2.130114   2.685557   3.261025   4.035226
    36  H    5.552269   2.559063   2.992828   2.616634   3.977090
    37  H    6.271312   3.374902   2.786138   2.088683   2.364346
    38  H    6.116552   2.923098   2.081495   1.070000   2.077079
    39  H   10.350959   7.400292   6.100042   4.958528   3.923400
    40  H    9.576327   6.518365   5.294965   4.091031   3.408660
    41  H    8.622612   6.090410   4.690914   3.994348   2.589514
    42  H    7.256763   4.541993   3.250149   2.599653   2.078265
    43  H    6.696624   4.865676   3.529880   3.665361   2.519380
    44  H    7.978617   6.241646   4.997351   5.021475   4.236470
    45  H    9.430156   7.465891   6.052769   5.756735   4.413175
                   16         17         18         19         20
    16  C    0.000000
    17  C    1.520181   0.000000
    18  O    2.405258   1.434519   0.000000
    19  H    2.434412   1.973729   0.999928   0.000000
    20  C    2.545304   1.519765   2.336132   3.200596   0.000000
    21  O    3.777210   2.457678   3.040723   3.963883   1.435177
    22  H    4.460583   3.288221   3.852954   4.814792   1.953672
    23  C    2.575843   3.867136   4.972119   4.955488   4.364014
    24  O    3.166179   4.545444   5.488171   5.215136   5.388237
    25  H    4.089754   5.475789   6.447758   6.193274   6.202828
    26  C    1.519649   2.460061   3.720625   3.894868   2.918272
    27  O    2.411798   2.845017   4.090728   4.555229   2.495164
    28  C    2.835995   2.441296   3.658168   4.362186   1.520453
    29  O    3.958242   3.679232   4.686497   5.462176   2.439224
    30  H    4.725873   4.353454   5.416284   6.217189   3.094488
    31  H    7.203010   7.488356   6.875707   5.903310   8.959363
    32  H    5.081340   4.671492   3.437067   2.751483   5.767813
    33  H    5.160917   4.751563   3.875390   3.122290   6.048698
    34  H    4.840107   5.169769   4.299004   3.358914   6.443059
    35  H    5.337704   5.589132   5.199452   4.264664   7.094568
    36  H    5.077041   5.947874   5.602513   4.659507   7.319816
    37  H    3.784930   4.595476   4.857462   4.092569   6.049198
    38  H    2.636231   3.682070   3.548433   2.853642   4.870850
    39  H    3.457954   4.561877   5.793793   5.871555   4.838913
    40  H    2.818713   4.182709   5.117119   5.112187   4.544505
    41  H    2.111270   2.626521   3.992072   4.162727   3.166150
    42  H    1.070000   2.152630   2.588348   2.598930   2.861130
    43  H    2.135759   1.070000   2.060065   2.418070   2.135156
    44  H    2.944237   2.173504   2.492016   3.377687   1.070000
    45  H    3.383962   2.865522   4.168782   4.835908   2.175996
                   21         22         23         24         25
    21  O    0.000000
    22  H    1.000402   0.000000
    23  C    5.533604   5.975582   0.000000
    24  O    6.518955   7.094488   1.435174   0.000000
    25  H    7.336943   7.843732   1.922433   1.000454   0.000000
    26  C    4.035325   4.545411   1.520336   2.558789   3.313875
    27  O    3.577886   3.784059   2.379573   3.730320   4.286288
    28  C    2.238770   2.388402   3.663041   4.885146   5.545732
    29  O    2.975539   2.611945   4.397034   5.769681   6.282227
    30  H    3.255026   2.734399   4.975931   6.340677   6.798686
    31  H    9.586110  10.539302   8.585503   7.754237   8.476332
    32  H    6.228530   7.063018   7.439052   7.377837   8.328990
    33  H    6.367024   7.312350   7.336517   7.085509   8.042875
    34  H    7.319816   8.142539   6.637811   6.259752   7.083501
    35  H    7.700638   8.669232   6.764188   6.030776   6.844800
    36  H    8.367716   9.196046   5.975640   5.150709   5.772124
    37  H    6.904884   7.792578   4.394962   3.463359   4.233056
    38  H    6.085124   6.806579   3.901410   3.648556   4.453297
    39  H    5.876638   6.211832   1.070000   2.028109   2.093312
    40  H    5.847033   6.203292   1.070000   2.028109   2.313208
    41  H    3.966107   4.552144   2.112303   2.832359   3.579048
    42  H    4.238545   4.798047   2.845011   3.485691   4.314795
    43  H    2.539771   3.481832   4.160815   4.684588   5.624287
    44  H    2.094864   2.281884   4.764639   5.837776   6.617184
    45  H    2.323684   2.521932   4.004777   5.116651   5.756822
                   26         27         28         29         30
    26  C    0.000000
    27  O    1.434444   0.000000
    28  C    2.348156   1.434843   0.000000
    29  O    3.390047   2.040807   1.434304   0.000000
    30  H    4.005155   2.693977   1.974027   0.960000   0.000000
    31  H    8.332850   9.575821   9.797828  11.051022  11.767383
    32  H    6.559938   7.298592   7.062418   8.107752   8.853254
    33  H    6.472583   7.415097   7.171056   8.408176   9.057102
    34  H    6.237754   7.198866   7.438384   8.462298   9.302883
    35  H    6.387643   7.652108   7.832589   9.142083   9.806265
    36  H    6.098077   7.295935   7.911365   8.968333   9.784398
    37  H    4.379237   5.785364   6.319004   7.589472   8.222734
    38  H    3.778598   4.782568   5.415181   6.359626   7.215132
    39  H    2.102103   2.551838   3.831866   4.398950   4.805478
    40  H    2.102103   2.562669   3.943060   4.424131   5.108952
    41  H    1.070000   2.038939   2.513251   3.736224   4.153699
    42  H    2.152433   2.688965   3.262035   4.083935   4.964679
    43  H    2.749543   3.310545   2.778431   4.160171   4.659174
    44  H    3.477964   2.885102   2.166876   2.538706   3.327583
    45  H    2.708798   2.091949   1.070000   2.088661   2.161468
                   31         32         33         34         35
    31  H    0.000000
    32  H    4.481045   0.000000
    33  H    3.683718   1.738211   0.000000
    34  H    3.496425   2.407626   2.999734   0.000000
    35  H    2.117289   3.720094   2.567937   3.008676   0.000000
    36  H    3.434494   4.603622   4.542078   2.371884   2.966477
    37  H    4.440193   5.136568   4.342062   4.010356   2.653290
    38  H    5.454404   4.254139   4.565426   2.842026   4.097388
    39  H    9.514209   8.419393   8.245423   7.691162   7.652136
    40  H    8.855888   7.538966   7.666794   6.599913   7.165667
    41  H    8.339591   6.762222   6.417635   6.614339   6.296130
    42  H    7.383069   5.079589   5.482210   4.630369   5.705279
    43  H    7.364028   4.867576   4.575585   5.512124   5.359056
    44  H    9.249783   5.787001   6.364532   6.425919   7.517996
    45  H   10.018774   7.480661   7.362542   7.962970   7.976938
                   36         37         38         39         40
    36  H    0.000000
    37  H    2.933687   0.000000
    38  H    2.677303   2.978413   0.000000
    39  H    6.967971   5.204952   4.969563   0.000000
    40  H    5.977872   4.911089   3.772415   1.726423   0.000000
    41  H    6.447545   4.294942   4.378958   2.391349   2.974832
    42  H    4.946464   4.275756   2.290175   3.792367   2.671028
    43  H    6.191002   4.412354   4.222402   4.746833   4.705190
    44  H    7.447711   6.574790   4.914149   5.299370   4.705336
    45  H    8.363117   6.444942   6.020128   4.005096   4.512304
                   41         42         43         44         45
    41  H    0.000000
    42  H    3.011131   0.000000
    43  H    2.477941   3.023247   0.000000
    44  H    3.969950   2.862700   3.026927   0.000000
    45  H    2.428881   4.038495   2.794107   3.040757   0.000000
 Stoichiometry    C12H22O11
 Framework group  C1[X(C12H22O11)]
 Deg. of freedom   129
 Full point group                 C1      NOp   1
 Largest Abelian subgroup         C1      NOp   1
 Largest concise Abelian subgroup C1      NOp   1
                         Standard orientation:                         
 ---------------------------------------------------------------------
 Center     Atomic      Atomic             Coordinates (Angstroms)
 Number     Number       Type             X           Y           Z
 ---------------------------------------------------------------------
      1          8           0        5.031969   -0.403046   -0.016787
      2          6           0        3.652474   -0.176179    0.306533
      3          6           0        3.226566    1.226543   -0.095184
      4          8           0        4.224385    2.133117    0.397513
      5          1           0        5.109301    1.668338    0.435799
      6          6           0        1.782458    1.628616    0.157893
      7          8           0        1.393931    2.957055   -0.222715
      8          1           0        0.475511    2.979541    0.171722
      9          6           0        2.875757   -2.588726   -0.010926
     10          8           0        4.207379   -3.113580   -0.109366
     11          1           0        4.176747   -4.067161    0.188551
     12          6           0        2.753680   -1.138768   -0.451293
     13          8           0        1.380098   -0.807292   -0.202598
     14          6           0        0.919180    0.530843   -0.441024
     15          8           0       -0.295790    0.558275    0.320876
     16          6           0       -1.553754    0.189558   -0.265077
     17          6           0       -1.902410   -1.191475    0.266088
     18          8           0       -1.040718   -2.158813   -0.350019
     19          1           0       -0.117591   -1.774583   -0.342199
     20          6           0       -3.306130   -1.648590   -0.094886
     21          8           0       -3.809857   -2.643040    0.809028
     22          1           0       -4.738045   -2.840806    0.492544
     23          6           0       -2.400398    2.619932   -0.158095
     24          8           0       -1.192317    3.297891    0.216919
     25          1           0       -1.432832    4.261505    0.096466
     26          6           0       -2.606478    1.165458    0.233645
     27          8           0       -3.894494    0.770648   -0.259071
     28          6           0       -4.247643   -0.513443    0.274941
     29          8           0       -5.435183   -0.540202   -0.528963
     30          1           0       -6.206671   -0.578899    0.041045
     31          1           0        5.536503   -0.512596    0.792561
     32          1           0        2.228423   -3.185319   -0.619150
     33          1           0        2.554061   -2.664089    1.006783
     34          1           0        2.954829   -1.065483   -1.499658
     35          1           0        3.506826   -0.305546    1.358650
     36          1           0        3.329605    1.251832   -1.159911
     37          1           0        1.641115    1.575694    1.217196
     38          1           0        0.729075    0.701646   -1.480056
     39          1           0       -3.216509    3.177012    0.252422
     40          1           0       -2.476165    2.674459   -1.224015
     41          1           0       -2.627723    1.110561    1.302024
     42          1           0       -1.498671    0.191140   -1.333657
     43          1           0       -1.774299   -1.215633    1.328116
     44          1           0       -3.400277   -1.938081   -1.120669
     45          1           0       -4.468241   -0.474239    1.321220
 ---------------------------------------------------------------------
 Rotational constants (GHZ):      0.4129807      0.1477267      0.1115069
 Standard basis: 6-31+G(d,p) (6D, 7F)
 There are   547 symmetry adapted basis functions of A   symmetry.
 Integral buffers will be    131072 words long.
 Raffenetti 2 integral format.
 Two-electron integral symmetry is turned on.
   547 basis functions,   890 primitive gaussians,   547 cartesian basis functions
    91 alpha electrons       91 beta electrons
       nuclear repulsion energy      2296.5503318533 Hartrees.
 NAtoms=   45 NActive=   45 NUniq=   45 SFac= 1.00D+00 NAtFMM=   50 NAOKFM=F Big=F
 One-electron integrals computed using PRISM.
 NBasis=   547 RedAO= T  NBF=   547
 NBsUse=   547 1.00D-06 NBFU=   547
 Harris functional with IExCor=  402 diagonalized for initial guess.
 ExpMin= 4.38D-02 ExpMax= 5.48D+03 ExpMxC= 8.25D+02 IAcc=2 IRadAn=         0 AccDes= 0.00D+00
 HarFok:  IExCor=  402 AccDes= 0.00D+00 IRadAn=         0 IDoV= 1
 ScaDFX=  1.000000  1.000000  1.000000  1.000000
 FoFCou: FMM=F IPFlag=           0 FMFlag=      100000 FMFlg1=           0
         NFxFlg=           0 DoJE=T BraDBF=F KetDBF=T FulRan=T
         Omega=  0.000000  0.000000  1.000000  0.000000  0.000000 ICntrl=     500 IOpCl=  0
         NMat0=    1 NMatS0=    1 NMatT0=    0 NMatD0=    1 NMtDS0=    0 NMtDT0=    0
         I1Cent=           4 NGrid=           0.
 Petite list used in FoFCou.
 Initial guess orbital symmetries:
       Occupied  (A) (A) (A) (A) (A) (A) (A) (A) (A) (A) (A) (A)
                 (A) (A) (A) (A) (A) (A) (A) (A) (A) (A) (A) (A)
                 (A) (A) (A) (A) (A) (A) (A) (A) (A) (A) (A) (A)
                 (A) (A) (A) (A) (A) (A) (A) (A) (A) (A) (A) (A)
                 (A) (A) (A) (A) (A) (A) (A) (A) (A) (A) (A) (A)
                 (A) (A) (A) (A) (A) (A) (A) (A) (A) (A) (A) (A)
                 (A) (A) (A) (A) (A) (A) (A) (A) (A) (A) (A) (A)
                 (A) (A) (A) (A) (A) (A) (A)
       Virtual   (A) (A) (A) (A) (A) (A) (A) (A) (A) (A) (A) (A)
                 (A) (A) (A) (A) (A) (A) (A) (A) (A) (A) (A) (A)
                 (A) (A) (A) (A) (A) (A) (A) (A) (A) (A) (A) (A)
                 (A) (A) (A) (A) (A) (A) (A) (A) (A) (A) (A) (A)
                 (A) (A) (A) (A) (A) (A) (A) (A) (A) (A) (A) (A)
                 (A) (A) (A) (A) (A) (A) (A) (A) (A) (A) (A) (A)
                 (A) (A) (A) (A) (A) (A) (A) (A) (A) (A) (A) (A)
                 (A) (A) (A) (A) (A) (A) (A) (A) (A) (A) (A) (A)
                 (A) (A) (A) (A) (A) (A) (A) (A) (A) (A) (A) (A)
                 (A) (A) (A) (A) (A) (A) (A) (A) (A) (A) (A) (A)
                 (A) (A) (A) (A) (A) (A) (A) (A) (A) (A) (A) (A)
                 (A) (A) (A) (A) (A) (A) (A) (A) (A) (A) (A) (A)
                 (A) (A) (A) (A) (A) (A) (A) (A) (A) (A) (A) (A)
                 (A) (A) (A) (A) (A) (A) (A) (A) (A) (A) (A) (A)
                 (A) (A) (A) (A) (A) (A) (A) (A) (A) (A) (A) (A)
                 (A) (A) (A) (A) (A) (A) (A) (A) (A) (A) (A) (A)
                 (A) (A) (A) (A) (A) (A) (A) (A) (A) (A) (A) (A)
                 (A) (A) (A) (A) (A) (A) (A) (A) (A) (A) (A) (A)
                 (A) (A) (A) (A) (A) (A) (A) (A) (A) (A) (A) (A)
                 (A) (A) (A) (A) (A) (A) (A) (A) (A) (A) (A) (A)
                 (A) (A) (A) (A) (A) (A) (A) (A) (A) (A) (A) (A)
                 (A) (A) (A) (A) (A) (A) (A) (A) (A) (A) (A) (A)
                 (A) (A) (A) (A) (A) (A) (A) (A) (A) (A) (A) (A)
                 (A) (A) (A) (A) (A) (A) (A) (A) (A) (A) (A) (A)
                 (A) (A) (A) (A) (A) (A) (A) (A) (A) (A) (A) (A)
                 (A) (A) (A) (A) (A) (A) (A) (A) (A) (A) (A) (A)
                 (A) (A) (A) (A) (A) (A) (A) (A) (A) (A) (A) (A)
                 (A) (A) (A) (A) (A) (A) (A) (A) (A) (A) (A) (A)
                 (A) (A) (A) (A) (A) (A) (A) (A) (A) (A) (A) (A)
                 (A) (A) (A) (A) (A) (A) (A) (A) (A) (A) (A) (A)
                 (A) (A) (A) (A) (A) (A) (A) (A) (A) (A) (A) (A)
                 (A) (A) (A) (A) (A) (A) (A) (A) (A) (A) (A) (A)
                 (A) (A) (A) (A) (A) (A) (A) (A) (A) (A) (A) (A)
                 (A) (A) (A) (A) (A) (A) (A) (A) (A) (A) (A) (A)
                 (A) (A) (A) (A) (A) (A) (A) (A) (A) (A) (A) (A)
                 (A) (A) (A) (A) (A) (A) (A) (A) (A) (A) (A) (A)
                 (A) (A) (A) (A) (A) (A) (A) (A) (A) (A) (A) (A)
                 (A) (A) (A) (A) (A) (A) (A) (A) (A) (A) (A) (A)
 The electronic state of the initial guess is 1-A.
 Requested convergence on RMS density matrix=1.00D-08 within 128 cycles.
 Requested convergence on MAX density matrix=1.00D-06.
 Requested convergence on             energy=1.00D-06.
 No special actions if energy rises.
 SCF Done:  E(RB3LYP) =  -1297.92506034     A.U. after   13 cycles
             Convg  =    0.5429D-08             -V/T =  2.0085
 Range of M.O.s used for correlation:     1   547
 NBasis=   547 NAE=    91 NBE=    91 NFC=     0 NFV=     0
 NROrb=    547 NOA=    91 NOB=    91 NVA=   456 NVB=   456

 **** Warning!!: The largest alpha MO coefficient is  0.72708668D+02

          Differentiating once with respect to electric field.
                with respect to dipole field.
          Electric field/nuclear overlap derivatives assumed to be zero.
          There are     3 degrees of freedom in the 1st order CPHF.  IDoFFX=0.
      3 vectors produced by pass  0 Test12= 1.38D-12 3.33D-08 XBig12= 1.20D+02 1.11D+00.
 AX will form     3 AO Fock derivatives at one time.
      3 vectors produced by pass  1 Test12= 1.38D-12 3.33D-08 XBig12= 2.08D+01 3.32D-01.
      3 vectors produced by pass  2 Test12= 1.38D-12 3.33D-08 XBig12= 9.42D+00 2.40D-01.
      3 vectors produced by pass  3 Test12= 1.38D-12 3.33D-08 XBig12= 9.75D-01 8.11D-02.
      3 vectors produced by pass  4 Test12= 1.38D-12 3.33D-08 XBig12= 2.88D-01 3.92D-02.
      3 vectors produced by pass  5 Test12= 1.38D-12 3.33D-08 XBig12= 5.23D-02 1.49D-02.
      3 vectors produced by pass  6 Test12= 1.38D-12 3.33D-08 XBig12= 1.91D-02 1.36D-02.
      3 vectors produced by pass  7 Test12= 1.38D-12 3.33D-08 XBig12= 1.80D-03 5.67D-03.
      3 vectors produced by pass  8 Test12= 1.38D-12 3.33D-08 XBig12= 5.13D-04 2.06D-03.
      3 vectors produced by pass  9 Test12= 1.38D-12 3.33D-08 XBig12= 8.17D-05 1.02D-03.
      3 vectors produced by pass 10 Test12= 1.38D-12 3.33D-08 XBig12= 2.85D-05 3.56D-04.
      3 vectors produced by pass 11 Test12= 1.38D-12 3.33D-08 XBig12= 5.23D-06 1.82D-04.
      3 vectors produced by pass 12 Test12= 1.38D-12 3.33D-08 XBig12= 9.56D-07 8.11D-05.
      3 vectors produced by pass 13 Test12= 1.38D-12 3.33D-08 XBig12= 1.73D-07 3.45D-05.
      3 vectors produced by pass 14 Test12= 1.38D-12 3.33D-08 XBig12= 3.30D-08 1.98D-05.
      3 vectors produced by pass 15 Test12= 1.38D-12 3.33D-08 XBig12= 1.47D-08 9.29D-06.
      3 vectors produced by pass 16 Test12= 1.38D-12 3.33D-08 XBig12= 1.71D-09 2.96D-06.
      3 vectors produced by pass 17 Test12= 1.38D-12 3.33D-08 XBig12= 2.10D-10 8.00D-07.
      3 vectors produced by pass 18 Test12= 1.38D-12 3.33D-08 XBig12= 5.61D-11 4.74D-07.
      2 vectors produced by pass 19 Test12= 1.38D-12 3.33D-08 XBig12= 1.48D-11 2.61D-07.
      2 vectors produced by pass 20 Test12= 1.38D-12 3.33D-08 XBig12= 4.34D-12 1.63D-07.
      1 vectors produced by pass 21 Test12= 1.38D-12 3.33D-08 XBig12= 9.83D-13 8.47D-08.
 Inverted reduced A of dimension    62 with in-core refinement.
 End of Minotr Frequency-dependent properties file   721 does not exist.
 End of Minotr Frequency-dependent properties file   722 does not exist.
 Symmetrizing basis deriv contribution to polar:
 IMax=3 JMax=2 DiffMx= 0.00D+00
 G2DrvN: will do    23 centers at a time, making    2 passes doing MaxLOS=2.
 Calling FoFCou, ICntrl=  3107 FMM=F I1Cent=   0 AccDes= 0.00D+00.
 Calling FoFCou, ICntrl=  3107 FMM=F I1Cent=   0 AccDes= 0.00D+00.
 FoFDir/FoFCou used for L=0 through L=2.
 End of G2Drv Frequency-dependent properties file   721 does not exist.
 End of G2Drv Frequency-dependent properties file   722 does not exist.
          IDoAtm=111111111111111111111111111111111111111111111
          Differentiating once with respect to electric field.
                with respect to dipole field.
          Differentiating once with respect to nuclear coordinates.
          There are   138 degrees of freedom in the 1st order CPHF.  IDoFFX=5.
 Will reuse    3 saved solutions.
    135 vectors produced by pass  0 Test12= 4.15D-14 1.00D-09 XBig12= 1.96D-01 6.21D-02.
 AX will form    68 AO Fock derivatives at one time.
    135 vectors produced by pass  1 Test12= 4.15D-14 1.00D-09 XBig12= 4.02D-02 1.78D-02.
    132 vectors produced by pass  2 Test12= 4.15D-14 1.00D-09 XBig12= 1.67D-04 1.57D-03.
    132 vectors produced by pass  3 Test12= 4.15D-14 1.00D-09 XBig12= 6.51D-07 6.26D-05.
    132 vectors produced by pass  4 Test12= 4.15D-14 1.00D-09 XBig12= 1.47D-09 3.27D-06.
    132 vectors produced by pass  5 Test12= 4.15D-14 1.00D-09 XBig12= 2.92D-12 1.43D-07.
     79 vectors produced by pass  6 Test12= 4.15D-14 1.00D-09 XBig12= 1.40D-13 2.13D-08.
 Inverted reduced A of dimension   877 with in-core refinement.
 Isotropic polarizability for W=    0.000000      187.30 Bohr**3.
 End of Minotr Frequency-dependent properties file   721 does not exist.
 End of Minotr Frequency-dependent properties file   722 does not exist.

 **********************************************************************

            Population analysis using the SCF density.

 **********************************************************************

 Orbital symmetries:
       Occupied  (A) (A) (A) (A) (A) (A) (A) (A) (A) (A) (A) (A)
                 (A) (A) (A) (A) (A) (A) (A) (A) (A) (A) (A) (A)
                 (A) (A) (A) (A) (A) (A) (A) (A) (A) (A) (A) (A)
                 (A) (A) (A) (A) (A) (A) (A) (A) (A) (A) (A) (A)
                 (A) (A) (A) (A) (A) (A) (A) (A) (A) (A) (A) (A)
                 (A) (A) (A) (A) (A) (A) (A) (A) (A) (A) (A) (A)
                 (A) (A) (A) (A) (A) (A) (A) (A) (A) (A) (A) (A)
                 (A) (A) (A) (A) (A) (A) (A)
       Virtual   (A) (A) (A) (A) (A) (A) (A) (A) (A) (A) (A) (A)
                 (A) (A) (A) (A) (A) (A) (A) (A) (A) (A) (A) (A)
                 (A) (A) (A) (A) (A) (A) (A) (A) (A) (A) (A) (A)
                 (A) (A) (A) (A) (A) (A) (A) (A) (A) (A) (A) (A)
                 (A) (A) (A) (A) (A) (A) (A) (A) (A) (A) (A) (A)
                 (A) (A) (A) (A) (A) (A) (A) (A) (A) (A) (A) (A)
                 (A) (A) (A) (A) (A) (A) (A) (A) (A) (A) (A) (A)
                 (A) (A) (A) (A) (A) (A) (A) (A) (A) (A) (A) (A)
                 (A) (A) (A) (A) (A) (A) (A) (A) (A) (A) (A) (A)
                 (A) (A) (A) (A) (A) (A) (A) (A) (A) (A) (A) (A)
                 (A) (A) (A) (A) (A) (A) (A) (A) (A) (A) (A) (A)
                 (A) (A) (A) (A) (A) (A) (A) (A) (A) (A) (A) (A)
                 (A) (A) (A) (A) (A) (A) (A) (A) (A) (A) (A) (A)
                 (A) (A) (A) (A) (A) (A) (A) (A) (A) (A) (A) (A)
                 (A) (A) (A) (A) (A) (A) (A) (A) (A) (A) (A) (A)
                 (A) (A) (A) (A) (A) (A) (A) (A) (A) (A) (A) (A)
                 (A) (A) (A) (A) (A) (A) (A) (A) (A) (A) (A) (A)
                 (A) (A) (A) (A) (A) (A) (A) (A) (A) (A) (A) (A)
                 (A) (A) (A) (A) (A) (A) (A) (A) (A) (A) (A) (A)
                 (A) (A) (A) (A) (A) (A) (A) (A) (A) (A) (A) (A)
                 (A) (A) (A) (A) (A) (A) (A) (A) (A) (A) (A) (A)
                 (A) (A) (A) (A) (A) (A) (A) (A) (A) (A) (A) (A)
                 (A) (A) (A) (A) (A) (A) (A) (A) (A) (A) (A) (A)
                 (A) (A) (A) (A) (A) (A) (A) (A) (A) (A) (A) (A)
                 (A) (A) (A) (A) (A) (A) (A) (A) (A) (A) (A) (A)
                 (A) (A) (A) (A) (A) (A) (A) (A) (A) (A) (A) (A)
                 (A) (A) (A) (A) (A) (A) (A) (A) (A) (A) (A) (A)
                 (A) (A) (A) (A) (A) (A) (A) (A) (A) (A) (A) (A)
                 (A) (A) (A) (A) (A) (A) (A) (A) (A) (A) (A) (A)
                 (A) (A) (A) (A) (A) (A) (A) (A) (A) (A) (A) (A)
                 (A) (A) (A) (A) (A) (A) (A) (A) (A) (A) (A) (A)
                 (A) (A) (A) (A) (A) (A) (A) (A) (A) (A) (A) (A)
                 (A) (A) (A) (A) (A) (A) (A) (A) (A) (A) (A) (A)
                 (A) (A) (A) (A) (A) (A) (A) (A) (A) (A) (A) (A)
                 (A) (A) (A) (A) (A) (A) (A) (A) (A) (A) (A) (A)
                 (A) (A) (A) (A) (A) (A) (A) (A) (A) (A) (A) (A)
                 (A) (A) (A) (A) (A) (A) (A) (A) (A) (A) (A) (A)
                 (A) (A) (A) (A) (A) (A) (A) (A) (A) (A) (A) (A)
 The electronic state is 1-A.
 Alpha  occ. eigenvalues --  -19.19800 -19.19656 -19.18482 -19.18210 -19.17885
 Alpha  occ. eigenvalues --  -19.17772 -19.17479 -19.17096 -19.15050 -19.14715
 Alpha  occ. eigenvalues --  -19.14359 -10.31330 -10.30327 -10.26183 -10.25870
 Alpha  occ. eigenvalues --  -10.25841 -10.25645 -10.25448 -10.25246 -10.24722
 Alpha  occ. eigenvalues --  -10.24606 -10.24488 -10.24275  -1.10308  -1.09647
 Alpha  occ. eigenvalues --   -1.05871  -1.05646  -1.04148  -1.03973  -1.02782
 Alpha  occ. eigenvalues --   -1.01874  -1.01447  -1.00734  -1.00164  -0.82380
 Alpha  occ. eigenvalues --   -0.80556  -0.78855  -0.78394  -0.72084  -0.69951
 Alpha  occ. eigenvalues --   -0.67389  -0.64830  -0.63054  -0.62813  -0.61452
 Alpha  occ. eigenvalues --   -0.60251  -0.56734  -0.56004  -0.54780  -0.54614
 Alpha  occ. eigenvalues --   -0.54074  -0.53170  -0.52552  -0.52322  -0.51028
 Alpha  occ. eigenvalues --   -0.50793  -0.50104  -0.49438  -0.49078  -0.46733
 Alpha  occ. eigenvalues --   -0.45926  -0.45321  -0.44064  -0.43638  -0.43464
 Alpha  occ. eigenvalues --   -0.42458  -0.41915  -0.41675  -0.40312  -0.39449
 Alpha  occ. eigenvalues --   -0.38820  -0.38065  -0.37564  -0.36723  -0.35959
 Alpha  occ. eigenvalues --   -0.35403  -0.35183  -0.34150  -0.33820  -0.33431
 Alpha  occ. eigenvalues --   -0.31958  -0.31254  -0.30963  -0.30623  -0.29876
 Alpha  occ. eigenvalues --   -0.29389  -0.28877  -0.28586  -0.27161  -0.26599
 Alpha  occ. eigenvalues --   -0.26196
 Alpha virt. eigenvalues --   -0.02006  -0.01966  -0.01935  -0.00344   0.00285
 Alpha virt. eigenvalues --    0.01014   0.01783   0.02370   0.02833   0.03486
 Alpha virt. eigenvalues --    0.04123   0.04229   0.04559   0.05275   0.05811
 Alpha virt. eigenvalues --    0.06400   0.06637   0.07015   0.07850   0.08072
 Alpha virt. eigenvalues --    0.08547   0.08683   0.09106   0.09882   0.09972
 Alpha virt. eigenvalues --    0.10258   0.11183   0.11325   0.11704   0.12293
 Alpha virt. eigenvalues --    0.12495   0.12926   0.13387   0.13787   0.14012
 Alpha virt. eigenvalues --    0.14172   0.14447   0.14661   0.14911   0.15262
 Alpha virt. eigenvalues --    0.15665   0.16195   0.16338   0.16638   0.17225
 Alpha virt. eigenvalues --    0.17399   0.17663   0.17713   0.18062   0.18417
 Alpha virt. eigenvalues --    0.18811   0.19202   0.19569   0.19840   0.19920
 Alpha virt. eigenvalues --    0.20614   0.20797   0.21037   0.21423   0.21838
 Alpha virt. eigenvalues --    0.21994   0.22362   0.22554   0.22978   0.23298
 Alpha virt. eigenvalues --    0.23688   0.24129   0.24231   0.24449   0.24802
 Alpha virt. eigenvalues --    0.24956   0.25276   0.25419   0.25853   0.26206
 Alpha virt. eigenvalues --    0.26242   0.26704   0.26849   0.27312   0.27529
 Alpha virt. eigenvalues --    0.27677   0.28152   0.28566   0.28723   0.28943
 Alpha virt. eigenvalues --    0.29064   0.29477   0.29984   0.30399   0.30866
 Alpha virt. eigenvalues --    0.31422   0.31612   0.31876   0.32253   0.32443
 Alpha virt. eigenvalues --    0.32808   0.33311   0.33687   0.34050   0.34359
 Alpha virt. eigenvalues --    0.34545   0.34809   0.35514   0.36036   0.36331
 Alpha virt. eigenvalues --    0.36536   0.36856   0.37362   0.37814   0.37916
 Alpha virt. eigenvalues --    0.38378   0.38581   0.38653   0.38722   0.39397
 Alpha virt. eigenvalues --    0.39907   0.40598   0.41104   0.41851   0.41924
 Alpha virt. eigenvalues --    0.42340   0.42666   0.43494   0.43855   0.44612
 Alpha virt. eigenvalues --    0.44985   0.45383   0.45849   0.46292   0.47227
 Alpha virt. eigenvalues --    0.47709   0.48260   0.48798   0.49935   0.51078
 Alpha virt. eigenvalues --    0.51943   0.52303   0.56648   0.61810   0.64443
 Alpha virt. eigenvalues --    0.64963   0.65288   0.67320   0.68553   0.70277
 Alpha virt. eigenvalues --    0.70658   0.71245   0.72196   0.72647   0.73817
 Alpha virt. eigenvalues --    0.74738   0.76477   0.76938   0.78348   0.79016
 Alpha virt. eigenvalues --    0.79513   0.79746   0.81233   0.82311   0.84582
 Alpha virt. eigenvalues --    0.85239   0.86792   0.87386   0.88664   0.89171
 Alpha virt. eigenvalues --    0.90770   0.91407   0.92968   0.94390   0.95433
 Alpha virt. eigenvalues --    0.96114   0.96304   0.97639   0.98315   1.00765
 Alpha virt. eigenvalues --    1.01592   1.01700   1.03068   1.04116   1.04632
 Alpha virt. eigenvalues --    1.05249   1.05883   1.06406   1.07186   1.07583
 Alpha virt. eigenvalues --    1.07806   1.09187   1.09249   1.10385   1.11286
 Alpha virt. eigenvalues --    1.12144   1.13094   1.13593   1.14615   1.16834
 Alpha virt. eigenvalues --    1.17008   1.18468   1.19431   1.19780   1.21621
 Alpha virt. eigenvalues --    1.22014   1.22842   1.23282   1.24498   1.25290
 Alpha virt. eigenvalues --    1.25645   1.25780   1.27118   1.27800   1.28259
 Alpha virt. eigenvalues --    1.28509   1.29479   1.30447   1.31064   1.31455
 Alpha virt. eigenvalues --    1.32649   1.33239   1.33661   1.33970   1.34793
 Alpha virt. eigenvalues --    1.35597   1.36316   1.36637   1.37811   1.38346
 Alpha virt. eigenvalues --    1.39327   1.40366   1.41507   1.42205   1.42972
 Alpha virt. eigenvalues --    1.43715   1.45728   1.46310   1.47057   1.47689
 Alpha virt. eigenvalues --    1.49411   1.50110   1.51438   1.52442   1.53023
 Alpha virt. eigenvalues --    1.53557   1.54766   1.55985   1.56558   1.56883
 Alpha virt. eigenvalues --    1.59450   1.59776   1.59921   1.61105   1.62075
 Alpha virt. eigenvalues --    1.62378   1.62811   1.63586   1.64685   1.65461
 Alpha virt. eigenvalues --    1.66313   1.67285   1.68515   1.68692   1.70003
 Alpha virt. eigenvalues --    1.71374   1.72242   1.73272   1.73949   1.74902
 Alpha virt. eigenvalues --    1.75069   1.76096   1.76712   1.77845   1.78320
 Alpha virt. eigenvalues --    1.79200   1.80277   1.80640   1.81264   1.82410
 Alpha virt. eigenvalues --    1.83887   1.84677   1.85249   1.87106   1.87695
 Alpha virt. eigenvalues --    1.88552   1.89065   1.89922   1.90992   1.91335
 Alpha virt. eigenvalues --    1.92266   1.92665   1.93754   1.95040   1.95426
 Alpha virt. eigenvalues --    1.96088   1.97041   1.97117   1.97624   1.97988
 Alpha virt. eigenvalues --    1.99832   2.01128   2.01481   2.01625   2.02953
 Alpha virt. eigenvalues --    2.03906   2.04662   2.05366   2.05936   2.06719
 Alpha virt. eigenvalues --    2.07862   2.08986   2.09930   2.11107   2.12950
 Alpha virt. eigenvalues --    2.13473   2.13868   2.14501   2.15700   2.16283
 Alpha virt. eigenvalues --    2.16556   2.17202   2.17887   2.19603   2.21083
 Alpha virt. eigenvalues --    2.21287   2.22363   2.24695   2.26066   2.28725
 Alpha virt. eigenvalues --    2.30330   2.31206   2.32190   2.34107   2.35525
 Alpha virt. eigenvalues --    2.35874   2.36454   2.37716   2.38215   2.39620
 Alpha virt. eigenvalues --    2.41700   2.42589   2.43608   2.44656   2.45429
 Alpha virt. eigenvalues --    2.46312   2.47434   2.47880   2.49490   2.50571
 Alpha virt. eigenvalues --    2.51310   2.52535   2.54247   2.54790   2.56689
 Alpha virt. eigenvalues --    2.57783   2.58806   2.59810   2.60491   2.60558
 Alpha virt. eigenvalues --    2.62258   2.62641   2.63227   2.65383   2.65855
 Alpha virt. eigenvalues --    2.66338   2.66557   2.67883   2.69780   2.70102
 Alpha virt. eigenvalues --    2.71197   2.72637   2.73049   2.73187   2.75038
 Alpha virt. eigenvalues --    2.76191   2.77759   2.78428   2.79455   2.80662
 Alpha virt. eigenvalues --    2.82075   2.82271   2.83581   2.84857   2.85717
 Alpha virt. eigenvalues --    2.85997   2.86315   2.87613   2.88755   2.89304
 Alpha virt. eigenvalues --    2.90415   2.91611   2.92032   2.92678   2.92931
 Alpha virt. eigenvalues --    2.95747   2.96363   2.97288   2.98085   2.99295
 Alpha virt. eigenvalues --    3.00347   3.00688   3.01997   3.03762   3.05108
 Alpha virt. eigenvalues --    3.06233   3.09790   3.10975   3.12702   3.13424
 Alpha virt. eigenvalues --    3.16519   3.19601   3.20559   3.24157   3.27151
 Alpha virt. eigenvalues --    3.30414   3.36559   3.36819   3.39991   3.41506
 Alpha virt. eigenvalues --    3.42697   3.44489   3.47331   3.47911   3.49221
 Alpha virt. eigenvalues --    3.50123   3.51605   3.52010   3.52505   3.54606
 Alpha virt. eigenvalues --    3.56778   3.57563   3.57811   3.60710   3.63712
 Alpha virt. eigenvalues --    3.66245   3.70312   3.74081   4.27498   4.33953
 Alpha virt. eigenvalues --    4.34694   4.38476   4.43066   4.44248   4.45571
 Alpha virt. eigenvalues --    4.48041   4.49876   4.52070   4.53820   4.54363
 Alpha virt. eigenvalues --    4.57758   4.59489   4.64114   4.68792   4.71124
 Alpha virt. eigenvalues --    4.80365   4.81872   4.84368   4.87735   4.90532
 Alpha virt. eigenvalues --    4.95256
          Condensed to atoms (all electrons):
              1          2          3          4          5          6
     1  O    8.306424   0.184909  -0.068218  -0.034422   0.048503   0.136465
     2  C    0.184909  10.575428  -2.214825   0.043517  -0.094070  -3.087544
     3  C   -0.068218  -2.214825  11.301866   0.308406  -0.018517  -1.346481
     4  O   -0.034422   0.043517   0.308406   8.256478   0.192031  -0.243431
     5  H    0.048503  -0.094070  -0.018517   0.192031   0.430820   0.057162
     6  C    0.136465  -3.087544  -1.346481  -0.243431   0.057162  12.018943
     7  O   -0.001180   0.044327  -0.236993   0.013952  -0.000826   0.445966
     8  H    0.000027  -0.014334   0.057716  -0.000719   0.000009   0.014378
     9  C   -0.039720   0.416100  -0.219129   0.005604  -0.003481  -0.076096
    10  O   -0.036403   0.024430   0.023829  -0.000250   0.000075  -0.020062
    11  H    0.000754  -0.007997  -0.004901   0.000001   0.000000   0.000450
    12  C   -0.179833  -1.530201  -1.122328   0.005588   0.047365   0.866576
    13  O    0.009844  -0.120638   0.068236  -0.000513   0.000401  -0.117190
    14  C    0.011260   0.889934   0.111042   0.018114  -0.006415  -2.582956
    15  O    0.000166  -0.027895  -0.008266   0.000135   0.000099   0.139092
    16  C    0.000450   0.122658  -0.328765   0.000763   0.000827  -0.150561
    17  C    0.000209  -0.024010   0.019133   0.000168   0.000081   0.186472
    18  O    0.000055   0.007562  -0.002565  -0.000002   0.000000  -0.008811
    19  H   -0.000044  -0.005199   0.004875   0.000001   0.000000   0.003167
    20  C    0.000017   0.021545  -0.025276  -0.000001   0.000002   0.023829
    21  O    0.000000   0.000078  -0.000036   0.000000   0.000000  -0.000499
    22  H    0.000000   0.000004   0.000002   0.000000   0.000000   0.000001
    23  C    0.000040   0.008741  -0.005309   0.000243  -0.000020  -0.212048
    24  O    0.000003   0.001660  -0.006343  -0.000085  -0.000005   0.009373
    25  H    0.000000   0.000007   0.000468   0.000002   0.000000  -0.000423
    26  C   -0.000250   0.057302  -0.080125   0.000485   0.000008  -0.139186
    27  O    0.000000  -0.000120   0.000722   0.000000   0.000000   0.005219
    28  C    0.000003  -0.001941  -0.001457  -0.000009   0.000000   0.027749
    29  O    0.000000  -0.000019   0.000092   0.000000   0.000000  -0.000069
    30  H    0.000000   0.000000   0.000000   0.000000   0.000000  -0.000005
    31  H    0.237302   0.077399  -0.056506   0.002012  -0.004930  -0.005219
    32  H   -0.001429  -0.006843  -0.003315   0.000019   0.000000  -0.002441
    33  H    0.004489  -0.014388   0.009135  -0.000030  -0.000002   0.014497
    34  H    0.008383   0.034884  -0.056413   0.000127  -0.000040   0.001432
    35  H   -0.044633   0.443889  -0.127592   0.001350  -0.000635   0.018438
    36  H   -0.009841   0.208916   0.136913  -0.054104  -0.000736  -0.264582
    37  H   -0.000872   0.117569  -0.252745   0.004758   0.000015   0.371976
    38  H    0.000005   0.039212  -0.063937  -0.000366   0.000005  -0.049244
    39  H    0.000000   0.000007  -0.000153   0.000000   0.000000  -0.000230
    40  H    0.000000   0.000028   0.001014   0.000000   0.000000  -0.001743
    41  H    0.000000  -0.000483   0.002279  -0.000001   0.000000   0.007176
    42  H    0.000000  -0.001600   0.002953   0.000001   0.000000  -0.000248
    43  H    0.000000  -0.001014   0.000803  -0.000001   0.000000  -0.004393
    44  H    0.000000  -0.000025   0.000011   0.000000   0.000000  -0.000359
    45  H    0.000000  -0.000017   0.000013   0.000000   0.000000   0.000044
              7          8          9         10         11         12
     1  O   -0.001180   0.000027  -0.039720  -0.036403   0.000754  -0.179833
     2  C    0.044327  -0.014334   0.416100   0.024430  -0.007997  -1.530201
     3  C   -0.236993   0.057716  -0.219129   0.023829  -0.004901  -1.122328
     4  O    0.013952  -0.000719   0.005604  -0.000250   0.000001   0.005588
     5  H   -0.000826   0.000009  -0.003481   0.000075   0.000000   0.047365
     6  C    0.445966   0.014378  -0.076096  -0.020062   0.000450   0.866576
     7  O    8.198169   0.205582  -0.000217   0.000009   0.000000   0.020832
     8  H    0.205582   0.352492  -0.000068   0.000000   0.000000  -0.003164
     9  C   -0.000217  -0.000068   6.036904  -0.023148   0.028280  -1.067326
    10  O    0.000009   0.000000  -0.023148   8.391522   0.181772   0.075557
    11  H    0.000000   0.000000   0.028280   0.181772   0.449240   0.013919
    12  C    0.020832  -0.003164  -1.067326   0.075557   0.013919  10.167257
    13  O    0.009034  -0.000468  -0.002209  -0.000690  -0.000029  -0.217182
    14  C   -0.110103  -0.036005  -0.089488   0.017820  -0.003647  -0.869949
    15  O   -0.009299   0.014685   0.008456  -0.000169   0.000007   0.013346
    16  C   -0.019974  -0.004230  -0.086589  -0.001755   0.000177   0.237708
    17  C    0.001958   0.003306   0.026451   0.001325  -0.000107  -0.201285
    18  O   -0.000048   0.000010   0.019469  -0.000124   0.000016  -0.046493
    19  H   -0.000046  -0.000002  -0.006299  -0.000023  -0.000004   0.023178
    20  C    0.001420   0.000245   0.014458   0.000204  -0.000018  -0.052621
    21  O   -0.000001   0.000000  -0.000046   0.000000   0.000000   0.000486
    22  H    0.000000   0.000000  -0.000007   0.000000   0.000000   0.000008
    23  C    0.012036   0.013820  -0.005377  -0.000006   0.000000  -0.000770
    24  O   -0.030894  -0.002305   0.000168  -0.000001   0.000000   0.003118
    25  H    0.002852  -0.001175  -0.000011   0.000000   0.000000  -0.000269
    26  C   -0.002787  -0.024463   0.006080   0.000097   0.000005   0.049707
    27  O    0.000005  -0.000023   0.000050   0.000000   0.000000  -0.000309
    28  C   -0.000205  -0.000279   0.000872  -0.000011   0.000000  -0.000780
    29  O   -0.000003   0.000000  -0.000012   0.000000   0.000000   0.000061
    30  H    0.000000   0.000000   0.000000   0.000000   0.000000  -0.000001
    31  H   -0.000011   0.000000  -0.005797   0.002051  -0.000004   0.005724
    32  H   -0.000007   0.000000   0.413260  -0.048998  -0.006532  -0.020728
    33  H   -0.000005   0.000000   0.512553  -0.052719  -0.006888  -0.192625
    34  H   -0.000060   0.000001   0.038483   0.006669  -0.000185   0.181954
    35  H   -0.000015   0.000001   0.025516   0.001410  -0.000001  -0.141673
    36  H    0.005140  -0.000263   0.026332  -0.000020   0.000000   0.006694
    37  H   -0.043704  -0.011538   0.009675   0.000015   0.000000  -0.000112
    38  H    0.000926  -0.000451   0.005166   0.000064   0.000000  -0.027760
    39  H   -0.000432   0.000126  -0.000004   0.000000   0.000000   0.000026
    40  H    0.000510   0.000392   0.000014   0.000000   0.000000   0.000122
    41  H   -0.000141   0.000046   0.000131   0.000000   0.000000  -0.000320
    42  H   -0.000213   0.000024   0.000612   0.000001   0.000000  -0.003593
    43  H   -0.000003   0.000002  -0.000789   0.000000   0.000000   0.002571
    44  H    0.000000   0.000000   0.000069   0.000000   0.000000   0.000283
    45  H    0.000000   0.000000   0.000010   0.000000   0.000000   0.000019
             13         14         15         16         17         18
     1  O    0.009844   0.011260   0.000166   0.000450   0.000209   0.000055
     2  C   -0.120638   0.889934  -0.027895   0.122658  -0.024010   0.007562
     3  C    0.068236   0.111042  -0.008266  -0.328765   0.019133  -0.002565
     4  O   -0.000513   0.018114   0.000135   0.000763   0.000168  -0.000002
     5  H    0.000401  -0.006415   0.000099   0.000827   0.000081   0.000000
     6  C   -0.117190  -2.582956   0.139092  -0.150561   0.186472  -0.008811
     7  O    0.009034  -0.110103  -0.009299  -0.019974   0.001958  -0.000048
     8  H   -0.000468  -0.036005   0.014685  -0.004230   0.003306   0.000010
     9  C   -0.002209  -0.089488   0.008456  -0.086589   0.026451   0.019469
    10  O   -0.000690   0.017820  -0.000169  -0.001755   0.001325  -0.000124
    11  H   -0.000029  -0.003647   0.000007   0.000177  -0.000107   0.000016
    12  C   -0.217182  -0.869949   0.013346   0.237708  -0.201285  -0.046493
    13  O    8.606181   0.223618  -0.071162   0.039746  -0.068478   0.022961
    14  C    0.223618   8.619862   0.053914  -0.567053   0.058156  -0.024682
    15  O   -0.071162   0.053914   8.379715  -0.012164   0.043516  -0.012821
    16  C    0.039746  -0.567053  -0.012164  11.533122  -2.305334  -0.067595
    17  C   -0.068478   0.058156   0.043516  -2.305334   8.927816   0.225419
    18  O    0.022961  -0.024682  -0.012821  -0.067595   0.225419   8.296849
    19  H    0.033917  -0.024032   0.008186  -0.001614   0.010970   0.182251
    20  C    0.010875  -0.313731   0.041630  -1.507159  -0.913638  -0.031415
    21  O    0.000361   0.000904  -0.001201   0.093558  -0.018071   0.003284
    22  H   -0.000006  -0.000530   0.000057  -0.029991  -0.015688  -0.000429
    23  C    0.027253   0.147191  -0.054719  -0.001701  -0.441012   0.020154
    24  O    0.001686   0.036143  -0.018080  -0.001443  -0.000444   0.000248
    25  H    0.000019  -0.007125   0.002017  -0.002048  -0.002078   0.000001
    26  C   -0.000532  -0.404213  -0.069802  -1.959797  -0.438457   0.059161
    27  O   -0.000131  -0.004773   0.007060  -0.149453  -0.044332  -0.000124
    28  C   -0.005655  -0.019907   0.014391   0.646180   0.471252  -0.022271
    29  O    0.000027   0.005250  -0.000066   0.087315  -0.035962  -0.000250
    30  H    0.000000   0.000013   0.000001  -0.010691   0.016969  -0.000037
    31  H   -0.001313   0.000742  -0.000033   0.000160  -0.000074  -0.000001
    32  H   -0.004835   0.000335  -0.000238   0.000900   0.001623  -0.001546
    33  H    0.010510   0.009216  -0.000306  -0.005902   0.002346   0.000513
    34  H   -0.025381   0.059570  -0.001630  -0.005120   0.005779   0.000248
    35  H    0.019227   0.038775   0.000259  -0.000577   0.002267   0.000097
    36  H    0.010625   0.108010   0.000550   0.008432   0.000731   0.000063
    37  H    0.018189  -0.023140  -0.010975   0.021542   0.003971   0.000167
    38  H   -0.052635   0.375415  -0.067155   0.034930   0.021186  -0.000003
    39  H    0.000008   0.000898  -0.000052   0.001019  -0.007808   0.000026
    40  H    0.000000   0.007716   0.002138  -0.000567   0.015848  -0.000023
    41  H   -0.000655   0.033614   0.005409  -0.010039   0.058385  -0.000400
    42  H   -0.001962   0.018560  -0.059237   0.346909   0.013523  -0.003401
    43  H    0.000869   0.048086  -0.015212   0.059740   0.355760  -0.044639
    44  H    0.000223   0.005563  -0.001134   0.113186  -0.083234  -0.002340
    45  H    0.000005   0.004956  -0.000118   0.101958   0.030618  -0.001109
             19         20         21         22         23         24
     1  O   -0.000044   0.000017   0.000000   0.000000   0.000040   0.000003
     2  C   -0.005199   0.021545   0.000078   0.000004   0.008741   0.001660
     3  C    0.004875  -0.025276  -0.000036   0.000002  -0.005309  -0.006343
     4  O    0.000001  -0.000001   0.000000   0.000000   0.000243  -0.000085
     5  H    0.000000   0.000002   0.000000   0.000000  -0.000020  -0.000005
     6  C    0.003167   0.023829  -0.000499   0.000001  -0.212048   0.009373
     7  O   -0.000046   0.001420  -0.000001   0.000000   0.012036  -0.030894
     8  H   -0.000002   0.000245   0.000000   0.000000   0.013820  -0.002305
     9  C   -0.006299   0.014458  -0.000046  -0.000007  -0.005377   0.000168
    10  O   -0.000023   0.000204   0.000000   0.000000  -0.000006  -0.000001
    11  H   -0.000004  -0.000018   0.000000   0.000000   0.000000   0.000000
    12  C    0.023178  -0.052621   0.000486   0.000008  -0.000770   0.003118
    13  O    0.033917   0.010875   0.000361  -0.000006   0.027253   0.001686
    14  C   -0.024032  -0.313731   0.000904  -0.000530   0.147191   0.036143
    15  O    0.008186   0.041630  -0.001201   0.000057  -0.054719  -0.018080
    16  C   -0.001614  -1.507159   0.093558  -0.029991  -0.001701  -0.001443
    17  C    0.010970  -0.913638  -0.018071  -0.015688  -0.441012  -0.000444
    18  O    0.182251  -0.031415   0.003284  -0.000429   0.020154   0.000248
    19  H    0.353139  -0.012580  -0.000392   0.000018  -0.004229  -0.000035
    20  C   -0.012580   9.065739   0.014059   0.031188   0.160692  -0.005074
    21  O   -0.000392   0.014059   8.272042   0.187807   0.001693   0.000028
    22  H    0.000018   0.031188   0.187807   0.445579  -0.000289   0.000001
    23  C   -0.004229   0.160692   0.001693  -0.000289   6.689985  -0.088231
    24  O   -0.000035  -0.005074   0.000028   0.000001  -0.088231   8.480776
    25  H    0.000000   0.001042   0.000000   0.000000   0.015527   0.202571
    26  C    0.005815   0.976287  -0.022880   0.008653  -0.951203   0.106319
    27  O    0.000273  -0.134379   0.004488   0.001082  -0.104107   0.003700
    28  C    0.002855  -1.550044  -0.008502   0.028554  -0.248510   0.011452
    29  O    0.000054  -0.113027  -0.010565   0.014484  -0.004035   0.000091
    30  H    0.000000  -0.022304  -0.001140  -0.002013   0.000064  -0.000002
    31  H    0.000000  -0.000001   0.000000   0.000000   0.000004   0.000000
    32  H    0.000727  -0.001245   0.000000   0.000000  -0.000005   0.000000
    33  H   -0.000188   0.001379   0.000001   0.000000   0.000017   0.000001
    34  H    0.000094   0.000936   0.000000   0.000000   0.000192   0.000008
    35  H   -0.000007   0.000307   0.000000   0.000000   0.000121   0.000016
    36  H   -0.000003   0.000210   0.000000   0.000000   0.000502   0.000161
    37  H   -0.000025   0.002547   0.000001   0.000000   0.005156   0.002658
    38  H   -0.000581   0.014264  -0.000002   0.000000   0.008102   0.001053
    39  H    0.000000   0.001089  -0.000001   0.000000   0.460601  -0.051985
    40  H    0.000001  -0.003481  -0.000013   0.000000   0.538506  -0.061713
    41  H    0.000012  -0.056887  -0.000545   0.000010  -0.020810   0.006148
    42  H   -0.001400   0.020897  -0.000697   0.000010   0.027075   0.000667
    43  H   -0.002851  -0.109164  -0.000125   0.000019   0.034783   0.000067
    44  H    0.000193   0.323012  -0.025005  -0.008611   0.011705  -0.000001
    45  H    0.000006  -0.145194  -0.005482  -0.002341  -0.005143  -0.000015
             25         26         27         28         29         30
     1  O    0.000000  -0.000250   0.000000   0.000003   0.000000   0.000000
     2  C    0.000007   0.057302  -0.000120  -0.001941  -0.000019   0.000000
     3  C    0.000468  -0.080125   0.000722  -0.001457   0.000092   0.000000
     4  O    0.000002   0.000485   0.000000  -0.000009   0.000000   0.000000
     5  H    0.000000   0.000008   0.000000   0.000000   0.000000   0.000000
     6  C   -0.000423  -0.139186   0.005219   0.027749  -0.000069  -0.000005
     7  O    0.002852  -0.002787   0.000005  -0.000205  -0.000003   0.000000
     8  H   -0.001175  -0.024463  -0.000023  -0.000279   0.000000   0.000000
     9  C   -0.000011   0.006080   0.000050   0.000872  -0.000012   0.000000
    10  O    0.000000   0.000097   0.000000  -0.000011   0.000000   0.000000
    11  H    0.000000   0.000005   0.000000   0.000000   0.000000   0.000000
    12  C   -0.000269   0.049707  -0.000309  -0.000780   0.000061  -0.000001
    13  O    0.000019  -0.000532  -0.000131  -0.005655   0.000027   0.000000
    14  C   -0.007125  -0.404213  -0.004773  -0.019907   0.005250   0.000013
    15  O    0.002017  -0.069802   0.007060   0.014391  -0.000066   0.000001
    16  C   -0.002048  -1.959797  -0.149453   0.646180   0.087315  -0.010691
    17  C   -0.002078  -0.438457  -0.044332   0.471252  -0.035962   0.016969
    18  O    0.000001   0.059161  -0.000124  -0.022271  -0.000250  -0.000037
    19  H    0.000000   0.005815   0.000273   0.002855   0.000054   0.000000
    20  C    0.001042   0.976287  -0.134379  -1.550044  -0.113027  -0.022304
    21  O    0.000000  -0.022880   0.004488  -0.008502  -0.010565  -0.001140
    22  H    0.000000   0.008653   0.001082   0.028554   0.014484  -0.002013
    23  C    0.015527  -0.951203  -0.104107  -0.248510  -0.004035   0.000064
    24  O    0.202571   0.106319   0.003700   0.011452   0.000091  -0.000002
    25  H    0.411060   0.009300  -0.000313  -0.002723   0.000001   0.000000
    26  C    0.009300   9.985835   0.352329  -1.021743  -0.148351   0.005675
    27  O   -0.000313   0.352329   8.544347   0.079709  -0.195340  -0.000119
    28  C   -0.002723  -1.021743   0.079709   6.627097   0.490714   0.020458
    29  O    0.000001  -0.148351  -0.195340   0.490714   8.282851   0.228213
    30  H    0.000000   0.005675  -0.000119   0.020458   0.228213   0.418432
    31  H    0.000000  -0.000006   0.000000   0.000000   0.000000   0.000000
    32  H    0.000000   0.000090   0.000000   0.000026   0.000000   0.000000
    33  H    0.000000  -0.000091   0.000000  -0.000066   0.000000   0.000000
    34  H    0.000000   0.000146   0.000000  -0.000060   0.000000   0.000000
    35  H    0.000000   0.000283   0.000000  -0.000024   0.000000   0.000000
    36  H    0.000000   0.001209   0.000000  -0.000029   0.000000   0.000000
    37  H   -0.000003   0.003647  -0.000002  -0.000183   0.000000   0.000000
    38  H    0.000017  -0.007573   0.000117  -0.000741  -0.000007   0.000000
    39  H   -0.009848  -0.063133  -0.003666  -0.000235  -0.000367  -0.000003
    40  H   -0.003757  -0.218422   0.007820   0.008930  -0.000231   0.000000
    41  H   -0.000247   0.198607  -0.039464   0.052371  -0.001087   0.000058
    42  H   -0.000002  -0.119756   0.004754   0.002708  -0.000800   0.000002
    43  H    0.000000  -0.039189   0.001960  -0.033512  -0.000380   0.000007
    44  H    0.000000  -0.016766   0.002960  -0.043894  -0.003758   0.000245
    45  H    0.000000  -0.078312  -0.055414   0.444543  -0.045719  -0.006622
             31         32         33         34         35         36
     1  O    0.237302  -0.001429   0.004489   0.008383  -0.044633  -0.009841
     2  C    0.077399  -0.006843  -0.014388   0.034884   0.443889   0.208916
     3  C   -0.056506  -0.003315   0.009135  -0.056413  -0.127592   0.136913
     4  O    0.002012   0.000019  -0.000030   0.000127   0.001350  -0.054104
     5  H   -0.004930   0.000000  -0.000002  -0.000040  -0.000635  -0.000736
     6  C   -0.005219  -0.002441   0.014497   0.001432   0.018438  -0.264582
     7  O   -0.000011  -0.000007  -0.000005  -0.000060  -0.000015   0.005140
     8  H    0.000000   0.000000   0.000000   0.000001   0.000001  -0.000263
     9  C   -0.005797   0.413260   0.512553   0.038483   0.025516   0.026332
    10  O    0.002051  -0.048998  -0.052719   0.006669   0.001410  -0.000020
    11  H   -0.000004  -0.006532  -0.006888  -0.000185  -0.000001   0.000000
    12  C    0.005724  -0.020728  -0.192625   0.181954  -0.141673   0.006694
    13  O   -0.001313  -0.004835   0.010510  -0.025381   0.019227   0.010625
    14  C    0.000742   0.000335   0.009216   0.059570   0.038775   0.108010
    15  O   -0.000033  -0.000238  -0.000306  -0.001630   0.000259   0.000550
    16  C    0.000160   0.000900  -0.005902  -0.005120  -0.000577   0.008432
    17  C   -0.000074   0.001623   0.002346   0.005779   0.002267   0.000731
    18  O   -0.000001  -0.001546   0.000513   0.000248   0.000097   0.000063
    19  H    0.000000   0.000727  -0.000188   0.000094  -0.000007  -0.000003
    20  C   -0.000001  -0.001245   0.001379   0.000936   0.000307   0.000210
    21  O    0.000000   0.000000   0.000001   0.000000   0.000000   0.000000
    22  H    0.000000   0.000000   0.000000   0.000000   0.000000   0.000000
    23  C    0.000004  -0.000005   0.000017   0.000192   0.000121   0.000502
    24  O    0.000000   0.000000   0.000001   0.000008   0.000016   0.000161
    25  H    0.000000   0.000000   0.000000   0.000000   0.000000   0.000000
    26  C   -0.000006   0.000090  -0.000091   0.000146   0.000283   0.001209
    27  O    0.000000   0.000000   0.000000   0.000000   0.000000   0.000000
    28  C    0.000000   0.000026  -0.000066  -0.000060  -0.000024  -0.000029
    29  O    0.000000   0.000000   0.000000   0.000000   0.000000   0.000000
    30  H    0.000000   0.000000   0.000000   0.000000   0.000000   0.000000
    31  H    0.389186   0.000008  -0.000104  -0.000119  -0.011321   0.000162
    32  H    0.000008   0.600270  -0.053507  -0.008747   0.000040  -0.000002
    33  H   -0.000104  -0.053507   0.612441   0.006260   0.004175   0.000000
    34  H   -0.000119  -0.008747   0.006260   0.598349   0.005852   0.004284
    35  H   -0.011321   0.000040   0.004175   0.005852   0.617826   0.007325
    36  H    0.000162  -0.000002   0.000000   0.004284   0.007325   0.671376
    37  H    0.000018   0.000001  -0.000008   0.000017   0.003870   0.009228
    38  H    0.000001  -0.000002  -0.000005   0.003104   0.000021   0.003559
    39  H    0.000000   0.000000   0.000000   0.000000   0.000000   0.000000
    40  H    0.000000   0.000000   0.000000   0.000000   0.000000   0.000000
    41  H    0.000000   0.000000   0.000000   0.000000   0.000000   0.000000
    42  H    0.000000   0.000000   0.000000   0.000002   0.000000  -0.000001
    43  H    0.000000   0.000001   0.000001   0.000000   0.000000   0.000000
    44  H    0.000000   0.000000   0.000000   0.000000   0.000000   0.000000
    45  H    0.000000   0.000000   0.000000   0.000000   0.000000   0.000000
             37         38         39         40         41         42
     1  O   -0.000872   0.000005   0.000000   0.000000   0.000000   0.000000
     2  C    0.117569   0.039212   0.000007   0.000028  -0.000483  -0.001600
     3  C   -0.252745  -0.063937  -0.000153   0.001014   0.002279   0.002953
     4  O    0.004758  -0.000366   0.000000   0.000000  -0.000001   0.000001
     5  H    0.000015   0.000005   0.000000   0.000000   0.000000   0.000000
     6  C    0.371976  -0.049244  -0.000230  -0.001743   0.007176  -0.000248
     7  O   -0.043704   0.000926  -0.000432   0.000510  -0.000141  -0.000213
     8  H   -0.011538  -0.000451   0.000126   0.000392   0.000046   0.000024
     9  C    0.009675   0.005166  -0.000004   0.000014   0.000131   0.000612
    10  O    0.000015   0.000064   0.000000   0.000000   0.000000   0.000001
    11  H    0.000000   0.000000   0.000000   0.000000   0.000000   0.000000
    12  C   -0.000112  -0.027760   0.000026   0.000122  -0.000320  -0.003593
    13  O    0.018189  -0.052635   0.000008   0.000000  -0.000655  -0.001962
    14  C   -0.023140   0.375415   0.000898   0.007716   0.033614   0.018560
    15  O   -0.010975  -0.067155  -0.000052   0.002138   0.005409  -0.059237
    16  C    0.021542   0.034930   0.001019  -0.000567  -0.010039   0.346909
    17  C    0.003971   0.021186  -0.007808   0.015848   0.058385   0.013523
    18  O    0.000167  -0.000003   0.000026  -0.000023  -0.000400  -0.003401
    19  H   -0.000025  -0.000581   0.000000   0.000001   0.000012  -0.001400
    20  C    0.002547   0.014264   0.001089  -0.003481  -0.056887   0.020897
    21  O    0.000001  -0.000002  -0.000001  -0.000013  -0.000545  -0.000697
    22  H    0.000000   0.000000   0.000000   0.000000   0.000010   0.000010
    23  C    0.005156   0.008102   0.460601   0.538506  -0.020810   0.027075
    24  O    0.002658   0.001053  -0.051985  -0.061713   0.006148   0.000667
    25  H   -0.000003   0.000017  -0.009848  -0.003757  -0.000247  -0.000002
    26  C    0.003647  -0.007573  -0.063133  -0.218422   0.198607  -0.119756
    27  O   -0.000002   0.000117  -0.003666   0.007820  -0.039464   0.004754
    28  C   -0.000183  -0.000741  -0.000235   0.008930   0.052371   0.002708
    29  O    0.000000  -0.000007  -0.000367  -0.000231  -0.001087  -0.000800
    30  H    0.000000   0.000000  -0.000003   0.000000   0.000058   0.000002
    31  H    0.000018   0.000001   0.000000   0.000000   0.000000   0.000000
    32  H    0.000001  -0.000002   0.000000   0.000000   0.000000   0.000000
    33  H   -0.000008  -0.000005   0.000000   0.000000   0.000000   0.000000
    34  H    0.000017   0.003104   0.000000   0.000000   0.000000   0.000002
    35  H    0.003870   0.000021   0.000000   0.000000   0.000000   0.000000
    36  H    0.009228   0.003559   0.000000   0.000000   0.000000  -0.000001
    37  H    0.620110   0.005887   0.000001  -0.000001  -0.000017   0.000018
    38  H    0.005887   0.614538   0.000002  -0.000001  -0.000012   0.008107
    39  H    0.000001   0.000002   0.593948  -0.048490  -0.009070  -0.000025
    40  H   -0.000001  -0.000001  -0.048490   0.596103   0.006759   0.003595
    41  H   -0.000017  -0.000012  -0.009070   0.006759   0.626436   0.005786
    42  H    0.000018   0.008107  -0.000025   0.003595   0.005786   0.587828
    43  H   -0.000012  -0.000029   0.000007  -0.000003   0.001779   0.004663
    44  H    0.000000  -0.000005   0.000001  -0.000004  -0.000013   0.000799
    45  H    0.000000   0.000000  -0.000023  -0.000007   0.005704  -0.000041
             43         44         45
     1  O    0.000000   0.000000   0.000000
     2  C   -0.001014  -0.000025  -0.000017
     3  C    0.000803   0.000011   0.000013
     4  O   -0.000001   0.000000   0.000000
     5  H    0.000000   0.000000   0.000000
     6  C   -0.004393  -0.000359   0.000044
     7  O   -0.000003   0.000000   0.000000
     8  H    0.000002   0.000000   0.000000
     9  C   -0.000789   0.000069   0.000010
    10  O    0.000000   0.000000   0.000000
    11  H    0.000000   0.000000   0.000000
    12  C    0.002571   0.000283   0.000019
    13  O    0.000869   0.000223   0.000005
    14  C    0.048086   0.005563   0.004956
    15  O   -0.015212  -0.001134  -0.000118
    16  C    0.059740   0.113186   0.101958
    17  C    0.355760  -0.083234   0.030618
    18  O   -0.044639  -0.002340  -0.001109
    19  H   -0.002851   0.000193   0.000006
    20  C   -0.109164   0.323012  -0.145194
    21  O   -0.000125  -0.025005  -0.005482
    22  H    0.000019  -0.008611  -0.002341
    23  C    0.034783   0.011705  -0.005143
    24  O    0.000067  -0.000001  -0.000015
    25  H    0.000000   0.000000   0.000000
    26  C   -0.039189  -0.016766  -0.078312
    27  O    0.001960   0.002960  -0.055414
    28  C   -0.033512  -0.043894   0.444543
    29  O   -0.000380  -0.003758  -0.045719
    30  H    0.000007   0.000245  -0.006622
    31  H    0.000000   0.000000   0.000000
    32  H    0.000001   0.000000   0.000000
    33  H    0.000001   0.000000   0.000000
    34  H    0.000000   0.000000   0.000000
    35  H    0.000000   0.000000   0.000000
    36  H    0.000000   0.000000   0.000000
    37  H   -0.000012   0.000000   0.000000
    38  H   -0.000029  -0.000005   0.000000
    39  H    0.000007   0.000001  -0.000023
    40  H   -0.000003  -0.000004  -0.000007
    41  H    0.001779  -0.000013   0.005704
    42  H    0.004663   0.000799  -0.000041
    43  H    0.581928   0.004434   0.000406
    44  H    0.004434   0.549648   0.003663
    45  H    0.000406   0.003663   0.604523
 Mulliken atomic charges:
              1
     1  O   -0.532464
     2  C   -0.166943
     3  C    0.200688
     4  O   -0.519823
     5  H    0.352272
     6  C   -0.034586
     7  O   -0.505553
     8  H    0.436625
     9  C    0.031102
    10  O   -0.542471
    11  H    0.355690
    12  C   -0.042780
    13  O   -0.422152
    14  C    0.183071
    15  O   -0.293094
    16  C   -0.221160
    17  C    0.094775
    18  O   -0.567429
    19  H    0.429820
    20  C    0.269366
    21  O   -0.483588
    22  H    0.342429
    23  C   -0.036681
    24  O   -0.601460
    25  H    0.385137
    26  C   -0.020005
    27  O   -0.284526
    28  C    0.032913
    29  O   -0.549102
    30  H    0.352798
    31  H    0.370670
    32  H    0.143119
    33  H    0.139299
    34  H    0.140978
    35  H    0.135411
    36  H    0.119158
    37  H    0.142300
    38  H    0.134830
    39  H    0.137768
    40  H    0.148960
    41  H    0.129480
    42  H    0.143484
    43  H    0.153430
    44  H    0.169155
    45  H    0.149091
 Sum of Mulliken atomic charges =   0.00000
 Mulliken charges with hydrogens summed into heavy atoms:
              1
     1  O   -0.161794
     2  C   -0.031531
     3  C    0.319846
     4  O   -0.167551
     6  C    0.107714
     7  O   -0.068928
     9  C    0.313519
    10  O   -0.186781
    12  C    0.098198
    13  O   -0.422152
    14  C    0.317902
    15  O   -0.293094
    16  C   -0.077676
    17  C    0.248204
    18  O   -0.137609
    20  C    0.438521
    21  O   -0.141160
    23  C    0.250047
    24  O   -0.216323
    26  C    0.109475
    27  O   -0.284526
    28  C    0.182003
    29  O   -0.196304
 Sum of Mulliken charges with hydrogens summed into heavy atoms =   0.00000
 APT atomic charges:
              1
     1  O   -0.629922
     2  C    0.414880
     3  C    0.390138
     4  O   -0.661625
     5  H    0.281621
     6  C    0.390383
     7  O   -0.702402
     8  H    0.458756
     9  C    0.470367
    10  O   -0.603721
    11  H    0.243573
    12  C    0.467808
    13  O   -0.868931
    14  C    0.907891
    15  O   -0.859108
    16  C    0.440716
    17  C    0.368017
    18  O   -0.713925
    19  H    0.405146
    20  C    0.348983
    21  O   -0.603824
    22  H    0.249880
    23  C    0.458049
    24  O   -0.653795
    25  H    0.251069
    26  C    0.397549
    27  O   -0.721406
    28  C    0.872436
    29  O   -0.644340
    30  H    0.244257
    31  H    0.264883
    32  H   -0.051359
    33  H   -0.048836
    34  H   -0.053893
    35  H   -0.047677
    36  H   -0.071600
    37  H   -0.039554
    38  H   -0.066682
    39  H   -0.051940
    40  H   -0.042950
    41  H   -0.055687
    42  H   -0.033113
    43  H   -0.030326
    44  H   -0.008502
    45  H   -0.061284
 Sum of APT charges=   0.00000
 APT Atomic charges with hydrogens summed into heavy atoms:
              1
     1  O   -0.365039
     2  C    0.367203
     3  C    0.318538
     4  O   -0.380004
[...]
 0.00000720,-0.00001131,-0.00000276,0.00000479,0.00000816,0.00007317,-0
 .00001990,0.00007539,0.00031272,0.00014613,0.00101265,-0.00020165,-0.0
 0326591,-0.01111558,-0.00242486,0.00817594,-0.36246233,-0.00279228,-0.
 00774332,-0.01177210,-0.00111092,-0.00203727,0.00280840,-0.00168010,0.
 00029062,-0.00057000,0.00033453,0.00054030,-0.00064371,-0.00000545,0.0
 0069847,0.00029362,0.00012580,-0.00021091,-0.00003763,0.00005587,-0.00
 008193,0.00038458,0.00046725,0.00026334,0.00018672,-0.00001911,-0.0000
 8245,0.00000302,-0.00003532,-0.00000512,-0.01026095,0.00003854,-0.0001
 7439,0.00179929,0.00054965,-0.00008921,-0.00034094,0.00013010,-0.00012
 611,0.00006287,0.00003135,-0.00014311,0.00001826,0.00000416,-0.0000031
 2,-0.00000038,-0.00000349,-0.00000752,0.00001007,0.00001603,-0.0000033
 8,0.00001217,-0.00000152,-0.00000158,0.00001536,0.00000045,0.00003112,
 0.00001192,-0.00000067,-0.00000699,0.00000249,0.00000110,0.00002513,0.
 00005935,0.00017777,-0.00027911,0.00098165,-0.00002884,0.00139783,0.00
 023904,0.00003912,-0.00004087,0.00035707,-0.00078361,-0.00011369,0.000
 24155,-0.00092240,-0.00078543,0.38784496,-0.00000611,-0.00001441,0.000
 03755,0.00001418,0.00003190,-0.00002322,0.00004468,0.00001420,-0.00001
 219,0.00000006,-0.00002676,0.00000614,-0.00000115,0.00000867,-0.000005
 07,-0.00007303,0.00003789,0.00004299,0.00011017,-0.00009833,-0.0001303
 9,-0.00012874,0.00004981,0.00011995,0.00003943,-0.00001990,-0.00001437
 ,-0.00001946,0.00002346,0.00003370,0.00000814,-0.00000111,-0.00000132,
 -0.00003943,0.00000538,-0.00006040,0.00024320,-0.00006741,0.00027862,-
 0.00104352,0.00108812,-0.00107418,-0.01058930,-0.00071098,0.00426316,-
 0.00322372,-0.04396979,-0.00111918,0.03259823,-0.00053319,0.00088788,-
 0.00161616,0.00393544,0.00093361,0.00051365,-0.00045820,-0.00071229,0.
 00038474,0.00088858,-0.00086715,-0.00022307,-0.00028028,0.00021731,-0.
 00007812,-0.00005821,0.00010434,-0.00119564,0.00163430,0.00097820,0.00
 029186,-0.00005349,-0.00011686,-0.00001803,-0.00006334,0.00002548,-0.0
 2543587,-0.00039834,-0.00175102,0.00181614,0.00099014,0.00166390,0.000
 14913,-0.00057491,-0.00006247,-0.00000851,0.00014253,0.00002688,-0.000
 02392,0.00002231,0.00000088,0.00000361,-0.00000093,-0.00000217,-0.0000
 0260,-0.00001556,0.00000130,-0.00001048,-0.00000250,0.00000308,-0.0000
 0086,0.00001377,0.00000365,-0.00000134,-0.00000698,0.00000137,0.000007
 17,0.00000682,0.00002004,0.00010621,0.00000850,-0.00002334,0.00038656,
 -0.00001081,0.00008803,0.00037509,0.00026313,-0.00000636,0.00072686,-0
 .00026739,0.00001740,-0.00158232,-0.00246087,-0.00307969,0.00625599,0.
 04634751,-0.00000644,-0.00002707,-0.00006151,0.00000239,0.00003909,0.0
 0006026,-0.00009246,0.00002514,0.00003321,0.00000314,0.00000137,-0.000
 04713,0.00000069,0.00000310,0.00000531,0.00009731,0.00026697,-0.000163
 68,-0.00017617,0.00010392,0.00002478,0.00010475,-0.00025735,-0.0001113
 3,-0.00001688,0.00006052,-0.00004026,-0.00000146,-0.00004788,-0.000009
 04,0.00000459,0.,-0.00000777,-0.00001980,-0.00009853,-0.00002849,-0.00
 066641,-0.00044740,-0.00032862,0.00593729,-0.00023145,0.00476779,0.036
 53467,0.00573985,-0.01579439,-0.01405433,0.00017900,-0.04423484,-0.008
 80360,-0.00230697,0.00180452,0.00137222,-0.00051855,0.00028042,0.00032
 245,0.00004853,-0.00015477,-0.00041572,-0.00036540,0.00037366,0.000133
 89,0.00005166,-0.00002163,0.00002449,-0.00002617,-0.00002022,0.0000243
 8,0.00126889,0.00058370,0.00007730,-0.00012484,0.00009103,-0.00002983,
 0.00002836,0.00007524,-0.02328459,-0.00049411,0.00019996,0.00108988,0.
 00005963,0.00251670,-0.00037795,0.00019415,0.00001092,0.00004855,0.000
 04928,-0.00027273,0.00002236,0.00001258,0.00000114,-0.00000410,0.00000
 719,0.00000864,-0.00000952,-0.00001864,0.00000072,0.00000063,0.0000025
 0,-0.00000179,-0.00001191,-0.00001740,-0.00006083,-0.00000980,0.000008
 92,0.00000851,-0.00004170,-0.00001699,-0.00007865,-0.00040842,-0.00008
 354,0.00004568,-0.00133223,0.00021174,-0.00021650,0.00016008,0.0001572
 2,-0.00000860,0.00061037,-0.00027012,0.00002499,-0.00126382,-0.0027850
 2,-0.00316895,0.00456211,-0.00230920,0.05414238,0.00002317,0.00003378,
 -0.00002528,-0.00005248,-0.00003920,0.00000016,-0.00001119,-0.00003058
 ,0.00000068,0.00001421,0.00003644,0.00000357,-0.00000662,-0.00001318,0
 .00000252,-0.00001478,-0.00000002,-0.00000595,0.00005484,0.00005096,0.
 00004022,-0.00004235,0.00000396,-0.00006117,-0.00009060,-0.00004917,0.
 00011233,0.00004018,0.00000615,-0.00008399,-0.00002209,0.00000461,0.00
 001828,0.00002734,0.00006664,0.00003706,0.00011319,0.00057624,-0.00034
 787,0.00007029,-0.00057877,-0.00055656,0.00196510,-0.00128496,0.000894
 81,-0.01283003,0.00116971,0.00348548,-0.34912116,0.01049190,0.06003408
 ,-0.01385796,-0.01131110,-0.00891456,-0.00034429,-0.00091649,0.0012547
 0,-0.00509174,0.00093475,0.00163754,0.00114556,0.00015631,-0.00055679,
 0.00031294,0.00006813,-0.00020049,0.00052717,0.00028743,0.00017174,0.0
 0002515,-0.00006307,0.00003463,-0.00000640,0.00000218,-0.00000477,-0.0
 0088811,-0.00067540,-0.00059690,0.00040401,0.00018664,0.00003336,-0.00
 120290,-0.00064859,-0.00006936,0.00033251,0.00015206,0.00023698,-0.000
 03950,0.00003554,0.00010741,-0.00000729,-0.00000483,-0.00000225,0.0000
 4378,0.00005047,-0.00000158,0.00001206,-0.00000421,-0.00000347,0.00000
 724,-0.00000962,0.00001947,0.00001266,-0.00000113,-0.00000930,0.000012
 01,-0.00000145,0.00000641,0.00002281,0.00002382,-0.00003656,0.00009952
 ,-0.00001130,0.00028444,-0.00002023,0.00013834,-0.00000369,0.00008486,
 -0.00027286,-0.00001164,0.00098735,0.00038816,0.00035230,-0.00000809,0
 .00145784,-0.00029481,0.37646763,0.00001382,0.00001559,-0.00006238,-0.
 00003938,-0.00003715,0.00002223,0.00001122,-0.00000792,0.00000765,0.00
 000375,0.00003063,-0.00003145,0.00000202,-0.00000771,0.00000329,-0.000
 10085,-0.00005961,-0.00001023,-0.00002179,0.00007422,0.00006765,0.0000
 3251,-0.00003461,-0.00008307,-0.00009820,-0.00001176,0.00009789,0.0000
 4126,-0.00002488,-0.00007650,-0.00002125,0.00000438,0.00000658,0.00004
 624,0.00011811,0.00012454,0.00011134,0.00037266,-0.00034728,0.00009601
 ,-0.00007137,0.00006045,-0.00117221,0.00231537,-0.00190229,0.03227696,
 -0.00350676,-0.00495877,0.00993627,-0.04001593,0.00144917,-0.03095357,
 -0.00760818,-0.00639975,-0.00023813,-0.00044276,0.00143857,-0.01001542
 ,0.00117455,0.00456144,-0.00029517,0.00044653,-0.00121225,0.00004848,0
 .00004100,-0.00029825,-0.00011031,-0.00009700,-0.00009238,-0.00006862,
 -0.00001458,0.00009307,0.00000800,0.00002411,-0.00001146,0.00170976,0.
 00189808,0.00090858,-0.00033094,-0.00019383,-0.00029599,0.00019205,-0.
 00063476,-0.00003605,0.00009889,0.00017062,0.00036354,-0.00001622,0.00
 009100,0.00005501,-0.00000650,0.00000534,0.00000243,0.00002178,0.00004
 275,0.00000088,0.00002504,0.00001084,-0.00001400,-0.00000354,-0.000019
 86,-0.00000687,0.00000325,0.00000501,-0.00000193,0.00000131,-0.0000011
 7,-0.00000278,-0.00001464,-0.00002555,0.00003920,-0.00024136,0.0000142
 6,-0.00009881,-0.00007625,-0.00010426,0.00003725,-0.00021175,0.0001244
 2,0.00002560,-0.00047570,-0.00040546,-0.00040530,0.00128660,-0.0049862
 1,0.00162944,-0.00105950,0.05144011,0.00002217,0.00000669,0.00000397,-
 0.00005134,-0.00001108,-0.00002125,-0.00000122,-0.00001631,0.,0.000008
 92,0.00000086,0.00001026,-0.00000345,-0.00000030,-0.00000093,-0.000060
 56,0.00003731,0.00002219,0.00003532,-0.00002934,-0.00003298,-0.0000136
 0,0.00002862,0.00004511,-0.00012723,-0.00004485,0.00003412,0.00005468,
 0.00002069,-0.00000267,-0.00002005,-0.00000753,0.00000377,0.00000663,0
 .00005430,-0.00002560,0.00030742,0.00017903,-0.00024969,-0.00045693,-0
 .00003041,-0.00036717,-0.00084771,-0.00078663,0.00103257,-0.00718040,0
 .00340520,0.00206794,0.06162597,0.00183888,-0.05466831,-0.02720492,-0.
 00950670,-0.00045557,-0.00127150,-0.00024030,0.00124101,0.03330680,0.0
 0081131,-0.00635973,-0.00127003,-0.00099343,0.00287292,0.00001130,-0.0
 0041849,0.00056138,0.00002679,0.00006447,0.00012631,0.00001480,-0.0000
 1848,-0.00003626,0.00000096,-0.00001586,0.00000040,0.00051310,-0.00013
 741,-0.00041869,-0.00018543,-0.00045074,-0.00020484,0.00099872,0.00089
 607,0.00067115,-0.00040537,-0.00021890,-0.00038891,-0.00003071,-0.0001
 5233,-0.00007352,-0.00000355,0.00000152,-0.00000838,0.00002332,0.00003
 116,0.00000207,0.00004403,-0.00000459,-0.00002037,0.00001702,-0.000010
 29,0.00002391,0.00001761,0.00000084,-0.00001029,0.00001067,-0.00000103
 ,0.00000871,0.00003668,0.00003337,-0.00002403,0.00016153,-0.00000394,-
 0.00006036,0.00002430,0.00006948,-0.00000600,0.00000453,-0.00001789,-0
 .00003024,0.00007849,-0.00028053,-0.00000968,-0.00063677,0.00107611,-0
 .00013030,-0.05723035,0.00390246,0.06049476,0.00000458,-0.00000035,-0.
 00002519,-0.00001342,-0.00000403,0.00001030,-0.00000295,-0.00001346,0.
 00001638,0.00000659,0.00000991,-0.00001616,-0.00000163,-0.00000178,0.0
 0000301,0.00000132,-0.00000159,0.00001759,0.00000606,0.00001428,-0.000
 01316,-0.00000636,-0.00000352,0.00001460,-0.00001557,0.00000856,0.0000
 2103,0.00000714,-0.00001271,-0.00002415,-0.00000478,0.00000187,0.00000
 218,0.00000981,0.00003436,0.00004808,-0.00000579,0.00004845,-0.0001444
 4,-0.00001920,-0.00007190,0.00003650,0.00021908,-0.00011272,0.00001201
 ,-0.00052296,0.00035007,0.00048653,-0.00283191,-0.00264835,0.00010731,
 0.00102926,0.00038215,-0.00125984,0.00034980,0.00005907,-0.00001981,-0
 .33038468,-0.09601027,0.04328646,-0.02207510,0.00425510,-0.00425200,-0
 .00002436,0.00048975,0.00059512,0.00001053,-0.00003751,0.00003123,0.00
 001676,0.00003503,-0.00002924,-0.00000558,-0.00000860,-0.00000166,-0.0
 0008821,0.00001882,-0.00013115,0.00072983,-0.00095247,-0.00004346,-0.0
 0424650,-0.00137552,0.00121865,0.00108103,0.00057216,0.00059327,0.0001
 8978,0.00033789,0.00021385,-0.00000290,0.00000229,0.00000176,0.0000056
 9,0.00000583,-0.00000043,0.00000105,0.00000075,0.00000002,-0.00000195,
 -0.00000294,-0.00000575,0.00000220,0.00000012,-0.00000146,0.00000304,0
 .,-0.00000037,0.00000243,0.00000212,-0.00000268,0.00000381,-0.00000327
 ,0.00001052,0.00000396,0.00001406,0.00000606,0.00001009,-0.00001240,-0
 .00000238,0.00004471,0.00004916,0.00000416,0.00030310,-0.00017969,0.00
 002831,0.00037465,-0.00048460,-0.00009041,0.35565832,0.,-0.00000340,0.
 00001441,0.00000259,0.00000228,-0.00001076,-0.00000328,0.00000546,-0.0
 0000578,0.00000069,-0.00000882,0.00000920,-0.00000059,0.00000319,-0.00
 000225,-0.00000417,0.00000507,-0.00000523,0.00001060,-0.00001052,0.000
 00518,-0.00000590,0.00000122,-0.00001310,0.00000714,0.00000245,-0.0000
 2418,-0.00000429,0.00000596,0.00002321,0.00000456,-0.00000188,-0.00000
 478,-0.00000712,-0.00000443,-0.00002067,0.00001394,-0.00002713,0.00003
 028,-0.00003829,0.00003452,-0.00001271,0.00020443,-0.00000430,0.000080
 77,-0.00057530,0.00028241,-0.00023925,-0.00834486,-0.00050333,-0.00075
 189,0.00115153,0.00032675,-0.00079447,0.00007652,-0.00002993,-0.000091
 41,-0.09988079,-0.07639824,0.01522657,0.03497789,0.00226373,0.00145977
 ,0.00004588,0.00133574,-0.00134455,-0.00003285,0.00003968,-0.00005365,
 0.00001508,-0.00002150,0.00001543,-0.00000600,0.00000570,0.00000100,-0
 .00011866,-0.00000046,-0.00010279,0.00138246,0.00075322,0.00004797,-0.
 02580974,-0.00635597,0.00440108,0.00146228,0.00169764,0.00187157,0.000
 17399,0.00026223,0.00032904,0.00000141,0.00000037,-0.00000220,-0.00000
 554,-0.00000586,0.00000033,0.00000170,-0.00000225,-0.00000039,0.000002
 83,0.00000150,0.00000315,0.00000144,-0.00000039,-0.00000057,0.00000117
 ,0.00000026,0.00000115,0.00000273,0.00000248,-0.00000325,0.00001837,-0
 .00000419,0.00001764,0.00001043,-0.00002074,0.00000826,0.00003145,-0.0
 0004356,0.00000724,0.00012380,0.00010712,-0.00004183,0.00020026,-0.000
 32037,0.00034064,0.00043048,-0.00025944,0.00136205,0.09496719,0.079470
 58,-0.00000776,-0.00001669,-0.00000817,0.00001441,0.00001864,0.0000099
 3,0.00001295,0.00002607,0.00001437,-0.00000164,-0.00001081,-0.00002769
 ,0.00000189,0.00000746,-0.00000140,-0.00002256,-0.00004363,-0.00004995
 ,-0.00001452,0.00000800,-0.00000791,0.00000266,-0.00002778,0.00000165,
 0.00003533,0.00003190,-0.00003713,-0.00001788,-0.00001617,0.00001896,0
 .00001001,0.00000088,-0.00000816,0.00000378,-0.00001896,0.00002735,-0.
 00004375,-0.00027903,0.00010005,0.00016380,0.00036644,0.00034219,-0.00
 073569,0.00044920,-0.00079433,0.00092466,-0.00121450,0.00030602,0.0300
 9279,0.00968475,-0.00408620,-0.00060271,0.00022997,0.00355064,-0.00002
 828,0.00018849,0.00006974,0.04610605,0.01489563,-0.04978988,-0.0129039
 7,0.00206778,0.00108591,-0.00129523,-0.00023483,0.00090591,0.00004830,
 0.00000572,0.00005630,-0.00001241,-0.00000811,0.00002476,-0.00000246,-
 0.00000099,0.00000601,0.00015714,0.00014070,-0.00059780,0.00110784,-0.
 00019947,0.00017516,-0.02034719,-0.00864877,0.00153675,0.00010744,0.00
 134456,0.00201390,-0.00009429,0.00012582,0.00030136,0.00000056,0.00000
 383,0.00000266,-0.00001431,-0.00001787,0.00000153,-0.00000847,0.000001
 05,0.00000372,-0.00000690,0.00000418,-0.00001284,-0.00000476,-0.000000
 40,0.00000377,-0.00000498,0.00000021,-0.00000289,-0.00001042,-0.000011
 72,0.00001317,-0.00004710,0.00000262,-0.00006310,-0.00000758,0.0000424
 5,0.00000512,-0.00001298,0.00001620,0.00000166,-0.00008493,-0.00005040
 ,-0.00007245,-0.00041826,0.00049667,-0.00015614,0.00006354,0.00149494,
 -0.00510386,-0.04099911,-0.01884703,0.05255760,0.00000503,-0.00000462,
 -0.00001844,-0.00001199,0.00000412,0.00000950,-0.00000060,-0.00000330,
 0.00001697,0.00000949,0.00000424,-0.00002059,-0.00000296,0.00000098,0.
 00000169,-0.00002280,0.00000200,0.00000044,0.00001188,-0.00000157,-0.0
 0003809,-0.00001183,-0.00000020,0.00004548,-0.00001480,0.00000918,0.00
 000506,0.00000866,-0.00001109,-0.00001064,-0.00000462,0.00000132,-0.00
 000005,0.00000288,0.00000888,0.00003255,0.00001096,-0.00002647,-0.0000
 7836,0.00004585,0.00002925,0.00008080,0.00005240,-0.00002541,-0.000294
 23,-0.00003683,0.00025692,0.00010134,-0.00074416,-0.00063932,0.0003960
 0,0.00035803,0.00000460,-0.00034571,-0.00001855,-0.00004120,-0.0000434
 6,-0.00807295,0.00271789,-0.00081688,0.00340273,0.00302685,0.00244023,
 -0.00040297,-0.00039313,-0.00006678,0.00054714,-0.00016654,-0.00017521
 ,0.00000029,0.00019173,-0.00011273,-0.00001518,0.00000138,-0.00002498,
 -0.00007999,-0.00066387,0.00101364,-0.00809658,0.01086256,-0.00334624,
 -0.35413782,-0.03397468,-0.05480649,-0.01293685,-0.00154048,0.00496953
 ,0.00051554,0.00019073,0.00057252,-0.00000366,0.00000220,0.00000173,0.
 00000079,0.00000235,-0.00000061,0.00000429,0.00000051,-0.00000123,0.00
 000094,-0.00000189,-0.00000307,0.00000350,-0.00000029,-0.00000158,0.00
 000320,-0.00000010,0.00000059,0.00000426,-0.00000190,-0.00000045,0.000
 00406,-0.00000347,-0.00000026,-0.00002302,-0.00000474,0.00000785,0.000
 07507,-0.00025284,0.00008623,0.00048191,0.00045488,-0.00109732,0.00008
 397,-0.00003190,0.00016010,0.00047754,0.00008933,-0.00026024,0.0001791
 9,-0.00048546,-0.00110296,0.37834859,0.00000307,0.00001619,0.00000461,
 -0.00000571,-0.00002018,-0.00000402,-0.00000392,0.00000083,-0.00001291
 ,-0.00000300,0.00001018,0.00001257,0.00000064,-0.00000500,-0.00000093,
 0.00000779,-0.00004529,-0.00001545,0.00000793,0.00005326,0.00008916,-0
 .00000999,-0.00003047,-0.00013103,-0.00000801,-0.00001557,0.00002640,0
 .00000482,0.00000760,-0.00001658,-0.00000457,0.00000046,0.00000471,0.0
 0000388,0.00002696,0.00000592,0.00000815,0.00017625,-0.00003518,-0.000
 07952,-0.00009228,-0.00013891,0.00005090,0.00033780,0.00036872,-0.0003
 1819,-0.00073300,0.00009799,-0.00037129,-0.00051571,0.00093730,0.00014
 910,0.00009164,-0.00091760,0.00012911,-0.00015709,0.00004750,-0.020164
 06,-0.00302798,-0.00471459,-0.00202557,0.00040355,-0.00087262,-0.00076
 042,-0.00076499,-0.00002713,0.00013396,0.00018186,-0.00003937,-0.00017
 964,-0.00024942,0.00024580,0.00001136,0.00003206,0.00002583,0.00346475
 ,0.00165683,-0.00482397,0.03506778,-0.01159626,0.01128736,-0.03063351,
 -0.04157995,-0.00431612,-0.00395619,0.00314136,0.00034864,0.00023582,0
 .00029216,-0.00050962,0.00000029,-0.00000306,-0.00000192,0.00000988,0.
 00001015,-0.00000066,-0.00000200,0.00000032,0.00000141,-0.00000021,-0.
 00000160,0.00000018,-0.00000001,0.00000013,-0.00000011,0.00000173,-0.0
 0000030,0.00000217,-0.00000078,0.00000341,-0.00000406,0.00000266,0.000
 00431,0.00000230,0.00001454,-0.00002619,-0.00001175,-0.00022695,0.0000
 7550,0.00003739,-0.00141257,0.00034162,0.00015334,-0.00005617,-0.00011
 216,-0.00004305,0.00022293,0.00015114,-0.00042309,0.00027867,-0.002582
 86,-0.00200703,0.02041256,0.05454378,0.00000409,-0.00000263,-0.0000347
 7,-0.00001444,0.00000283,0.00001830,0.00000420,-0.00000499,0.00002719,
 0.00000824,0.00001190,-0.00003345,-0.00000187,-0.00000054,0.00000301,-
 0.00002200,-0.00001768,-0.00000672,0.00000591,0.00001420,-0.00003764,-
 0.00000783,-0.00000453,0.00004603,-0.00001358,0.00001440,0.00002065,0.
 00000607,-0.00001892,-0.00002923,-0.00000338,0.00000281,0.00000321,0.0
 0001256,0.00002175,0.00005983,0.00000076,-0.00001302,-0.00012736,0.000
 08553,0.00002945,0.00011137,-0.00000009,0.00008441,-0.00037157,0.00022
 270,-0.00028805,-0.00001376,-0.00050948,0.00038834,0.00119763,0.000241
 19,-0.00011706,-0.00044398,0.00011514,0.00001609,0.00006290,-0.0215941
 8,-0.00279570,0.00164149,0.00132171,0.00300148,0.00155668,0.00022850,-
 0.00027546,0.00003594,0.00001634,0.00003466,0.00005944,0.00007856,0.00
 012899,-0.00014394,-0.00000523,-0.00001723,-0.00000628,-0.00237401,-0.
 00064363,0.00328649,-0.01022621,0.00667187,-0.00125723,-0.06182269,-0.
 01032139,-0.05988314,0.03827273,0.00105271,-0.00743584,0.00167744,0.00
 075661,0.00336639,-0.00000357,0.00000204,0.00000376,0.00000522,0.00000
 564,-0.00000067,0.00000035,-0.00000014,-0.00000049,-0.00000261,-0.0000
 0176,-0.00000732,0.00000196,-0.00000048,-0.00000112,0.00000173,-0.0000
 0048,0.00000023,0.00000178,-0.00000014,-0.00000146,-0.00000098,-0.0000
 0663,0.00000087,-0.00000410,-0.00000767,-0.00000585,0.00013107,-0.0000
 7312,-0.00004350,0.00085466,-0.00011268,-0.00014926,0.00009997,0.00004
 262,0.00005861,0.00018558,-0.00004405,-0.00051291,0.00029795,-0.002883
 21,-0.00231628,0.05272434,0.00536841,0.06130377\\0.00673880,-0.0115327
 2,-0.00862929,0.00533571,0.00543757,-0.01131551,0.01711948,-0.02411968
 ,0.03957021,-0.01465496,-0.00299483,0.00723460,0.00711767,-0.00919667,
 -0.02984129,-0.01897976,-0.00157578,0.02090243,-0.00371334,0.02999846,
 -0.00434282,0.01610983,-0.01051722,0.01291846,0.00140452,0.00785989,0.
 01231124,-0.00619044,0.02024857,0.00148216,0.01027964,-0.02892791,-0.0
 0054703,-0.01000347,0.01064776,0.00751946,0.00103876,-0.00395014,0.008
 17035,-0.03207615,0.00689449,-0.02787822,0.01241119,-0.01124199,0.0058
 6057,-0.02310096,-0.00300052,0.00139315,0.03561883,0.03798320,0.008150
 04,-0.00198906,-0.00902973,0.02175177,-0.00401407,0.01301522,-0.017226
 55,-0.04396307,-0.02847345,-0.01837990,0.01254622,0.02619567,-0.014180
 36,-0.00762068,-0.00161457,0.02795165,0.00933121,-0.00047136,-0.004547
 91,-0.00755226,-0.02494551,-0.01529120,-0.00528045,0.02763506,0.015545
 77,0.00453284,-0.01098428,0.01059731,-0.01800877,-0.01480805,0.0482474
 1,0.07622902,-0.04581460,-0.03558562,-0.01556823,0.04367612,-0.0165003
 3,-0.00224903,-0.00065470,-0.00670852,-0.00323922,0.00606216,0.0006286
 8,0.00917044,0.00850011,-0.01529772,-0.01859558,-0.00139898,-0.0086179
 3,0.01969365,-0.00160413,0.00525808,-0.01950709,0.00295741,-0.00244130
 ,0.02625160,0.00053784,0.00279024,-0.02171366,0.00483590,-0.00367029,0
 .01983389,-0.00016775,-0.00400583,-0.00716256,-0.00616456,-0.01625846,
 0.02053828,0.00043414,-0.00473216,-0.02221468,0.00051726,0.00381383,0.
 01858934,0.00064439,-0.00031443,-0.01979764,-0.00310895,0.00207638,0.0
 1522898,0.00272403,0.00025724,-0.01792476,-0.00050714,0.00188166\\\@


 YOU CAN LEAD A BOY TO COLLEGE....
 BUT YOU CANNOT MAKE HIM THINK....
           ELBERT HUBBARD
 Job cpu time:  0 days 12 hours 53 minutes 18.3 seconds.
 File lengths (MBytes):  RWF=   1326 Int=      0 D2E=      0 Chk=     19 Scr=      1
 Normal termination of Gaussian 09 at Tue Mar  1 03:16:54 2016.
Gaussian '09 finished on node006 at Tue Mar  1 03:16:54 EST 2016.
