Gaussian '09 started on node006 at Tue Mar  1 03:16:55 EST 2016.
 Entering Gaussian System, Link 0=/usr/local/gaussian/g09/g09
 Initial command:
 /usr/local/gaussian/g09/l1.exe /home/srmcgrat/thesis/gaussian/cellobiose/400/10000/2/gdp/gaussian10687/Gau-10723.inp -scrdir=/home/srmcgrat/thesis/gaussian/cellobiose/400/10000/2/gdp/gaussian10687/
 Entering Link 1 = /usr/local/gaussian/g09/l1.exe PID=     10725.
  
 Copyright (c) 1988,1990,1992,1993,1995,1998,2003,2009,2010,
            Gaussian, Inc.  All Rights Reserved.
  
 This is part of the Gaussian(R) 09 program.  It is based on
 the Gaussian(R) 03 system (copyright 2003, Gaussian, Inc.),
 the Gaussian(R) 98 system (copyright 1998, Gaussian, Inc.),
 the Gaussian(R) 94 system (copyright 1995, Gaussian, Inc.),
 the Gaussian 92(TM) system (copyright 1992, Gaussian, Inc.),
 the Gaussian 90(TM) system (copyright 1990, Gaussian, Inc.),
 the Gaussian 88(TM) system (copyright 1988, Gaussian, Inc.),
 the Gaussian 86(TM) system (copyright 1986, Carnegie Mellon
 University), and the Gaussian 82(TM) system (copyright 1983,
 Carnegie Mellon University). Gaussian is a federally registered
 trademark of Gaussian, Inc.
  
 This software contains proprietary and confidential information,
 including trade secrets, belonging to Gaussian, Inc.
  
 This software is provided under written license and may be
 used, copied, transmitted, or stored only in accord with that
 written license.
  
 The following legend is applicable only to US Government
 contracts under FAR:
  
                    RESTRICTED RIGHTS LEGEND
  
 Use, reproduction and disclosure by the US Government is
 subject to restrictions as set forth in subparagraphs (a)
 and (c) of the Commercial Computer Software - Restricted
 Rights clause in FAR 52.227-19.
  
 Gaussian, Inc.
 340 Quinnipiac St., Bldg. 40, Wallingford CT 06492
  
  
 ---------------------------------------------------------------
 Warning -- This program may not be used in any manner that
 competes with the business of Gaussian, Inc. or will provide
 assistance to any competitor of Gaussian, Inc.  The licensee
 of this program is prohibited from giving any competitor of
 Gaussian, Inc. access to this program.  By using this program,
 the user acknowledges that Gaussian, Inc. is engaged in the
 business of creating and licensing software in the field of
 computational chemistry and represents and warrants to the
 licensee that it is not a competitor of Gaussian, Inc. and that
 it will not use this program in any manner prohibited above.
 ---------------------------------------------------------------
  

 Cite this work as:
 Gaussian 09, Revision B.01,
 M. J. Frisch, G. W. Trucks, H. B. Schlegel, G. E. Scuseria, 
 M. A. Robb, J. R. Cheeseman, G. Scalmani, V. Barone, B. Mennucci, 
 G. A. Petersson, H. Nakatsuji, M. Caricato, X. Li, H. P. Hratchian, 
 A. F. Izmaylov, J. Bloino, G. Zheng, J. L. Sonnenberg, M. Hada, 
 M. Ehara, K. Toyota, R. Fukuda, J. Hasegawa, M. Ishida, T. Nakajima, 
 Y. Honda, O. Kitao, H. Nakai, T. Vreven, J. A. Montgomery, Jr., 
 J. E. Peralta, F. Ogliaro, M. Bearpark, J. J. Heyd, E. Brothers, 
 K. N. Kudin, V. N. Staroverov, T. Keith, R. Kobayashi, J. Normand, 
 K. Raghavachari, A. Rendell, J. C. Burant, S. S. Iyengar, J. Tomasi, 
 M. Cossi, N. Rega, J. M. Millam, M. Klene, J. E. Knox, J. B. Cross, 
 V. Bakken, C. Adamo, J. Jaramillo, R. Gomperts, R. E. Stratmann, 
 O. Yazyev, A. J. Austin, R. Cammi, C. Pomelli, J. W. Ochterski, 
 R. L. Martin, K. Morokuma, V. G. Zakrzewski, G. A. Voth, 
 P. Salvador, J. J. Dannenberg, S. Dapprich, A. D. Daniels, 
 O. Farkas, J. B. Foresman, J. V. Ortiz, J. Cioslowski, 
 and D. J. Fox, Gaussian, Inc., Wallingford CT, 2010.
 
 ******************************************
 Gaussian 09:  EM64L-G09RevB.01 12-Aug-2010
                 1-Mar-2016 
 ******************************************
 ------------------------------------------------
 # freq=raman b3lyp/6-31+g(d,p) geom=connectivity
 ------------------------------------------------
 1/10=4,30=1,38=1,57=2/1,3;
 2/12=2,17=6,18=5,40=1/2;
 3/5=1,6=6,7=111,11=2,16=1,25=1,30=1,71=2,74=-5/1,2,3;
 4//1;
 5/5=2,38=5,98=1/2;
 8/6=4,10=90,11=11/1;
 10/13=10,15=4/2;
 11/6=3,8=1,9=11,15=111,16=1/1,2,10;
 10/6=1/2;
 6/7=2,8=2,9=2,10=2,18=1,28=1/1;
 7/8=1,10=1,25=1/1,2,3,16;
 1/10=4,30=1/3;
 99//99;
 -------------
 400 10000.com
 -------------
 Symbolic Z-matrix:
 Charge =  0 Multiplicity = 1
 O                     9.631     7.501     22.389 
 C                     10.32     7.808     23.61 
 C                     10.001    9.208     24.107 
 O                     10.596    10.194    23.25 
 H                     10.271    9.982     22.328 
 C                     10.446    9.438     25.542 
 O                     9.835     10.587    26.147 
 H                     10.19     10.937    27.014 
 C                     9.871     5.427     24.236 
 O                     9.487     4.771     23.019 
 H                     9.199     3.821     23.14 
 C                     9.763     6.878     24.675 
 O                     10.434    7.044     25.933 
 C                     10.109    8.316     26.511 
 O                     10.928    8.546     27.667 
 C                     10.343    8.205     28.932 
 C                     10.738    6.827     29.437 
 O                     10.392    5.784     28.514 
 H                     10.753    5.955     27.598 
 C                     10.024    6.54      30.748 
 O                     10.154    5.147     31.068 
 H                     9.797     5.067     31.999 
 C                     10.137    10.621    29.571 
 O                     10.866    11.315    28.548 
 H                     10.612    12.279    28.633 
 C                     10.578    9.238     30.021 
 O                     9.929     8.881     31.25 
 C                     10.43     7.625     31.732 
 O                     9.671     7.71      32.947 
 H                     10.27135   7.3266    21.69537 
 H                     10.91267   5.20297   24.33412 
 H                     8.7278    7.11022   24.81408 
 H                     11.37555   7.67206   23.49943 
 H                     8.93938   9.33586   24.06809 
 H                     11.50669   9.57878   25.54511 
 H                     9.07293   8.35159   26.77593 
 H                     10.13507   11.24867   30.43756 
 H                     9.1252    10.53495   29.23373 
 H                     10.26991   7.76236   33.69544 
 H                     11.48522   7.65519   31.90663 
 H                     8.98206   6.69558   30.56079 
 H                     11.79467   6.80745   29.60421 
 H                     9.28555   8.17388   28.7716 
 H                     11.6306   9.27756   30.20908 
 H                     9.35022   4.88579   24.99809 
 

 GradGradGradGradGradGradGradGradGradGradGradGradGradGradGradGradGradGrad
 Berny optimization.
 Initialization pass.
 Trust Radius=3.00D-01 FncErr=1.00D-07 GrdErr=1.00D-07
 Number of steps in this run=      2 maximum allowed number of steps=      2.
 GradGradGradGradGradGradGradGradGradGradGradGradGradGradGradGradGradGrad

                          Input orientation:                          
 ---------------------------------------------------------------------
 Center     Atomic      Atomic             Coordinates (Angstroms)
 Number     Number       Type             X           Y           Z
 ---------------------------------------------------------------------
      1          8           0        9.631000    7.501000   22.389000
      2          6           0       10.320000    7.808000   23.610000
      3          6           0       10.001000    9.208000   24.107000
      4          8           0       10.596000   10.194000   23.250000
      5          1           0       10.271000    9.982000   22.328000
      6          6           0       10.446000    9.438000   25.542000
      7          8           0        9.835000   10.587000   26.147000
      8          1           0       10.190000   10.937000   27.014000
      9          6           0        9.871000    5.427000   24.236000
     10          8           0        9.487000    4.771000   23.019000
     11          1           0        9.199000    3.821000   23.140000
     12          6           0        9.763000    6.878000   24.675000
     13          8           0       10.434000    7.044000   25.933000
     14          6           0       10.109000    8.316000   26.511000
     15          8           0       10.928000    8.546000   27.667000
     16          6           0       10.343000    8.205000   28.932000
     17          6           0       10.738000    6.827000   29.437000
     18          8           0       10.392000    5.784000   28.514000
     19          1           0       10.753000    5.955000   27.598000
     20          6           0       10.024000    6.540000   30.748000
     21          8           0       10.154000    5.147000   31.068000
     22          1           0        9.797000    5.067000   31.999000
     23          6           0       10.137000   10.621000   29.571000
     24          8           0       10.866000   11.315000   28.548000
     25          1           0       10.612000   12.279000   28.633000
     26          6           0       10.578000    9.238000   30.021000
     27          8           0        9.929000    8.881000   31.250000
     28          6           0       10.430000    7.625000   31.732000
     29          8           0        9.671000    7.710000   32.947000
     30          1           0       10.271355    7.326597   21.695365
     31          1           0       10.912674    5.202972   24.334117
     32          1           0        8.727803    7.110219   24.814077
     33          1           0       11.375554    7.672059   23.499427
     34          1           0        8.939380    9.335862   24.068093
     35          1           0       11.506694    9.578778   25.545115
     36          1           0        9.072928    8.351585   26.775932
     37          1           0       10.135073   11.248670   30.437561
     38          1           0        9.125199   10.534946   29.233726
     39          1           0       10.269910    7.762360   33.695442
     40          1           0       11.485221    7.655186   31.906635
     41          1           0        8.982056    6.695575   30.560789
     42          1           0       11.794673    6.807449   29.604210
     43          1           0        9.285549    8.173882   28.771597
     44          1           0       11.630596    9.277559   30.209085
     45          1           0        9.350218    4.885792   24.998089
 ---------------------------------------------------------------------
                    Distance matrix (angstroms):
                    1          2          3          4          5
     1  O    0.000000
     2  C    1.435204   0.000000
     3  C    2.449954   1.519464   0.000000
     4  O    2.987440   2.428739   1.435503   0.000000
     5  H    2.562944   2.524322   1.958779   1.000326   0.000000
     6  C    3.789143   2.530889   1.519918   2.418119   3.264408
     7  O    4.866988   3.794000   2.467954   3.020957   3.891129
     8  H    5.788713   4.625447   3.387597   3.858054   4.783010
     9  C    2.787559   2.502526   3.785433   4.921596   4.954643
    10  O    2.805448   3.204144   4.597272   5.540052   5.314759
    11  H    3.780612   4.168178   5.531552   6.525246   6.306064
    12  C    2.373046   1.519662   2.410014   3.704102   3.924448
    13  O    3.662457   2.448065   2.864378   4.140922   4.653433
    14  C    4.228900   2.952691   2.566426   3.794493   4.505473
    15  O    5.534575   4.168160   3.737803   4.726100   5.567645
    16  C    6.619170   5.336836   4.940000   6.025384   6.839278
    17  C    7.166173   5.923767   5.883981   7.045269   7.791662
    18  O    6.406468   5.305749   5.594489   6.870183   7.476927
    19  H    5.548214   4.418738   4.830589   6.074444   6.649959
    20  C    8.423233   7.255790   7.156929   8.360556   9.099713
    21  O    9.007768   7.920242   8.060437   9.316045   9.988920
    22  H    9.914838   8.840924   8.914772  10.171997  10.858644
    23  C    7.846755   6.593935   5.645384   6.352012   7.272367
    24  O    7.348816   6.081201   4.991007   5.422024   6.388999
    25  H    7.923331   6.730946   5.503548   5.772709   6.719041
    26  C    7.884250   6.573613   5.942157   6.838180   7.734988
    27  O    8.972766   7.724883   7.150843   8.134424   8.996180
    28  C    9.377922   8.124806   7.799395   8.864065   9.696182
    29  O   10.560144   9.360041   8.972096  10.052745  10.875897
    30  H    0.960000   1.974827   3.070627   3.277847   2.729724
    31  H    3.272170   2.767991   4.113755   5.117221   5.222581
    32  H    2.617149   2.114661   2.553757   3.930166   4.099898
    33  H    2.075037   1.070000   2.148874   2.651435   2.815690
    34  H    2.581552   2.109579   1.070000   2.037171   2.284432
    35  H    4.218584   2.878987   2.114891   2.544683   3.469777
    36  H    4.503345   3.445838   2.952619   4.259863   4.886484
    37  H    8.892606   7.647744   6.652692   7.279135   8.209013
    38  H    7.504062   6.363182   5.367601   6.171262   7.021942
    39  H   11.327495  10.085669   9.700536  10.729700  11.582121
    40  H    9.697798   8.379454   8.090022   9.064967   9.931699
    41  H    8.236988   7.165267   7.000137   8.263863   8.957722
    42  H    7.564506   6.253505   6.260929   7.299420   8.083476
    43  H    6.427259   5.276935   4.831122   6.023803   6.764640
    44  H    8.264882   6.886595   6.316317   7.095006   8.028464
    45  H    3.704794   3.377361   4.460834   5.725807   5.826539
                    6          7          8          9         10
     6  C    0.000000
     7  O    1.435112   0.000000
     8  H    2.116441   1.000107   0.000000
     9  C    4.257274   5.502619   6.178927   0.000000
    10  O    5.391298   6.612968   7.380636   1.434880   0.000000
    11  H    6.235006   7.431373   8.162562   2.057191   1.000042
    12  C    2.787791   3.991071   4.704119   1.519798   2.694060
    13  O    2.425750   3.599645   4.047659   2.410698   3.815067
    14  C    1.520334   2.316250   2.670058   3.684914   5.014775
    15  O    2.354488   2.769608   2.586104   4.755751   6.158816
    16  C    3.608739   3.699759   3.341550   5.476539   6.891202
    17  C    4.698256   5.077116   4.802430   5.455464   6.854404
    18  O    4.710352   5.383470   5.370681   4.324370   5.660408
    19  H    4.056190   4.939995   5.047608   3.515644   4.896106
    20  C    5.973184   6.130508   5.770955   6.608201   7.947023
    21  O    7.002472   7.342452   7.068261   6.843589   8.085336
    22  H    7.824301   8.044734   7.711133   7.771695   8.990223
    23  C    4.210441   3.437461   2.576997   7.450545   8.807594
    24  O    3.568692   2.712517   1.718434   7.365590   8.677293
    25  H    4.201561   3.105928   2.144810   8.175120   9.442070
    26  C    4.485406   4.168900   3.475513   6.963461   8.376895
    27  O    5.758368   5.381439   4.715819   7.818547   9.210691
    28  C    6.450064   6.349779   5.769443   7.831584   9.216883
    29  O    7.643339   7.385393   6.773727   9.007420  10.355518
    30  H    4.391483   5.535132   6.428803   3.197433   2.983002
    31  H    4.428569   5.782359   6.370487   1.070000   1.987128
    32  H    2.983394   3.884659   4.649939   2.115253   3.044770
    33  H    2.855647   4.228455   4.941417   2.801162   3.494794
    34  H    2.110152   2.586375   3.578556   4.021854   4.715766
    35  H    1.070000   2.042875   2.395010   4.650434   5.794407
    36  H    2.142011   2.444052   2.826463   3.954917   5.206398
    37  H    5.228930   4.351639   3.438157   8.510048   9.869916
    38  H    4.071443   3.167713   2.494521   7.185026   8.483914
    39  H    8.325706   8.071351   7.397728   9.751619  11.115196
    40  H    6.690813   6.670244   6.032062   8.149182   9.555180
    41  H    5.903581   5.945774   5.659375   6.511717   7.799842
    42  H    5.023970   5.484308   5.131994   5.867183   7.268939
    43  H    3.657177   3.607429   3.397352   5.334769   6.686745
    44  H    4.817747   4.630263   3.877838   7.321252   8.752222
    45  H    4.713722   5.835990   6.433215   1.070000   1.987128
                   11         12         13         14         15
    11  H    0.000000
    12  C    3.466925   0.000000
    13  O    4.440023   1.435396   0.000000
    14  C    5.691816   2.357638   1.434466   0.000000
    15  O    6.768219   3.618220   2.346656   1.435269   0.000000
    16  C    7.353602   4.496596   3.217173   2.434814   1.434828
    17  C    7.145402   4.861056   3.523850   3.342789   2.474664
    18  O    5.844356   4.041089   2.872442   3.240852   2.938256
    19  H    5.180988   3.221173   2.014921   2.677802   2.597820
    20  C    8.121284   6.087996   4.858636   4.594950   3.786002
    21  O    8.094658   6.634734   5.481353   5.550751   4.870224
    22  H    8.966159   7.544657   6.411759   6.385256   5.669993
    23  C    9.406254   6.174200   5.110595   3.831111   2.925153
    24  O    9.390708   5.991970   5.026558   3.703568   2.906435
    25  H   10.183682   6.749620   5.892954   4.523413   3.868889
    26  C    8.865308   5.900300   4.641779   3.659255   2.478443
    27  O    9.586897   6.875332   5.648016   4.775955   3.734718
    28  C    9.476721   7.127703   5.828034   5.276302   4.197674
    29  O   10.560509   8.314245   7.086743   6.479288   5.491570
    30  H    3.940321   3.055796   4.250160   4.918904   6.130134
    31  H    2.504484   2.060017   2.484942   3.882738   4.720612
    32  H    3.720688   1.070000   2.041441   2.498232   3.878338
    33  H    4.438156   2.147750   2.683888   3.329923   4.281675
    34  H    5.598434   2.662287   3.311254   2.894119   4.186959
    35  H    6.652972   3.330431   2.779609   2.116859   2.429797
    36  H    5.810516   2.657361   2.067082   1.070000   2.067145
    37  H   10.454707   7.242120   6.169252   4.900929   3.950843
    38  H    9.067305   5.878948   4.979403   3.647578   3.108155
    39  H   11.318061   9.077853   7.797337   7.207538   6.114678
    40  H    9.837768   7.474397   6.096140   5.607454   4.367900
    41  H    7.961052   5.940174   4.862712   4.505171   3.947757
    42  H    7.579077   5.331959   3.922394   3.832123   2.743441
    43  H    7.118284   4.323121   3.263925   2.410097   2.014014
    44  H    9.255196   6.314420   4.970466   4.112868   2.736972
    45  H    2.146892   2.060017   2.589692   3.825046   4.796833
                   16         17         18         19         20
    16  C    0.000000
    17  C    1.519847   0.000000
    18  O    2.457309   1.435094   0.000000
    19  H    2.647670   2.035321   0.999309   0.000000
    20  C    2.484319   1.520160   2.386989   3.285752   0.000000
    21  O    3.734914   2.413217   2.642977   3.612833   1.435183
    22  H    4.421725   3.247603   3.607401   4.590347   1.945831
    23  C    2.507551   3.843643   4.957705   5.103307   4.248842
    24  O    3.176962   4.576991   5.551378   5.444710   5.324433
    25  H    4.093805   5.512404   6.499814   6.409687   6.144517
    26  C    1.519288   2.485875   3.773031   4.084072   2.848622
    27  O    2.449795   2.856635   4.158302   4.751585   2.396103
    28  C    2.860764   2.449223   3.707593   4.470256   1.519973
    29  O    4.100833   3.773364   4.886799   5.732587   2.515772
    30  H    7.290103   7.771761   6.991991   6.079010   9.090111
    31  H    5.520618   5.357928   4.252072   3.353203   6.611753
    32  H    4.556830   5.049012   4.268236   3.631278   6.100551
    33  H    5.555451   6.031200   5.447759   4.487111   7.459897
    34  H    5.187157   6.193108   5.872982   5.213415   7.322186
    35  H    3.835680   4.828037   4.945418   4.232512   6.205044
    36  H    2.506631   3.489714   3.369469   3.040075   4.468076
    37  H    3.402039   4.573380   5.799027   6.038864   4.720199
    38  H    2.646266   4.048618   4.969334   5.128473   4.365829
    39  H    4.784522   4.385012   5.547626   6.377987   3.200320
    40  H    3.233484   2.709858   4.025722   4.689469   2.172842
    41  H    2.604513   2.088903   2.647311   3.530271   1.070000
    42  H    2.124234   1.070000   2.050243   2.415912   2.124869
    43  H    1.070000   2.089609   2.646153   2.907607   2.668529
    44  H    2.106949   2.719942   4.075830   4.315940   3.219598
    45  H    5.241986   5.039659   3.775410   3.141742   6.020952
                   21         22         23         24         25
    21  O    0.000000
    22  H    1.000305   0.000000
    23  C    5.675031   6.071054   0.000000
    24  O    6.700863   7.217317   1.435133   0.000000
    25  H    7.550127   8.000445   1.963271   1.000518   0.000000
    26  C    4.244086   4.681846   1.519760   2.562538   3.342960
    27  O    3.745198   3.889090   2.426913   3.755413   4.342992
    28  C    2.580224   2.648649   3.705642   4.893266   5.594340
    29  O    3.214483   2.810699   4.482014   5.811648   6.353884
    30  H    9.623445  10.559152   8.537960   7.951073   8.530716
    31  H    6.776717   7.746848   7.575067   7.424006   8.284984
    32  H    6.708191   7.545929   6.077807   6.016166   6.697064
    33  H    8.071642   9.028892   6.862526   6.246499   6.939776
    34  H    8.247458   9.047540   5.776492   5.262929   5.683142
    35  H    7.209209   8.058029   4.378361   3.527361   4.198418
    36  H    5.464424   6.212344   3.754317   3.890650   4.608908
    37  H    6.134182   6.384781   1.070000   2.027090   2.132013
    38  H    5.783853   6.164129   1.070000   2.027090   2.369214
    39  H    3.709042   3.219709   5.020010   6.282732   6.793039
    40  H    2.960820   3.091493   4.008609   5.005807   5.732264
    41  H    2.007188   2.320526   4.209815   5.379559   6.127620
    42  H    2.755282   3.571397   4.158384   4.721868   5.681535
    43  H    3.897395   4.508927   2.711531   3.523414   4.316327
    44  H    4.469854   4.928963   2.107799   2.737695   3.539806
    45  H    6.128468   7.017493   7.377205   7.498945   8.334518
                   26         27         28         29         30
    26  C    0.000000
    27  O    1.434953   0.000000
    28  C    2.356097   1.435570   0.000000
    29  O    3.423289   2.077887   1.435107   0.000000
    30  H    8.547730   9.686301  10.042323  11.274161   0.000000
    31  H    6.980981   7.894614   7.799222   9.055865   3.447330
    32  H    5.921379   6.782304   7.142838   8.209373   3.486507
    33  H    6.754197   7.976555   8.286829   9.600186   2.143184
    34  H    6.175092   7.264024   7.992776   9.056141   3.382475
    35  H    4.583901   5.960011   6.576782   7.851752   4.628061
    36  H    3.685300   4.585894   5.189622   6.233089   5.319679
    37  H    2.100595   2.511649   3.859214   4.362893   9.582651
    38  H    2.100595   2.728918   4.051131   4.697512   8.272488
    39  H    3.971644   2.710675   1.974740   0.960000  12.007986
    40  H    2.623732   2.087011   1.070000   2.092071  10.288415
    41  H    3.049973   2.479475   2.081372   2.682854   8.980881
    42  H    2.749834   3.238669   2.656730   4.061875   8.070926
    43  H    2.088967   2.656412   3.221028   4.218737   7.194635
    44  H    1.070000   2.033764   2.547872   3.713952   8.839526
    45  H    6.758609   7.441980   7.349473   8.441815   4.208801
                   31         32         33         34         35
    31  H    0.000000
    32  H    2.939661   0.000000
    33  H    2.647140   3.009078   0.000000
    34  H    4.587530   2.356850   3.004424   0.000000
    35  H    4.578979   3.788197   2.799574   2.971818   0.000000
    36  H    4.388723   2.347121   4.061936   2.884273   2.990674
    37  H    8.625957   7.122552   7.903710   6.757118   5.348449
    38  H    7.458631   5.605353   6.792820   5.306232   4.493510
    39  H    9.726151   9.037811  10.256184   9.845408   8.441376
    40  H    7.980237   7.629202   8.407940   8.411226   6.646022
    41  H    6.687794   5.767259   7.519653   7.009140   6.312182
    42  H    5.579081   5.695853   6.179934   6.722661   4.923358
    43  H    5.582568   4.135750   5.693481   4.857261   4.161419
    44  H    7.185605   6.498437   6.903780   6.705060   4.675329
    45  H    1.727059   2.317182   3.756495   4.564735   5.193625
                   36         37         38         39         40
    36  H    0.000000
    37  H    4.788400   0.000000
    38  H    3.287940   1.725823   0.000000
    39  H    7.046954   4.773502   5.376290   0.000000
    40  H    5.712114   4.110256   4.583357   2.165247   0.000000
    41  H    4.132284   4.698436   4.064770   3.552837   2.999665
    42  H    4.217987   4.813854   4.599738   4.469333   2.472970
    43  H    2.014812   3.598811   2.411203   5.038111   3.864720
    44  H    4.380141   2.484767   2.968057   4.037571   2.352638
    45  H    3.905040   8.407738   7.064290   9.206760   7.743113
                   41         42         43         44         45
    41  H    0.000000
    42  H    2.972941   0.000000
    43  H    2.340663   2.975918   0.000000
    44  H    3.715522   2.548380   2.963734   0.000000
    45  H    5.861270   5.557381   5.005505   7.186252   0.000000
 Stoichiometry    C12H22O11
 Framework group  C1[X(C12H22O11)]
 Deg. of freedom   129
 Full point group                 C1      NOp   1
 Largest Abelian subgroup         C1      NOp   1
 Largest concise Abelian subgroup C1      NOp   1
                         Standard orientation:                         
 ---------------------------------------------------------------------
 Center     Atomic      Atomic             Coordinates (Angstroms)
 Number     Number       Type             X           Y           Z
 ---------------------------------------------------------------------
      1          8           0        5.009939   -0.329468   -0.395386
      2          6           0        3.759207   -0.015744    0.234741
      3          6           0        3.220958    1.334022   -0.209317
      4          8           0        4.023966    2.396803    0.325796
      5          1           0        4.962064    2.195262    0.042940
      6          6           0        1.766298    1.543274    0.178406
      7          8           0        1.137727    2.615513   -0.539055
      8          1           0        0.248679    2.959031   -0.236064
      9          6           0        3.233542   -2.447418   -0.035959
     10          8           0        4.484193   -3.084529   -0.334028
     11          1           0        4.406225   -4.058478   -0.547170
     12          6           0        2.745288   -1.027741   -0.272413
     13          8           0        1.463251   -0.857329    0.350243
     14          6           0        0.848924    0.361336   -0.091517
     15          8           0       -0.337823    0.611268    0.676053
     16          6           0       -1.572169    0.175982    0.088136
     17          6           0       -2.037830   -1.184494    0.580273
     18          8           0       -1.067865   -2.215392    0.343820
     19          1           0       -0.169492   -1.980824    0.713308
     20          6           0       -3.316373   -1.578085   -0.141738
     21          8           0       -3.589046   -2.967546    0.092348
     22          1           0       -4.505833   -3.111733   -0.280911
     23          6           0       -2.292524    2.541286   -0.329280
     24          8           0       -1.316925    3.330346    0.367281
     25          1           0       -1.429615    4.266945    0.033933
     26          6           0       -2.704389    1.181633    0.210515
     27          8           0       -3.900346    0.726683   -0.438946
     28          6           0       -4.350532   -0.502911    0.149521
     29          8           0       -5.545428   -0.525862   -0.644977
     30          1           0        5.690710   -0.425189    0.274680
     31          1           0        3.113651   -2.591057    1.017556
     32          1           0        2.627757   -0.884586   -1.326260
     33          1           0        3.844172   -0.062475    1.300338
     34          1           0        3.285782    1.377994   -1.276446
     35          1           0        1.727472    1.768190    1.223779
     36          1           0        0.612859    0.303703   -1.133559
     37          1           0       -3.180952    3.132854   -0.404402
     38          1           0       -1.923303    2.387694   -1.321744
     39          1           0       -6.312240   -0.454726   -0.071793
     40          1           0       -4.556508   -0.395212    1.193971
     41          1           0       -3.104982   -1.499209   -1.187679
     42          1           0       -2.234620   -1.125933    1.630390
     43          1           0       -1.380311    0.066627   -0.958828
     44          1           0       -2.924066    1.297938    1.251243
     45          1           0        2.507004   -3.057563   -0.530696
 ---------------------------------------------------------------------
 Rotational constants (GHZ):      0.4102343      0.1449334      0.1100406
 Standard basis: 6-31+G(d,p) (6D, 7F)
 There are   547 symmetry adapted basis functions of A   symmetry.
 Integral buffers will be    131072 words long.
 Raffenetti 2 integral format.
 Two-electron integral symmetry is turned on.
   547 basis functions,   890 primitive gaussians,   547 cartesian basis functions
    91 alpha electrons       91 beta electrons
       nuclear repulsion energy      2286.8306288366 Hartrees.
 NAtoms=   45 NActive=   45 NUniq=   45 SFac= 1.00D+00 NAtFMM=   50 NAOKFM=F Big=F
 One-electron integrals computed using PRISM.
 NBasis=   547 RedAO= T  NBF=   547
 NBsUse=   547 1.00D-06 NBFU=   547
 Harris functional with IExCor=  402 diagonalized for initial guess.
 ExpMin= 4.38D-02 ExpMax= 5.48D+03 ExpMxC= 8.25D+02 IAcc=2 IRadAn=         0 AccDes= 0.00D+00
 HarFok:  IExCor=  402 AccDes= 0.00D+00 IRadAn=         0 IDoV= 1
 ScaDFX=  1.000000  1.000000  1.000000  1.000000
 FoFCou: FMM=F IPFlag=           0 FMFlag=      100000 FMFlg1=           0
         NFxFlg=           0 DoJE=T BraDBF=F KetDBF=T FulRan=T
         Omega=  0.000000  0.000000  1.000000  0.000000  0.000000 ICntrl=     500 IOpCl=  0
         NMat0=    1 NMatS0=    1 NMatT0=    0 NMatD0=    1 NMtDS0=    0 NMtDT0=    0
         I1Cent=           4 NGrid=           0.
 Petite list used in FoFCou.
 Initial guess orbital symmetries:
       Occupied  (A) (A) (A) (A) (A) (A) (A) (A) (A) (A) (A) (A)
                 (A) (A) (A) (A) (A) (A) (A) (A) (A) (A) (A) (A)
                 (A) (A) (A) (A) (A) (A) (A) (A) (A) (A) (A) (A)
                 (A) (A) (A) (A) (A) (A) (A) (A) (A) (A) (A) (A)
                 (A) (A) (A) (A) (A) (A) (A) (A) (A) (A) (A) (A)
                 (A) (A) (A) (A) (A) (A) (A) (A) (A) (A) (A) (A)
                 (A) (A) (A) (A) (A) (A) (A) (A) (A) (A) (A) (A)
                 (A) (A) (A) (A) (A) (A) (A)
       Virtual   (A) (A) (A) (A) (A) (A) (A) (A) (A) (A) (A) (A)
                 (A) (A) (A) (A) (A) (A) (A) (A) (A) (A) (A) (A)
                 (A) (A) (A) (A) (A) (A) (A) (A) (A) (A) (A) (A)
                 (A) (A) (A) (A) (A) (A) (A) (A) (A) (A) (A) (A)
                 (A) (A) (A) (A) (A) (A) (A) (A) (A) (A) (A) (A)
                 (A) (A) (A) (A) (A) (A) (A) (A) (A) (A) (A) (A)
                 (A) (A) (A) (A) (A) (A) (A) (A) (A) (A) (A) (A)
                 (A) (A) (A) (A) (A) (A) (A) (A) (A) (A) (A) (A)
                 (A) (A) (A) (A) (A) (A) (A) (A) (A) (A) (A) (A)
                 (A) (A) (A) (A) (A) (A) (A) (A) (A) (A) (A) (A)
                 (A) (A) (A) (A) (A) (A) (A) (A) (A) (A) (A) (A)
                 (A) (A) (A) (A) (A) (A) (A) (A) (A) (A) (A) (A)
                 (A) (A) (A) (A) (A) (A) (A) (A) (A) (A) (A) (A)
                 (A) (A) (A) (A) (A) (A) (A) (A) (A) (A) (A) (A)
                 (A) (A) (A) (A) (A) (A) (A) (A) (A) (A) (A) (A)
                 (A) (A) (A) (A) (A) (A) (A) (A) (A) (A) (A) (A)
                 (A) (A) (A) (A) (A) (A) (A) (A) (A) (A) (A) (A)
                 (A) (A) (A) (A) (A) (A) (A) (A) (A) (A) (A) (A)
                 (A) (A) (A) (A) (A) (A) (A) (A) (A) (A) (A) (A)
                 (A) (A) (A) (A) (A) (A) (A) (A) (A) (A) (A) (A)
                 (A) (A) (A) (A) (A) (A) (A) (A) (A) (A) (A) (A)
                 (A) (A) (A) (A) (A) (A) (A) (A) (A) (A) (A) (A)
                 (A) (A) (A) (A) (A) (A) (A) (A) (A) (A) (A) (A)
                 (A) (A) (A) (A) (A) (A) (A) (A) (A) (A) (A) (A)
                 (A) (A) (A) (A) (A) (A) (A) (A) (A) (A) (A) (A)
                 (A) (A) (A) (A) (A) (A) (A) (A) (A) (A) (A) (A)
                 (A) (A) (A) (A) (A) (A) (A) (A) (A) (A) (A) (A)
                 (A) (A) (A) (A) (A) (A) (A) (A) (A) (A) (A) (A)
                 (A) (A) (A) (A) (A) (A) (A) (A) (A) (A) (A) (A)
                 (A) (A) (A) (A) (A) (A) (A) (A) (A) (A) (A) (A)
                 (A) (A) (A) (A) (A) (A) (A) (A) (A) (A) (A) (A)
                 (A) (A) (A) (A) (A) (A) (A) (A) (A) (A) (A) (A)
                 (A) (A) (A) (A) (A) (A) (A) (A) (A) (A) (A) (A)
                 (A) (A) (A) (A) (A) (A) (A) (A) (A) (A) (A) (A)
                 (A) (A) (A) (A) (A) (A) (A) (A) (A) (A) (A) (A)
                 (A) (A) (A) (A) (A) (A) (A) (A) (A) (A) (A) (A)
                 (A) (A) (A) (A) (A) (A) (A) (A) (A) (A) (A) (A)
                 (A) (A) (A) (A) (A) (A) (A) (A) (A) (A) (A) (A)
 The electronic state of the initial guess is 1-A.
 Requested convergence on RMS density matrix=1.00D-08 within 128 cycles.
 Requested convergence on MAX density matrix=1.00D-06.
 Requested convergence on             energy=1.00D-06.
 No special actions if energy rises.
 SCF Done:  E(RB3LYP) =  -1297.91423620     A.U. after   14 cycles
             Convg  =    0.3155D-08             -V/T =  2.0087
 Range of M.O.s used for correlation:     1   547
 NBasis=   547 NAE=    91 NBE=    91 NFC=     0 NFV=     0
 NROrb=    547 NOA=    91 NOB=    91 NVA=   456 NVB=   456

 **** Warning!!: The largest alpha MO coefficient is  0.89367710D+02

          Differentiating once with respect to electric field.
                with respect to dipole field.
          Electric field/nuclear overlap derivatives assumed to be zero.
          There are     3 degrees of freedom in the 1st order CPHF.  IDoFFX=0.
      3 vectors produced by pass  0 Test12= 1.38D-12 3.33D-08 XBig12= 1.21D+02 1.10D+00.
 AX will form     3 AO Fock derivatives at one time.
      3 vectors produced by pass  1 Test12= 1.38D-12 3.33D-08 XBig12= 2.29D+01 3.93D-01.
      3 vectors produced by pass  2 Test12= 1.38D-12 3.33D-08 XBig12= 1.01D+01 2.73D-01.
      3 vectors produced by pass  3 Test12= 1.38D-12 3.33D-08 XBig12= 8.81D-01 1.06D-01.
      3 vectors produced by pass  4 Test12= 1.38D-12 3.33D-08 XBig12= 2.15D-01 4.28D-02.
      3 vectors produced by pass  5 Test12= 1.38D-12 3.33D-08 XBig12= 5.24D-02 2.09D-02.
      3 vectors produced by pass  6 Test12= 1.38D-12 3.33D-08 XBig12= 1.58D-02 1.79D-02.
      3 vectors produced by pass  7 Test12= 1.38D-12 3.33D-08 XBig12= 2.19D-03 9.69D-03.
      3 vectors produced by pass  8 Test12= 1.38D-12 3.33D-08 XBig12= 4.27D-04 2.65D-03.
      3 vectors produced by pass  9 Test12= 1.38D-12 3.33D-08 XBig12= 1.44D-04 1.56D-03.
      3 vectors produced by pass 10 Test12= 1.38D-12 3.33D-08 XBig12= 3.06D-05 5.08D-04.
      3 vectors produced by pass 11 Test12= 1.38D-12 3.33D-08 XBig12= 7.67D-06 3.14D-04.
      3 vectors produced by pass 12 Test12= 1.38D-12 3.33D-08 XBig12= 1.03D-06 9.13D-05.
      3 vectors produced by pass 13 Test12= 1.38D-12 3.33D-08 XBig12= 3.33D-07 4.80D-05.
      3 vectors produced by pass 14 Test12= 1.38D-12 3.33D-08 XBig12= 3.78D-08 1.42D-05.
      3 vectors produced by pass 15 Test12= 1.38D-12 3.33D-08 XBig12= 1.27D-08 7.69D-06.
      3 vectors produced by pass 16 Test12= 1.38D-12 3.33D-08 XBig12= 1.25D-09 2.46D-06.
      3 vectors produced by pass 17 Test12= 1.38D-12 3.33D-08 XBig12= 1.01D-10 7.23D-07.
      3 vectors produced by pass 18 Test12= 1.38D-12 3.33D-08 XBig12= 2.16D-11 3.64D-07.
      3 vectors produced by pass 19 Test12= 1.38D-12 3.33D-08 XBig12= 1.53D-11 3.14D-07.
      3 vectors produced by pass 20 Test12= 1.38D-12 3.33D-08 XBig12= 1.50D-11 3.76D-07.
      2 vectors produced by pass 21 Test12= 1.38D-12 3.33D-08 XBig12= 8.26D-12 3.08D-07.
      1 vectors produced by pass 22 Test12= 1.38D-12 3.33D-08 XBig12= 7.47D-13 5.11D-08.
 Inverted reduced A of dimension    66 with in-core refinement.
 End of Minotr Frequency-dependent properties file   721 does not exist.
 End of Minotr Frequency-dependent properties file   722 does not exist.
 Symmetrizing basis deriv contribution to polar:
 IMax=3 JMax=2 DiffMx= 0.00D+00
 G2DrvN: will do    23 centers at a time, making    2 passes doing MaxLOS=2.
 Calling FoFCou, ICntrl=  3107 FMM=F I1Cent=   0 AccDes= 0.00D+00.
 Calling FoFCou, ICntrl=  3107 FMM=F I1Cent=   0 AccDes= 0.00D+00.
 FoFDir/FoFCou used for L=0 through L=2.
 End of G2Drv Frequency-dependent properties file   721 does not exist.
 End of G2Drv Frequency-dependent properties file   722 does not exist.
          IDoAtm=111111111111111111111111111111111111111111111
          Differentiating once with respect to electric field.
                with respect to dipole field.
          Differentiating once with respect to nuclear coordinates.
          There are   138 degrees of freedom in the 1st order CPHF.  IDoFFX=5.
 Will reuse    3 saved solutions.
    135 vectors produced by pass  0 Test12= 4.15D-14 1.00D-09 XBig12= 2.56D-01 1.28D-01.
 AX will form    68 AO Fock derivatives at one time.
    135 vectors produced by pass  1 Test12= 4.15D-14 1.00D-09 XBig12= 3.29D-02 1.62D-02.
    132 vectors produced by pass  2 Test12= 4.15D-14 1.00D-09 XBig12= 2.83D-04 2.55D-03.
    132 vectors produced by pass  3 Test12= 4.15D-14 1.00D-09 XBig12= 9.44D-07 9.00D-05.
    132 vectors produced by pass  4 Test12= 4.15D-14 1.00D-09 XBig12= 1.53D-09 2.83D-06.
    130 vectors produced by pass  5 Test12= 4.15D-14 1.00D-09 XBig12= 5.63D-12 1.62D-07.
     79 vectors produced by pass  6 Test12= 4.15D-14 1.00D-09 XBig12= 2.07D-13 2.62D-08.
 Inverted reduced A of dimension   875 with in-core refinement.
 Isotropic polarizability for W=    0.000000      188.16 Bohr**3.
 End of Minotr Frequency-dependent properties file   721 does not exist.
 End of Minotr Frequency-dependent properties file   722 does not exist.

 **********************************************************************

            Population analysis using the SCF density.

 **********************************************************************

 Orbital symmetries:
       Occupied  (A) (A) (A) (A) (A) (A) (A) (A) (A) (A) (A) (A)
                 (A) (A) (A) (A) (A) (A) (A) (A) (A) (A) (A) (A)
                 (A) (A) (A) (A) (A) (A) (A) (A) (A) (A) (A) (A)
                 (A) (A) (A) (A) (A) (A) (A) (A) (A) (A) (A) (A)
                 (A) (A) (A) (A) (A) (A) (A) (A) (A) (A) (A) (A)
                 (A) (A) (A) (A) (A) (A) (A) (A) (A) (A) (A) (A)
                 (A) (A) (A) (A) (A) (A) (A) (A) (A) (A) (A) (A)
                 (A) (A) (A) (A) (A) (A) (A)
       Virtual   (A) (A) (A) (A) (A) (A) (A) (A) (A) (A) (A) (A)
                 (A) (A) (A) (A) (A) (A) (A) (A) (A) (A) (A) (A)
                 (A) (A) (A) (A) (A) (A) (A) (A) (A) (A) (A) (A)
                 (A) (A) (A) (A) (A) (A) (A) (A) (A) (A) (A) (A)
                 (A) (A) (A) (A) (A) (A) (A) (A) (A) (A) (A) (A)
                 (A) (A) (A) (A) (A) (A) (A) (A) (A) (A) (A) (A)
                 (A) (A) (A) (A) (A) (A) (A) (A) (A) (A) (A) (A)
                 (A) (A) (A) (A) (A) (A) (A) (A) (A) (A) (A) (A)
                 (A) (A) (A) (A) (A) (A) (A) (A) (A) (A) (A) (A)
                 (A) (A) (A) (A) (A) (A) (A) (A) (A) (A) (A) (A)
                 (A) (A) (A) (A) (A) (A) (A) (A) (A) (A) (A) (A)
                 (A) (A) (A) (A) (A) (A) (A) (A) (A) (A) (A) (A)
                 (A) (A) (A) (A) (A) (A) (A) (A) (A) (A) (A) (A)
                 (A) (A) (A) (A) (A) (A) (A) (A) (A) (A) (A) (A)
                 (A) (A) (A) (A) (A) (A) (A) (A) (A) (A) (A) (A)
                 (A) (A) (A) (A) (A) (A) (A) (A) (A) (A) (A) (A)
                 (A) (A) (A) (A) (A) (A) (A) (A) (A) (A) (A) (A)
                 (A) (A) (A) (A) (A) (A) (A) (A) (A) (A) (A) (A)
                 (A) (A) (A) (A) (A) (A) (A) (A) (A) (A) (A) (A)
                 (A) (A) (A) (A) (A) (A) (A) (A) (A) (A) (A) (A)
                 (A) (A) (A) (A) (A) (A) (A) (A) (A) (A) (A) (A)
                 (A) (A) (A) (A) (A) (A) (A) (A) (A) (A) (A) (A)
                 (A) (A) (A) (A) (A) (A) (A) (A) (A) (A) (A) (A)
                 (A) (A) (A) (A) (A) (A) (A) (A) (A) (A) (A) (A)
                 (A) (A) (A) (A) (A) (A) (A) (A) (A) (A) (A) (A)
                 (A) (A) (A) (A) (A) (A) (A) (A) (A) (A) (A) (A)
                 (A) (A) (A) (A) (A) (A) (A) (A) (A) (A) (A) (A)
                 (A) (A) (A) (A) (A) (A) (A) (A) (A) (A) (A) (A)
                 (A) (A) (A) (A) (A) (A) (A) (A) (A) (A) (A) (A)
                 (A) (A) (A) (A) (A) (A) (A) (A) (A) (A) (A) (A)
                 (A) (A) (A) (A) (A) (A) (A) (A) (A) (A) (A) (A)
                 (A) (A) (A) (A) (A) (A) (A) (A) (A) (A) (A) (A)
                 (A) (A) (A) (A) (A) (A) (A) (A) (A) (A) (A) (A)
                 (A) (A) (A) (A) (A) (A) (A) (A) (A) (A) (A) (A)
                 (A) (A) (A) (A) (A) (A) (A) (A) (A) (A) (A) (A)
                 (A) (A) (A) (A) (A) (A) (A) (A) (A) (A) (A) (A)
                 (A) (A) (A) (A) (A) (A) (A) (A) (A) (A) (A) (A)
                 (A) (A) (A) (A) (A) (A) (A) (A) (A) (A) (A) (A)
 The electronic state is 1-A.
 Alpha  occ. eigenvalues --  -19.20278 -19.19228 -19.19080 -19.19077 -19.18745
 Alpha  occ. eigenvalues --  -19.17477 -19.17381 -19.16409 -19.15933 -19.14933
 Alpha  occ. eigenvalues --  -19.13323 -10.31835 -10.30616 -10.26386 -10.25877
 Alpha  occ. eigenvalues --  -10.25809 -10.25611 -10.25400 -10.25044 -10.24918
 Alpha  occ. eigenvalues --  -10.24390 -10.24289 -10.24064  -1.10411  -1.09437
 Alpha  occ. eigenvalues --   -1.06145  -1.05150  -1.04090  -1.03509  -1.02632
 Alpha  occ. eigenvalues --   -1.02057  -1.01697  -1.00538  -0.99434  -0.82298
 Alpha  occ. eigenvalues --   -0.80426  -0.80054  -0.78016  -0.72000  -0.70039
 Alpha  occ. eigenvalues --   -0.67363  -0.64983  -0.63408  -0.62361  -0.61845
 Alpha  occ. eigenvalues --   -0.60261  -0.56941  -0.55765  -0.54976  -0.54937
 Alpha  occ. eigenvalues --   -0.53759  -0.53653  -0.52920  -0.51846  -0.51532
 Alpha  occ. eigenvalues --   -0.50843  -0.49958  -0.48940  -0.48652  -0.46361
 Alpha  occ. eigenvalues --   -0.46238  -0.45092  -0.44247  -0.43587  -0.43388
 Alpha  occ. eigenvalues --   -0.42279  -0.41780  -0.41257  -0.40200  -0.39574
 Alpha  occ. eigenvalues --   -0.38826  -0.38270  -0.37611  -0.36186  -0.35804
 Alpha  occ. eigenvalues --   -0.35161  -0.35020  -0.33607  -0.33480  -0.32932
 Alpha  occ. eigenvalues --   -0.32439  -0.31456  -0.30981  -0.30123  -0.29618
 Alpha  occ. eigenvalues --   -0.29500  -0.28559  -0.27932  -0.27248  -0.26931
 Alpha  occ. eigenvalues --   -0.25852
 Alpha virt. eigenvalues --   -0.02204  -0.02146  -0.01780  -0.00258   0.00098
 Alpha virt. eigenvalues --    0.00862   0.01989   0.02227   0.03101   0.03458
 Alpha virt. eigenvalues --    0.03790   0.04350   0.04715   0.05538   0.05707
 Alpha virt. eigenvalues --    0.06026   0.06339   0.07161   0.07678   0.07812
 Alpha virt. eigenvalues --    0.08660   0.08886   0.09081   0.09168   0.10082
 Alpha virt. eigenvalues --    0.10245   0.10760   0.11301   0.11556   0.12284
 Alpha virt. eigenvalues --    0.12564   0.12826   0.13268   0.13450   0.13674
 Alpha virt. eigenvalues --    0.13990   0.14348   0.14649   0.15098   0.15207
 Alpha virt. eigenvalues --    0.15606   0.16393   0.16651   0.17128   0.17452
 Alpha virt. eigenvalues --    0.17616   0.17906   0.18180   0.18254   0.18846
 Alpha virt. eigenvalues --    0.19022   0.19428   0.19619   0.19950   0.20265
 Alpha virt. eigenvalues --    0.20662   0.20929   0.21292   0.21409   0.21691
 Alpha virt. eigenvalues --    0.21858   0.22340   0.22755   0.22808   0.23049
 Alpha virt. eigenvalues --    0.23515   0.23893   0.24084   0.24360   0.24669
 Alpha virt. eigenvalues --    0.24996   0.25399   0.25582   0.25894   0.26214
 Alpha virt. eigenvalues --    0.26655   0.27001   0.27209   0.27419   0.27729
 Alpha virt. eigenvalues --    0.28151   0.28340   0.28594   0.28737   0.29009
 Alpha virt. eigenvalues --    0.29511   0.29870   0.30050   0.30479   0.30744
 Alpha virt. eigenvalues --    0.31022   0.31421   0.31870   0.32056   0.32579
 Alpha virt. eigenvalues --    0.32722   0.33149   0.33327   0.33788   0.33969
 Alpha virt. eigenvalues --    0.34327   0.34815   0.35094   0.35491   0.35997
 Alpha virt. eigenvalues --    0.36375   0.36877   0.36998   0.37217   0.37743
 Alpha virt. eigenvalues --    0.38254   0.38368   0.38783   0.39224   0.39741
 Alpha virt. eigenvalues --    0.40363   0.40751   0.40945   0.41567   0.41936
 Alpha virt. eigenvalues --    0.42281   0.43050   0.43497   0.43702   0.44087
 Alpha virt. eigenvalues --    0.44742   0.45262   0.45977   0.47001   0.47762
 Alpha virt. eigenvalues --    0.47848   0.48929   0.49112   0.49666   0.50358
 Alpha virt. eigenvalues --    0.51380   0.51940   0.54201   0.63527   0.64891
 Alpha virt. eigenvalues --    0.65651   0.66753   0.68524   0.69440   0.69844
 Alpha virt. eigenvalues --    0.71027   0.72098   0.72976   0.73141   0.74567
 Alpha virt. eigenvalues --    0.75007   0.76395   0.77335   0.78010   0.78734
 Alpha virt. eigenvalues --    0.80368   0.81241   0.81778   0.82931   0.83098
 Alpha virt. eigenvalues --    0.84866   0.86339   0.88143   0.88564   0.89805
 Alpha virt. eigenvalues --    0.91489   0.91733   0.93377   0.93994   0.94089
 Alpha virt. eigenvalues --    0.95915   0.96768   0.97718   0.97879   1.00841
 Alpha virt. eigenvalues --    1.01210   1.01555   1.02368   1.03789   1.04148
 Alpha virt. eigenvalues --    1.05200   1.05519   1.06267   1.06446   1.06856
 Alpha virt. eigenvalues --    1.07436   1.08645   1.09276   1.10117   1.10764
 Alpha virt. eigenvalues --    1.11392   1.12556   1.13171   1.14685   1.15610
 Alpha virt. eigenvalues --    1.17032   1.18039   1.18896   1.20771   1.21907
 Alpha virt. eigenvalues --    1.22120   1.23315   1.23939   1.24944   1.25721
 Alpha virt. eigenvalues --    1.26144   1.26449   1.27009   1.27444   1.28439
 Alpha virt. eigenvalues --    1.28843   1.30161   1.30879   1.31685   1.31939
 Alpha virt. eigenvalues --    1.32499   1.33214   1.33620   1.33914   1.34653
 Alpha virt. eigenvalues --    1.34892   1.36377   1.36920   1.37592   1.38857
 Alpha virt. eigenvalues --    1.39216   1.40240   1.41045   1.42751   1.43096
 Alpha virt. eigenvalues --    1.44557   1.45492   1.46094   1.46650   1.47586
 Alpha virt. eigenvalues --    1.47999   1.49201   1.50892   1.51907   1.52930
 Alpha virt. eigenvalues --    1.54491   1.55738   1.56541   1.57052   1.58115
 Alpha virt. eigenvalues --    1.58357   1.58764   1.59833   1.61709   1.62477
 Alpha virt. eigenvalues --    1.62790   1.63419   1.64138   1.64885   1.65354
 Alpha virt. eigenvalues --    1.66132   1.67017   1.67894   1.68389   1.69025
 Alpha virt. eigenvalues --    1.69910   1.71064   1.71540   1.72594   1.72984
 Alpha virt. eigenvalues --    1.74309   1.74584   1.75819   1.77180   1.77513
 Alpha virt. eigenvalues --    1.78881   1.79734   1.80195   1.81359   1.81719
 Alpha virt. eigenvalues --    1.83030   1.83706   1.85404   1.85488   1.86099
 Alpha virt. eigenvalues --    1.87569   1.88102   1.89158   1.89994   1.91496
 Alpha virt. eigenvalues --    1.91792   1.92638   1.93294   1.94219   1.95085
 Alpha virt. eigenvalues --    1.95258   1.95905   1.97555   1.97901   2.00035
 Alpha virt. eigenvalues --    2.00470   2.00979   2.01551   2.02972   2.03198
 Alpha virt. eigenvalues --    2.04106   2.04509   2.05039   2.05298   2.05760
 Alpha virt. eigenvalues --    2.07334   2.08101   2.09913   2.10903   2.11167
 Alpha virt. eigenvalues --    2.13049   2.14336   2.15721   2.16036   2.17000
 Alpha virt. eigenvalues --    2.17876   2.18523   2.19506   2.20133   2.20946
 Alpha virt. eigenvalues --    2.23735   2.23765   2.25372   2.25941   2.27205
 Alpha virt. eigenvalues --    2.29266   2.32160   2.32728   2.33682   2.35163
 Alpha virt. eigenvalues --    2.36027   2.36395   2.37240   2.38465   2.38851
 Alpha virt. eigenvalues --    2.41014   2.42060   2.43357   2.43722   2.44846
 Alpha virt. eigenvalues --    2.45606   2.45683   2.46504   2.47472   2.50262
 Alpha virt. eigenvalues --    2.50789   2.51901   2.52387   2.54410   2.55017
 Alpha virt. eigenvalues --    2.56873   2.58547   2.58871   2.59789   2.60441
 Alpha virt. eigenvalues --    2.61543   2.62229   2.63803   2.64041   2.64613
 Alpha virt. eigenvalues --    2.65329   2.67547   2.67954   2.69448   2.69925
 Alpha virt. eigenvalues --    2.70620   2.71704   2.72284   2.74102   2.75603
 Alpha virt. eigenvalues --    2.76507   2.77161   2.77439   2.78122   2.79758
 Alpha virt. eigenvalues --    2.80810   2.81706   2.83093   2.84927   2.85648
 Alpha virt. eigenvalues --    2.87173   2.87582   2.88497   2.89272   2.90489
 Alpha virt. eigenvalues --    2.90628   2.91341   2.92214   2.93860   2.94314
 Alpha virt. eigenvalues --    2.96244   2.96776   2.98212   2.99931   3.00044
 Alpha virt. eigenvalues --    3.00932   3.02179   3.05188   3.06361   3.06650
 Alpha virt. eigenvalues --    3.08436   3.08802   3.09740   3.12009   3.12677
 Alpha virt. eigenvalues --    3.15577   3.17991   3.18869   3.26341   3.31941
 Alpha virt. eigenvalues --    3.34291   3.36047   3.38101   3.38580   3.41846
 Alpha virt. eigenvalues --    3.43268   3.44272   3.46176   3.47703   3.48806
 Alpha virt. eigenvalues --    3.49820   3.50504   3.52201   3.53211   3.54014
 Alpha virt. eigenvalues --    3.56065   3.57520   3.60101   3.62557   3.64325
 Alpha virt. eigenvalues --    3.65520   3.66853   3.69077   4.29414   4.33876
 Alpha virt. eigenvalues --    4.36388   4.36731   4.38648   4.40806   4.44075
 Alpha virt. eigenvalues --    4.45468   4.47701   4.50987   4.54874   4.56647
 Alpha virt. eigenvalues --    4.57573   4.61566   4.64354   4.66766   4.73491
 Alpha virt. eigenvalues --    4.78387   4.79200   4.86124   4.88165   4.90701
 Alpha virt. eigenvalues --    4.94646
          Condensed to atoms (all electrons):
              1          2          3          4          5          6
     1  O    8.271424   0.366294  -0.071493  -0.008108   0.025333  -0.009691
     2  C    0.366294   7.883263  -0.651110  -0.044909  -0.085269  -1.943359
     3  C   -0.071493  -0.651110   8.842263   0.120213   0.054145  -0.888579
     4  O   -0.008108  -0.044909   0.120213   8.252192   0.193477  -0.060657
     5  H    0.025333  -0.085269   0.054145   0.193477   0.440728   0.021056
     6  C   -0.009691  -1.943359  -0.888579  -0.060657   0.021056  12.648622
     7  O   -0.000347   0.021383  -0.082041   0.003144  -0.000678   0.232443
     8  H    0.000017  -0.007297   0.019262  -0.000587   0.000013   0.057689
     9  C   -0.026136  -0.299462  -0.713235   0.014877  -0.002429   1.202893
    10  O   -0.021880   0.011038  -0.000044   0.000158  -0.000012  -0.005473
    11  H    0.002449  -0.009878   0.000413   0.000000   0.000000   0.000707
    12  C   -0.261742  -1.123033  -0.877636   0.012179   0.028491   1.124613
    13  O    0.009274  -0.042986   0.001216  -0.000722   0.000143  -0.044930
    14  C    0.049155   1.228483   0.537717   0.063306  -0.013275  -5.099692
    15  O    0.000325  -0.035240   0.006462   0.000213   0.000072   0.197062
    16  C    0.004972   0.181266  -0.162245  -0.000264   0.001028  -1.152409
    17  C    0.000833  -0.013673  -0.047719   0.000750   0.000067   0.040548
    18  O    0.000025   0.008698  -0.001808  -0.000007   0.000000   0.008490
    19  H   -0.000023  -0.004284   0.005364  -0.000002   0.000000   0.017843
    20  C    0.000091  -0.001133  -0.005126  -0.000104   0.000001   0.131720
    21  O    0.000000  -0.000042  -0.000022   0.000000   0.000000  -0.001177
    22  H    0.000000   0.000004   0.000003   0.000000   0.000000  -0.000097
    23  C    0.000244   0.023899  -0.041213   0.000543   0.000008  -0.323872
    24  O    0.000000   0.002305  -0.005119   0.000005  -0.000006  -0.028666
    25  H    0.000000  -0.000058   0.000504  -0.000002   0.000000  -0.005587
    26  C   -0.000305   0.012198  -0.015046   0.000247  -0.000045  -0.187573
    27  O    0.000000  -0.000010   0.001032   0.000000   0.000000   0.006205
    28  C   -0.000012   0.000887   0.004183  -0.000003   0.000000   0.006704
    29  O    0.000000  -0.000008   0.000029   0.000000   0.000000  -0.000387
    30  H    0.240390   0.049021  -0.029034   0.000310  -0.002162   0.004086
    31  H    0.000056  -0.017556  -0.005627  -0.000042   0.000000   0.023355
    32  H    0.005685   0.002010   0.006032  -0.000097  -0.000015  -0.061644
    33  H   -0.044221   0.409518  -0.043057  -0.000294  -0.000842  -0.032467
    34  H   -0.005426   0.094299   0.215171  -0.040310  -0.006558  -0.154966
    35  H   -0.000412   0.073938  -0.197256   0.003575  -0.000023   0.340850
    36  H    0.000149   0.029173  -0.032480  -0.000482   0.000005  -0.065875
    37  H    0.000000   0.000022  -0.000030   0.000000   0.000000   0.000746
    38  H    0.000000   0.000160   0.001279   0.000001   0.000000   0.004536
    39  H    0.000000   0.000000   0.000000   0.000000   0.000000   0.000000
    40  H    0.000000  -0.000005   0.000024   0.000000   0.000000   0.000564
    41  H    0.000000   0.000005   0.000163   0.000000   0.000000   0.002395
    42  H    0.000000   0.000173   0.000288   0.000000   0.000000   0.009302
    43  H   -0.000003  -0.000589   0.003593  -0.000002   0.000000   0.025172
    44  H    0.000000  -0.000043   0.000714   0.000000   0.000000   0.003718
    45  H    0.001354   0.002099  -0.009243   0.000042   0.000000   0.004187
              7          8          9         10         11         12
     1  O   -0.000347   0.000017  -0.026136  -0.021880   0.002449  -0.261742
     2  C    0.021383  -0.007297  -0.299462   0.011038  -0.009878  -1.123033
     3  C   -0.082041   0.019262  -0.713235  -0.000044   0.000413  -0.877636
     4  O    0.003144  -0.000587   0.014877   0.000158   0.000000   0.012179
     5  H   -0.000678   0.000013  -0.002429  -0.000012   0.000000   0.028491
     6  C    0.232443   0.057689   1.202893  -0.005473   0.000707   1.124613
     7  O    8.312703   0.218114   0.004318   0.000018   0.000000   0.011019
     8  H    0.218114   0.321110   0.000686   0.000000   0.000000   0.003935
     9  C    0.004318   0.000686  11.199459   0.101573   0.014819  -4.533822
    10  O    0.000018   0.000000   0.101573   8.368897   0.208224   0.036200
    11  H    0.000000   0.000000   0.014819   0.208224   0.420868   0.010139
    12  C    0.011019   0.003935  -4.533822   0.036200   0.010139  13.983590
    13  O    0.014834  -0.000362   0.073310  -0.003853  -0.000058  -0.174724
    14  C   -0.152209  -0.060222  -1.557340  -0.002506  -0.005667  -1.756928
    15  O    0.004402   0.015131   0.004400  -0.000008   0.000003   0.053991
    16  C    0.091670  -0.008283  -0.509219  -0.002089  -0.000229  -0.211780
    17  C    0.003527   0.001686   0.010810  -0.000138  -0.000016  -0.224711
    18  O    0.000043  -0.000028  -0.001814   0.000030   0.000006   0.007161
    19  H   -0.000109   0.000000   0.002449  -0.000020  -0.000001  -0.002838
    20  C    0.006657   0.000575   0.009317   0.000001   0.000001  -0.044053
    21  O   -0.000011   0.000000  -0.000123   0.000000   0.000000  -0.000049
    22  H    0.000000   0.000000  -0.000010   0.000000   0.000000   0.000096
    23  C    0.053212  -0.016936  -0.007290  -0.000039  -0.000001  -0.065008
    24  O   -0.039668   0.005992   0.000400   0.000000   0.000000   0.005281
    25  H    0.003138  -0.004787  -0.000020   0.000000   0.000000  -0.000799
    26  C   -0.061455  -0.004153  -0.048315   0.000030  -0.000001   0.110984
    27  O    0.000199   0.000041  -0.000219   0.000000   0.000000  -0.000037
    28  C   -0.002176   0.000146  -0.002334   0.000003   0.000000   0.009959
    29  O   -0.000004   0.000000  -0.000002   0.000000   0.000000   0.000121
    30  H   -0.000025   0.000000  -0.003528  -0.001189  -0.000067  -0.003739
    31  H    0.000005   0.000000   0.772203  -0.083388   0.001751  -0.404630
    32  H   -0.000451   0.000007   0.010457   0.002862   0.000010   0.149365
    33  H   -0.000217   0.000004  -0.004395  -0.000334   0.000006  -0.124473
    34  H    0.003577   0.000022   0.030420   0.000150   0.000001  -0.027643
    35  H   -0.044776  -0.005800   0.011854   0.000011   0.000000  -0.011658
    36  H   -0.003204  -0.000687   0.001241   0.000010   0.000000  -0.047420
    37  H   -0.000973   0.000557  -0.000004   0.000000   0.000000  -0.000152
    38  H    0.002746   0.000687   0.000021   0.000000   0.000000   0.001226
    39  H    0.000000   0.000000   0.000000   0.000000   0.000000   0.000000
    40  H    0.000002   0.000000   0.000003   0.000000   0.000000  -0.000029
    41  H    0.000016   0.000000  -0.000015   0.000000   0.000000  -0.000230
    42  H    0.000032   0.000002   0.000533   0.000000   0.000000   0.000538
    43  H   -0.000886   0.000218   0.000472   0.000001   0.000000   0.000594
    44  H    0.000078   0.000029   0.000069   0.000000   0.000000   0.000904
    45  H   -0.000008   0.000000   0.486932  -0.046516  -0.014711  -0.122087
             13         14         15         16         17         18
     1  O    0.009274   0.049155   0.000325   0.004972   0.000833   0.000025
     2  C   -0.042986   1.228483  -0.035240   0.181266  -0.013673   0.008698
     3  C    0.001216   0.537717   0.006462  -0.162245  -0.047719  -0.001808
     4  O   -0.000722   0.063306   0.000213  -0.000264   0.000750  -0.000007
     5  H    0.000143  -0.013275   0.000072   0.001028   0.000067   0.000000
     6  C   -0.044930  -5.099692   0.197062  -1.152409   0.040548   0.008490
     7  O    0.014834  -0.152209   0.004402   0.091670   0.003527   0.000043
     8  H   -0.000362  -0.060222   0.015131  -0.008283   0.001686  -0.000028
     9  C    0.073310  -1.557340   0.004400  -0.509219   0.010810  -0.001814
    10  O   -0.003853  -0.002506  -0.000008  -0.002089  -0.000138   0.000030
    11  H   -0.000058  -0.005667   0.000003  -0.000229  -0.000016   0.000006
    12  C   -0.174724  -1.756928   0.053991  -0.211780  -0.224711   0.007161
    13  O    8.426216   0.169491   0.012477   0.089499  -0.064560   0.019461
    14  C    0.169491  14.157290   0.028359  -0.429166  -0.780948  -0.106102
    15  O    0.012477   0.028359   8.299421  -0.080013  -0.048308  -0.003226
    16  C    0.089499  -0.429166  -0.080013  17.507361  -3.736982  -0.074105
    17  C   -0.064560  -0.780948  -0.048308  -3.736982   9.930056   0.305914
    18  O    0.019461  -0.106102  -0.003226  -0.074105   0.305914   8.157101
    19  H    0.010390  -0.001913   0.017494  -0.136076   0.089067   0.200877
    20  C   -0.006486  -0.374722   0.051113  -2.187106   0.274111  -0.082121
    21  O   -0.000161   0.003478  -0.000632  -0.000803  -0.134580   0.012485
    22  H   -0.000002  -0.000760   0.000024   0.003361   0.017001  -0.000483
    23  C    0.023814  -0.527479  -0.002284   0.347404  -0.265719   0.005029
    24  O   -0.001540   0.145705  -0.036256  -0.008862  -0.005281   0.000181
    25  H    0.000015  -0.012992   0.001467  -0.004263   0.000742   0.000001
    26  C   -0.015555  -0.742066  -0.042606  -6.100786   1.660936   0.076298
    27  O    0.000476  -0.002693   0.009557  -0.093582  -0.065037   0.001798
    28  C    0.001137   0.172868   0.006989   1.553011  -0.857058  -0.001719
    29  O    0.000007   0.003614   0.000261   0.010009   0.015146  -0.000862
    30  H   -0.001007  -0.001853  -0.000009   0.000244  -0.000045   0.000000
    31  H    0.009523  -0.006628   0.000138  -0.008854   0.002083  -0.000061
    32  H   -0.048588   0.157872   0.000270   0.008250   0.004732   0.000054
    33  H    0.008303   0.085512   0.000024   0.000843   0.000996   0.000040
    34  H    0.006305   0.103901  -0.000611   0.008420   0.001202   0.000023
    35  H    0.010720   0.011579  -0.012275   0.056699   0.007187   0.000110
    36  H   -0.064187   0.379622  -0.066534   0.036353   0.036608  -0.001551
    37  H   -0.000002  -0.002121   0.000173   0.039864  -0.001248   0.000032
    38  H    0.000222   0.011786   0.006286  -0.036384  -0.014465  -0.000030
    39  H    0.000000   0.000426   0.000003   0.002205   0.006774  -0.000008
    40  H    0.000004   0.005647   0.000052   0.153282  -0.033759  -0.000354
    41  H    0.000397   0.010830  -0.000963   0.197394  -0.242138   0.008520
    42  H    0.001911   0.048749  -0.007378   0.109719   0.288421  -0.040800
    43  H   -0.001318   0.031195  -0.067751   0.381608  -0.004321  -0.002080
    44  H   -0.000112   0.053972   0.004797   0.084785  -0.062729  -0.000217
    45  H    0.002658   0.005352  -0.000085   0.006305  -0.001905  -0.000311
             19         20         21         22         23         24
     1  O   -0.000023   0.000091   0.000000   0.000000   0.000244   0.000000
     2  C   -0.004284  -0.001133  -0.000042   0.000004   0.023899   0.002305
     3  C    0.005364  -0.005126  -0.000022   0.000003  -0.041213  -0.005119
     4  O   -0.000002  -0.000104   0.000000   0.000000   0.000543   0.000005
     5  H    0.000000   0.000001   0.000000   0.000000   0.000008  -0.000006
     6  C    0.017843   0.131720  -0.001177  -0.000097  -0.323872  -0.028666
     7  O   -0.000109   0.006657  -0.000011   0.000000   0.053212  -0.039668
     8  H    0.000000   0.000575   0.000000   0.000000  -0.016936   0.005992
     9  C    0.002449   0.009317  -0.000123  -0.000010  -0.007290   0.000400
    10  O   -0.000020   0.000001   0.000000   0.000000  -0.000039   0.000000
    11  H   -0.000001   0.000001   0.000000   0.000000  -0.000001   0.000000
    12  C   -0.002838  -0.044053  -0.000049   0.000096  -0.065008   0.005281
    13  O    0.010390  -0.006486  -0.000161  -0.000002   0.023814  -0.001540
    14  C   -0.001913  -0.374722   0.003478  -0.000760  -0.527479   0.145705
    15  O    0.017494   0.051113  -0.000632   0.000024  -0.002284  -0.036256
    16  C   -0.136076  -2.187106  -0.000803   0.003361   0.347404  -0.008862
    17  C    0.089067   0.274111  -0.134580   0.017001  -0.265719  -0.005281
    18  O    0.200877  -0.082121   0.012485  -0.000483   0.005029   0.000181
    19  H    0.376192   0.031916  -0.001515   0.000012  -0.005475   0.000009
    20  C    0.031916   8.496482   0.239885   0.013402   0.217904  -0.008355
    21  O   -0.001515   0.239885   8.245628   0.189074   0.002975   0.000005
    22  H    0.000012   0.013402   0.189074   0.445134  -0.000561   0.000000
    23  C   -0.005475   0.217904   0.002975  -0.000561   7.395764  -0.263579
    24  O    0.000009  -0.008355   0.000005   0.000000  -0.263579   8.573769
    25  H    0.000000   0.000548   0.000000   0.000000   0.067520   0.192821
    26  C    0.007755   0.507303   0.029191  -0.001009  -1.308666   0.199811
    27  O   -0.000071  -0.146871   0.002032   0.000573  -0.049392   0.000436
    28  C   -0.003735  -1.010556  -0.067955  -0.018893  -0.276814   0.012929
    29  O    0.000007  -0.116791  -0.002923   0.011278  -0.019314   0.000016
    30  H    0.000000   0.000001   0.000000   0.000000   0.000004   0.000000
    31  H   -0.000009   0.000313   0.000000   0.000000   0.000001   0.000000
    32  H    0.000151   0.000720   0.000000   0.000000   0.000593   0.000001
    33  H    0.000002   0.000000   0.000000   0.000000   0.000087   0.000004
    34  H   -0.000001  -0.000040   0.000000   0.000000   0.001035   0.000085
    35  H   -0.000011   0.000503   0.000000   0.000000   0.012272   0.002535
    36  H    0.000375   0.010074   0.000001   0.000000   0.012446   0.000511
    37  H    0.000000   0.002693  -0.000011   0.000000   0.450466  -0.040580
    38  H    0.000000  -0.001413   0.000007   0.000000   0.526241  -0.089279
    39  H    0.000000  -0.007502   0.000676  -0.000705   0.000542  -0.000002
    40  H    0.000002  -0.150146   0.007294  -0.000323  -0.008368   0.000033
    41  H   -0.000043   0.358855  -0.050974  -0.005498   0.012425   0.000004
    42  H   -0.005605  -0.111117   0.003498  -0.000165   0.007370   0.000001
    43  H   -0.000212   0.001236  -0.000604   0.000003  -0.006561  -0.000895
    44  H    0.000016  -0.029237   0.000022   0.000003   0.003419   0.003717
    45  H    0.000226  -0.000464  -0.000002   0.000000   0.000042   0.000000
             25         26         27         28         29         30
     1  O    0.000000  -0.000305   0.000000  -0.000012   0.000000   0.240390
     2  C   -0.000058   0.012198  -0.000010   0.000887  -0.000008   0.049021
     3  C    0.000504  -0.015046   0.001032   0.004183   0.000029  -0.029034
     4  O   -0.000002   0.000247   0.000000  -0.000003   0.000000   0.000310
     5  H    0.000000  -0.000045   0.000000   0.000000   0.000000  -0.002162
     6  C   -0.005587  -0.187573   0.006205   0.006704  -0.000387   0.004086
     7  O    0.003138  -0.061455   0.000199  -0.002176  -0.000004  -0.000025
     8  H   -0.004787  -0.004153   0.000041   0.000146   0.000000   0.000000
     9  C   -0.000020  -0.048315  -0.000219  -0.002334  -0.000002  -0.003528
    10  O    0.000000   0.000030   0.000000   0.000003   0.000000  -0.001189
    11  H    0.000000  -0.000001   0.000000   0.000000   0.000000  -0.000067
    12  C   -0.000799   0.110984  -0.000037   0.009959   0.000121  -0.003739
    13  O    0.000015  -0.015555   0.000476   0.001137   0.000007  -0.001007
    14  C   -0.012992  -0.742066  -0.002693   0.172868   0.003614  -0.001853
    15  O    0.001467  -0.042606   0.009557   0.006989   0.000261  -0.000009
    16  C   -0.004263  -6.100786  -0.093582   1.553011   0.010009   0.000244
    17  C    0.000742   1.660936  -0.065037  -0.857058   0.015146  -0.000045
    18  O    0.000001   0.076298   0.001798  -0.001719  -0.000862   0.000000
    19  H    0.000000   0.007755  -0.000071  -0.003735   0.000007   0.000000
    20  C    0.000548   0.507303  -0.146871  -1.010556  -0.116791   0.000001
    21  O    0.000000   0.029191   0.002032  -0.067955  -0.002923   0.000000
    22  H    0.000000  -0.001009   0.000573  -0.018893   0.011278   0.000000
    23  C    0.067520  -1.308666  -0.049392  -0.276814  -0.019314   0.000004
    24  O    0.192821   0.199811   0.000436   0.012929   0.000016   0.000000
    25  H    0.415358  -0.022510  -0.000284  -0.002947   0.000003   0.000000
    26  C   -0.022510  13.432257   0.372600  -1.076398  -0.064276  -0.000001
    27  O   -0.000284   0.372600   8.419349   0.052167  -0.148029   0.000000
    28  C   -0.002947  -1.076398   0.052167   6.190586   0.419123   0.000000
    29  O    0.000003  -0.064276  -0.148029   0.419123   8.242440   0.000000
    30  H    0.000000  -0.000001   0.000000   0.000000   0.000000   0.390176
    31  H    0.000000  -0.000337   0.000000  -0.000031   0.000000   0.000109
    32  H    0.000000  -0.001378  -0.000001  -0.000086   0.000000  -0.000091
    33  H    0.000000  -0.000130   0.000000  -0.000007   0.000000  -0.010692
    34  H    0.000000  -0.000438   0.000000  -0.000013   0.000000   0.000203
    35  H   -0.000011  -0.013815  -0.000002  -0.000329   0.000000   0.000014
    36  H    0.000012   0.001303  -0.000049  -0.002296  -0.000005   0.000001
    37  H   -0.011792  -0.112403  -0.002562   0.001301  -0.000642   0.000000
    38  H   -0.001086  -0.149526   0.007120   0.007479  -0.000014   0.000000
    39  H    0.000000   0.000723   0.000149   0.007913   0.233378   0.000000
    40  H    0.000000  -0.106995  -0.047985   0.461461  -0.047821   0.000000
    41  H    0.000000  -0.089331   0.003405   0.023842  -0.005520   0.000000
    42  H    0.000000  -0.112938   0.004555   0.020119  -0.000326   0.000000
    43  H    0.000008  -0.157898   0.005453   0.008936  -0.000792   0.000000
    44  H   -0.000076   0.172838  -0.042622   0.039471  -0.001073   0.000000
    45  H    0.000000   0.000037   0.000000   0.000043   0.000000  -0.000028
             31         32         33         34         35         36
     1  O    0.000056   0.005685  -0.044221  -0.005426  -0.000412   0.000149
     2  C   -0.017556   0.002010   0.409518   0.094299   0.073938   0.029173
     3  C   -0.005627   0.006032  -0.043057   0.215171  -0.197256  -0.032480
     4  O   -0.000042  -0.000097  -0.000294  -0.040310   0.003575  -0.000482
     5  H    0.000000  -0.000015  -0.000842  -0.006558  -0.000023   0.000005
     6  C    0.023355  -0.061644  -0.032467  -0.154966   0.340850  -0.065875
     7  O    0.000005  -0.000451  -0.000217   0.003577  -0.044776  -0.003204
     8  H    0.000000   0.000007   0.000004   0.000022  -0.005800  -0.000687
     9  C    0.772203   0.010457  -0.004395   0.030420   0.011854   0.001241
    10  O   -0.083388   0.002862  -0.000334   0.000150   0.000011   0.000010
    11  H    0.001751   0.000010   0.000006   0.000001   0.000000   0.000000
    12  C   -0.404630   0.149365  -0.124473  -0.027643  -0.011658  -0.047420
    13  O    0.009523  -0.048588   0.008303   0.006305   0.010720  -0.064187
    14  C   -0.006628   0.157872   0.085512   0.103901   0.011579   0.379622
    15  O    0.000138   0.000270   0.000024  -0.000611  -0.012275  -0.066534
    16  C   -0.008854   0.008250   0.000843   0.008420   0.056699   0.036353
    17  C    0.002083   0.004732   0.000996   0.001202   0.007187   0.036608
    18  O   -0.000061   0.000054   0.000040   0.000023   0.000110  -0.001551
    19  H   -0.000009   0.000151   0.000002  -0.000001  -0.000011   0.000375
    20  C    0.000313   0.000720   0.000000  -0.000040   0.000503   0.010074
    21  O    0.000000   0.000000   0.000000   0.000000   0.000000   0.000001
    22  H    0.000000   0.000000   0.000000   0.000000   0.000000   0.000000
    23  C    0.000001   0.000593   0.000087   0.001035   0.012272   0.012446
    24  O    0.000000   0.000001   0.000004   0.000085   0.002535   0.000511
    25  H    0.000000   0.000000   0.000000   0.000000  -0.000011   0.000012
    26  C   -0.000337  -0.001378  -0.000130  -0.000438  -0.013815   0.001303
    27  O    0.000000  -0.000001   0.000000   0.000000  -0.000002  -0.000049
    28  C   -0.000031  -0.000086  -0.000007  -0.000013  -0.000329  -0.002296
    29  O    0.000000   0.000000   0.000000   0.000000   0.000000  -0.000005
    30  H    0.000109  -0.000091  -0.010692   0.000203   0.000014   0.000001
    31  H    0.614513   0.007866   0.003805  -0.000005   0.000000  -0.000002
    32  H    0.007866   0.617996   0.005682   0.003310   0.000113   0.006690
    33  H    0.003805   0.005682   0.593192   0.005530   0.002109  -0.000016
    34  H   -0.000005   0.003310   0.005530   0.608539   0.006659   0.001649
    35  H    0.000000   0.000113   0.002109   0.006659   0.588365   0.005132
    36  H   -0.000002   0.006690  -0.000016   0.001649   0.005132   0.623093
    37  H    0.000000   0.000000   0.000000   0.000000   0.000002   0.000003
    38  H    0.000000   0.000000   0.000000  -0.000001  -0.000032  -0.000008
    39  H    0.000000   0.000000   0.000000   0.000000   0.000000   0.000000
    40  H    0.000000   0.000000   0.000000   0.000000   0.000000   0.000000
    41  H    0.000000   0.000000   0.000000   0.000000   0.000000  -0.000039
    42  H    0.000000   0.000000   0.000000   0.000000  -0.000006  -0.000038
    43  H    0.000000  -0.000019   0.000000  -0.000004  -0.000008   0.013454
    44  H    0.000000   0.000000   0.000000   0.000000  -0.000008  -0.000008
    45  H   -0.044075  -0.010806   0.000003   0.000009   0.000001  -0.000003
             37         38         39         40         41         42
     1  O    0.000000   0.000000   0.000000   0.000000   0.000000   0.000000
     2  C    0.000022   0.000160   0.000000  -0.000005   0.000005   0.000173
     3  C   -0.000030   0.001279   0.000000   0.000024   0.000163   0.000288
     4  O    0.000000   0.000001   0.000000   0.000000   0.000000   0.000000
     5  H    0.000000   0.000000   0.000000   0.000000   0.000000   0.000000
     6  C    0.000746   0.004536   0.000000   0.000564   0.002395   0.009302
     7  O   -0.000973   0.002746   0.000000   0.000002   0.000016   0.000032
     8  H    0.000557   0.000687   0.000000   0.000000   0.000000   0.000002
     9  C   -0.000004   0.000021   0.000000   0.000003  -0.000015   0.000533
    10  O    0.000000   0.000000   0.000000   0.000000   0.000000   0.000000
    11  H    0.000000   0.000000   0.000000   0.000000   0.000000   0.000000
    12  C   -0.000152   0.001226   0.000000  -0.000029  -0.000230   0.000538
    13  O   -0.000002   0.000222   0.000000   0.000004   0.000397   0.001911
    14  C   -0.002121   0.011786   0.000426   0.005647   0.010830   0.048749
    15  O    0.000173   0.006286   0.000003   0.000052  -0.000963  -0.007378
    16  C    0.039864  -0.036384   0.002205   0.153282   0.197394   0.109719
    17  C   -0.001248  -0.014465   0.006774  -0.033759  -0.242138   0.288421
    18  O    0.000032  -0.000030  -0.000008  -0.000354   0.008520  -0.040800
    19  H    0.000000   0.000000   0.000000   0.000002  -0.000043  -0.005605
    20  C    0.002693  -0.001413  -0.007502  -0.150146   0.358855  -0.111117
    21  O   -0.000011   0.000007   0.000676   0.007294  -0.050974   0.003498
    22  H    0.000000   0.000000  -0.000705  -0.000323  -0.005498  -0.000165
    23  C    0.450466   0.526241   0.000542  -0.008368   0.012425   0.007370
    24  O   -0.040580  -0.089279  -0.000002   0.000033   0.000004   0.000001
    25  H   -0.011792  -0.001086   0.000000   0.000000   0.000000   0.000000
    26  C   -0.112403  -0.149526   0.000723  -0.106995  -0.089331  -0.112938
    27  O   -0.002562   0.007120   0.000149  -0.047985   0.003405   0.004555
    28  C    0.001301   0.007479   0.007913   0.461461   0.023842   0.020119
    29  O   -0.000642  -0.000014   0.233378  -0.047821  -0.005520  -0.000326
    30  H    0.000000   0.000000   0.000000   0.000000   0.000000   0.000000
    31  H    0.000000   0.000000   0.000000   0.000000   0.000000   0.000000
    32  H    0.000000   0.000000   0.000000   0.000000   0.000000   0.000000
    33  H    0.000000   0.000000   0.000000   0.000000   0.000000   0.000000
    34  H    0.000000  -0.000001   0.000000   0.000000   0.000000   0.000000
    35  H    0.000002  -0.000032   0.000000   0.000000   0.000000  -0.000006
    36  H    0.000003  -0.000008   0.000000   0.000000  -0.000039  -0.000038
    37  H    0.586936  -0.044679  -0.000002  -0.000033   0.000004   0.000005
    38  H   -0.044679   0.606551   0.000000  -0.000006  -0.000017   0.000008
    39  H   -0.000002   0.000000   0.412966  -0.007300   0.000094   0.000007
    40  H   -0.000033  -0.000006  -0.007300   0.631378   0.006159   0.004243
    41  H    0.000004  -0.000017   0.000094   0.006159   0.609622   0.007043
    42  H    0.000005   0.000008   0.000007   0.004243   0.007043   0.627499
    43  H    0.000063   0.006085   0.000003   0.000050   0.004294   0.006741
    44  H   -0.006059   0.006689   0.000055   0.006594   0.000072   0.003446
    45  H    0.000000   0.000000   0.000000   0.000000   0.000000   0.000000
             43         44         45
     1  O   -0.000003   0.000000   0.001354
     2  C   -0.000589  -0.000043   0.002099
     3  C    0.003593   0.000714  -0.009243
     4  O   -0.000002   0.000000   0.000042
     5  H    0.000000   0.000000   0.000000
     6  C    0.025172   0.003718   0.004187
     7  O   -0.000886   0.000078  -0.000008
     8  H    0.000218   0.000029   0.000000
     9  C    0.000472   0.000069   0.486932
    10  O    0.000001   0.000000  -0.046516
    11  H    0.000000   0.000000  -0.014711
    12  C    0.000594   0.000904  -0.122087
    13  O   -0.001318  -0.000112   0.002658
    14  C    0.031195   0.053972   0.005352
    15  O   -0.067751   0.004797  -0.000085
    16  C    0.381608   0.084785   0.006305
    17  C   -0.004321  -0.062729  -0.001905
    18  O   -0.002080  -0.000217  -0.000311
    19  H   -0.000212   0.000016   0.000226
    20  C    0.001236  -0.029237  -0.000464
    21  O   -0.000604   0.000022  -0.000002
    22  H    0.000003   0.000003   0.000000
    23  C   -0.006561   0.003419   0.000042
    24  O   -0.000895   0.003717   0.000000
    25  H    0.000008  -0.000076   0.000000
    26  C   -0.157898   0.172838   0.000037
    27  O    0.005453  -0.042622   0.000000
    28  C    0.008936   0.039471   0.000043
    29  O   -0.000792  -0.001073   0.000000
    30  H    0.000000   0.000000  -0.000028
    31  H    0.000000   0.000000  -0.044075
    32  H   -0.000019   0.000000  -0.010806
    33  H    0.000000   0.000000   0.000003
    34  H   -0.000004   0.000000   0.000009
    35  H   -0.000008  -0.000008   0.000001
    36  H    0.013454  -0.000008  -0.000003
    37  H    0.000063  -0.006059   0.000000
    38  H    0.006085   0.006689   0.000000
    39  H    0.000003   0.000055   0.000000
    40  H    0.000050   0.006594   0.000000
    41  H    0.004294   0.000072   0.000000
    42  H    0.006741   0.003446   0.000000
    43  H    0.634198   0.007257   0.000000
    44  H    0.007257   0.612983   0.000000
    45  H    0.000000   0.000000   0.611544
 Mulliken atomic charges:
              1
     1  O   -0.528272
     2  C   -0.120190
     3  C    0.059094
     4  O   -0.508641
     5  H    0.346746
     6  C   -0.048404
     7  O   -0.598042
     8  H    0.463220
     9  C   -0.243801
    10  O   -0.561715
    11  H    0.371233
    12  C    0.468836
    13  O   -0.420654
    14  C    0.171372
    15  O   -0.316788
    16  C    0.067947
    17  C   -0.093855
    18  O   -0.494691
    19  H    0.401797
    20  C   -0.072080
    21  O   -0.474667
    22  H    0.348536
    23  C    0.023312
    24  O   -0.618468
    25  H    0.385075
    26  C   -0.148556
    27  O   -0.287702
    28  C    0.322109
    29  O   -0.526642
    30  H    0.368912
    31  H    0.135525
    32  H    0.132446
    33  H    0.145484
    34  H    0.145510
    35  H    0.152196
    36  H    0.126982
    37  H    0.140429
    38  H    0.147809
    39  H    0.349607
    40  H    0.126333
    41  H    0.149231
    42  H    0.134172
    43  H    0.113310
    44  H    0.136534
    45  H    0.129412
 Sum of Mulliken atomic charges =   0.00000
 Mulliken charges with hydrogens summed into heavy atoms:
              1
     1  O   -0.159361
     2  C    0.025294
     3  C    0.204603
     4  O   -0.161896
     6  C    0.103792
     7  O   -0.134822
     9  C    0.021136
    10  O   -0.190482
    12  C    0.601283
    13  O   -0.420654
    14  C    0.298354
    15  O   -0.316788
    16  C    0.181257
    17  C    0.040318
    18  O   -0.092894
    20  C    0.077151
    21  O   -0.126131
    23  C    0.311549
    24  O   -0.233393
    26  C   -0.012023
    27  O   -0.287702
    28  C    0.448442
    29  O   -0.177035
 Sum of Mulliken charges with hydrogens summed into heavy atoms =   0.00000
 APT atomic charges:
              1
     1  O   -0.630607
     2  C    0.379847
     3  C    0.426203
     4  O   -0.635340
     5  H    0.249665
     6  C    0.386066
     7  O   -0.811508
     8  H    0.493864
     9  C    0.471897
    10  O   -0.640076
    11  H    0.261025
    12  C    0.478546
    13  O   -0.888847
    14  C    0.960095
    15  O   -0.857252
    16  C    0.432858
    17  C    0.384216
    18  O   -0.670899
    19  H    0.355975
    20  C    0.367388
    21  O   -0.574869
    22  H    0.247382
    23  C    0.438510
    24  O   -0.666543
    25  H    0.264487
    26  C    0.410231
    27  O   -0.694915
    28  C    0.857850
    29  O   -0.657057
    30  H    0.264613
    31  H   -0.053065
    32  H   -0.053387
    33  H   -0.035391
    34  H   -0.045530
    35  H   -0.023526
    36  H   -0.054395
    37  H   -0.040279
    38  H   -0.032205
    39  H    0.258331
    40  H   -0.072370
    41  H   -0.040348
    42  H   -0.063056
    43  H   -0.036617
    44  H   -0.059271
    45  H   -0.051699
 Sum of APT charges=   0.00000
 APT Atomic charges with hydrogens summed into heavy atoms:
[...]
 9427,-0.00000405,0.00001750,0.00001885,0.00004965,0.00005220,0.0001413
 5,-0.00000991,0.00031553,-0.00025959,0.00006561,-0.00032918,-0.0001326
 6,0.00152267,0.00004846,-0.00049095,-0.01065014,0.00082675,0.00005041,
 -0.34792189,0.01557637,-0.03975138,-0.00392314,-0.00880303,-0.01017221
 ,0.00009514,-0.00070595,0.00065493,-0.01808670,0.00329517,-0.00023030,
 0.00193759,-0.00054190,-0.00012624,0.00003226,0.00002789,-0.00008601,0
 .00039077,0.00030860,0.00024400,0.00005607,0.00001402,0.00005441,-0.00
 000749,0.00000164,-0.00001400,-0.00073943,-0.00052382,-0.00068960,0.00
 058612,0.00027669,0.00023821,-0.00146679,-0.00136554,-0.00178910,0.000
 75751,0.00000280,0.00018512,-0.00000777,-0.00000197,0.00000893,-0.0000
 0054,-0.00000415,0.00000213,-0.00000028,-0.00001137,-0.00000079,0.0000
 0500,-0.00000132,-0.00000896,0.00000965,0.00000009,0.00000224,0.000002
 09,0.00002338,-0.00003452,0.00008298,-0.00001342,0.00021294,-0.0000135
 9,0.00012235,-0.00001159,0.00010349,-0.00028302,0.00004439,-0.00005701
 ,0.00010347,0.00017834,0.00101461,0.00075328,0.00072647,-0.00060765,-0
 .00042246,0.00259556,0.37583181,0.00000026,0.00003469,-0.00004458,-0.0
 0003394,-0.00004154,0.00001814,0.00000223,-0.00002203,-0.00001292,0.00
 000201,0.00004324,-0.00000258,0.00000408,-0.00001234,0.00000387,-0.000
 14086,-0.00004420,-0.00004240,-0.00005801,0.00008420,0.00010560,0.0000
 3186,0.00002316,-0.00006720,-0.00003426,-0.00002437,0.00011423,-0.0000
 0409,-0.00002418,-0.00009352,-0.00000262,0.00001553,0.00001970,0.00007
 516,0.00008143,0.00010164,-0.00000424,0.00052259,-0.00024860,0.0001478
 8,-0.00030155,-0.00016628,-0.00179240,0.00184185,-0.00128661,0.0340351
 8,-0.00370876,0.00428461,0.01488134,-0.04113836,0.00609324,-0.03000269
 ,-0.00953758,-0.01637063,-0.00061374,0.00028042,0.00115400,-0.00821107
 ,0.00159093,0.00022228,0.00042468,0.00100980,-0.00084059,0.00015801,0.
 00009662,-0.00006019,0.00006405,-0.00009831,0.00009403,-0.00009570,-0.
 00005587,0.00006211,0.00000146,0.00001452,0.00000017,0.00117630,0.0023
 5255,0.00125994,-0.00032855,-0.00009155,-0.00034989,0.00084883,-0.0002
 9224,-0.00090696,0.00002793,-0.00009547,0.00011025,-0.00000370,-0.0000
 0275,0.00000414,-0.00000355,0.00000414,0.00000147,-0.00001984,-0.00001
 732,-0.00001021,-0.00000158,0.00000010,0.00000033,0.00000010,0.0000016
 9,-0.00000213,-0.00001125,-0.00001883,0.00003116,-0.00024930,-0.000017
 50,-0.00011098,-0.00011921,-0.00004465,-0.00003544,-0.00027916,0.00006
 376,-0.00010640,0.00000908,0.00004522,0.00001236,0.00015654,0.00019658
 ,-0.00008387,-0.00069338,-0.00003831,0.00103258,-0.01049563,0.05309400
 ,0.00000876,0.00002165,-0.00004716,-0.00004551,-0.00002098,0.00002594,
 -0.00000754,-0.00004900,0.00002169,0.00001970,0.00004145,-0.00001965,-
 0.00000295,-0.00000880,0.00000472,0.00001912,-0.00001671,0.00004804,0.
 00004935,0.00006699,0.00000535,-0.00004619,-0.00001707,-0.00001024,-0.
 00005912,-0.00001957,0.00009964,0.00001056,-0.00002394,-0.00008307,-0.
 00000499,0.00001388,0.00001928,0.00003873,0.00006671,0.00008807,0.0001
 1708,0.00035500,-0.00030961,-0.00035091,-0.00050921,-0.00047712,0.0006
 2138,-0.00139060,0.00163731,-0.01450193,0.00367540,-0.00018144,-0.0404
 8793,0.00744333,-0.04816333,-0.02664325,-0.01357566,-0.01178165,-0.001
 34752,-0.00004307,0.00096709,0.03263012,-0.00280048,0.00220966,-0.0021
 0202,-0.00064562,0.00153696,-0.00019004,-0.00032050,0.00022873,0.00012
 756,0.00019689,0.00014894,0.00003023,0.00000125,0.00000318,0.00000352,
 -0.00000930,-0.00000630,0.00027549,-0.00055872,-0.00054702,-0.00017880
 ,-0.00036558,-0.00029106,0.00210741,0.00083808,0.00140958,-0.00045460,
 0.00004989,0.00000823,-0.00000711,-0.00000208,0.00000301,0.00000981,-0
 .00000509,-0.00000461,0.00000533,-0.00001317,0.00000766,0.00000599,-0.
 00000188,-0.00001086,0.00000897,0.00000012,0.00000289,0.00001726,0.000
 02921,-0.00002812,0.00019003,0.00001069,0.00004174,0.00003701,0.000112
 92,0.00000947,0.00008416,-0.00012414,0.00000882,-0.00006233,-0.0000696
 3,-0.00003761,-0.00049656,-0.00026473,-0.00018466,0.00277929,0.0011551
 5,-0.00509836,0.04816467,0.00458019,0.05883534,0.00001763,0.00000063,0
 .00004191,0.00000216,0.00000175,-0.00003851,0.00006490,-0.00007275,-0.
 00000428,0.00001715,-0.00000502,0.00001575,-0.00001751,0.00000574,-0.0
 0000104,0.00077540,0.00001390,-0.00013017,0.00025146,-0.00010024,-0.00
 014206,-0.00023991,-0.00002715,0.00010048,-0.00002343,-0.00006036,0.00
 003627,0.00003588,0.00003905,0.00001304,-0.00001585,0.00000209,0.00001
 019,-0.00009335,0.00012094,-0.00000028,0.00026527,0.00015919,0.0002967
 6,0.00023440,-0.00027664,-0.00586680,-0.02092605,-0.00440510,0.0132491
 4,-0.34257160,-0.00600727,-0.05192286,-0.01290006,0.00080498,-0.005200
 04,0.00215906,-0.00103837,0.00102705,-0.00029741,0.00001756,-0.0000018
 6,-0.00066334,-0.00019687,0.00119331,0.00052367,-0.00043204,0.00015417
 ,0.00001357,0.00006775,-0.00007386,0.00031094,0.00088636,0.00051719,0.
 00026821,0.00014037,-0.00017598,0.00003483,-0.00004298,-0.00002259,-0.
 00811030,-0.00085503,-0.00273117,0.00182556,0.00062878,-0.00033205,0.0
 0006912,-0.00026513,0.00008536,0.00006883,0.00003605,-0.00006624,-0.00
 000214,-0.00000348,-0.00000354,0.00001576,-0.00000289,-0.00000682,0.00
 003773,-0.00000449,0.00003674,0.00001024,-0.00000157,-0.00001297,0.000
 01986,0.00000181,0.00003914,0.00005697,0.00027271,-0.00037342,0.001993
 20,0.00037371,0.00124054,0.00038090,0.00005974,0.00008351,0.00067541,-
 0.00079410,0.00019735,-0.00000642,0.00000610,-0.00000307,0.00000996,0.
 00004523,0.00022243,0.00119641,-0.00022510,-0.00034627,0.00026198,0.00
 166043,-0.00075411,0.37369655,0.00000234,-0.00002091,0.00003461,0.0000
 0424,0.00003746,-0.00001990,0.00003075,0.00002493,-0.00001630,0.000000
 33,-0.00003470,0.00000018,-0.00000192,0.00000852,-0.00000395,-0.000137
 54,0.00015405,0.00001831,0.00018952,-0.00009517,-0.00025648,-0.0001468
 6,-0.00010191,0.00008714,0.00001717,-0.00002410,-0.00001916,-0.0000007
 1,0.00002752,0.00003310,0.00000188,-0.00000618,-0.00000351,-0.00003394
 ,0.00001759,-0.00005074,0.00027347,-0.00007419,0.00021898,-0.00075876,
 0.00110893,-0.00112525,-0.01142667,0.00125999,0.00467385,-0.00558994,-
 0.04341598,-0.00255580,0.03454727,-0.00357401,0.00944657,-0.00189853,0
 .00368058,0.00000182,0.00025708,-0.00022752,-0.00019977,0.00215792,0.0
 0069560,-0.00092281,-0.00069205,-0.00005483,-0.00019989,-0.00004010,0.
 00001770,0.00000001,-0.00255896,0.00154747,-0.00005778,0.00048889,0.00
 000222,-0.00012509,-0.00003854,-0.00006689,-0.00000995,-0.02745414,-0.
 00371844,-0.00811577,0.00144751,0.00130280,0.00213902,0.00018327,-0.00
 037992,-0.00006266,-0.00002112,0.00006463,0.00001259,0.00000213,0.0000
 0030,-0.00000292,-0.00000690,-0.00000185,0.00000139,-0.00000429,0.0000
 2180,0.00000322,-0.00000010,-0.00000591,0.00000108,0.00000626,0.000005
 10,0.00001861,0.00006969,-0.00000085,-0.00003436,0.00049110,0.00026700
 ,0.00007728,0.00032495,0.00029170,0.00013775,0.00087900,-0.00031782,0.
 00045961,-0.00001753,0.00001062,-0.00000619,-0.00014170,-0.00016099,-0
 .00003827,-0.00086042,-0.00015333,0.00058660,0.00120123,-0.00536507,0.
 00210821,0.01001376,0.05036326,-0.00000669,-0.00001167,-0.00001162,0.0
 0001059,0.00001158,0.00001373,-0.00003556,0.00002798,0.00003329,-0.000
 01724,-0.00000799,-0.00000108,-0.00000200,-0.00000150,-0.00000116,0.00
 021384,0.00022807,-0.00028307,-0.00024472,-0.00000163,0.00001529,0.000
 11471,-0.00008420,-0.00004040,-0.00004299,0.00002382,-0.00003004,0.000
 00166,-0.00001454,0.00000599,-0.00000052,-0.00000226,-0.00000330,-0.00
 000413,-0.00008967,-0.00014428,-0.00094954,-0.00010979,-0.00014271,0.0
 0924825,0.00076286,0.00138550,0.03817200,0.00642770,-0.01737348,-0.059
 48545,-0.00321751,-0.04815142,-0.01176929,0.00016105,-0.00120052,0.001
 43360,-0.00039320,0.00061458,0.00007835,0.00015964,-0.00000312,-0.0017
 4400,0.00071104,0.00002361,0.00043960,-0.00015331,0.00000766,-0.000059
 83,0.00001188,-0.00003762,-0.00045323,0.00155652,0.00051965,0.00023523
 ,0.00004834,0.00004665,-0.00002460,0.00001415,0.00003490,-0.02523153,-
 0.00383190,-0.00568385,0.00097137,0.00040519,0.00242859,-0.00041717,0.
 00010747,-0.00034320,0.00002808,0.00000552,-0.00014473,0.00000177,0.00
 000249,0.00000108,0.00000205,0.00001203,0.00000218,-0.00003799,-0.0000
 1835,-0.00006062,-0.00000660,0.00000606,0.00001278,-0.00003570,-0.0000
 0209,-0.00006022,-0.00032942,-0.00009220,-0.00000695,-0.00119477,0.000
 40888,-0.00053972,0.00016862,0.00026182,0.00000436,0.00066210,-0.00027
 043,0.00040818,0.00001447,0.00000991,-0.00000620,0.00029070,-0.0000043
 0,0.00016775,0.00041069,0.00072574,-0.00049868,-0.00017353,0.00192328,
 -0.00044711,0.05008807,-0.00257139,0.07271789,0.00000421,-0.00000323,-
 0.00002695,-0.00001248,0.00000775,0.00001747,0.00000400,-0.00000417,0.
 00003053,0.00002051,0.00001757,-0.00003901,-0.00000344,0.00000087,0.00
 000174,-0.00008390,-0.00002870,-0.00001728,0.00010265,0.00004910,-0.00
 006417,-0.00012788,-0.00005682,0.00001638,-0.00001479,0.00001554,0.000
 00438,0.00000622,-0.00001857,-0.00001452,-0.00000427,0.00000402,0.0000
 0176,0.00000551,-0.00000630,0.00003706,0.00003032,-0.00006854,-0.00011
 972,0.00025942,0.00010700,-0.00013329,0.00063538,-0.00008988,-0.001188
 44,-0.00750832,-0.00082520,-0.00311460,-0.00032031,0.00088067,0.000100
 61,0.00052789,0.00003168,0.00001038,-0.00010039,0.00003638,-0.00006399
 ,0.00030643,0.00006851,0.00024169,0.00004970,-0.00036387,-0.00002841,-
 0.00000846,0.00005840,-0.00002230,-0.01204944,0.00073557,-0.00386224,0
 .00168284,0.00029412,-0.00042025,0.00006583,-0.00010753,-0.00007214,-0
 .33681185,-0.00886972,-0.06536107,-0.02020027,-0.00571870,0.01353022,-
 0.00020168,0.00270291,-0.00173648,0.00074007,0.00005002,0.00017627,-0.
 00000463,0.00000017,0.00000318,0.00000675,-0.00000272,-0.00000233,0.00
 000606,-0.00000225,-0.00000032,0.00000485,-0.00000292,-0.00000596,0.00
 000770,0.00000230,0.00000521,0.00001373,-0.00000330,-0.00003199,0.0000
 8156,-0.00000039,0.00018072,0.00045634,0.00017177,0.00032017,0.0001374
 6,0.00178941,0.00039790,-0.00001559,-0.00013986,0.00014507,0.00074014,
 -0.00142228,0.00079613,0.00013686,0.00027517,-0.00004434,0.00068054,-0
 .00055504,0.00033841,0.00056774,-0.00075569,-0.00031495,0.37018688,-0.
 00000333,0.00000328,-0.00001894,-0.00000219,-0.00000624,0.00001662,0.0
 0000425,0.00001975,0.00003238,-0.00000677,0.00001850,-0.00002588,0.000
 00341,-0.00000105,-0.00000262,0.00011311,-0.00020441,-0.00010255,-0.00
 012470,0.00014109,0.00014715,0.00017791,0.00000203,-0.00012551,-0.0000
 0092,0.00001343,0.00000347,-0.00000362,-0.00001422,-0.00001171,0.00000
 040,0.00000210,-0.00000058,0.00002348,0.00000863,0.00006076,0.00005202
 ,-0.00002898,-0.00006633,-0.00002511,0.00018261,-0.00004316,0.00086197
 ,0.00043903,0.00070509,-0.02661728,-0.00223048,-0.00820173,-0.00172332
 ,0.00129648,-0.00044064,0.00071735,-0.00010166,0.00029828,-0.00006529,
 0.00009127,-0.00004709,0.00007796,-0.00029792,-0.00000411,0.00006616,-
 0.00012302,0.00002997,-0.00001611,-0.00000500,-0.00000371,0.03552928,-
 0.00067267,0.00833863,-0.00253370,0.00224328,-0.00090680,0.00011078,0.
 00039335,-0.00031459,-0.00702177,-0.04727891,-0.00385905,-0.01048387,0
 .00007193,0.00516421,-0.00357299,0.00123544,-0.00012815,0.00030676,-0.
 00013576,0.00008308,-0.00000103,0.00000105,0.00000212,0.00000182,-0.00
 000079,-0.00000169,0.00000192,0.00000086,0.00000132,-0.00000022,0.0000
 0176,-0.00000183,-0.00000363,-0.00000586,-0.00000755,-0.00002292,0.000
 04420,-0.00000491,0.00018063,-0.00005349,0.00005753,-0.00064558,0.0011
 9444,-0.00041610,0.00218555,-0.00583802,0.00178288,0.00005523,-0.00000
 017,0.00005212,0.00043005,0.00025600,0.00001355,0.00026582,0.00008628,
 -0.00000217,0.00052893,-0.00045011,0.00004426,-0.00056136,-0.00309038,
 -0.00312550,0.01174236,0.05278905,0.00000056,-0.00000972,-0.00003468,-
 0.00001168,0.00001409,0.00001800,0.00000207,-0.00002383,0.00004397,0.0
 0002151,0.00001742,-0.00004099,-0.00000438,-0.00000016,0.00000327,0.00
 008237,0.00001662,0.00002174,0.00011150,0.00003605,-0.00008579,-0.0001
 6570,-0.00006116,-0.00000002,-0.00000080,0.00001405,0.00002114,0.00000
 103,-0.00002063,-0.00002199,-0.00000226,0.00000581,0.00000241,0.000002
 04,0.00004739,0.00009119,0.00017505,-0.00006837,-0.00002424,-0.0004523
 6,0.00035246,-0.00008315,0.00128117,0.00042090,0.00197659,-0.02805221,
 -0.00358439,-0.00464676,-0.00064643,0.00161190,0.00010095,0.00068052,-
 0.00025516,0.00006287,-0.00012927,0.00006320,-0.00000942,-0.00031898,0
 .00028361,-0.00040137,0.00000333,0.00019727,0.00028654,-0.00002786,-0.
 00009109,0.00000585,-0.01037099,-0.00042464,-0.00084224,0.00065121,-0.
 00061363,0.00048385,0.00007068,-0.00009938,0.00001002,-0.06864280,-0.0
 0278882,-0.05473655,0.04247620,0.00899346,-0.00932103,0.00425766,-0.00
 319599,0.00208265,-0.00046444,-0.00029271,-0.00029481,-0.00000394,0.00
 000198,0.00000479,0.00000513,-0.00000306,-0.00000238,0.00001052,0.0000
 0229,0.00000352,0.00000410,-0.00000265,-0.00000652,0.00000804,0.000001
 57,0.00000587,0.00001317,0.00002162,-0.00007188,0.00033898,-0.00001100
 ,0.00003929,0.00048566,0.00009576,0.00045375,-0.00055163,0.00218641,-0
 .00010766,-0.00018072,0.00020015,-0.00006934,-0.00106219,-0.00003704,0
 .00010489,-0.00002891,0.00000789,-0.00023076,0.00053584,-0.00038225,0.
 00036553,-0.00043207,-0.00366189,-0.00322883,0.06033093,0.00102972,0.0
 6807318,-0.00002325,-0.00011990,0.00010842,0.00096424,0.00100469,0.000
 14744,0.00043549,0.00012458,-0.00000631,-0.00005315,0.00007591,-0.0000
 1718,-0.00001473,0.00004166,-0.00000618,-0.00001183,0.00008203,0.00017
 438,-0.00000090,-0.00001679,-0.00013301,0.00002304,0.00001560,0.000066
 95,-0.12847209,-0.08126562,0.11234201,0.00946675,0.00462357,-0.0170713
 0,0.00241381,0.00147182,0.00043485,0.00410325,0.00659126,-0.00364213,0
 .00009247,-0.00056149,-0.00074398,0.00001037,0.00011018,-0.00008753,-0
 .00006818,-0.00001297,-0.00027749,-0.00002585,-0.00007001,0.00018810,-
 0.00006775,-0.00026833,-0.00024027,0.00007168,0.00044211,0.00035784,-0
 .00022426,-0.00051558,-0.00029030,0.00003633,0.00001388,0.00002832,0.0
 0000758,0.00004004,0.00001478,-0.00000417,0.00000524,-0.00000358,-0.00
 001079,-0.00002513,0.00005886,-0.00000430,0.00002286,-0.00006929,0.000
 00399,-0.00000223,0.00000703,-0.00000866,0.00001724,-0.00002374,-0.000
 00535,0.00005977,-0.00002992,-0.00000267,-0.00010059,-0.00001866,-0.00
 000674,0.00003552,0.00003560,-0.00008086,0.00007763,-0.00015508,-0.014
 09671,-0.01866360,0.02401759,0.00107734,-0.00030682,-0.00100123,0.0003
 0048,0.00042016,-0.00021506,-0.00002083,-0.00009913,-0.00005694,0.0000
 0835,0.00000076,-0.00000154,-0.00002481,-0.00000953,-0.00000077,-0.000
 00066,0.00001096,-0.00000619,-0.00000085,0.00000268,-0.00000058,-0.000
 00215,-0.00000283,-0.00000614,-0.00000089,0.00000605,0.00000236,-0.000
 00560,-0.00000093,-0.00000718,0.00003635,0.00004639,0.00004348,0.00000
 663,-0.00000337,-0.00000430,0.00000011,-0.00000146,0.00000035,0.124179
 75,0.00002274,0.00050885,-0.00025310,0.00165172,-0.00652147,-0.0044327
 2,-0.00095295,0.00041372,0.00193144,-0.00004582,-0.00167818,0.00019492
 ,-0.00007507,0.00015477,-0.00018984,-0.00008099,0.00023314,0.00058568,
 0.00002084,-0.00002123,-0.00040053,0.00005351,0.00000744,0.00014002,-0
 .07851405,-0.12643841,0.11785134,0.00316117,0.00324572,-0.02148660,0.0
 0058277,0.00288186,-0.00202820,-0.01866756,-0.02649246,0.02573681,0.00
 102313,0.00299066,0.00039078,0.00018595,-0.00048766,-0.00015449,0.0000
 7119,0.00012887,-0.00015853,-0.00007612,-0.00001856,0.00007571,-0.0000
 2523,-0.00021307,-0.00020187,0.00019245,0.00022526,0.00027982,-0.00032
 737,-0.00017795,-0.00019146,-0.00000499,0.00003244,0.00000049,0.000023
 56,0.00000416,0.00002472,-0.00000952,0.00000674,-0.00000693,-0.0000369
 0,-0.00005468,0.00007176,-0.00001000,0.00003987,-0.00013151,0.00000338
 ,-0.00000125,0.00001756,-0.00000317,-0.00001522,-0.00002246,0.00000360
 ,0.00005381,-0.00001073,-0.00000238,-0.00007787,-0.00002592,-0.0000039
 9,0.00002663,0.00003389,0.00004563,-0.00017170,-0.00011786,0.00455638,
 0.00554629,-0.00687771,0.00030278,0.00126648,0.00045120,0.00000499,0.0
 0023583,-0.00019854,0.00013663,-0.00008243,-0.00007659,-0.00000549,-0.
 00002098,-0.00004461,0.00001642,-0.00004960,-0.00001407,0.00000374,0.0
 0001398,-0.00000975,0.00000551,0.00000143,0.00000117,-0.00000189,-0.00
 000117,-0.00000620,0.00000271,0.00000678,0.00000384,0.00000612,-0.0000
 0970,-0.00001080,0.00003918,0.00004588,0.00004427,0.00001935,-0.000018
 83,-0.00000962,0.00000438,0.00000331,0.00000596,0.08670369,0.14447850,
 0.00014920,0.00044420,0.00024365,-0.00080682,-0.00088718,-0.00043397,0
 .00017673,-0.00006461,0.00013277,-0.00001153,-0.00010928,0.00007030,-0
 .00000952,-0.00003221,-0.00002374,0.00000826,-0.00004430,-0.00003143,-
 0.00001420,0.00001819,0.00003137,-0.00000590,0.00000278,-0.00001573,0.
 10625913,0.11361859,-0.18654740,0.00863895,0.00205016,-0.04893045,0.00
 012450,0.00081074,0.00104663,0.00005453,-0.00272380,0.00281095,0.00031
 130,-0.00025191,0.00127198,0.00002599,-0.00009972,0.00007923,-0.000000
 46,0.00001558,0.00011515,0.00003433,0.00002938,-0.00004461,0.00000913,
 0.00004565,0.00002383,-0.00003474,-0.00011806,-0.00004607,0.00002288,0
 .00011170,-0.00001722,0.00000120,0.00000677,-0.00001115,-0.00001098,-0
 .00002215,-0.00000123,0.00000539,0.00000165,0.00000426,0.00000868,0.00
 001013,-0.00001465,-0.00000419,-0.00001091,0.00001875,0.00000101,0.000
 00268,-0.00000204,0.00000157,-0.00000188,0.00000324,-0.00000159,-0.000
 02009,0.00000888,0.00000181,0.00002660,0.00000832,0.00000044,-0.000011
 39,-0.00000923,-0.00008646,-0.00030917,-0.00001792,-0.00050300,-0.0014
 0478,0.00433687,-0.00038240,-0.00025811,0.00069995,0.00000696,-0.00001
 457,0.00000159,-0.00000628,-0.00004432,-0.00001732,-0.00001221,0.00000
 367,0.00000580,-0.00002118,0.00001707,-0.00001330,-0.00000075,-0.00000
 261,0.00000103,-0.00000124,-0.00000025,-0.00000032,0.00000049,0.000002
 00,0.00000268,-0.00000116,-0.00000186,-0.00000139,-0.00000020,0.000001
 84,0.00000200,-0.00000740,-0.00000510,-0.00000790,-0.00000634,-0.00000
 011,0.00000029,-0.00000147,-0.00000022,-0.00000144,-0.11391248,-0.1107
 8076,0.22526901\\-0.00080340,-0.01676410,-0.00489252,0.01980530,-0.001
 83471,-0.01481219,-0.00877107,-0.01689535,0.01467372,0.00673995,0.0060
 5337,0.02151697,-0.00831522,-0.00769203,-0.02665606,0.00379092,-0.0208
 9507,-0.02981803,0.01606165,-0.01500777,0.01550854,-0.01079067,0.02204
 360,0.01911112,-0.01117697,0.04919965,-0.02702480,0.01776153,-0.004106
 57,0.02330256,-0.01012275,-0.03461414,-0.00904440,0.00546827,0.0035926
 3,0.03204965,-0.00374995,0.01157733,0.00339668,-0.03431322,0.00260873,
 0.00210116,0.00599077,0.00951436,0.00464299,0.01125183,0.01235027,0.00
 267314,0.00327428,0.01915000,0.02329410,-0.00496018,-0.00704060,0.0124
 5614,0.00848780,-0.00271520,-0.02444478,0.01134112,0.01421841,0.010138
 68,-0.00448602,-0.01525835,-0.04125495,-0.00872361,0.00177705,0.025846
 08,0.01577148,-0.00984459,-0.01161709,-0.00294695,-0.02041848,-0.00142
 956,-0.01035358,0.02862322,0.00122590,-0.01909469,-0.01261990,0.023446
 38,-0.01982770,-0.00846394,0.04596787,0.04667790,-0.02920611,-0.030894
 83,-0.00984799,0.04228599,-0.00226719,-0.00178971,0.00394746,0.0025750
 6,-0.02158724,0.00385783,-0.00750000,0.02038800,-0.00678768,-0.0015942
 8,-0.01788823,0.00225112,0.00095003,0.02157318,-0.00054100,0.00061789,
 -0.02042239,0.00178064,0.00101215,0.01805314,0.00134508,-0.00504104,0.
 00118555,-0.00790944,-0.01727390,0.02061047,0.00146528,0.00369242,-0.0
 0321967,0.00033151,-0.00480924,-0.01967016,-0.00144216,-0.00476406,0.0
 2076355,-0.00600878,0.00111506,-0.02288283,0.00089614,-0.00272569,0.02
 105569,0.00126562,0.00088597,-0.02328074,-0.00239337,-0.00386391,0.002
 97255,0.00832400,-0.02047175\\\@


 WHEN IT COMES TO CASH FLOW, IT SEEMS LIKE THE TIDE IS ALWAYS GOING OUT.
 Job cpu time:  0 days 13 hours 25 minutes 50.1 seconds.
 File lengths (MBytes):  RWF=   1326 Int=      0 D2E=      0 Chk=     19 Scr=      1
 Normal termination of Gaussian 09 at Tue Mar  1 16:43:06 2016.
Gaussian '09 finished on node006 at Tue Mar  1 16:43:06 EST 2016.
