Gaussian '09 started on node031 at Tue Mar  1 03:31:28 EST 2016.
 Entering Gaussian System, Link 0=/usr/local/gaussian/g09/g09
 Initial command:
 /usr/local/gaussian/g09/l1.exe /home/srmcgrat/thesis/gaussian/cellobiose/500/7000/2/gdp/gaussian10883/Gau-10919.inp -scrdir=/home/srmcgrat/thesis/gaussian/cellobiose/500/7000/2/gdp/gaussian10883/
 Entering Link 1 = /usr/local/gaussian/g09/l1.exe PID=     10921.
  
 Copyright (c) 1988,1990,1992,1993,1995,1998,2003,2009,2010,
            Gaussian, Inc.  All Rights Reserved.
  
 This is part of the Gaussian(R) 09 program.  It is based on
 the Gaussian(R) 03 system (copyright 2003, Gaussian, Inc.),
 the Gaussian(R) 98 system (copyright 1998, Gaussian, Inc.),
 the Gaussian(R) 94 system (copyright 1995, Gaussian, Inc.),
 the Gaussian 92(TM) system (copyright 1992, Gaussian, Inc.),
 the Gaussian 90(TM) system (copyright 1990, Gaussian, Inc.),
 the Gaussian 88(TM) system (copyright 1988, Gaussian, Inc.),
 the Gaussian 86(TM) system (copyright 1986, Carnegie Mellon
 University), and the Gaussian 82(TM) system (copyright 1983,
 Carnegie Mellon University). Gaussian is a federally registered
 trademark of Gaussian, Inc.
  
 This software contains proprietary and confidential information,
 including trade secrets, belonging to Gaussian, Inc.
  
 This software is provided under written license and may be
 used, copied, transmitted, or stored only in accord with that
 written license.
  
 The following legend is applicable only to US Government
 contracts under FAR:
  
                    RESTRICTED RIGHTS LEGEND
  
 Use, reproduction and disclosure by the US Government is
 subject to restrictions as set forth in subparagraphs (a)
 and (c) of the Commercial Computer Software - Restricted
 Rights clause in FAR 52.227-19.
  
 Gaussian, Inc.
 340 Quinnipiac St., Bldg. 40, Wallingford CT 06492
  
  
 ---------------------------------------------------------------
 Warning -- This program may not be used in any manner that
 competes with the business of Gaussian, Inc. or will provide
 assistance to any competitor of Gaussian, Inc.  The licensee
 of this program is prohibited from giving any competitor of
 Gaussian, Inc. access to this program.  By using this program,
 the user acknowledges that Gaussian, Inc. is engaged in the
 business of creating and licensing software in the field of
 computational chemistry and represents and warrants to the
 licensee that it is not a competitor of Gaussian, Inc. and that
 it will not use this program in any manner prohibited above.
 ---------------------------------------------------------------
  

 Cite this work as:
 Gaussian 09, Revision B.01,
 M. J. Frisch, G. W. Trucks, H. B. Schlegel, G. E. Scuseria, 
 M. A. Robb, J. R. Cheeseman, G. Scalmani, V. Barone, B. Mennucci, 
 G. A. Petersson, H. Nakatsuji, M. Caricato, X. Li, H. P. Hratchian, 
 A. F. Izmaylov, J. Bloino, G. Zheng, J. L. Sonnenberg, M. Hada, 
 M. Ehara, K. Toyota, R. Fukuda, J. Hasegawa, M. Ishida, T. Nakajima, 
 Y. Honda, O. Kitao, H. Nakai, T. Vreven, J. A. Montgomery, Jr., 
 J. E. Peralta, F. Ogliaro, M. Bearpark, J. J. Heyd, E. Brothers, 
 K. N. Kudin, V. N. Staroverov, T. Keith, R. Kobayashi, J. Normand, 
 K. Raghavachari, A. Rendell, J. C. Burant, S. S. Iyengar, J. Tomasi, 
 M. Cossi, N. Rega, J. M. Millam, M. Klene, J. E. Knox, J. B. Cross, 
 V. Bakken, C. Adamo, J. Jaramillo, R. Gomperts, R. E. Stratmann, 
 O. Yazyev, A. J. Austin, R. Cammi, C. Pomelli, J. W. Ochterski, 
 R. L. Martin, K. Morokuma, V. G. Zakrzewski, G. A. Voth, 
 P. Salvador, J. J. Dannenberg, S. Dapprich, A. D. Daniels, 
 O. Farkas, J. B. Foresman, J. V. Ortiz, J. Cioslowski, 
 and D. J. Fox, Gaussian, Inc., Wallingford CT, 2010.
 
 ******************************************
 Gaussian 09:  EM64L-G09RevB.01 12-Aug-2010
                 1-Mar-2016 
 ******************************************
 ------------------------------------------------
 # freq=raman b3lyp/6-31+g(d,p) geom=connectivity
 ------------------------------------------------
 1/10=4,30=1,38=1,57=2/1,3;
 2/12=2,17=6,18=5,40=1/2;
 3/5=1,6=6,7=111,11=2,16=1,25=1,30=1,71=2,74=-5/1,2,3;
 4//1;
 5/5=2,38=5,98=1/2;
 8/6=4,10=90,11=11/1;
 10/13=10,15=4/2;
 11/6=3,8=1,9=11,15=111,16=1/1,2,10;
 10/6=1/2;
 6/7=2,8=2,9=2,10=2,18=1,28=1/1;
 7/8=1,10=1,25=1/1,2,3,16;
 1/10=4,30=1/3;
 99//99;
 ------------
 500 7000.com
 ------------
 Symbolic Z-matrix:
 Charge =  0 Multiplicity = 1
 O                     9.609     5.693     22.476 
 C                     10.284    5.911     23.723 
 C                     10.164    7.337     24.237 
 O                     10.861    8.114     23.252 
 H                     10.619    7.898     22.306 
 C                     10.739    7.502     25.635 
 O                     10.928    8.903     25.884 
 H                     11.194    9.263     24.99 
 C                     9.486     3.595     24.383 
 O                     8.71      2.652     25.136 
 H                     8.629     1.738     24.737 
 C                     9.575     5.063     24.767 
 O                     10.218    5.16      26.046 
 C                     10.087    6.492     26.564 
 O                     11.007    6.327     27.653 
 C                     10.255    6.012     28.834 
 C                     10.388    4.639     29.472 
 O                     10.667    3.551     28.58 
 H                     10.535    3.773     27.614 
 C                     9.437     4.385     30.631 
 O                     9.553     2.963     30.779 
 H                     9.643     2.724     29.812 
 C                     10.17     8.406     29.748 
 O                     10.834    9.196     30.745 
 H                     10.465    10.126    30.718 
 C                     10.469    6.94      30.018 
 O                     9.72      6.561     31.182 
 C                     9.942     5.267     31.762 
 O                     9.193     5.167     32.982 
 H                     9.79802   5.10611   33.72486 
 H                     10.98485   5.10347   31.93699 
 H                     8.43785   4.65496   30.35947 
 H                     11.32281   4.73214   29.98421 
 H                     9.22651   6.1118    28.55625 
 H                     11.50498   6.87553   30.27777 
 H                     10.53046   8.67425   28.77691 
 H                     9.1145    8.5738    29.79954 
 H                     10.25709   5.57104   21.77836 
 H                     10.48857   3.22162   24.36442 
 H                     9.11792   3.56253   23.37883 
 H                     8.57775   5.4367    24.87061 
 H                     11.31252   5.62587   23.64714 
 H                     9.13282   7.62249   24.24523 
 H                     11.74129   7.13677   25.55183 
 H                     9.09477   6.74584   26.87377 
 

 GradGradGradGradGradGradGradGradGradGradGradGradGradGradGradGradGradGrad
 Berny optimization.
 Initialization pass.
 Trust Radius=3.00D-01 FncErr=1.00D-07 GrdErr=1.00D-07
 Number of steps in this run=      2 maximum allowed number of steps=      2.
 GradGradGradGradGradGradGradGradGradGradGradGradGradGradGradGradGradGrad

                          Input orientation:                          
 ---------------------------------------------------------------------
 Center     Atomic      Atomic             Coordinates (Angstroms)
 Number     Number       Type             X           Y           Z
 ---------------------------------------------------------------------
      1          8           0        9.609000    5.693000   22.476000
      2          6           0       10.284000    5.911000   23.723000
      3          6           0       10.164000    7.337000   24.237000
      4          8           0       10.861000    8.114000   23.252000
      5          1           0       10.619000    7.898000   22.306000
      6          6           0       10.739000    7.502000   25.635000
      7          8           0       10.928000    8.903000   25.884000
      8          1           0       11.194000    9.263000   24.990000
      9          6           0        9.486000    3.595000   24.383000
     10          8           0        8.710000    2.652000   25.136000
     11          1           0        8.629000    1.738000   24.737000
     12          6           0        9.575000    5.063000   24.767000
     13          8           0       10.218000    5.160000   26.046000
     14          6           0       10.087000    6.492000   26.564000
     15          8           0       11.007000    6.327000   27.653000
     16          6           0       10.255000    6.012000   28.834000
     17          6           0       10.388000    4.639000   29.472000
     18          8           0       10.667000    3.551000   28.580000
     19          1           0       10.535000    3.773000   27.614000
     20          6           0        9.437000    4.385000   30.631000
     21          8           0        9.553000    2.963000   30.779000
     22          1           0        9.643000    2.724000   29.812000
     23          6           0       10.170000    8.406000   29.748000
     24          8           0       10.834000    9.196000   30.745000
     25          1           0       10.465000   10.126000   30.718000
     26          6           0       10.469000    6.940000   30.018000
     27          8           0        9.720000    6.561000   31.182000
     28          6           0        9.942000    5.267000   31.762000
     29          8           0        9.193000    5.167000   32.982000
     30          1           0        9.798020    5.106110   33.724861
     31          1           0       10.984849    5.103466   31.936991
     32          1           0        8.437854    4.654961   30.359472
     33          1           0       11.322810    4.732138   29.984207
     34          1           0        9.226510    6.111802   28.556246
     35          1           0       11.504985    6.875531   30.277767
     36          1           0       10.530462    8.674255   28.776915
     37          1           0        9.114497    8.573802   29.799541
     38          1           0       10.257093    5.571039   21.778361
     39          1           0       10.488567    3.221619   24.364419
     40          1           0        9.117915    3.562528   23.378829
     41          1           0        8.577748    5.436702   24.870605
     42          1           0       11.312517    5.625872   23.647136
     43          1           0        9.132823    7.622493   24.245232
     44          1           0       11.741292    7.136767   25.551834
     45          1           0        9.094775    6.745838   26.873767
 ---------------------------------------------------------------------
                    Distance matrix (angstroms):
                    1          2          3          4          5
     1  O    0.000000
     2  C    1.434628   0.000000
     3  C    2.472222   1.520550   0.000000
     4  O    2.833888   2.325506   1.435187   0.000000
     5  H    2.431260   2.463389   2.061676   1.000068   0.000000
     6  C    3.811648   2.528646   1.520610   2.463355   3.354617
     7  O    4.863982   3.746561   2.397637   2.748533   3.729288
     8  H    4.645140   3.697201   2.310278   2.109913   3.065568
     9  C    2.837848   2.536979   3.805728   4.857072   4.910542
    10  O    4.139019   3.885245   4.987138   6.165201   6.258889
    11  H    4.659887   4.602298   5.827094   6.916677   6.914872
    12  C    2.376286   1.520434   2.408090   3.641102   3.896624
    13  O    3.660583   2.442271   2.831029   4.116552   4.652424
    14  C    4.192688   2.906484   2.476870   3.768196   4.515576
    15  O    5.399786   4.017547   3.660574   4.752209   5.586501
    16  C    6.398691   5.112080   4.785009   5.995362   6.804725
    17  C    7.117708   5.888956   5.893607   7.140571   7.875659
    18  O    6.554872   5.413570   5.783464   7.017563   7.632941
    19  H    5.562636   4.446788   4.923806   6.162597   6.722912
    20  C    8.261021   7.125065   7.079977   8.389449   9.112844
    21  O    8.740472   7.681940   7.893222   9.214087   9.863180
    22  H    7.914102   6.902447   7.254780   8.577250   9.168582
    23  C    7.781843   6.522166   5.613726   6.539171   7.472819
    24  O    9.063553   7.771886   6.801386   7.570766   8.540945
    25  H    9.397595   8.168783   7.062045   7.742488   8.703416
    26  C    7.692618   6.381230   5.802637   6.878277   7.772722
    27  O    8.749867   7.508480   7.002309   8.160796   9.021039
    28  C    9.301729   8.072002   7.807676   9.020536   9.838517
    29  O   10.527382   9.352695   9.062382  10.302424  11.111652
    30  H   11.265747  10.045957   9.753478  10.947975  11.783847
    31  H    9.578667   8.283294   8.059301   9.192809  10.034902
    32  H    8.037303   7.002046   6.903447   8.267572   8.951710
    33  H    7.761029   6.455351   6.415492   7.548038   8.335040
    34  H    6.106643   4.951654   4.586489   5.900456   6.647940
    35  H    8.115461   6.736920   6.205003   7.163095   8.085758
    36  H    7.031252   5.765273   4.746933   5.563077   6.517910
    37  H    7.885290   6.736661   5.794221   6.792053   7.672900
    38  H    0.960000   1.974315   3.028563   3.000495   2.413323
    39  H    3.232258   2.772371   4.130126   5.031061   5.111032
    40  H    2.365413   2.644528   4.009662   4.875483   4.711745
    41  H    2.619791   2.110273   2.555149   3.873119   4.099012
    42  H    2.068341   1.070000   2.143593   2.559449   2.728036
    43  H    2.660803   2.127709   1.070000   2.052970   2.458709
    44  H    4.011469   2.640234   2.063185   2.649365   3.517734
    45  H    4.551182   3.469661   2.906073   4.255422   4.951287
                    6          7          8          9         10
     6  C    0.000000
     7  O    1.435452   0.000000
     8  H    1.929811   0.999796   0.000000
     9  C    4.289774   5.701511   5.950793   0.000000
    10  O    5.280941   6.674880   7.063773   1.434724   0.000000
    11  H    6.203402   7.611717   7.954172   2.075624   1.000579
    12  C    2.838493   4.221836   4.506760   1.520000   2.587916
    13  O    2.434199   3.813187   4.347680   2.398045   3.064674
    14  C    1.519291   2.642461   3.373628   3.675673   4.322142
    15  O    2.350484   3.125920   3.968203   4.524397   5.011699
    16  C    3.562016   4.184891   5.121236   5.122953   5.229898
    17  C    4.800264   5.598843   6.489941   5.272709   5.056160
    18  O    4.928348   5.998370   6.767036   4.360219   4.061919
    19  H    4.226523   5.428098   6.120438   3.401683   3.275324
    20  C    6.030830   6.720819   7.661776   6.297937   5.807482
    21  O    6.962029   7.818903   8.711797   6.427498   5.714090
    22  H    6.440328   7.433737   8.271385   5.500666   4.768716
    23  C    4.249441   3.968888   4.941820   7.238564   7.517357
    24  O    5.384307   4.870730   5.766638   8.582736   8.876722
    25  H    5.726896   5.007759   5.838338   9.151209   9.492072
    26  C    4.427125   4.599348   5.585941   6.626352   6.731638
    27  O    5.717784   5.917181   6.914792   7.421476   7.270110
    28  C    6.570431   6.981660   7.962129   7.579786   7.229103
    29  O    7.862617   8.206676   9.200722   8.746418   8.253377
    30  H    8.489499   8.784779   9.773756   9.468431   8.998610
    31  H    6.747481   7.146915   8.099763   7.847598   7.578793
    32  H    5.976750   6.654060   7.593523   6.159574   5.600944
    33  H    5.189275   5.862053   6.744435   6.003372   5.887178
    34  H    3.571268   4.222174   5.149677   4.880329   4.892351
    35  H    4.747050   4.873267   5.810095   7.041765   7.217196
    36  H    3.359955   2.929047   3.889425   6.796780   7.268968
    37  H    4.596865   4.327658   5.284980   7.366505   7.548508
    38  H    4.339875   5.329949   4.982268   3.359086   4.710417
    39  H    4.471997   5.897485   6.114514   1.070000   2.020669
    40  H    4.820546   6.170327   6.277052   1.070000   2.020669
    41  H    3.085574   4.308814   4.636765   2.110580   2.800445
    42  H    2.792916   3.986349   3.878921   2.828798   4.222999
    43  H    2.127387   2.747347   2.737589   4.045296   5.067351
    44  H    1.070000   1.972652   2.266286   4.358512   5.429068
    45  H    2.193126   2.998950   3.780401   4.035438   4.464011
                   11         12         13         14         15
    11  H    0.000000
    12  C    3.457086   0.000000
    13  O    3.993556   1.434817   0.000000
    14  C    5.297566   2.352317   1.435169   0.000000
    15  O    5.934380   3.460826   2.137021   1.435112   0.000000
    16  C    6.139736   4.231252   2.915513   2.326268   1.435092
    17  C    5.824956   4.793513   3.469556   3.461311   2.557590
    18  O    4.712649   4.244712   3.035068   3.612497   2.946371
    19  H    4.006394   3.269726   2.117282   2.948926   2.597541
    20  C    6.511429   5.904678   4.715168   4.626277   3.886483
    21  O    6.233792   6.368252   5.260259   5.523153   4.816896
    22  H    5.268398   5.561256   4.521889   4.994443   4.416264
    23  C    8.482159   6.028270   4.923781   3.715931   3.067871
    24  O    9.827505   7.375856   6.224898   5.034917   4.221558
    25  H   10.464311   7.863871   6.822738   5.532138   4.911251
    26  C    7.637759   5.647598   4.359838   3.503818   2.501687
    27  O    8.123400   6.589177   5.346896   4.633074   3.763637
    28  C    7.970473   7.007591   5.723660   5.342364   4.375124
    29  O    8.947411   8.224534   7.011332   6.614045   5.747559
    30  H    9.669148   8.960741   7.690526   7.299461   6.310286
    31  H    8.289527   7.307400   5.940962   5.621672   4.455346
    32  H    6.336986   5.721481   4.693616   4.527693   4.089159
    33  H    6.614730   5.512129   4.112560   4.040069   2.842156
    34  H    5.837277   3.947128   2.861873   2.203188   2.008061
    35  H    8.084900   6.113809   4.744178   3.993725   2.727320
    36  H    8.249127   5.480281   4.461560   3.139409   2.645728
    37  H    8.520165   6.153394   5.192382   3.968423   3.638313
    38  H    5.108466   3.107301   4.287567   4.876417   5.970362
    39  H    2.407889   2.094603   2.580358   3.961668   4.552684
    40  H    2.326492   2.094603   3.297864   4.434664   5.429501
    41  H    3.701469   1.070000   2.036798   2.501816   3.799423
    42  H    4.848156   2.142401   2.677602   3.280269   4.078218
    43  H    5.926461   2.649296   3.237939   2.750482   4.099234
    44  H    6.284664   3.099886   2.544057   2.043743   2.368503
    45  H    5.464537   2.738800   2.112277   1.070000   2.106949
                   16         17         18         19         20
    16  C    0.000000
    17  C    1.519823   0.000000
    18  O    2.508143   1.434311   0.000000
    19  H    2.565136   2.055171   0.999932   0.000000
    20  C    2.558410   1.520591   2.532796   3.268400   0.000000
    21  O    3.684051   2.283517   2.534234   3.411400   1.434379
    22  H    3.484533   2.082751   1.802867   2.593698   1.863362
    23  C    2.563953   3.783383   5.018193   5.113890   4.181557
    24  O    3.758326   4.752441   6.048234   6.269090   5.011020
    25  H    4.529741   5.627221   6.916825   7.071091   5.832961
    26  C    1.519485   2.366279   3.686783   3.976614   2.822909
    27  O    2.469966   2.657895   4.089904   4.600847   2.262447
    28  C    3.037462   2.416071   3.687195   4.448549   1.520562
    29  O    4.364375   3.745252   4.915459   5.706104   2.489631
    30  H    4.994997   4.318923   5.444547   6.297853   3.197235
    31  H    3.314615   2.578399   3.712219   4.545411   2.148870
    32  H    2.733247   2.142646   3.058487   3.565599   1.070000
    33  H    2.025152   1.070000   1.948582   2.675532   2.023641
    34  H    1.070000   2.087298   2.938245   2.840770   2.707537
    35  H    2.095856   2.626592   3.825851   4.202645   3.256391
    36  H    2.677077   4.097160   5.128856   5.037330   4.799062
    37  H    2.965779   4.148706   5.396859   5.462794   4.282685
    38  H    7.069406   7.750995   7.107101   6.112681   8.969307
    39  H    5.274272   5.301554   4.232193   3.296355   6.459821
    40  H    6.087016   6.316537   5.426967   4.470917   7.305632
    41  H    4.341963   5.008610   4.656228   3.758318   5.918322
    42  H    5.307635   5.979773   5.390262   4.446760   7.337007
    43  H    4.990968   6.147829   6.141740   5.304083   7.166025
    44  H    3.774490   4.841275   4.814729   4.125845   6.219318
    45  H    2.393147   3.586364   3.948431   3.385256   4.450558
                   21         22         23         24         25
    21  O    0.000000
    22  H    1.000155   0.000000
    23  C    5.574038   5.706746   0.000000
    24  O    6.363364   6.646484   1.434923   0.000000
    25  H    7.221083   7.502408   1.996578   1.000895   0.000000
    26  C    4.151470   4.301089   1.520348   2.398185   3.261995
    27  O    3.624348   4.074972   2.379681   2.893992   3.671450
    28  C    2.534961   3.218501   3.736509   4.155357   4.997334
    29  O    3.136945   4.027363   4.680214   4.891819   5.597800
    30  H    3.651171   4.583553   5.181030   5.165272   5.889429
    31  H    2.823602   3.460925   4.045046   4.265259   5.194423
    32  H    2.069369   2.341093   4.176664   5.148901   5.845522
    33  H    2.625599   2.623744   3.857723   4.554537   5.510720
    34  H    3.868099   3.636975   2.752053   4.109373   4.724492
    35  H    4.401066   4.573744   2.098851   2.460306   3.441064
    36  H    6.130433   6.104467   1.070000   2.058571   2.424801
    37  H    5.712506   5.873640   1.070000   2.058571   2.253163
    38  H    9.397293   8.545297   8.459299   9.688849  10.035340
    39  H    6.487605   5.535228   7.480792   8.747821   9.382912
    40  H    7.437154   6.508804   8.070468   9.430877   9.937668
    41  H    6.479155   5.736802   5.927982   7.330178   7.729376
    42  H    7.813467   7.015247   6.801102   7.959551   8.424165
    43  H    8.036016   7.432659   5.654208   6.900500   7.066750
    44  H    7.037913   6.482620   4.657007   5.659734   6.103581
    45  H    5.456251   5.010882   3.489049   4.900473   5.299164
                   26         27         28         29         30
    26  C    0.000000
    27  O    1.435109   0.000000
    28  C    2.473498   1.435312   0.000000
    29  O    3.681983   2.336871   1.435061   0.000000
    30  H    4.189772   2.930689   1.974700   0.960000   0.000000
    31  H    2.705825   2.072260   1.070000   2.075284   2.145938
    32  H    3.076290   2.439966   2.145724   2.776703   3.657791
    33  H    2.367443   2.710801   2.313711   3.702966   4.056763
    34  H    2.089597   2.709224   3.391530   4.525602   5.296473
    35  H    1.070000   2.025522   2.689469   3.946800   4.234033
    36  H    2.133474   3.302594   4.567976   5.636700   6.144128
    37  H    2.133474   2.515790   3.933312   4.662672   5.282067
    38  H    8.355275   9.470846   9.993237  11.261309  11.964355
    39  H    6.766811   7.630307   7.694578   8.928926   9.573194
    40  H    7.570425   8.381099   8.594294   9.736573  10.482632
    41  H    5.686160   6.511719   7.027183   8.139164   8.944060
    42  H    6.559448   7.757883   8.237604   9.583454  10.204136
    43  H    5.964563   7.042037   7.918643   9.075471   9.830465
    44  H    4.648019   6.009650   6.730501   8.098218   8.642815
    45  H    3.436916   4.357286   5.176830   6.309745   7.079601
                   31         32         33         34         35
    31  H    0.000000
    32  H    3.029341   0.000000
    33  H    2.016300   2.910284   0.000000
    34  H    3.941819   2.448671   2.887390   0.000000
    35  H    2.482696   3.787466   2.171059   2.956072   0.000000
    36  H    4.789894   4.799814   4.198292   2.883600   2.537255
    37  H    4.484434   4.016053   4.434989   2.760393   2.971070
    38  H   10.195393   8.819541   8.317177   6.877082   8.689007
    39  H    7.818664   6.496196   5.878746   5.245700   7.025089
    40  H    8.893935   7.098258   7.061202   5.772022   8.016822
    41  H    7.472550   5.546021   5.846426   3.802710   6.314772
    42  H    8.312759   7.366262   6.399792   5.356016   6.750108
    43  H    8.302931   6.831776   6.788669   4.569005   6.525073
    44  H    6.743645   6.339199   5.059971   4.049836   4.739043
    45  H    5.648540   4.117457   4.323651   1.802800   4.172906
                   36         37         38         39         40
    36  H    0.000000
    37  H    1.749517   0.000000
    38  H    7.660577   8.640685   0.000000
    39  H    7.014494   7.750773   3.501579   0.000000
    40  H    7.567323   8.144840   2.809510   1.722293   0.000000
    41  H    5.436368   5.867188   3.521395   2.968847   2.455546
    42  H    6.018212   7.167542   2.146916   2.640799   3.024178
    43  H    4.857545   5.635217   3.399692   4.606511   4.151409
    44  H    3.772416   5.196935   4.346660   4.278746   4.937534
    45  H    3.066261   3.449926   5.356707   4.545284   4.727430
                   41         42         43         44         45
    41  H    0.000000
    42  H    3.001937   0.000000
    43  H    2.340274   3.015838   0.000000
    44  H    3.655449   2.468709   2.957574   0.000000
    45  H    2.448226   4.072327   2.771131   2.984021   0.000000
 Stoichiometry    C12H22O11
 Framework group  C1[X(C12H22O11)]
 Deg. of freedom   129
 Full point group                 C1      NOp   1
 Largest Abelian subgroup         C1      NOp   1
 Largest concise Abelian subgroup C1      NOp   1
                         Standard orientation:                         
 ---------------------------------------------------------------------
 Center     Atomic      Atomic             Coordinates (Angstroms)
 Number     Number       Type             X           Y           Z
 ---------------------------------------------------------------------
      1          8           0        5.049480   -0.578761   -0.477979
      2          6           0        3.828969   -0.150443    0.142549
      3          6           0        3.383594    1.238050   -0.288497
      4          8           0        4.419926    2.097766    0.208159
      5          1           0        5.348912    1.783723    0.011952
      6          6           0        2.007618    1.600458    0.247791
      7          8           0        1.832013    3.019483    0.121084
      8          1           0        2.747994    3.382054    0.291713
      9          6           0        3.039140   -2.547921   -0.111475
     10          8           0        2.224652   -3.599058   -0.650136
     11          1           0        2.576305   -4.527863   -0.528401
     12          6           0        2.729970   -1.078837   -0.349393
     13          8           0        1.470873   -0.773747    0.267287
     14          6           0        1.016637    0.521002   -0.153431
     15          8           0       -0.059938    0.622742    0.790064
     16          6           0       -1.270327    0.210836    0.138312
     17          6           0       -1.972419   -1.062441    0.580685
     18          8           0       -1.129621   -2.106415    1.087695
     19          1           0       -0.156776   -1.970639    0.900605
     20          6           0       -3.161941   -1.460459   -0.278859
     21          8           0       -3.377503   -2.811052    0.153430
     22          1           0       -2.421822   -3.074630    0.285758
     23          6           0       -2.066639    2.570506   -0.471365
     24          8           0       -3.009509    3.540004    0.008295
     25          1           0       -2.944280    4.361680   -0.559494
     26          6           0       -2.402417    1.224279    0.150234
     27          8           0       -3.598927    0.749845   -0.484442
     28          6           0       -4.237364   -0.429761    0.026486
     29          8           0       -5.476027   -0.629652   -0.670048
     30          1           0       -6.208329   -0.514983   -0.059979
     31          1           0       -4.398629   -0.347408    1.081054
     32          1           0       -2.898124   -1.434565   -1.315503
     33          1           0       -2.459983   -0.736524    1.475648
     34          1           0       -1.009296    0.064225   -0.888950
     35          1           0       -2.643589    1.406007    1.176739
     36          1           0       -1.076260    2.860748   -0.188862
     37          1           0       -2.131633    2.501429   -1.537153
     38          1           0        5.753492   -0.589880    0.174588
     39          1           0        3.059984   -2.689020    0.948976
     40          1           0        4.032666   -2.714465   -0.472127
     41          1           0        2.624350   -0.931760   -1.403961
     42          1           0        3.911903   -0.202871    1.208041
     43          1           0        3.368156    1.286676   -1.357280
     44          1           0        2.093349    1.463825    1.305563
     45          1           0        0.699340    0.563386   -1.174423
 ---------------------------------------------------------------------
 Rotational constants (GHZ):      0.3786874      0.1510075      0.1120562
 Standard basis: 6-31+G(d,p) (6D, 7F)
 There are   547 symmetry adapted basis functions of A   symmetry.
 Integral buffers will be    131072 words long.
 Raffenetti 2 integral format.
 Two-electron integral symmetry is turned on.
   547 basis functions,   890 primitive gaussians,   547 cartesian basis functions
    91 alpha electrons       91 beta electrons
       nuclear repulsion energy      2278.5255721668 Hartrees.
 NAtoms=   45 NActive=   45 NUniq=   45 SFac= 1.00D+00 NAtFMM=   50 NAOKFM=F Big=F
 One-electron integrals computed using PRISM.
 NBasis=   547 RedAO= T  NBF=   547
 NBsUse=   547 1.00D-06 NBFU=   547
 Harris functional with IExCor=  402 diagonalized for initial guess.
 ExpMin= 4.38D-02 ExpMax= 5.48D+03 ExpMxC= 8.25D+02 IAcc=2 IRadAn=         0 AccDes= 0.00D+00
 HarFok:  IExCor=  402 AccDes= 0.00D+00 IRadAn=         0 IDoV= 1
 ScaDFX=  1.000000  1.000000  1.000000  1.000000
 FoFCou: FMM=F IPFlag=           0 FMFlag=      100000 FMFlg1=           0
         NFxFlg=           0 DoJE=T BraDBF=F KetDBF=T FulRan=T
         Omega=  0.000000  0.000000  1.000000  0.000000  0.000000 ICntrl=     500 IOpCl=  0
         NMat0=    1 NMatS0=    1 NMatT0=    0 NMatD0=    1 NMtDS0=    0 NMtDT0=    0
         I1Cent=           4 NGrid=           0.
 Petite list used in FoFCou.
 Initial guess orbital symmetries:
       Occupied  (A) (A) (A) (A) (A) (A) (A) (A) (A) (A) (A) (A)
                 (A) (A) (A) (A) (A) (A) (A) (A) (A) (A) (A) (A)
                 (A) (A) (A) (A) (A) (A) (A) (A) (A) (A) (A) (A)
                 (A) (A) (A) (A) (A) (A) (A) (A) (A) (A) (A) (A)
                 (A) (A) (A) (A) (A) (A) (A) (A) (A) (A) (A) (A)
                 (A) (A) (A) (A) (A) (A) (A) (A) (A) (A) (A) (A)
                 (A) (A) (A) (A) (A) (A) (A) (A) (A) (A) (A) (A)
                 (A) (A) (A) (A) (A) (A) (A)
       Virtual   (A) (A) (A) (A) (A) (A) (A) (A) (A) (A) (A) (A)
                 (A) (A) (A) (A) (A) (A) (A) (A) (A) (A) (A) (A)
                 (A) (A) (A) (A) (A) (A) (A) (A) (A) (A) (A) (A)
                 (A) (A) (A) (A) (A) (A) (A) (A) (A) (A) (A) (A)
                 (A) (A) (A) (A) (A) (A) (A) (A) (A) (A) (A) (A)
                 (A) (A) (A) (A) (A) (A) (A) (A) (A) (A) (A) (A)
                 (A) (A) (A) (A) (A) (A) (A) (A) (A) (A) (A) (A)
                 (A) (A) (A) (A) (A) (A) (A) (A) (A) (A) (A) (A)
                 (A) (A) (A) (A) (A) (A) (A) (A) (A) (A) (A) (A)
                 (A) (A) (A) (A) (A) (A) (A) (A) (A) (A) (A) (A)
                 (A) (A) (A) (A) (A) (A) (A) (A) (A) (A) (A) (A)
                 (A) (A) (A) (A) (A) (A) (A) (A) (A) (A) (A) (A)
                 (A) (A) (A) (A) (A) (A) (A) (A) (A) (A) (A) (A)
                 (A) (A) (A) (A) (A) (A) (A) (A) (A) (A) (A) (A)
                 (A) (A) (A) (A) (A) (A) (A) (A) (A) (A) (A) (A)
                 (A) (A) (A) (A) (A) (A) (A) (A) (A) (A) (A) (A)
                 (A) (A) (A) (A) (A) (A) (A) (A) (A) (A) (A) (A)
                 (A) (A) (A) (A) (A) (A) (A) (A) (A) (A) (A) (A)
                 (A) (A) (A) (A) (A) (A) (A) (A) (A) (A) (A) (A)
                 (A) (A) (A) (A) (A) (A) (A) (A) (A) (A) (A) (A)
                 (A) (A) (A) (A) (A) (A) (A) (A) (A) (A) (A) (A)
                 (A) (A) (A) (A) (A) (A) (A) (A) (A) (A) (A) (A)
                 (A) (A) (A) (A) (A) (A) (A) (A) (A) (A) (A) (A)
                 (A) (A) (A) (A) (A) (A) (A) (A) (A) (A) (A) (A)
                 (A) (A) (A) (A) (A) (A) (A) (A) (A) (A) (A) (A)
                 (A) (A) (A) (A) (A) (A) (A) (A) (A) (A) (A) (A)
                 (A) (A) (A) (A) (A) (A) (A) (A) (A) (A) (A) (A)
                 (A) (A) (A) (A) (A) (A) (A) (A) (A) (A) (A) (A)
                 (A) (A) (A) (A) (A) (A) (A) (A) (A) (A) (A) (A)
                 (A) (A) (A) (A) (A) (A) (A) (A) (A) (A) (A) (A)
                 (A) (A) (A) (A) (A) (A) (A) (A) (A) (A) (A) (A)
                 (A) (A) (A) (A) (A) (A) (A) (A) (A) (A) (A) (A)
                 (A) (A) (A) (A) (A) (A) (A) (A) (A) (A) (A) (A)
                 (A) (A) (A) (A) (A) (A) (A) (A) (A) (A) (A) (A)
                 (A) (A) (A) (A) (A) (A) (A) (A) (A) (A) (A) (A)
                 (A) (A) (A) (A) (A) (A) (A) (A) (A) (A) (A) (A)
                 (A) (A) (A) (A) (A) (A) (A) (A) (A) (A) (A) (A)
                 (A) (A) (A) (A) (A) (A) (A) (A) (A) (A) (A) (A)
 The electronic state of the initial guess is 1-A.
 Requested convergence on RMS density matrix=1.00D-08 within 128 cycles.
 Requested convergence on MAX density matrix=1.00D-06.
 Requested convergence on             energy=1.00D-06.
 No special actions if energy rises.
 SCF Done:  E(RB3LYP) =  -1297.89219637     A.U. after   13 cycles
             Convg  =    0.7447D-08             -V/T =  2.0086
 Range of M.O.s used for correlation:     1   547
 NBasis=   547 NAE=    91 NBE=    91 NFC=     0 NFV=     0
 NROrb=    547 NOA=    91 NOB=    91 NVA=   456 NVB=   456

 **** Warning!!: The largest alpha MO coefficient is  0.90131125D+02

          Differentiating once with respect to electric field.
                with respect to dipole field.
          Electric field/nuclear overlap derivatives assumed to be zero.
          There are     3 degrees of freedom in the 1st order CPHF.  IDoFFX=0.
      3 vectors produced by pass  0 Test12= 1.38D-12 3.33D-08 XBig12= 1.19D+02 1.20D+00.
 AX will form     3 AO Fock derivatives at one time.
      3 vectors produced by pass  1 Test12= 1.38D-12 3.33D-08 XBig12= 2.31D+01 3.86D-01.
      3 vectors produced by pass  2 Test12= 1.38D-12 3.33D-08 XBig12= 9.55D+00 2.14D-01.
      3 vectors produced by pass  3 Test12= 1.38D-12 3.33D-08 XBig12= 9.41D-01 7.24D-02.
      3 vectors produced by pass  4 Test12= 1.38D-12 3.33D-08 XBig12= 3.68D-01 3.89D-02.
      3 vectors produced by pass  5 Test12= 1.38D-12 3.33D-08 XBig12= 6.15D-02 1.50D-02.
      3 vectors produced by pass  6 Test12= 1.38D-12 3.33D-08 XBig12= 1.85D-02 1.05D-02.
      3 vectors produced by pass  7 Test12= 1.38D-12 3.33D-08 XBig12= 2.95D-03 6.12D-03.
      3 vectors produced by pass  8 Test12= 1.38D-12 3.33D-08 XBig12= 8.30D-04 3.05D-03.
      3 vectors produced by pass  9 Test12= 1.38D-12 3.33D-08 XBig12= 2.13D-04 1.83D-03.
      3 vectors produced by pass 10 Test12= 1.38D-12 3.33D-08 XBig12= 4.17D-05 1.00D-03.
      3 vectors produced by pass 11 Test12= 1.38D-12 3.33D-08 XBig12= 1.11D-05 5.29D-04.
      3 vectors produced by pass 12 Test12= 1.38D-12 3.33D-08 XBig12= 7.28D-07 1.54D-04.
      3 vectors produced by pass 13 Test12= 1.38D-12 3.33D-08 XBig12= 2.13D-07 4.84D-05.
      3 vectors produced by pass 14 Test12= 1.38D-12 3.33D-08 XBig12= 3.54D-08 2.66D-05.
      3 vectors produced by pass 15 Test12= 1.38D-12 3.33D-08 XBig12= 5.31D-09 8.38D-06.
      3 vectors produced by pass 16 Test12= 1.38D-12 3.33D-08 XBig12= 1.14D-09 3.43D-06.
      3 vectors produced by pass 17 Test12= 1.38D-12 3.33D-08 XBig12= 8.65D-11 7.21D-07.
      3 vectors produced by pass 18 Test12= 1.38D-12 3.33D-08 XBig12= 2.29D-11 3.72D-07.
      3 vectors produced by pass 19 Test12= 1.38D-12 3.33D-08 XBig12= 1.22D-11 2.46D-07.
      3 vectors produced by pass 20 Test12= 1.38D-12 3.33D-08 XBig12= 2.09D-11 5.24D-07.
      2 vectors produced by pass 21 Test12= 1.38D-12 3.33D-08 XBig12= 2.65D-12 1.29D-07.
      1 vectors produced by pass 22 Test12= 1.38D-12 3.33D-08 XBig12= 2.64D-13 4.15D-08.
 Inverted reduced A of dimension    66 with in-core refinement.
 End of Minotr Frequency-dependent properties file   721 does not exist.
 End of Minotr Frequency-dependent properties file   722 does not exist.
 Symmetrizing basis deriv contribution to polar:
 IMax=3 JMax=2 DiffMx= 0.00D+00
 G2DrvN: will do    23 centers at a time, making    2 passes doing MaxLOS=2.
 Calling FoFCou, ICntrl=  3107 FMM=F I1Cent=   0 AccDes= 0.00D+00.
 Calling FoFCou, ICntrl=  3107 FMM=F I1Cent=   0 AccDes= 0.00D+00.
 FoFDir/FoFCou used for L=0 through L=2.
 End of G2Drv Frequency-dependent properties file   721 does not exist.
 End of G2Drv Frequency-dependent properties file   722 does not exist.
          IDoAtm=111111111111111111111111111111111111111111111
          Differentiating once with respect to electric field.
                with respect to dipole field.
          Differentiating once with respect to nuclear coordinates.
          There are   138 degrees of freedom in the 1st order CPHF.  IDoFFX=5.
 Will reuse    3 saved solutions.
    135 vectors produced by pass  0 Test12= 4.15D-14 1.00D-09 XBig12= 3.01D-01 9.60D-02.
 AX will form    68 AO Fock derivatives at one time.
    135 vectors produced by pass  1 Test12= 4.15D-14 1.00D-09 XBig12= 3.64D-02 1.64D-02.
    132 vectors produced by pass  2 Test12= 4.15D-14 1.00D-09 XBig12= 1.79D-04 1.76D-03.
    132 vectors produced by pass  3 Test12= 4.15D-14 1.00D-09 XBig12= 7.33D-07 6.34D-05.
    132 vectors produced by pass  4 Test12= 4.15D-14 1.00D-09 XBig12= 1.39D-09 2.59D-06.
    132 vectors produced by pass  5 Test12= 4.15D-14 1.00D-09 XBig12= 6.96D-12 1.71D-07.
     76 vectors produced by pass  6 Test12= 4.15D-14 1.00D-09 XBig12= 2.33D-13 2.88D-08.
 Inverted reduced A of dimension   874 with in-core refinement.
 Isotropic polarizability for W=    0.000000      186.53 Bohr**3.
 End of Minotr Frequency-dependent properties file   721 does not exist.
 End of Minotr Frequency-dependent properties file   722 does not exist.

 **********************************************************************

            Population analysis using the SCF density.

 **********************************************************************

 Orbital symmetries:
       Occupied  (A) (A) (A) (A) (A) (A) (A) (A) (A) (A) (A) (A)
                 (A) (A) (A) (A) (A) (A) (A) (A) (A) (A) (A) (A)
                 (A) (A) (A) (A) (A) (A) (A) (A) (A) (A) (A) (A)
                 (A) (A) (A) (A) (A) (A) (A) (A) (A) (A) (A) (A)
                 (A) (A) (A) (A) (A) (A) (A) (A) (A) (A) (A) (A)
                 (A) (A) (A) (A) (A) (A) (A) (A) (A) (A) (A) (A)
                 (A) (A) (A) (A) (A) (A) (A) (A) (A) (A) (A) (A)
                 (A) (A) (A) (A) (A) (A) (A)
       Virtual   (A) (A) (A) (A) (A) (A) (A) (A) (A) (A) (A) (A)
                 (A) (A) (A) (A) (A) (A) (A) (A) (A) (A) (A) (A)
                 (A) (A) (A) (A) (A) (A) (A) (A) (A) (A) (A) (A)
                 (A) (A) (A) (A) (A) (A) (A) (A) (A) (A) (A) (A)
                 (A) (A) (A) (A) (A) (A) (A) (A) (A) (A) (A) (A)
                 (A) (A) (A) (A) (A) (A) (A) (A) (A) (A) (A) (A)
                 (A) (A) (A) (A) (A) (A) (A) (A) (A) (A) (A) (A)
                 (A) (A) (A) (A) (A) (A) (A) (A) (A) (A) (A) (A)
                 (A) (A) (A) (A) (A) (A) (A) (A) (A) (A) (A) (A)
                 (A) (A) (A) (A) (A) (A) (A) (A) (A) (A) (A) (A)
                 (A) (A) (A) (A) (A) (A) (A) (A) (A) (A) (A) (A)
                 (A) (A) (A) (A) (A) (A) (A) (A) (A) (A) (A) (A)
                 (A) (A) (A) (A) (A) (A) (A) (A) (A) (A) (A) (A)
                 (A) (A) (A) (A) (A) (A) (A) (A) (A) (A) (A) (A)
                 (A) (A) (A) (A) (A) (A) (A) (A) (A) (A) (A) (A)
                 (A) (A) (A) (A) (A) (A) (A) (A) (A) (A) (A) (A)
                 (A) (A) (A) (A) (A) (A) (A) (A) (A) (A) (A) (A)
                 (A) (A) (A) (A) (A) (A) (A) (A) (A) (A) (A) (A)
                 (A) (A) (A) (A) (A) (A) (A) (A) (A) (A) (A) (A)
                 (A) (A) (A) (A) (A) (A) (A) (A) (A) (A) (A) (A)
                 (A) (A) (A) (A) (A) (A) (A) (A) (A) (A) (A) (A)
                 (A) (A) (A) (A) (A) (A) (A) (A) (A) (A) (A) (A)
                 (A) (A) (A) (A) (A) (A) (A) (A) (A) (A) (A) (A)
                 (A) (A) (A) (A) (A) (A) (A) (A) (A) (A) (A) (A)
                 (A) (A) (A) (A) (A) (A) (A) (A) (A) (A) (A) (A)
                 (A) (A) (A) (A) (A) (A) (A) (A) (A) (A) (A) (A)
                 (A) (A) (A) (A) (A) (A) (A) (A) (A) (A) (A) (A)
                 (A) (A) (A) (A) (A) (A) (A) (A) (A) (A) (A) (A)
                 (A) (A) (A) (A) (A) (A) (A) (A) (A) (A) (A) (A)
                 (A) (A) (A) (A) (A) (A) (A) (A) (A) (A) (A) (A)
                 (A) (A) (A) (A) (A) (A) (A) (A) (A) (A) (A) (A)
                 (A) (A) (A) (A) (A) (A) (A) (A) (A) (A) (A) (A)
                 (A) (A) (A) (A) (A) (A) (A) (A) (A) (A) (A) (A)
                 (A) (A) (A) (A) (A) (A) (A) (A) (A) (A) (A) (A)
                 (A) (A) (A) (A) (A) (A) (A) (A) (A) (A) (A) (A)
                 (A) (A) (A) (A) (A) (A) (A) (A) (A) (A) (A) (A)
                 (A) (A) (A) (A) (A) (A) (A) (A) (A) (A) (A) (A)
                 (A) (A) (A) (A) (A) (A) (A) (A) (A) (A) (A) (A)
 The electronic state is 1-A.
 Alpha  occ. eigenvalues --  -19.21012 -19.20877 -19.19766 -19.19504 -19.18228
 Alpha  occ. eigenvalues --  -19.17462 -19.16988 -19.16822 -19.16317 -19.15684
 Alpha  occ. eigenvalues --  -19.13675 -10.33112 -10.29737 -10.28151 -10.27530
 Alpha  occ. eigenvalues --  -10.27351 -10.27157 -10.25495 -10.25361 -10.24745
 Alpha  occ. eigenvalues --  -10.24174 -10.23558 -10.23134  -1.11897  -1.08574
 Alpha  occ. eigenvalues --   -1.07013  -1.06105  -1.04781  -1.03672  -1.03421
 Alpha  occ. eigenvalues --   -1.02775  -1.01918  -1.00708  -0.99494  -0.83371
 Alpha  occ. eigenvalues --   -0.82521  -0.79359  -0.78150  -0.72765  -0.69583
 Alpha  occ. eigenvalues --   -0.68221  -0.65140  -0.64799  -0.63246  -0.61240
 Alpha  occ. eigenvalues --   -0.61051  -0.58127  -0.56616  -0.55953  -0.54666
 Alpha  occ. eigenvalues --   -0.54310  -0.53989  -0.52781  -0.52526  -0.51661
 Alpha  occ. eigenvalues --   -0.51611  -0.49978  -0.48462  -0.47998  -0.47513
 Alpha  occ. eigenvalues --   -0.46870  -0.45508  -0.44673  -0.44471  -0.43660
 Alpha  occ. eigenvalues --   -0.43414  -0.42315  -0.41787  -0.40480  -0.40239
 Alpha  occ. eigenvalues --   -0.39091  -0.37884  -0.37614  -0.37033  -0.36547
 Alpha  occ. eigenvalues --   -0.35618  -0.34840  -0.34332  -0.34067  -0.33570
 Alpha  occ. eigenvalues --   -0.33240  -0.32609  -0.30661  -0.30177  -0.29627
 Alpha  occ. eigenvalues --   -0.29540  -0.29167  -0.28991  -0.27478  -0.26936
 Alpha  occ. eigenvalues --   -0.25747
 Alpha virt. eigenvalues --   -0.04347  -0.02081  -0.01027  -0.00249   0.00193
 Alpha virt. eigenvalues --    0.00425   0.01236   0.01870   0.02145   0.03137
 Alpha virt. eigenvalues --    0.03663   0.04028   0.04731   0.05624   0.05741
 Alpha virt. eigenvalues --    0.06070   0.06563   0.06844   0.07307   0.07977
 Alpha virt. eigenvalues --    0.08471   0.08748   0.09292   0.09796   0.09812
 Alpha virt. eigenvalues --    0.10100   0.10524   0.10828   0.11329   0.11647
 Alpha virt. eigenvalues --    0.11933   0.12450   0.12924   0.13171   0.13599
 Alpha virt. eigenvalues --    0.13952   0.14307   0.14642   0.14846   0.14977
 Alpha virt. eigenvalues --    0.15190   0.15923   0.16226   0.16656   0.16791
 Alpha virt. eigenvalues --    0.17190   0.17518   0.17754   0.17848   0.17972
 Alpha virt. eigenvalues --    0.18550   0.18933   0.19116   0.19430   0.19831
 Alpha virt. eigenvalues --    0.19996   0.20094   0.20366   0.20774   0.21279
 Alpha virt. eigenvalues --    0.21760   0.21856   0.21964   0.22198   0.22752
 Alpha virt. eigenvalues --    0.23136   0.23350   0.23472   0.23568   0.23887
 Alpha virt. eigenvalues --    0.24421   0.24807   0.25054   0.25338   0.25489
 Alpha virt. eigenvalues --    0.25856   0.26385   0.26444   0.27029   0.27406
 Alpha virt. eigenvalues --    0.28008   0.28240   0.28401   0.28618   0.29101
 Alpha virt. eigenvalues --    0.29205   0.29668   0.30085   0.30263   0.30401
 Alpha virt. eigenvalues --    0.30726   0.31158   0.31636   0.31778   0.32169
 Alpha virt. eigenvalues --    0.32524   0.32671   0.32772   0.33266   0.33717
 Alpha virt. eigenvalues --    0.33928   0.34321   0.34706   0.35487   0.35783
 Alpha virt. eigenvalues --    0.35986   0.36582   0.37165   0.37288   0.37470
 Alpha virt. eigenvalues --    0.37961   0.38164   0.38467   0.39349   0.39614
 Alpha virt. eigenvalues --    0.39992   0.40296   0.40679   0.41281   0.41474
 Alpha virt. eigenvalues --    0.41939   0.42574   0.42891   0.43224   0.43926
 Alpha virt. eigenvalues --    0.44437   0.45358   0.45815   0.46080   0.46474
 Alpha virt. eigenvalues --    0.47345   0.47380   0.47905   0.49114   0.50016
 Alpha virt. eigenvalues --    0.50449   0.51663   0.53144   0.62476   0.64116
 Alpha virt. eigenvalues --    0.66159   0.67160   0.67827   0.69156   0.70314
 Alpha virt. eigenvalues --    0.70729   0.71242   0.71802   0.72269   0.72911
 Alpha virt. eigenvalues --    0.74637   0.75454   0.76417   0.76773   0.79096
 Alpha virt. eigenvalues --    0.79471   0.79908   0.80639   0.81354   0.83188
 Alpha virt. eigenvalues --    0.85466   0.85879   0.86296   0.87916   0.88286
 Alpha virt. eigenvalues --    0.89140   0.90589   0.93504   0.94573   0.95042
 Alpha virt. eigenvalues --    0.95811   0.97224   0.99085   0.99626   0.99962
 Alpha virt. eigenvalues --    1.01864   1.01907   1.02580   1.02951   1.03595
 Alpha virt. eigenvalues --    1.04326   1.04978   1.05592   1.06023   1.06356
 Alpha virt. eigenvalues --    1.07707   1.07986   1.08664   1.09725   1.10671
 Alpha virt. eigenvalues --    1.11503   1.11806   1.12142   1.13934   1.15028
 Alpha virt. eigenvalues --    1.16145   1.16891   1.19160   1.19922   1.20672
 Alpha virt. eigenvalues --    1.21505   1.22540   1.22588   1.23384   1.25218
 Alpha virt. eigenvalues --    1.25702   1.26291   1.26659   1.27304   1.27588
 Alpha virt. eigenvalues --    1.27774   1.29251   1.29643   1.30106   1.31492
 Alpha virt. eigenvalues --    1.31782   1.32864   1.33501   1.33825   1.34202
 Alpha virt. eigenvalues --    1.34798   1.35338   1.36745   1.37166   1.38045
 Alpha virt. eigenvalues --    1.38749   1.39379   1.40413   1.41390   1.42192
 Alpha virt. eigenvalues --    1.43201   1.43828   1.45150   1.45370   1.47479
 Alpha virt. eigenvalues --    1.48174   1.50993   1.51330   1.51919   1.53069
 Alpha virt. eigenvalues --    1.54425   1.54642   1.55007   1.56084   1.56532
 Alpha virt. eigenvalues --    1.57296   1.58524   1.59550   1.60143   1.61183
 Alpha virt. eigenvalues --    1.61457   1.62595   1.62954   1.63783   1.64267
 Alpha virt. eigenvalues --    1.65343   1.66485   1.66852   1.67188   1.68453
 Alpha virt. eigenvalues --    1.68720   1.69874   1.70002   1.71899   1.73054
 Alpha virt. eigenvalues --    1.73895   1.74740   1.74981   1.75602   1.76242
 Alpha virt. eigenvalues --    1.76652   1.78387   1.78780   1.80559   1.80878
 Alpha virt. eigenvalues --    1.81775   1.83006   1.83339   1.84838   1.86227
 Alpha virt. eigenvalues --    1.86616   1.87646   1.88065   1.89608   1.90525
 Alpha virt. eigenvalues --    1.91499   1.92204   1.93351   1.94030   1.95225
 Alpha virt. eigenvalues --    1.95592   1.96506   1.96938   1.97315   1.97984
 Alpha virt. eigenvalues --    1.99452   2.00564   2.00944   2.02053   2.02278
 Alpha virt. eigenvalues --    2.02767   2.04209   2.06069   2.06671   2.07469
 Alpha virt. eigenvalues --    2.08301   2.09335   2.09801   2.11012   2.12408
 Alpha virt. eigenvalues --    2.12993   2.13856   2.14646   2.15412   2.16165
 Alpha virt. eigenvalues --    2.17336   2.17735   2.18545   2.20044   2.20223
 Alpha virt. eigenvalues --    2.21713   2.23878   2.25368   2.26479   2.28558
 Alpha virt. eigenvalues --    2.29375   2.31220   2.32423   2.33155   2.34113
 Alpha virt. eigenvalues --    2.35649   2.36071   2.37176   2.37618   2.38893
 Alpha virt. eigenvalues --    2.39735   2.40574   2.40886   2.43317   2.44194
 Alpha virt. eigenvalues --    2.45893   2.46397   2.46934   2.48338   2.49274
 Alpha virt. eigenvalues --    2.49945   2.51542   2.53022   2.53397   2.54540
 Alpha virt. eigenvalues --    2.55687   2.57464   2.58217   2.58309   2.58635
 Alpha virt. eigenvalues --    2.60384   2.61011   2.61738   2.62449   2.62888
 Alpha virt. eigenvalues --    2.64596   2.65095   2.65528   2.67216   2.68521
 Alpha virt. eigenvalues --    2.68729   2.69995   2.72194   2.74520   2.75657
 Alpha virt. eigenvalues --    2.76794   2.78331   2.78517   2.80207   2.80884
 Alpha virt. eigenvalues --    2.82111   2.83150   2.83894   2.84803   2.85050
 Alpha virt. eigenvalues --    2.86040   2.86782   2.87414   2.88321   2.90564
 Alpha virt. eigenvalues --    2.91092   2.92643   2.93101   2.93529   2.95344
 Alpha virt. eigenvalues --    2.96405   2.96853   2.97770   2.99917   3.00449
 Alpha virt. eigenvalues --    3.01431   3.02353   3.02849   3.04889   3.06160
 Alpha virt. eigenvalues --    3.07651   3.10374   3.11053   3.11831   3.13476
 Alpha virt. eigenvalues --    3.16447   3.19284   3.20590   3.25453   3.26139
 Alpha virt. eigenvalues --    3.27982   3.34984   3.39418   3.39914   3.40698
 Alpha virt. eigenvalues --    3.41247   3.42486   3.45351   3.45673   3.47446
 Alpha virt. eigenvalues --    3.48854   3.50376   3.50953   3.51813   3.53141
 Alpha virt. eigenvalues --    3.55589   3.57697   3.58994   3.60882   3.62102
 Alpha virt. eigenvalues --    3.62971   3.66343   3.68136   4.28683   4.31085
 Alpha virt. eigenvalues --    4.33457   4.36977   4.40621   4.41689   4.45016
 Alpha virt. eigenvalues --    4.46850   4.47827   4.51372   4.53706   4.54053
 Alpha virt. eigenvalues --    4.57800   4.60319   4.62510   4.65905   4.72639
 Alpha virt. eigenvalues --    4.76842   4.83214   4.88674   4.88891   4.91997
 Alpha virt. eigenvalues --    4.96787
          Condensed to atoms (all electrons):
              1          2          3          4          5          6
     1  O    8.312821   0.275091  -0.059394  -0.007973   0.031740   0.007482
     2  C    0.275091  10.435653  -1.514890  -0.107708  -0.054896  -2.778575
     3  C   -0.059394  -1.514890   9.210892   0.258635  -0.015997   0.456543
     4  O   -0.007973  -0.107708   0.258635   8.294524   0.222308  -0.101483
     5  H    0.031740  -0.054896  -0.015997   0.222308   0.394058   0.023521
     6  C    0.007482  -2.778575   0.456543  -0.101483   0.023521  10.662724
     7  O   -0.000312   0.007347  -0.024659  -0.024997   0.001294   0.414581
     8  H   -0.000242   0.030733  -0.055569   0.027375  -0.000601  -0.040421
     9  C   -0.066938   0.636140  -0.109011  -0.006487  -0.006082   0.072117
    10  O    0.000321   0.042318   0.004643   0.000078  -0.000005  -0.009637
    11  H    0.000255  -0.008426   0.001807   0.000000   0.000000   0.001007
    12  C   -0.191773  -3.359161  -0.140927   0.038419   0.032426   1.277144
    13  O    0.006067   0.048628  -0.035710  -0.000244   0.000168  -0.134126
    14  C    0.057105   1.412410  -0.995449   0.017906   0.007816  -2.920514
    15  O    0.000143  -0.044072   0.002342  -0.000657   0.000099   0.112206
    16  C   -0.000037   0.248791  -0.657760  -0.002541   0.001410  -0.838505
    17  C    0.001278   0.101816  -0.083911  -0.000538   0.000038   0.054484
    18  O    0.000040   0.007814  -0.003306  -0.000013   0.000000   0.002517
    19  H   -0.000014   0.000962  -0.001687   0.000005   0.000000  -0.005257
    20  C    0.000140   0.011836  -0.009545  -0.000082   0.000000   0.043762
    21  O    0.000000   0.000108   0.000136   0.000000   0.000000  -0.000053
    22  H    0.000000  -0.000191   0.000030   0.000000   0.000000   0.000839
    23  C    0.000271   0.008926  -0.080914  -0.000068   0.000027  -0.165641
    24  O    0.000000   0.000497   0.001135  -0.000003   0.000000  -0.002904
    25  H    0.000000   0.000007  -0.000062   0.000000   0.000000  -0.000640
    26  C   -0.000578  -0.016403  -0.069476   0.001965  -0.000008   0.127700
    27  O    0.000000  -0.000113   0.000078   0.000000   0.000000  -0.001361
    28  C   -0.000005  -0.001753   0.003917   0.000005   0.000000  -0.010622
    29  O    0.000000  -0.000003   0.000028   0.000000   0.000000  -0.000200
    30  H    0.000000   0.000000   0.000000   0.000000   0.000000   0.000000
    31  H    0.000000   0.000018   0.000019   0.000000   0.000000  -0.000293
    32  H    0.000000   0.000180   0.000026   0.000000   0.000000  -0.001428
    33  H    0.000000   0.000823  -0.000636   0.000000   0.000000  -0.000974
    34  H    0.000001   0.003732  -0.001209   0.000000   0.000000   0.005653
    35  H    0.000000   0.000291   0.000448   0.000000   0.000000  -0.006630
    36  H    0.000000  -0.003395   0.001665   0.000003   0.000000   0.031984
    37  H    0.000000   0.000414   0.000497  -0.000001   0.000000  -0.011825
    38  H    0.230998   0.070590  -0.050631  -0.001076  -0.001925   0.000422
    39  H   -0.000809   0.044858   0.000922  -0.000085  -0.000002   0.010003
    40  H   -0.001732   0.030706  -0.018002  -0.000057   0.000002  -0.007891
    41  H    0.007269   0.026091  -0.040200   0.000221  -0.000023  -0.033092
    42  H   -0.040100   0.392463  -0.059666   0.000641  -0.000826  -0.023159
    43  H   -0.004332   0.102870   0.270481  -0.042978  -0.003273  -0.233496
    44  H   -0.001403   0.147182  -0.091012   0.001889  -0.000155   0.227766
    45  H    0.000059   0.060938  -0.046144  -0.000396   0.000003  -0.125250
              7          8          9         10         11         12
     1  O   -0.000312  -0.000242  -0.066938   0.000321   0.000255  -0.191773
     2  C    0.007347   0.030733   0.636140   0.042318  -0.008426  -3.359161
     3  C   -0.024659  -0.055569  -0.109011   0.004643   0.001807  -0.140927
     4  O   -0.024997   0.027375  -0.006487   0.000078   0.000000   0.038419
     5  H    0.001294  -0.000601  -0.006082  -0.000005   0.000000   0.032426
     6  C    0.414581  -0.040421   0.072117  -0.009637   0.001007   1.277144
     7  O    8.230471   0.203217  -0.003471  -0.000023   0.000000  -0.001125
     8  H    0.203217   0.395428   0.000886   0.000000   0.000000  -0.000191
     9  C   -0.003471   0.000886   7.141886   0.125234  -0.019200  -2.176961
    10  O   -0.000023   0.000000   0.125234   8.334398   0.213875  -0.032440
    11  H    0.000000   0.000000  -0.019200   0.213875   0.420205   0.035422
    12  C   -0.001125  -0.000191  -2.176961  -0.032440   0.035422  12.170683
    13  O    0.006480  -0.000575  -0.003930   0.009071  -0.000484  -0.161234
    14  C   -0.246975   0.060543  -0.462456  -0.011052   0.000059  -1.154644
    15  O    0.001777   0.000222  -0.010787  -0.001674   0.000015   0.048770
    16  C   -0.032002   0.001314  -0.083690   0.010635   0.000152  -0.053491
    17  C    0.005941  -0.000124  -0.056436  -0.009290  -0.000345  -0.232901
    18  O    0.000072   0.000000  -0.006971   0.000441  -0.000042  -0.015278
    19  H   -0.000002   0.000000   0.006109   0.002096  -0.000033   0.000223
    20  C    0.000833  -0.000038  -0.011808   0.004843  -0.000124  -0.015674
    21  O   -0.000002   0.000000   0.000305   0.000014  -0.000002   0.000559
    22  H    0.000000   0.000000  -0.000900  -0.000011   0.000000  -0.000536
    23  C    0.005776  -0.000738  -0.007880   0.000238  -0.000002  -0.022956
    24  O    0.000496   0.000009  -0.000089   0.000000   0.000000  -0.001171
    25  H    0.000057   0.000000   0.000000   0.000000   0.000000   0.000004
    26  C   -0.002557  -0.001486   0.062536   0.000494  -0.000006   0.115817
    27  O   -0.000016   0.000001  -0.000037   0.000003   0.000000   0.000459
    28  C   -0.000494   0.000009  -0.004688   0.000213  -0.000006   0.010076
    29  O    0.000000   0.000000  -0.000009   0.000000   0.000000   0.000034
    30  H    0.000000   0.000000   0.000000   0.000000   0.000000   0.000000
    31  H    0.000000   0.000000  -0.000022   0.000000   0.000000   0.000085
    32  H    0.000001   0.000000   0.000604   0.000004   0.000000   0.001027
    33  H    0.000026   0.000000  -0.000407  -0.000004   0.000000   0.000274
    34  H    0.000596   0.000001  -0.004716  -0.000026   0.000000  -0.000494
    35  H    0.000055   0.000000  -0.000183   0.000000   0.000000   0.000368
    36  H   -0.004243  -0.000107   0.000416   0.000000   0.000000   0.004628
    37  H    0.000693   0.000000  -0.000092   0.000000   0.000000  -0.000488
    38  H   -0.000011   0.000001   0.006773   0.000099  -0.000002  -0.003432
    39  H   -0.000007   0.000000   0.577216  -0.064238  -0.002801  -0.275301
    40  H   -0.000002   0.000000   0.470190  -0.054782  -0.006538  -0.112007
    41  H   -0.000271  -0.000005   0.068465   0.001649  -0.000003   0.152635
    42  H   -0.000072   0.000016   0.000110  -0.000060   0.000002  -0.087827
    43  H    0.003914  -0.000261   0.020466  -0.000010   0.000000  -0.033005
    44  H   -0.057313  -0.003197   0.020874  -0.000008   0.000000  -0.040747
    45  H    0.006538  -0.000117   0.004280  -0.000214   0.000000  -0.046163
             13         14         15         16         17         18
     1  O    0.006067   0.057105   0.000143  -0.000037   0.001278   0.000040
     2  C    0.048628   1.412410  -0.044072   0.248791   0.101816   0.007814
     3  C   -0.035710  -0.995449   0.002342  -0.657760  -0.083911  -0.003306
     4  O   -0.000244   0.017906  -0.000657  -0.002541  -0.000538  -0.000013
     5  H    0.000168   0.007816   0.000099   0.001410   0.000038   0.000000
     6  C   -0.134126  -2.920514   0.112206  -0.838505   0.054484   0.002517
     7  O    0.006480  -0.246975   0.001777  -0.032002   0.005941   0.000072
     8  H   -0.000575   0.060543   0.000222   0.001314  -0.000124   0.000000
     9  C   -0.003930  -0.462456  -0.010787  -0.083690  -0.056436  -0.006971
    10  O    0.009071  -0.011052  -0.001674   0.010635  -0.009290   0.000441
    11  H   -0.000484   0.000059   0.000015   0.000152  -0.000345  -0.000042
    12  C   -0.161234  -1.154644   0.048770  -0.053491  -0.232901  -0.015278
    13  O    8.473876   0.327762  -0.059649   0.015139  -0.051056   0.009775
    14  C    0.327762  12.112440   0.155277  -0.422086  -1.320946  -0.028208
    15  O   -0.059649   0.155277   8.225037  -0.116648   0.026520   0.004887
    16  C    0.015139  -0.422086  -0.116648  21.396132  -5.534271  -0.096221
    17  C   -0.051056  -1.320946   0.026520  -5.534271  12.312879   0.407396
    18  O    0.009775  -0.028208   0.004887  -0.096221   0.407396   8.342285
    19  H    0.026019  -0.054750   0.000707  -0.025816   0.006476   0.226512
    20  C   -0.007261  -0.362806   0.054067  -3.753322   0.427171  -0.150200
    21  O    0.000154  -0.002891   0.000850  -0.075570  -0.183799  -0.036362
    22  H   -0.000288   0.016044  -0.000415   0.041825  -0.033509   0.030604
    23  C   -0.004859  -0.193259  -0.122100   0.591014  -0.579955   0.029867
    24  O    0.000137  -0.010865  -0.002345   0.157560  -0.020774   0.000295
    25  H    0.000000  -0.000827   0.000221  -0.028023   0.002349  -0.000001
    26  C    0.016748  -1.218323   0.123112  -7.820581   1.580673  -0.078222
    27  O    0.000250   0.002372   0.003427   0.144664  -0.129478   0.005108
    28  C    0.001672   0.166458  -0.006460   1.799443  -0.629727  -0.005598
    29  O    0.000024  -0.000240  -0.000130  -0.020221   0.043744  -0.000790
    30  H    0.000000   0.000167   0.000000  -0.008941  -0.002465   0.000040
    31  H    0.000014  -0.000197  -0.000184   0.131294  -0.086817  -0.000806
    32  H   -0.000027  -0.010627  -0.001359   0.147810  -0.208892   0.002411
    33  H    0.000220  -0.021476  -0.015593  -0.138835   0.376010  -0.063544
    34  H    0.001315  -0.079227  -0.078887   0.353609  -0.001188   0.003408
    35  H    0.000323   0.017875  -0.003567   0.146478  -0.104907   0.000420
    36  H   -0.001008   0.075233   0.015663  -0.127444  -0.047198  -0.000076
    37  H    0.000213  -0.008195  -0.004518   0.155196   0.011592   0.000045
    38  H   -0.000953  -0.004352  -0.000019   0.000295  -0.000032   0.000000
    39  H   -0.000435  -0.000940   0.000225  -0.001035   0.000655   0.000114
    40  H    0.006149   0.004805  -0.000071  -0.000271   0.000278  -0.000010
    41  H   -0.042043   0.079969  -0.001423   0.014382   0.003441  -0.000195
    42  H    0.008157   0.064580  -0.000772   0.004366   0.000238  -0.000014
    43  H    0.008242   0.118181  -0.001325   0.014415   0.000202  -0.000001
    44  H    0.016420  -0.037217  -0.018351   0.036411   0.004773   0.000008
    45  H   -0.042782   0.318710  -0.053200   0.079145   0.025687   0.000533
             19         20         21         22         23         24
     1  O   -0.000014   0.000140   0.000000   0.000000   0.000271   0.000000
     2  C    0.000962   0.011836   0.000108  -0.000191   0.008926   0.000497
     3  C   -0.001687  -0.009545   0.000136   0.000030  -0.080914   0.001135
     4  O    0.000005  -0.000082   0.000000   0.000000  -0.000068  -0.000003
     5  H    0.000000   0.000000   0.000000   0.000000   0.000027   0.000000
     6  C   -0.005257   0.043762  -0.000053   0.000839  -0.165641  -0.002904
     7  O   -0.000002   0.000833  -0.000002   0.000000   0.005776   0.000496
     8  H    0.000000  -0.000038   0.000000   0.000000  -0.000738   0.000009
     9  C    0.006109  -0.011808   0.000305  -0.000900  -0.007880  -0.000089
    10  O    0.002096   0.004843   0.000014  -0.000011   0.000238   0.000000
    11  H   -0.000033  -0.000124  -0.000002   0.000000  -0.000002   0.000000
    12  C    0.000223  -0.015674   0.000559  -0.000536  -0.022956  -0.001171
    13  O    0.026019  -0.007261   0.000154  -0.000288  -0.004859   0.000137
    14  C   -0.054750  -0.362806  -0.002891   0.016044  -0.193259  -0.010865
    15  O    0.000707   0.054067   0.000850  -0.000415  -0.122100  -0.002345
    16  C   -0.025816  -3.753322  -0.075570   0.041825   0.591014   0.157560
    17  C    0.006476   0.427171  -0.183799  -0.033509  -0.579955  -0.020774
    18  O    0.226512  -0.150200  -0.036362   0.030604   0.029867   0.000295
    19  H    0.333811   0.029991   0.002737  -0.002253   0.001044   0.000002
    20  C    0.029991   9.747150   0.468988  -0.035689   0.180828   0.000723
    21  O    0.002737   0.468988   8.201189   0.205642  -0.006458  -0.000042
    22  H   -0.002253  -0.035689   0.205642   0.407353   0.003017   0.000002
    23  C    0.001044   0.180828  -0.006458   0.003017   7.658250   0.003044
    24  O    0.000002   0.000723  -0.000042   0.000002   0.003044   8.307975
    25  H    0.000000   0.000927   0.000000   0.000000   0.030241   0.203236
    26  C    0.025235   1.284613   0.063042  -0.023268  -2.278907  -0.042278
    27  O    0.000032  -0.337773   0.011108  -0.000410  -0.168341  -0.004607
    28  C    0.001081  -1.364947  -0.174722   0.025481   0.035118   0.034670
    29  O    0.000010  -0.183191   0.011036  -0.000498  -0.000038  -0.000999
    30  H    0.000000   0.034725  -0.000890   0.000013   0.002022   0.000012
    31  H   -0.000014  -0.190634   0.012045  -0.000113  -0.015452  -0.000613
    32  H    0.000473   0.277561  -0.041436  -0.002037  -0.003864  -0.000145
    33  H    0.005402  -0.131724   0.004847  -0.000301   0.014530  -0.000085
    34  H    0.001486   0.013764   0.000103   0.000084   0.029147  -0.000014
    35  H    0.000004  -0.022409   0.000231  -0.000016   0.060279  -0.002647
    36  H    0.000000   0.000923   0.000005   0.000000   0.466351  -0.057116
    37  H    0.000000  -0.005648  -0.000020   0.000000   0.465158  -0.044494
    38  H    0.000000  -0.000001   0.000000   0.000000   0.000001   0.000000
    39  H   -0.000035  -0.000526   0.000001   0.000000  -0.000050   0.000000
    40  H    0.000016   0.000165   0.000000   0.000000   0.000013   0.000000
    41  H    0.000133  -0.000061   0.000001   0.000000   0.000231   0.000000
    42  H    0.000009  -0.000027   0.000000   0.000000   0.000018   0.000000
    43  H    0.000000  -0.000018   0.000000   0.000000   0.000694  -0.000001
    44  H    0.000021   0.000331   0.000000   0.000000   0.002820  -0.000005
    45  H    0.000047   0.010307  -0.000002   0.000000   0.016440  -0.000006
             25         26         27         28         29         30
     1  O    0.000000  -0.000578   0.000000  -0.000005   0.000000   0.000000
     2  C    0.000007  -0.016403  -0.000113  -0.001753  -0.000003   0.000000
     3  C   -0.000062  -0.069476   0.000078   0.003917   0.000028   0.000000
     4  O    0.000000   0.001965   0.000000   0.000005   0.000000   0.000000
     5  H    0.000000  -0.000008   0.000000   0.000000   0.000000   0.000000
     6  C   -0.000640   0.127700  -0.001361  -0.010622  -0.000200   0.000000
     7  O    0.000057  -0.002557  -0.000016  -0.000494   0.000000   0.000000
     8  H    0.000000  -0.001486   0.000001   0.000009   0.000000   0.000000
     9  C    0.000000   0.062536  -0.000037  -0.004688  -0.000009   0.000000
    10  O    0.000000   0.000494   0.000003   0.000213   0.000000   0.000000
    11  H    0.000000  -0.000006   0.000000  -0.000006   0.000000   0.000000
    12  C    0.000004   0.115817   0.000459   0.010076   0.000034   0.000000
    13  O    0.000000   0.016748   0.000250   0.001672   0.000024   0.000000
    14  C   -0.000827  -1.218323   0.002372   0.166458  -0.000240   0.000167
    15  O    0.000221   0.123112   0.003427  -0.006460  -0.000130   0.000000
    16  C   -0.028023  -7.820581   0.144664   1.799443  -0.020221  -0.008941
    17  C    0.002349   1.580673  -0.129478  -0.629727   0.043744  -0.002465
    18  O   -0.000001  -0.078222   0.005108  -0.005598  -0.000790   0.000040
    19  H    0.000000   0.025235   0.000032   0.001081   0.000010   0.000000
    20  C    0.000927   1.284613  -0.337773  -1.364947  -0.183191   0.034725
    21  O    0.000000   0.063042   0.011108  -0.174722   0.011036  -0.000890
    22  H    0.000000  -0.023268  -0.000410   0.025481  -0.000498   0.000013
    23  C    0.030241  -2.278907  -0.168341   0.035118  -0.000038   0.002022
    24  O    0.203236  -0.042278  -0.004607   0.034670  -0.000999   0.000012
    25  H    0.447533   0.016646  -0.001475  -0.003372   0.000028   0.000000
    26  C    0.016646  15.794194   0.376888  -1.493497  -0.043194   0.014463
    27  O   -0.001475   0.376888   8.393224   0.170487  -0.062130  -0.001597
    28  C   -0.003372  -1.493497   0.170487   6.216056   0.424511  -0.029686
    29  O    0.000028  -0.043194  -0.062130   0.424511   8.135885   0.242546
    30  H    0.000000   0.014463  -0.001597  -0.029686   0.242546   0.410151
    31  H   -0.000001  -0.022480  -0.050918   0.500682  -0.047991  -0.008847
    32  H    0.000000   0.074886   0.000023  -0.020373  -0.000003   0.000031
    33  H    0.000000   0.102577  -0.002334   0.031920   0.001308   0.000013
    34  H   -0.000004  -0.075561   0.003042   0.013732  -0.000262   0.000002
    35  H    0.000074   0.145826  -0.049367   0.048473  -0.001504   0.000010
    36  H   -0.002107  -0.048712   0.004416   0.004468  -0.000013   0.000000
    37  H   -0.007796  -0.252864  -0.004217   0.010317  -0.000295   0.000000
    38  H    0.000000   0.000009   0.000000   0.000000   0.000000   0.000000
    39  H    0.000000   0.000332   0.000000  -0.000024   0.000000   0.000000
    40  H    0.000000  -0.000053   0.000000   0.000002   0.000000   0.000000
    41  H    0.000000   0.002896   0.000000  -0.000108   0.000000   0.000000
    42  H    0.000000   0.000912   0.000000  -0.000009   0.000000   0.000000
    43  H    0.000000   0.002772   0.000000  -0.000019   0.000000   0.000000
    44  H    0.000000   0.010831  -0.000002  -0.000175   0.000000   0.000000
    45  H   -0.000001   0.012352  -0.000262  -0.001923  -0.000004   0.000000
             31         32         33         34         35         36
     1  O    0.000000   0.000000   0.000000   0.000001   0.000000   0.000000
     2  C    0.000018   0.000180   0.000823   0.003732   0.000291  -0.003395
     3  C    0.000019   0.000026  -0.000636  -0.001209   0.000448   0.001665
     4  O    0.000000   0.000000   0.000000   0.000000   0.000000   0.000003
     5  H    0.000000   0.000000   0.000000   0.000000   0.000000   0.000000
     6  C   -0.000293  -0.001428  -0.000974   0.005653  -0.006630   0.031984
     7  O    0.000000   0.000001   0.000026   0.000596   0.000055  -0.004243
     8  H    0.000000   0.000000   0.000000   0.000001   0.000000  -0.000107
     9  C   -0.000022   0.000604  -0.000407  -0.004716  -0.000183   0.000416
    10  O    0.000000   0.000004  -0.000004  -0.000026   0.000000   0.000000
    11  H    0.000000   0.000000   0.000000   0.000000   0.000000   0.000000
    12  C    0.000085   0.001027   0.000274  -0.000494   0.000368   0.004628
    13  O    0.000014  -0.000027   0.000220   0.001315   0.000323  -0.001008
    14  C   -0.000197  -0.010627  -0.021476  -0.079227   0.017875   0.075233
    15  O   -0.000184  -0.001359  -0.015593  -0.078887  -0.003567   0.015663
    16  C    0.131294   0.147810  -0.138835   0.353609   0.146478  -0.127444
    17  C   -0.086817  -0.208892   0.376010  -0.001188  -0.104907  -0.047198
    18  O   -0.000806   0.002411  -0.063544   0.003408   0.000420  -0.000076
    19  H   -0.000014   0.000473   0.005402   0.001486   0.000004   0.000000
    20  C   -0.190634   0.277561  -0.131724   0.013764  -0.022409   0.000923
    21  O    0.012045  -0.041436   0.004847   0.000103   0.000231   0.000005
    22  H   -0.000113  -0.002037  -0.000301   0.000084  -0.000016   0.000000
    23  C   -0.015452  -0.003864   0.014530   0.029147   0.060279   0.466351
    24  O   -0.000613  -0.000145  -0.000085  -0.000014  -0.002647  -0.057116
    25  H   -0.000001   0.000000   0.000000  -0.000004   0.000074  -0.002107
    26  C   -0.022480   0.074886   0.102577  -0.075561   0.145826  -0.048712
    27  O   -0.050918   0.000023  -0.002334   0.003042  -0.049367   0.004416
    28  C    0.500682  -0.020373   0.031920   0.013732   0.048473   0.004468
    29  O   -0.047991  -0.000003   0.001308  -0.000262  -0.001504  -0.000013
    30  H   -0.008847   0.000031   0.000013   0.000002   0.000010   0.000000
    31  H    0.644812   0.005226   0.010369  -0.000008   0.006009   0.000006
    32  H    0.005226   0.629844   0.008811   0.004389  -0.000103  -0.000004
    33  H    0.010369   0.008811   0.688569   0.010760   0.008629  -0.000043
    34  H   -0.000008   0.004389   0.010760   0.682370   0.007489  -0.000945
    35  H    0.006009  -0.000103   0.008629   0.007489   0.602972  -0.002572
    36  H    0.000006  -0.000004  -0.000043  -0.000945  -0.002572   0.585990
    37  H   -0.000001  -0.000074  -0.000004   0.003172   0.005947  -0.052017
    38  H    0.000000   0.000000   0.000000   0.000000   0.000000   0.000000
    39  H    0.000000   0.000000   0.000000   0.000000   0.000000   0.000000
    40  H    0.000000   0.000000   0.000000   0.000000   0.000000   0.000000
    41  H    0.000000   0.000000   0.000000  -0.000137   0.000000   0.000000
    42  H    0.000000   0.000000   0.000000  -0.000001   0.000000   0.000000
    43  H    0.000000   0.000000   0.000000  -0.000012   0.000000   0.000004
    44  H    0.000000   0.000000  -0.000003  -0.000031  -0.000004   0.000015
    45  H    0.000000  -0.000017  -0.000015   0.012895  -0.000012  -0.000207
             37         38         39         40         41         42
     1  O    0.000000   0.230998  -0.000809  -0.001732   0.007269  -0.040100
     2  C    0.000414   0.070590   0.044858   0.030706   0.026091   0.392463
     3  C    0.000497  -0.050631   0.000922  -0.018002  -0.040200  -0.059666
     4  O   -0.000001  -0.001076  -0.000085  -0.000057   0.000221   0.000641
     5  H    0.000000  -0.001925  -0.000002   0.000002  -0.000023  -0.000826
     6  C   -0.011825   0.000422   0.010003  -0.007891  -0.033092  -0.023159
     7  O    0.000693  -0.000011  -0.000007  -0.000002  -0.000271  -0.000072
     8  H    0.000000   0.000001   0.000000   0.000000  -0.000005   0.000016
     9  C   -0.000092   0.006773   0.577216   0.470190   0.068465   0.000110
    10  O    0.000000   0.000099  -0.064238  -0.054782   0.001649  -0.000060
    11  H    0.000000  -0.000002  -0.002801  -0.006538  -0.000003   0.000002
    12  C   -0.000488  -0.003432  -0.275301  -0.112007   0.152635  -0.087827
    13  O    0.000213  -0.000953  -0.000435   0.006149  -0.042043   0.008157
    14  C   -0.008195  -0.004352  -0.000940   0.004805   0.079969   0.064580
    15  O   -0.004518  -0.000019   0.000225  -0.000071  -0.001423  -0.000772
    16  C    0.155196   0.000295  -0.001035  -0.000271   0.014382   0.004366
    17  C    0.011592  -0.000032   0.000655   0.000278   0.003441   0.000238
    18  O    0.000045   0.000000   0.000114  -0.000010  -0.000195  -0.000014
    19  H    0.000000   0.000000  -0.000035   0.000016   0.000133   0.000009
    20  C   -0.005648  -0.000001  -0.000526   0.000165  -0.000061  -0.000027
    21  O   -0.000020   0.000000   0.000001   0.000000   0.000001   0.000000
    22  H    0.000000   0.000000   0.000000   0.000000   0.000000   0.000000
    23  C    0.465158   0.000001  -0.000050   0.000013   0.000231   0.000018
    24  O   -0.044494   0.000000   0.000000   0.000000   0.000000   0.000000
    25  H   -0.007796   0.000000   0.000000   0.000000   0.000000   0.000000
    26  C   -0.252864   0.000009   0.000332  -0.000053   0.002896   0.000912
    27  O   -0.004217   0.000000   0.000000   0.000000   0.000000   0.000000
    28  C    0.010317   0.000000  -0.000024   0.000002  -0.000108  -0.000009
    29  O   -0.000295   0.000000   0.000000   0.000000   0.000000   0.000000
    30  H    0.000000   0.000000   0.000000   0.000000   0.000000   0.000000
    31  H   -0.000001   0.000000   0.000000   0.000000   0.000000   0.000000
    32  H   -0.000074   0.000000   0.000000   0.000000   0.000000   0.000000
    33  H   -0.000004   0.000000   0.000000   0.000000   0.000000   0.000000
    34  H    0.003172   0.000000   0.000000   0.000000  -0.000137  -0.000001
    35  H    0.005947   0.000000   0.000000   0.000000   0.000000   0.000000
    36  H   -0.052017   0.000000   0.000000   0.000000   0.000000   0.000000
    37  H    0.604270   0.000000   0.000000   0.000000   0.000000   0.000000
    38  H    0.000000   0.399542  -0.000019  -0.000940  -0.000151  -0.011491
    39  H    0.000000  -0.000019   0.623289  -0.051447   0.007124   0.003499
    40  H    0.000000  -0.000940  -0.051447   0.594109  -0.005678  -0.000163
    41  H    0.000000  -0.000151   0.007124  -0.005678   0.608917   0.005661
    42  H    0.000000  -0.011491   0.003499  -0.000163   0.005661   0.582583
    43  H    0.000000   0.000101  -0.000006  -0.000010   0.003185   0.004889
    44  H   -0.000001   0.000030  -0.000010   0.000000   0.000107   0.002472
    45  H   -0.000016   0.000001   0.000000   0.000005   0.005028  -0.000050
             43         44         45
     1  O   -0.004332  -0.001403   0.000059
     2  C    0.102870   0.147182   0.060938
     3  C    0.270481  -0.091012  -0.046144
     4  O   -0.042978   0.001889  -0.000396
     5  H   -0.003273  -0.000155   0.000003
     6  C   -0.233496   0.227766  -0.125250
     7  O    0.003914  -0.057313   0.006538
     8  H   -0.000261  -0.003197  -0.000117
     9  C    0.020466   0.020874   0.004280
    10  O   -0.000010  -0.000008  -0.000214
    11  H    0.000000   0.000000   0.000000
    12  C   -0.033005  -0.040747  -0.046163
    13  O    0.008242   0.016420  -0.042782
    14  C    0.118181  -0.037217   0.318710
    15  O   -0.001325  -0.018351  -0.053200
    16  C    0.014415   0.036411   0.079145
    17  C    0.000202   0.004773   0.025687
    18  O   -0.000001   0.000008   0.000533
    19  H    0.000000   0.000021   0.000047
    20  C   -0.000018   0.000331   0.010307
    21  O    0.000000   0.000000  -0.000002
    22  H    0.000000   0.000000   0.000000
    23  C    0.000694   0.002820   0.016440
    24  O   -0.000001  -0.000005  -0.000006
    25  H    0.000000   0.000000  -0.000001
    26  C    0.002772   0.010831   0.012352
    27  O    0.000000  -0.000002  -0.000262
    28  C   -0.000019  -0.000175  -0.001923
    29  O    0.000000   0.000000  -0.000004
    30  H    0.000000   0.000000   0.000000
    31  H    0.000000   0.000000   0.000000
    32  H    0.000000   0.000000  -0.000017
    33  H    0.000000  -0.000003  -0.000015
    34  H   -0.000012  -0.000031   0.012895
    35  H    0.000000  -0.000004  -0.000012
    36  H    0.000004   0.000015  -0.000207
    37  H    0.000000  -0.000001  -0.000016
    38  H    0.000101   0.000030   0.000001
    39  H   -0.000006  -0.000010   0.000000
    40  H   -0.000010   0.000000   0.000005
    41  H    0.003185   0.000107   0.005028
    42  H    0.004889   0.002472  -0.000050
    43  H    0.606630   0.007241   0.002815
    44  H    0.007241   0.609637   0.006221
    45  H    0.002815   0.006221   0.620948
 Mulliken atomic charges:
              1
     1  O   -0.555439
     2  C   -0.260647
     3  C   -0.048480
     4  O   -0.566587
     5  H    0.368883
     6  C   -0.078478
     7  O   -0.491609
     8  H    0.383915
     9  C   -0.171352
    10  O   -0.567189
    11  H    0.365214
    12  C    0.270878
    13  O   -0.436359
    14  C    0.552808
    15  O   -0.231359
    16  C    0.345830
    17  C   -0.075078
    18  O   -0.588736
    19  H    0.419218
    20  C   -0.010143
    21  O   -0.460852
    22  H    0.369503
    23  C    0.046115
    24  O   -0.518588
    25  H    0.342988
    26  C   -0.469064
    27  O   -0.301144
    28  C    0.249418
    29  O   -0.497438
    30  H    0.348231
    31  H    0.114812
    32  H    0.137082
    33  H    0.110890
    34  H    0.091972
    35  H    0.141722
    36  H    0.155436
    37  H    0.135053
    38  H    0.366171
    39  H    0.129530
    40  H    0.153213
    41  H    0.135984
    42  H    0.153621
    43  H    0.151645
    44  H    0.154585
    45  H    0.133830
 Sum of Mulliken atomic charges =   0.00000
 Mulliken charges with hydrogens summed into heavy atoms:
              1
     1  O   -0.189269
     2  C   -0.107026
     3  C    0.103165
     4  O   -0.197705
     6  C    0.076107
     7  O   -0.107694
     9  C    0.111391
    10  O   -0.201975
    12  C    0.406861
    13  O   -0.436359
    14  C    0.686637
    15  O   -0.231359
    16  C    0.437802
    17  C    0.035812
    18  O   -0.169518
    20  C    0.126939
    21  O   -0.091349
    23  C    0.336603
    24  O   -0.175601
    26  C   -0.327342
    27  O   -0.301144
    28  C    0.364230
    29  O   -0.149207
 Sum of Mulliken charges with hydrogens summed into heavy atoms =   0.00000
 APT atomic charges:
              1
     1  O   -0.636128
     2  C    0.420233
     3  C    0.383587
     4  O   -0.701204
     5  H    0.286367
     6  C    0.351019
     7  O   -0.616798
     8  H    0.308541
     9  C    0.456949
    10  O   -0.650869
    11  H    0.268425
    12  C    0.429046
    13  O   -0.739322
    14  C    0.871698
    15  O   -0.829377
    16  C    0.435663
    17  C    0.365679
    18  O   -0.694845
    19  H    0.344193
    20  C    0.353101
    21  O   -0.660426
    22  H    0.337893
    23  C    0.457296
    24  O   -0.614166
    25  H    0.240186
    26  C    0.463092
    27  O   -0.810886
    28  C    0.967000
    29  O   -0.679187
    30  H    0.268196
    31  H   -0.072376
    32  H   -0.051007
    33  H   -0.056461
    34  H   -0.046992
    35  H   -0.047792
    36  H   -0.030084
    37  H   -0.043761
    38  H    0.257782
    39  H   -0.053963
    40  H   -0.021759
    41  H   -0.047605
    42  H   -0.031583
    43  H   -0.050964
    44  H   -0.029315
    45  H   -0.049079
 Sum of APT charges=   0.00000
 APT Atomic charges with hydrogens summed into heavy atoms:
[...]
 0029249,-0.00003811,-0.00033515,-0.00003384,0.00009300,0.00004551,0.00
 007609,-0.00001718,0.00001884,0.00001167,-0.00001158,0.00002543,0.0000
 1651,0.00004234,-0.00002320,-0.00003896,-0.00004472,0.00001397,0.00003
 197,-0.00001626,0.00000494,-0.00000249,0.00001588,-0.00000395,-0.00001
 056,-0.00001593,-0.00000257,0.00001272,-0.00001090,0.00000298,0.000004
 65,0.00000740,-0.00000353,-0.00000562,-0.00000387,-0.00000021,0.000001
 52,-0.00000590,-0.00000303,0.00001177,0.00000943,0.00000008,-0.0000053
 5,-0.00000381,0.00000249,0.00000840,0.00000514,-0.00000181,-0.00000956
 ,-0.00000030,0.00000027,0.00000157,0.00000272,0.00000029,0.00000078,0.
 00000533,-0.00000237,-0.00000043,0.00000046,-0.00000245,0.00000064,0.0
 0001065,-0.00000227,-0.00000115,0.00000351,-0.00000116,0.00000312,-0.0
 0000258,0.00000165,-0.00000027,0.00000469,-0.00000072,-0.00000348,0.00
 095529,-0.00025055,-0.00044237,0.00046727,-0.00078763,-0.00005011,-0.0
 0001573,0.00007231,0.00001046,-0.00042223,-0.00141817,0.00155365,0.362
 36697,-0.00677595,0.00250181,-0.00204791,0.08402277,-0.06856551,-0.006
 75181,0.03223948,-0.01075773,-0.00539290,-0.00085248,0.00444813,-0.000
 46799,0.00046490,-0.00050948,0.00041648,0.00173217,0.00043967,0.001677
 10,-0.00105762,0.00015168,-0.00006938,0.00029633,-0.00005206,-0.000150
 13,-0.00118890,0.00173935,0.00002902,0.00048781,-0.00000610,-0.0000981
 2,0.00003260,-0.00004792,-0.00005377,-0.02143085,0.00611615,0.00268892
 ,0.00112123,0.00035968,-0.00185453,-0.00000150,-0.00038926,0.00010189,
 0.00002975,0.00010913,-0.00001151,-0.00002607,0.00004306,-0.00001393,-
 0.00000174,0.00001568,0.00000785,0.00001668,-0.00001611,-0.00003190,-0
 .00001679,0.00000988,0.00002997,-0.00000996,0.00000448,-0.00000212,0.0
 0000669,-0.00000201,-0.00000758,-0.00000788,0.00000034,0.00000753,0.00
 000641,0.00000525,0.00001295,-0.00001064,-0.00000617,-0.00001122,0.000
 00294,0.00000217,0.00000286,0.00000400,-0.00000938,0.00001002,-0.00000
 117,0.00000352,-0.00000420,0.00000297,-0.00000114,0.00000766,0.0000014
 3,-0.00000034,-0.00000656,0.00000044,-0.00000009,0.00000102,0.00000020
 ,0.00000064,-0.00000003,0.00000226,-0.00000120,-0.00000063,-0.00000053
 ,-0.00000222,-0.00000325,-0.00000079,-0.00000753,0.00001018,-0.0000013
 3,0.00000240,-0.00000097,0.00000693,-0.00000020,-0.00000064,-0.0000045
 2,-0.00000063,0.00000318,-0.00032410,0.00122821,0.00045390,0.00053469,
 -0.00034240,0.00006767,0.00000403,-0.00001660,-0.00011192,-0.00186458,
 -0.00190126,0.00262288,-0.08601634,0.07055845,-0.03998640,0.00464597,-
 0.01363277,0.03344486,-0.00945632,-0.04692030,0.01112581,-0.00140120,-
 0.00022547,-0.00110142,0.00127086,0.00069617,-0.00048103,-0.00020273,-
 0.00001394,0.00122259,-0.00025750,0.00056557,-0.00033815,0.00014017,-0
 .00007257,0.00005523,-0.00001805,0.00002384,-0.00023317,-0.00146155,0.
 00008103,-0.00013469,0.00010666,0.00002290,-0.00007216,0.00004233,0.00
 000074,0.02274031,-0.00600765,-0.00177210,-0.00106545,-0.00004679,0.00
 226843,0.00047263,-0.00030384,-0.00026560,-0.00011237,0.00000684,-0.00
 016201,0.00000448,-0.00001640,0.00000657,0.00001483,-0.00002521,-0.000
 01094,-0.00005282,0.00001400,0.00002131,0.00007459,-0.00000578,-0.0000
 1307,0.00000838,-0.00000793,0.00000560,-0.00000935,0.00001317,-0.00000
 230,0.00001126,-0.00000181,-0.00000159,0.00001028,0.00000926,0.0000151
 5,-0.00001209,-0.00000981,-0.00001426,0.00000250,0.00000271,0.00000273
 ,0.00000114,0.00000412,0.00000853,-0.00000457,0.00000951,-0.00001851,0
 .00000207,-0.00001037,0.00001913,0.00000137,0.00000251,-0.00001086,0.0
 0000085,-0.00000062,0.00000234,-0.00000287,0.00000010,-0.00000189,-0.0
 0000730,0.00000178,0.00000181,-0.00000338,0.00000190,-0.00000639,-0.00
 002092,0.00000330,0.00001207,-0.00000483,0.00000030,-0.00000733,0.0000
 0544,0.00000228,-0.00000141,-0.00000563,0.00000108,0.00000308,-0.00244
 399,0.00082978,0.00328653,-0.00026848,0.00039246,0.00015167,0.00004143
 ,0.00030588,0.00005381,0.00168197,0.00247405,-0.00308174,-0.02377316,0
 .01127116,0.05989843,0.00118015,0.00012062,0.00039464,-0.00289036,0.00
 044791,-0.00102517,-0.33094568,0.08805562,-0.00682538,-0.01730381,-0.0
 0551005,0.01307038,-0.00066369,-0.00040509,-0.00048792,-0.01332460,0.0
 0723561,-0.00253425,0.00204779,-0.00087394,0.00078727,-0.00059933,0.00
 019446,0.00044293,0.00063805,0.00006704,-0.00016282,-0.00004217,0.0000
 7836,0.00007652,0.00001642,0.00003535,-0.00001385,-0.00046851,-0.00061
 330,0.00015946,0.00046047,0.00019086,0.00014923,-0.00081726,-0.0011071
 1,0.00059206,0.00043398,0.00006119,-0.00040501,-0.00008629,0.00008364,
 -0.00004376,0.00003767,-0.00002065,-0.00004103,0.00002883,0.00000717,0
 .00000768,-0.00002793,-0.00000527,-0.00001354,-0.00003173,0.00001700,0
 .00000457,0.00002038,0.00001011,-0.00000673,-0.00001270,-0.00000386,-0
 .00000154,-0.00004202,-0.00000078,-0.00000246,0.00003613,0.00000148,0.
 00000921,-0.00001443,-0.00000536,-0.00000293,-0.00000030,0.00002947,0.
 00001706,0.00002107,-0.00000856,-0.00002108,-0.00000477,-0.00000239,0.
 00000520,0.00000563,-0.00000121,-0.00000601,-0.00000056,0.00000060,0.0
 0000026,0.00000358,-0.00000003,0.00000143,0.00000649,-0.00000218,0.000
 00030,0.00000264,-0.00000200,0.00000827,0.00002956,0.00001945,-0.00005
 302,0.00000807,-0.00000807,0.00000961,-0.00002663,0.00000559,0.0000038
 2,0.00002459,0.00000099,-0.00002150,0.00013485,-0.00030710,-0.00013109
 ,-0.00006717,-0.00029346,-0.00003818,-0.00000403,-0.00000656,0.0000025
 9,0.00102452,-0.00038316,-0.00029777,0.00049517,-0.00030855,-0.0001690
 2,0.36021312,-0.00175918,0.00290073,0.00135210,0.03254767,-0.01280045,
 0.00144473,0.08747159,-0.06911500,-0.00317945,-0.02739436,0.00259429,0
 .00895265,-0.00052722,0.00049523,-0.00071740,-0.00421518,0.00242807,-0
 .00090979,0.00052298,0.00181418,0.00091951,-0.00039450,0.00009345,0.00
 048834,-0.00007629,0.00006946,-0.00005244,-0.00022329,-0.00010793,0.00
 004672,0.00000772,-0.00000544,0.00001440,0.00301304,0.00077078,-0.0013
 4332,-0.00050560,-0.00014460,0.00023378,0.00077270,-0.00001959,0.00029
 765,-0.00004975,-0.00000221,-0.00014115,0.00000881,0.00000333,0.000002
 04,0.00001402,-0.00003081,-0.00002620,-0.00002004,0.00001319,0.0000361
 2,0.00001368,0.00000285,-0.00003047,0.00000488,-0.00000088,0.00000395,
 -0.00000657,0.00000741,0.00000279,0.00000781,-0.00000009,-0.00000745,0
 .00000087,0.00000210,-0.00000758,0.00000047,-0.00000540,0.00000679,-0.
 00000074,0.00000045,-0.00000686,0.00000017,0.00001698,0.00000173,-0.00
 000195,-0.00000786,-0.00000178,-0.00000025,0.00000149,0.00000025,-0.00
 000118,-0.00000045,0.00000252,-0.00000003,0.00000028,-0.00000076,-0.00
 000097,-0.00000065,-0.00000077,-0.00000279,0.00000105,0.00000073,-0.00
 000226,0.00000487,-0.00000055,-0.00001295,0.00000062,0.00000757,-0.000
 00120,-0.00000283,-0.00000306,-0.00000532,0.00000621,-0.00000304,0.000
 00106,0.00000186,-0.00000080,-0.00003285,0.00022449,0.00032248,-0.0002
 4476,0.00018887,0.00008344,0.00002225,-0.00003097,-0.00002103,-0.00112
 207,-0.00032761,0.00049417,0.00007896,-0.00511457,-0.00197090,-0.08712
 334,0.07577757,0.00007615,0.00141395,0.00131714,0.01065743,-0.00690611
 ,0.00079766,-0.00876800,-0.00267441,-0.04179176,0.03058472,0.00426573,
 -0.00948033,0.00156152,-0.00039598,0.00065464,-0.03386531,0.01135828,-
 0.00211980,0.00312346,0.00017415,0.00234774,-0.00026697,-0.00029550,-0
 .00035982,-0.00008188,-0.00000840,0.00006674,-0.00005184,-0.00008552,-
 0.00001571,-0.00000687,-0.00001410,0.00001280,-0.00018006,0.00089828,-
 0.00055405,0.00029904,0.00045237,-0.00034554,-0.00148464,-0.00058704,0
 .00189456,0.00044028,-0.00006732,-0.00021052,0.00005258,0.00001240,0.0
 0004606,0.00002641,-0.00001260,-0.00001457,0.00001835,0.00002139,-0.00
 002323,-0.00001406,-0.00003465,0.00001797,-0.00002372,0.00000693,0.000
 00396,0.00001450,0.00001810,-0.00001692,-0.00001105,-0.00000890,0.0000
 0748,-0.00001193,0.00001976,0.00000186,0.00001526,-0.00001951,-0.00000
 212,-0.00000441,-0.00000120,-0.00000456,-0.00000263,0.00003275,0.00004
 643,0.00001786,-0.00000574,-0.00004461,-0.00000095,-0.00001004,0.00002
 863,0.00000839,-0.00000003,-0.00002161,0.00000011,0.00000041,0.0000029
 4,0.00000152,0.00000012,0.00000021,0.00000151,-0.00000070,0.00000105,-
 0.00000016,-0.00000291,0.00000221,0.00005236,0.00002132,-0.00006684,0.
 00000556,-0.00000595,0.00000750,-0.00002897,0.00001260,-0.00000355,0.0
 0001658,-0.00000191,-0.00001992,0.00010226,0.00024520,0.00008133,-0.00
 002888,0.00006288,0.00000181,0.00000548,0.00000499,0.00000047,-0.00021
 094,0.00042267,0.00029329,0.00026526,-0.00175157,-0.00059554,-0.000509
 27,-0.00577008,0.05450205,0.00067372,-0.00010115,0.00007245,-0.0007164
 0,0.00131568,0.00051769,-0.01824838,0.00353186,-0.00279045,0.00197808,
 -0.00020515,0.00025782,0.00013566,-0.00000342,0.00010219,-0.32256061,0
 .09181348,0.02288753,0.01076784,0.00161274,-0.00046385,0.00043600,0.00
 037033,0.00049351,-0.00006506,-0.00000812,0.00005441,0.00007674,0.0000
 2882,-0.00002705,-0.00001549,-0.00000804,-0.00000403,-0.00060780,-0.00
 042772,-0.00023958,0.00266046,0.00049395,-0.00095624,-0.02180302,0.004
 00702,0.00447082,0.00162911,0.00064965,-0.00243777,0.00021660,0.000142
 37,0.00004553,0.00019770,0.00001253,0.00001655,0.00007128,-0.00001073,
 -0.00009256,-0.00007402,-0.00004384,0.00004325,-0.00006531,0.00006230,
 -0.00000288,0.00003680,0.00001307,-0.00004853,-0.00002688,-0.00001448,
 0.00002348,-0.00002951,0.00002464,-0.00006960,0.00002246,-0.00002651,0
 .00004546,0.00000008,-0.00000869,-0.00001936,0.00009880,0.00010489,0.0
 0005922,0.00001046,-0.00006949,-0.00006353,0.00000375,0.00002271,0.000
 03139,0.00000613,-0.00001003,-0.00002480,0.00000078,0.00000290,0.00000
 187,0.00000424,-0.00000118,0.00000083,0.00000875,-0.00000365,0.0000033
 9,-0.00000244,-0.00004436,0.00001574,0.00030609,0.00008698,-0.00031812
 ,0.00000467,0.00000153,0.00002775,-0.00003684,0.00001801,-0.00000054,0
 .00002683,-0.00000665,-0.00002294,-0.00003520,-0.00004707,-0.00013107,
 0.00003675,-0.00007463,-0.00001756,0.00000806,0.00000555,-0.00000133,0
 .00023905,0.00016363,0.00000857,0.00059215,-0.00103081,-0.00040734,0.0
 0006419,-0.00065534,-0.00237551,0.34412702,-0.00006242,-0.00006233,0.0
 0012759,-0.00097922,-0.00005973,-0.00071262,-0.00251707,0.00310448,0.0
 0024962,0.00031824,0.00014383,-0.00003687,-0.00010181,0.00000685,0.000
 01380,0.09363987,-0.06117933,-0.00368453,0.02894973,-0.04848641,-0.008
 43015,0.00166510,-0.00075578,-0.00113957,-0.00003381,0.00000596,-0.000
 01887,0.00000144,-0.00001211,-0.00000358,0.00000612,-0.00000049,0.0000
 0127,-0.00031064,-0.00011986,-0.00026311,-0.00021541,0.00146987,0.0006
 8457,-0.02007612,0.00367496,0.00500350,-0.00006806,0.00007330,-0.00027
 221,-0.00059117,0.00017303,0.00002362,0.00011490,0.00003388,0.00000953
 ,0.00004352,-0.00002861,-0.00004342,-0.00005081,-0.00000696,0.00004307
 ,-0.00001302,0.00002823,-0.00002566,0.00000502,-0.00001425,0.00000677,
 -0.00000270,0.00000568,0.00000051,-0.00004676,-0.00001335,0.00010319,-
 0.00000643,0.00003717,-0.00005811,-0.00000538,0.00000137,0.00004402,0.
 00012715,-0.00008577,-0.00008376,-0.00001219,0.00005084,-0.00001549,0.
 00000895,-0.00001990,-0.00002603,-0.00000501,0.00000864,0.00001869,0.0
 0000094,-0.00000187,-0.00000354,-0.00000208,0.00000340,-0.00000002,0.0
 0000917,0.00000316,-0.00000469,0.00001415,-0.00004426,0.00002470,0.000
 34245,-0.00006575,0.00026535,-0.00000193,0.00003287,0.00004037,0.00005
 003,-0.00005499,0.00001493,-0.00000633,-0.00000537,0.00000547,0.000040
 60,0.00004553,0.00003195,0.00000671,-0.00003674,-0.00001097,0.00000928
 ,-0.00000856,-0.00000037,0.00019710,0.00003158,0.00007380,-0.00021309,
 0.00010927,-0.00043598,-0.00015911,0.00028102,-0.00103748,-0.09951861,
 0.10402849,0.00061972,0.00007543,0.00001898,-0.00133097,0.00086184,0.0
 0072107,-0.03747890,0.00897575,-0.00307789,0.00152986,-0.00060266,0.00
 303921,0.00005096,-0.00020185,0.00034901,0.02076461,-0.00261072,-0.046
 05919,0.00757634,-0.01150783,0.00449451,0.00000263,0.00043655,-0.00011
 071,-0.00002667,-0.00001000,0.00006937,0.00000304,-0.00000585,-0.00001
 208,-0.00000095,-0.00000296,0.00000738,-0.00020517,-0.00008515,-0.0003
 2055,-0.00207136,-0.00134992,0.00103836,0.03111812,-0.00321344,-0.0050
 2624,0.00046995,-0.00050010,0.00095388,0.00078342,-0.00009797,-0.00039
 200,-0.00018471,-0.00002189,0.00004466,-0.00009550,0.00000918,0.000044
 81,0.00008952,0.00002701,0.00002098,0.00003720,-0.00005466,0.00001663,
 -0.00003321,-0.00001309,0.00002437,0.00001908,0.00000746,-0.00000893,0
 .00002450,0.00000667,0.00001676,-0.00004869,0.00000149,-0.00001901,0.0
 0000747,0.00000398,0.00000657,-0.00010847,-0.00003670,0.00000688,-0.00
 004677,0.00001538,0.00009059,0.00000745,0.00001918,-0.00001449,-0.0000
 0815,-0.00000200,0.00001009,0.00000159,-0.00000056,-0.00000079,-0.0000
 0310,-0.00000170,-0.00000215,-0.00001544,-0.00000235,0.00000585,-0.000
 02511,0.00006884,-0.00005481,-0.00062240,0.00004267,-0.00021241,-0.000
 03323,-0.00001020,-0.00010181,0.00007754,-0.00004421,0.00000009,-0.000
 03720,0.00000620,0.00004196,0.00005867,-0.00010746,-0.00007939,0.00000
 673,-0.00002303,0.00000793,0.00000108,0.00001742,-0.00000051,0.0001594
 8,0.00006612,-0.00020416,0.00029719,-0.00060332,-0.00039188,-0.0023004
 2,-0.00063417,-0.00598218,-0.02013299,0.00764023,0.05369185,0.00006700
 ,0.00003124,0.00014593,0.00007779,0.00009883,-0.00009530,-0.00063831,-
 0.00023165,-0.00015937,0.00029171,-0.00001407,0.00016014,-0.00001666,-
 0.00003697,0.00005984,-0.00844128,0.00362717,0.00371613,0.00063402,-0.
 00117451,-0.00036088,-0.00006533,-0.00001064,-0.00012546,0.00038693,-0
 .00019701,0.00009619,-0.00001466,0.00000794,0.00000779,0.00000367,-0.0
 0000058,0.00000191,0.00081408,-0.00033502,0.00081953,0.00501319,0.0028
 6737,-0.00072576,-0.31903253,0.06211451,0.08692290,-0.02194433,0.00511
 731,-0.00425393,-0.00187252,-0.00248017,0.00582588,0.00087416,0.000404
 84,0.00024981,0.00018319,-0.00006322,-0.00034785,-0.00019857,-0.000187
 61,0.00013822,-0.00005375,0.00015868,-0.00003388,0.00004679,-0.0000118
 6,-0.00007128,-0.00004045,-0.00001610,0.00004308,-0.00005515,0.0000246
 8,-0.00030135,0.00013755,0.00004402,0.00022051,-0.00001344,-0.00003871
 ,-0.00001934,0.00063209,0.00011596,-0.00016395,0.00004457,-0.00016616,
 -0.00017831,0.00001669,0.00002653,-0.00000944,-0.00001397,-0.00001089,
 0.00000553,-0.00000043,0.00000486,-0.00000634,0.00000222,-0.00000050,0
 .00000008,0.00003174,0.00000496,-0.00001696,0.00007129,-0.00037066,0.0
 0024545,0.00324460,-0.00002814,0.00020886,0.00011454,0.00010418,0.0003
 2026,-0.00020552,-0.00005129,0.00006403,0.00012949,0.00000407,-0.00009
 798,0.00000625,-0.00000208,-0.00000485,-0.00008100,-0.00015338,-0.0001
 0482,-0.00002473,0.00006858,0.00003037,0.00018661,0.00038347,0.0008548
 5,-0.00001623,-0.00008361,-0.00021144,0.00044062,-0.00010869,0.0005814
 7,-0.00015327,-0.00055131,0.00110324,0.33943133,0.00013931,0.00037491,
 -0.00032256,-0.00074420,-0.00064057,-0.00012983,-0.00127611,0.00001414
 ,-0.00158105,0.00031877,-0.00006444,0.00065858,0.00006768,-0.00019314,
 0.00005180,-0.02087850,0.00940436,0.00784043,0.00196802,0.00042842,-0.
 00157340,0.00017655,0.00020254,-0.00006495,-0.00013576,0.00010684,-0.0
 0050515,-0.00016896,-0.00016836,0.00010805,0.00000250,0.00004058,0.000
 01362,0.00406439,0.00020530,0.00478705,0.02767781,-0.02057733,-0.01816
 558,0.05846997,-0.05795592,-0.01804819,0.00071313,0.00248826,0.0019904
 5,0.00229647,0.00015453,0.00071294,-0.00002624,-0.00039850,-0.00023888
 ,-0.00021357,0.00010200,0.00042201,0.00016996,0.00025214,-0.00067531,0
 .00004429,-0.00009077,0.00010097,-0.00003359,0.00014094,0.00001166,0.0
 0005974,-0.00001563,-0.00007066,-0.00002548,0.00007903,-0.00013282,0.0
 0005279,-0.00003362,0.00007670,-0.00001322,-0.00002287,-0.00001548,-0.
 00025371,0.00013829,0.00014798,-0.00001604,-0.00002760,-0.00002191,-0.
 00002819,-0.00000163,0.00009406,0.00001904,0.00000295,-0.00005631,0.00
 000023,-0.00000138,0.00000968,-0.00000573,-0.00000692,-0.00000845,-0.0
 0005300,0.00000662,0.00001739,-0.00005567,0.00014363,-0.00002619,-0.00
 010767,0.00022597,0.00160469,-0.00004537,-0.00006933,-0.00008650,-0.00
 007402,-0.00001049,0.00002846,0.00003862,-0.00002780,-0.00007955,-0.00
 002806,-0.00000033,-0.00004255,-0.00015224,0.00020517,0.00011323,-0.00
 017527,-0.00019050,-0.00004791,-0.00119515,0.00063754,-0.00036682,-0.0
 0001282,-0.00009902,0.00008827,0.00048861,0.00001649,0.00025339,-0.002
 16500,-0.00229102,0.00346241,-0.06888435,0.06751653,-0.00011600,-0.000
 04400,-0.00029881,-0.00001608,0.00022625,-0.00009968,0.00105905,-0.000
 56915,0.00158942,-0.00040680,0.00022091,-0.00014361,-0.00005313,-0.000
 02642,-0.00001861,0.02003320,-0.00436896,-0.00170274,-0.00085673,0.001
 60492,0.00021275,0.00016182,0.00000324,0.00021607,-0.00012994,-0.00003
 505,-0.00015870,-0.00008593,-0.00006349,0.00003715,0.00000824,0.000009
 23,0.00000528,0.00279517,-0.00039483,0.00296045,0.01029313,-0.00885011
 ,-0.00422019,0.09664133,-0.02033413,-0.07234001,-0.02499251,0.00825547
 ,-0.00526265,-0.00958823,0.00059978,0.00019565,0.00046223,0.00000816,-
 0.00026036,0.00012745,0.00007914,0.00008622,-0.00009455,0.00000357,-0.
 00032079,-0.00008748,0.00009285,0.00004757,0.00005222,0.00009039,-0.00
 004143,-0.00001283,-0.00001941,-0.00002054,-0.00007177,0.00001057,0.00
 003515,0.00003729,-0.00001970,-0.00002585,0.00000195,-0.00000905,-0.00
 000236,-0.00036950,-0.00003509,-0.00024278,0.00013946,0.00002687,-0.00
 014210,0.00000546,-0.00006200,0.00006925,0.00002144,0.00000966,-0.0000
 4159,0.00000048,-0.00000192,0.00000731,-0.00000339,0.00000179,0.000010
 92,0.00003513,0.00000798,-0.00002402,0.00011849,-0.00005330,0.00010318
 ,-0.00038524,0.00162573,-0.00306696,0.00013113,-0.00003608,0.00003985,
 -0.00000050,-0.00000477,-0.00007213,0.00005607,-0.00009662,-0.00007251
 ,-0.00002290,0.00000673,0.00001314,-0.00011922,0.00014534,0.00002075,-
 0.00004851,-0.00005485,-0.00001184,-0.00082651,0.00036349,-0.00005034,
 -0.00019887,0.00002564,0.00007502,-0.00062876,0.00011456,-0.00046333,0
 .00146815,0.00188046,-0.00265062,-0.09453352,0.01966621,0.08602941\\-0
 .00018513,-0.01364216,-0.00207987,0.02465141,0.01680396,-0.01764508,-0
 .00508716,0.01305466,0.04339574,-0.00909996,-0.01958123,0.00948579,0.0
 0224462,-0.00257042,-0.03472041,-0.03132472,-0.00573595,0.04918172,0.0
 1691798,-0.00188655,0.00235044,0.00689171,0.00721955,-0.02380790,-0.00
 403402,0.02582818,0.01686721,0.01357627,0.00326086,-0.01645325,-0.0099
 9339,-0.03590315,-0.00362534,0.01400305,0.04193698,-0.01635512,0.01946
 375,-0.02123364,0.02762931,-0.06491892,0.00914672,-0.02307083,0.023687
 47,-0.01885696,-0.02629080,0.02947805,0.00526923,-0.01201320,-0.055752
 17,-0.01826321,0.02682714,0.02279790,0.00094181,0.02229967,0.00222731,
 -0.00163730,-0.02644941,-0.00709096,0.04147663,0.01333614,0.00911078,-
 0.00424684,0.00632988,-0.00150392,0.01179332,-0.02458724,-0.00946687,0
 .00227142,-0.01653714,0.01029206,-0.02705012,0.00041435,-0.01171288,0.
 03003598,-0.00020805,-0.00600587,-0.02024916,-0.01051914,0.00609472,-0
 .01039581,-0.00897803,0.03361270,-0.00399918,-0.00136105,-0.00586909,-
 0.00234165,0.03197958,-0.00446326,-0.00158316,-0.00201232,-0.01820405,
 0.00300938,-0.00592446,0.02114160,-0.00549460,-0.00390132,-0.02259608,
 0.00460505,-0.00787475,0.01997117,-0.00157530,0.00177941,-0.02302917,-
 0.00167203,-0.00339582,-0.00609015,-0.00286443,0.01730977,0.01990149,-
 0.00061618,0.00021117,-0.00287552,0.00208481,0.00346765,-0.02250554,0.
 00467835,0.00147791,0.00366765,-0.00434481,0.01752782,0.02107354,-0.00
 773330,-0.00093197,-0.01748129,0.00272600,0.00073464,0.02072343,-0.006
 11996,0.00199067,-0.01907963,0.01358519,-0.00231762,0.01684108,-0.0001
 3095,-0.00353585\\\@


 WORK FAITHFULLY FOR EIGHT HOURS A DAY AND DON'T WORRY.
 IN TIME YOU MAY BECOME BOSS AND WORK TWELVE HOURS A DAY
 AND HAVE ALL THE WORRY.
 Job cpu time:  0 days 12 hours 59 minutes 13.7 seconds.
 File lengths (MBytes):  RWF=   1322 Int=      0 D2E=      0 Chk=     19 Scr=      1
 Normal termination of Gaussian 09 at Tue Mar  1 16:31:17 2016.
Gaussian '09 finished on node031 at Tue Mar  1 16:31:17 EST 2016.
