Gaussian '09 started on node013 at Sun Mar 27 01:03:34 EDT 2016.
 Entering Gaussian System, Link 0=/usr/local/gaussian/g09/g09
 Initial command:
 /usr/local/gaussian/g09/l1.exe /home/srmcgrat/thesis/gaussian/cellobiose/423K/9394ps/1/2dp/gaussian9137/Gau-9173.inp -scrdir=/home/srmcgrat/thesis/gaussian/cellobiose/423K/9394ps/1/2dp/gaussian9137/
 Entering Link 1 = /usr/local/gaussian/g09/l1.exe PID=      9175.
  
 Copyright (c) 1988,1990,1992,1993,1995,1998,2003,2009,2010,
            Gaussian, Inc.  All Rights Reserved.
  
 This is part of the Gaussian(R) 09 program.  It is based on
 the Gaussian(R) 03 system (copyright 2003, Gaussian, Inc.),
 the Gaussian(R) 98 system (copyright 1998, Gaussian, Inc.),
 the Gaussian(R) 94 system (copyright 1995, Gaussian, Inc.),
 the Gaussian 92(TM) system (copyright 1992, Gaussian, Inc.),
 the Gaussian 90(TM) system (copyright 1990, Gaussian, Inc.),
 the Gaussian 88(TM) system (copyright 1988, Gaussian, Inc.),
 the Gaussian 86(TM) system (copyright 1986, Carnegie Mellon
 University), and the Gaussian 82(TM) system (copyright 1983,
 Carnegie Mellon University). Gaussian is a federally registered
 trademark of Gaussian, Inc.
  
 This software contains proprietary and confidential information,
 including trade secrets, belonging to Gaussian, Inc.
  
 This software is provided under written license and may be
 used, copied, transmitted, or stored only in accord with that
 written license.
  
 The following legend is applicable only to US Government
 contracts under FAR:
  
                    RESTRICTED RIGHTS LEGEND
  
 Use, reproduction and disclosure by the US Government is
 subject to restrictions as set forth in subparagraphs (a)
 and (c) of the Commercial Computer Software - Restricted
 Rights clause in FAR 52.227-19.
  
 Gaussian, Inc.
 340 Quinnipiac St., Bldg. 40, Wallingford CT 06492
  
  
 ---------------------------------------------------------------
 Warning -- This program may not be used in any manner that
 competes with the business of Gaussian, Inc. or will provide
 assistance to any competitor of Gaussian, Inc.  The licensee
 of this program is prohibited from giving any competitor of
 Gaussian, Inc. access to this program.  By using this program,
 the user acknowledges that Gaussian, Inc. is engaged in the
 business of creating and licensing software in the field of
 computational chemistry and represents and warrants to the
 licensee that it is not a competitor of Gaussian, Inc. and that
 it will not use this program in any manner prohibited above.
 ---------------------------------------------------------------
  

 Cite this work as:
 Gaussian 09, Revision B.01,
 M. J. Frisch, G. W. Trucks, H. B. Schlegel, G. E. Scuseria, 
 M. A. Robb, J. R. Cheeseman, G. Scalmani, V. Barone, B. Mennucci, 
 G. A. Petersson, H. Nakatsuji, M. Caricato, X. Li, H. P. Hratchian, 
 A. F. Izmaylov, J. Bloino, G. Zheng, J. L. Sonnenberg, M. Hada, 
 M. Ehara, K. Toyota, R. Fukuda, J. Hasegawa, M. Ishida, T. Nakajima, 
 Y. Honda, O. Kitao, H. Nakai, T. Vreven, J. A. Montgomery, Jr., 
 J. E. Peralta, F. Ogliaro, M. Bearpark, J. J. Heyd, E. Brothers, 
 K. N. Kudin, V. N. Staroverov, T. Keith, R. Kobayashi, J. Normand, 
 K. Raghavachari, A. Rendell, J. C. Burant, S. S. Iyengar, J. Tomasi, 
 M. Cossi, N. Rega, J. M. Millam, M. Klene, J. E. Knox, J. B. Cross, 
 V. Bakken, C. Adamo, J. Jaramillo, R. Gomperts, R. E. Stratmann, 
 O. Yazyev, A. J. Austin, R. Cammi, C. Pomelli, J. W. Ochterski, 
 R. L. Martin, K. Morokuma, V. G. Zakrzewski, G. A. Voth, 
 P. Salvador, J. J. Dannenberg, S. Dapprich, A. D. Daniels, 
 O. Farkas, J. B. Foresman, J. V. Ortiz, J. Cioslowski, 
 and D. J. Fox, Gaussian, Inc., Wallingford CT, 2010.
 
 ******************************************
 Gaussian 09:  EM64L-G09RevB.01 12-Aug-2010
                27-Mar-2016 
 ******************************************
 -------------------------------------------------
 # freq=raman b3lyp/6-31+g(2d,p) geom=connectivity
 -------------------------------------------------
 1/10=4,30=1,38=1,57=2/1,3;
 2/12=2,17=6,18=5,40=1/2;
 3/5=1,6=6,7=112,11=2,16=1,25=1,30=1,71=2,74=-5/1,2,3;
 4//1;
 5/5=2,38=5,98=1/2;
 8/6=4,10=90,11=11/1;
 10/13=10,15=4/2;
 11/6=3,8=1,9=11,15=111,16=1/1,2,10;
 10/6=1/2;
 6/7=2,8=2,9=2,10=2,18=1,28=1/1;
 7/8=1,10=1,25=1/1,2,3,16;
 1/10=4,30=1/3;
 99//99;
 -----------------
 423 9394/9394.com
 -----------------
 Symbolic Z-matrix:
 Charge =  0 Multiplicity = 1
 O                     7.869     7.519     12.184 
 C                     8.348     7.911     13.478 
 C                     7.849     9.28      13.911 
 O                     8.174     10.338    12.997 
 H                     7.85      10.014    12.108 
 C                     8.356     9.6       15.307 
 O                     7.757     10.812    15.787 
 H                     8.172     11.012    16.675 
 C                     8.644     5.499     14.157 
 O                     8.1       4.846     13.001 
 H                     8.168     3.85      13.05 
 C                     8.013     6.838     14.502 
 O                     8.491     7.163     15.815 
 C                     8.019     8.449     16.241 
 O                     8.694     8.694     17.483 
 C                     8.102     8.3       18.729 
 C                     8.674     7.003     19.277 
 O                     8.324     5.945     18.373 
 H                     8.71      6.064     17.458 
 C                     8.186     6.748     20.695 
 O                     8.914     5.703     21.355 
 H                     8.619     5.507     22.291 
 C                     7.684     10.797    19.457 
 O                     8.224     11.448    18.297 
 H                     8.209     12.423    18.518 
 C                     8.262     9.421     19.743 
 O                     7.601     9.1       20.976 
 C                     8.299     7.992     21.562 
 O                     7.504     7.812     22.743 
 H                     8.08022   7.69631   23.50207 
 H                     7.86285   11.42108   20.30755 
 H                     6.62667   10.69783   19.3262 
 H                     9.30672   9.5359    19.94366 
 H                     7.05522   8.15278   18.56324 
 H                     9.74041   7.08781   19.29901 
 H                     7.15582   6.46257   20.64865 
 H                     9.31452   8.2347    21.79593 
 H                     8.61528   7.34392   11.60606 
 H                     8.5266    4.84663   14.99696 
 H                     9.69012   5.65344   13.99367 
 H                     6.95035   6.7191    14.54109 
 H                     9.41467   7.96876   13.4165 
 H                     6.78175   9.22541   13.96488 
 H                     9.41826   9.72407   15.27361 
 H                     6.96221   8.41168   16.40439 
 

 GradGradGradGradGradGradGradGradGradGradGradGradGradGradGradGradGradGrad
 Berny optimization.
 Initialization pass.
 Trust Radius=3.00D-01 FncErr=1.00D-07 GrdErr=1.00D-07
 Number of steps in this run=      2 maximum allowed number of steps=      2.
 GradGradGradGradGradGradGradGradGradGradGradGradGradGradGradGradGradGrad

                          Input orientation:                          
 ---------------------------------------------------------------------
 Center     Atomic      Atomic             Coordinates (Angstroms)
 Number     Number       Type             X           Y           Z
 ---------------------------------------------------------------------
      1          8           0        7.869000    7.519000   12.184000
      2          6           0        8.348000    7.911000   13.478000
      3          6           0        7.849000    9.280000   13.911000
      4          8           0        8.174000   10.338000   12.997000
      5          1           0        7.850000   10.014000   12.108000
      6          6           0        8.356000    9.600000   15.307000
      7          8           0        7.757000   10.812000   15.787000
      8          1           0        8.172000   11.012000   16.675000
      9          6           0        8.644000    5.499000   14.157000
     10          8           0        8.100000    4.846000   13.001000
     11          1           0        8.168000    3.850000   13.050000
     12          6           0        8.013000    6.838000   14.502000
     13          8           0        8.491000    7.163000   15.815000
     14          6           0        8.019000    8.449000   16.241000
     15          8           0        8.694000    8.694000   17.483000
     16          6           0        8.102000    8.300000   18.729000
     17          6           0        8.674000    7.003000   19.277000
     18          8           0        8.324000    5.945000   18.373000
     19          1           0        8.710000    6.064000   17.458000
     20          6           0        8.186000    6.748000   20.695000
     21          8           0        8.914000    5.703000   21.355000
     22          1           0        8.619000    5.507000   22.291000
     23          6           0        7.684000   10.797000   19.457000
     24          8           0        8.224000   11.448000   18.297000
     25          1           0        8.209000   12.423000   18.518000
     26          6           0        8.262000    9.421000   19.743000
     27          8           0        7.601000    9.100000   20.976000
     28          6           0        8.299000    7.992000   21.562000
     29          8           0        7.504000    7.812000   22.743000
     30          1           0        8.080217    7.696307   23.502071
     31          1           0        7.862851   11.421077   20.307553
     32          1           0        6.626665   10.697834   19.326198
     33          1           0        9.306718    9.535898   19.943658
     34          1           0        7.055219    8.152781   18.563244
     35          1           0        9.740407    7.087805   19.299007
     36          1           0        7.155816    6.462566   20.648653
     37          1           0        9.314516    8.234702   21.795932
     38          1           0        8.615282    7.343922   11.606063
     39          1           0        8.526601    4.846628   14.996958
     40          1           0        9.690123    5.653437   13.993669
     41          1           0        6.950346    6.719095   14.541086
     42          1           0        9.414668    7.968764   13.416502
     43          1           0        6.781753    9.225407   13.964879
     44          1           0        9.418258    9.724069   15.273609
     45          1           0        6.962207    8.411685   16.404391
 ---------------------------------------------------------------------
                    Distance matrix (angstroms):
                    1          2          3          4          5
     1  O    0.000000
     2  C    1.434413   0.000000
     3  C    2.466587   1.520083   0.000000
     4  O    2.949704   2.480316   1.435404   0.000000
     5  H    2.496230   2.558811   1.946681   1.000136   0.000000
     6  C    3.784291   2.489583   1.519298   2.431845   3.265124
     7  O    4.882418   3.754539   2.423812   2.860536   3.765700
     8  H    5.697538   4.457352   3.277781   3.739246   4.685849
     9  C    2.928097   2.523173   3.871499   4.998242   5.021361
    10  O    2.804600   3.111793   4.533371   5.492500   5.250540
    11  H    3.781655   4.087457   5.507085   6.488219   6.243668
    12  C    2.420252   1.520569   2.517845   3.813259   3.980550
    13  O    3.701051   2.457951   2.918744   4.257022   4.720268
    14  C    4.164931   2.834053   2.479589   3.757111   4.422610
    15  O    5.490050   4.095465   3.717069   4.805968   5.598693
    16  C    6.595550   5.271133   4.923163   6.083950   6.843898
    17  C    7.157159   5.878702   5.887216   7.128157   7.819185
    18  O    6.402204   5.275107   5.590822   6.944230   7.485430
    19  H    5.535285   4.402596   4.864688   6.201201   6.705565
    20  C    8.551728   7.311901   7.248948   8.493965   9.193270
    21  O    9.407291   8.200168   8.327202   9.585770  10.257867
    22  H   10.332574   9.139017   9.222409  10.484037  11.162343
    23  C    7.979727   6.672206   5.752098   6.494796   7.392459
    24  O    7.275427   5.979005   4.906918   5.415219   6.363957
    25  H    8.017754   6.766023   5.588604   5.901685   6.857132
    26  C    7.804520   6.444976   5.848305   6.808608   7.669069
    27  O    8.937038   7.628351   7.071643   8.094777   8.918454
    28  C    9.399761   8.084554   7.771695   8.881361   9.678233
    29  O   10.569369   9.303890   8.959814  10.090297  10.866082
    30  H   11.321431  10.029946   9.723692  10.832537  11.629685
    31  H    9.012123   7.694076   6.745390   7.396895   8.319417
    32  H    7.915767   6.703048   5.729635   6.525524   7.352996
    33  H    8.145379   6.735293   6.211553   7.083959   7.984244
    34  H    6.462095   5.252565   4.852224   6.083578   6.765056
    35  H    7.369628   6.041570   6.116679   7.261728   7.990422
    36  H    8.560084   7.411985   7.335830   8.637331   9.275631
    37  H    9.746331   8.380150   8.087801   9.118434   9.958249
    38  H    0.960000   1.974124   3.106175   3.330757   2.822572
    39  H    3.935320   3.424836   4.614459   5.854854   5.958657
    40  H    3.173597   2.676527   4.067988   5.023655   5.094734
    41  H    2.653230   2.122316   2.786184   4.120437   4.193529
    42  H    2.027422   1.070000   2.101234   2.707123   2.888486
    43  H    2.695452   2.101867   1.070000   2.028054   2.282768
    44  H    4.099782   2.767107   2.125199   2.666090   3.544654
    45  H    4.408045   3.276411   2.785206   4.097492   4.670606
                    6          7          8          9         10
     6  C    0.000000
     7  O    1.434624   0.000000
     8  H    1.974595   1.000384   0.000000
     9  C    4.268916   5.627756   6.079167   0.000000
    10  O    5.289961   6.593376   7.177953   1.434810   0.000000
    11  H    6.179959   7.491965   8.027134   2.042358   0.999520
    12  C    2.897295   4.184428   4.708448   1.519904   2.495723
    13  O    2.493042   3.722196   3.956787   2.353990   3.666056
    14  C    1.520107   2.420440   2.603984   3.665540   4.846212
    15  O    2.381188   2.870594   2.509676   4.612245   5.937025
    16  C    3.669414   3.883881   3.402758   5.389114   6.688804
    17  C    4.754622   5.246853   4.805673   5.336414   6.661104
    18  O    4.770787   5.540449   5.346101   4.251585   5.487838
    19  H    4.153964   5.122885   5.038376   3.349654   4.660523
    20  C    6.098635   6.386595   5.860230   6.671972   7.926073
    21  O    7.216389   7.644812   7.116069   7.205950   8.437201
    22  H    8.099264   8.437303   7.876820   8.134042   9.327936
    23  C    4.371143   3.670757   2.832648   7.555157   8.790187
    24  O    3.517475   2.631100   1.680382   7.259931   8.464597
    25  H    4.278020   3.202809   2.321409   8.194469   9.373372
    26  C    4.440605   4.223724   3.457167   6.836037   8.149321
    27  O    5.740870   5.466352   4.741349   7.781633   9.052411
    28  C    6.458633   6.449557   5.746242   7.821004   9.122918
    29  O    7.695255   7.579574   6.892521   8.964874  10.200928
    30  H    8.417796   8.326724   7.590201   9.616464  10.881045
    31  H    5.344628   4.562628   3.668563   8.573826   9.832273
    32  H    4.511074   3.717070   3.084738   7.603822   8.742013
    33  H    4.733558   4.616045   3.761727   7.086688   8.464739
    34  H    3.793362   3.907873   3.603859   5.383471   6.554763
    35  H    4.915672   5.489784   4.974396   5.492418   6.883424
    36  H    6.310086   6.550929   6.125349   6.729392   7.873460
    37  H    6.699927   6.721278   5.936554   8.141679   9.503114
    38  H    4.342125   5.499495   6.272593   3.148308   2.907056
    39  H    4.766526   6.066474   6.399482   1.070000   2.041038
    40  H    4.368075   5.793425   6.181297   1.070000   2.041038
    41  H    3.295770   4.353718   4.947227   2.122409   2.683665
    42  H    2.712138   4.055997   4.628533   2.691097   3.413598
    43  H    2.102347   2.605477   3.531212   4.170250   4.673975
    44  H    1.070000   2.051083   2.275043   4.438187   5.540588
    45  H    2.135186   2.602764   2.880706   4.045111   5.058829
                   11         12         13         14         15
    11  H    0.000000
    12  C    3.325729   0.000000
    13  O    4.327300   1.434600   0.000000
    14  C    5.599597   2.370544   1.434593   0.000000
    15  O    6.587298   3.576990   2.273190   1.434648   0.000000
    16  C    7.215116   4.473577   3.152061   2.493839   1.434648
    17  C    6.998069   4.823357   3.470523   3.425965   2.465424
    18  O    5.722560   3.984823   2.838094   3.302797   2.913074
    19  H    4.962461   3.134138   1.988771   2.765284   2.630167
    20  C    8.175864   6.196070   4.907102   4.770682   3.789713
    21  O    8.541847   7.004544   5.744748   5.873205   4.897639
    22  H    9.399209   7.925107   6.685604   6.754100   5.768835
    23  C    9.462807   6.350901   5.207818   3.995996   3.056041
    24  O    9.233837   5.974834   4.959117   3.641862   2.909985
    25  H   10.168433   6.881780   5.920586   4.584049   3.900242
    26  C    8.708681   5.848245   4.536539   3.642504   2.413038
    27  O    9.523942   6.870157   5.583905   4.797786   3.682463
    28  C    9.467179   7.159407   5.809657   5.347924   4.157772
    29  O   10.492502   8.313954   7.027984   6.553396   5.464579
    30  H   11.137665   9.041156   7.716491   7.300236   6.131993
    31  H   10.492206   7.398080   6.221641   5.039293   4.013210
    32  H    9.415901   6.331913   5.319709   4.063778   3.418567
    33  H    9.008254   6.209992   4.831341   4.068076   2.671901
    34  H    7.081530   4.374894   3.254839   2.531686   2.036037
    35  H    7.211514   5.104666   3.702024   3.763974   2.640589
    36  H    8.098737   6.217480   5.063351   4.911050   4.167333
    37  H    9.850453   7.539639   6.131742   5.708025   4.381481
    38  H    3.806902   3.000858   4.214656   4.802019   6.030530
    39  H    2.216418   2.115261   2.456835   3.844786   4.583743
    40  H    2.541604   2.115261   2.652154   3.957059   4.734207
    41  H    3.455102   1.070000   2.047809   2.650339   3.949105
    42  H    4.318880   2.102762   2.693550   3.186896   4.193058
    43  H    5.626161   2.739376   3.255457   2.704499   4.039339
    44  H    6.404082   3.301443   2.777046   2.125928   2.543030
    45  H    5.789200   2.683233   2.060049   1.070000   2.059662
                   16         17         18         19         20
    16  C    0.000000
    17  C    1.519769   0.000000
    18  O    2.392080   1.434949   0.000000
    19  H    2.642877   2.047383   1.000191   0.000000
    20  C    2.506176   1.521149   2.460800   3.349717   0.000000
    21  O    3.781485   2.462861   3.049424   3.918998   1.434437
    22  H    4.555873   3.365299   3.953428   4.865842   2.067556
    23  C    2.634334   3.925167   5.012640   5.239272   4.263690
    24  O    3.179845   4.573940   5.504433   5.470610   5.276538
    25  H    4.129782   5.492605   6.480643   6.466180   6.078280
    26  C    1.520012   2.496723   3.736753   4.085508   2.838487
    27  O    2.437214   2.904366   4.153596   4.777395   2.439895
    28  C    2.856495   2.517930   3.789532   4.552902   1.520524
    29  O    4.087535   3.746537   4.822343   5.695715   2.406559
    30  H    4.811146   4.322555   5.425300   6.292206   2.964815
    31  H    3.505730   4.608623   5.826026   6.126654   4.700233
    32  H    2.877996   4.224428   5.136045   5.413212   4.461651
    33  H    2.110493   2.694501   4.040699   4.311455   3.097240
    34  H    1.070000   2.109952   2.553487   2.884939   2.792215
    35  H    2.116294   1.070000   2.041985   2.345042   2.116706
    36  H    2.820726   2.116219   2.609813   3.571360   1.070000
    37  H    3.298564   2.876172   4.235601   4.888255   2.166998
    38  H    7.205121   7.678734   6.916160   5.991021   9.118562
    39  H    5.102372   4.794833   3.555999   2.751792   6.016553
    40  H    5.652414   5.546838   4.596720   3.623643   6.954731
    41  H    4.622141   5.047818   4.143635   3.468994   6.276809
    42  H    5.482285   5.985543   5.463703   4.523095   7.481739
    43  H    5.029541   6.061215   5.707112   5.090631   7.307803
    44  H    3.962352   4.897476   5.008491   4.320798   6.306102
    45  H    2.591411   3.628569   3.437213   3.110707   4.761811
                   21         22         23         24         25
    21  O    0.000000
    22  H    1.000768   0.000000
    23  C    5.573521   6.073704   0.000000
    24  O    6.544653   7.169626   1.435619   0.000000
    25  H    7.328301   7.888896   1.949672   0.999845   0.000000
    26  C    4.104531   4.683925   1.519624   2.490199   3.242752
    27  O    3.661587   3.959192   2.279048   3.616390   4.177769
    28  C    2.379200   2.609419   3.560516   4.754975   5.376597
    29  O    2.891803   2.600107   4.443019   5.788421   6.293566
    30  H    3.046044   2.559306   5.112131   6.417838   6.870166
    31  H    5.907492   6.283481   1.070000   2.042909   2.079944
    32  H    5.856304   6.301127   1.070000   2.042909   2.476523
    33  H    4.103318   4.713278   2.111972   2.745887   3.401888
    34  H    4.153360   4.831329   2.861129   3.506480   4.423576
    35  H    2.612994   3.564901   4.244042   4.723855   5.605308
    36  H    2.041342   2.398191   4.526183   5.614788   6.416826
    37  H    2.600836   2.858180   3.833348   4.874119   5.432204
    38  H    9.890583  10.841687   8.627181   7.859084   8.587024
    39  H    6.427142   7.324458   7.483908   7.386471   8.360623
    40  H    7.402298   8.367463   7.767159   7.365130   8.275885
    41  H    7.163645   8.019647   6.429134   6.171841   7.066440
    42  H    8.270677   9.243921   6.890700   6.110813   6.878890
    43  H    8.459771   9.301953   5.783369   5.078117   5.743914
    44  H    7.307981   8.225950   4.653986   3.679549   4.390058
    45  H    5.971181   6.770105   3.940703   3.793851   4.702392
                   26         27         28         29         30
    26  C    0.000000
    27  O    1.435357   0.000000
    28  C    2.313476   1.434665   0.000000
    29  O    3.487613   2.188754   1.434986   0.000000
    30  H    4.139834   2.929341   1.974633   0.960000   0.000000
    31  H    2.116211   2.429565   3.677286   4.368709   4.911833
    32  H    2.116211   2.494844   3.888065   4.557663   5.344146
    33  H    1.070000   2.040884   2.453191   3.749391   4.189356
    34  H    2.111048   2.648867   3.250444   4.217570   5.064683
    35  H    2.797609   3.382055   2.831317   4.169779   4.559852
    36  H    3.285754   2.694699   2.116658   2.515650   3.243244
    37  H    2.594151   2.087382   1.070000   2.086524   2.173540
    38  H    8.405284   9.586882   9.982020  11.202027  11.913248
    39  H    6.596954   7.395732   7.283196   8.357052   8.980918
    40  H    7.020603   8.062020   8.042620   9.273042   9.857729
    41  H    6.006715   6.892037   7.261707   8.292910   9.084647
    42  H    6.592587   7.855895   8.221581   9.521491  10.177117
    43  H    5.967921   7.059937   7.844717   8.920469   9.745881
    44  H    4.626471   6.017404   6.617905   7.944318   8.579613
    45  H    3.722162   4.667060   5.344538   6.389924   7.220719
                   31         32         33         34         35
    31  H    0.000000
    32  H    1.736172   0.000000
    33  H    2.402305   2.985638   0.000000
    34  H    3.791654   2.691291   2.981242   0.000000
    35  H    4.829040   4.767434   2.568427   2.980899   0.000000
    36  H    5.020267   4.468375   3.816905   2.686239   2.982043
    37  H    3.804680   4.403538   2.263645   3.944795   2.780537
    38  H    9.638738   8.648919   8.648603   7.175682   7.779004
    39  H    8.477403   7.522545   6.860589   5.080749   5.000383
    40  H    8.744697   7.954028   7.114975   5.836990   5.496049
    41  H    7.496228   6.231566   6.532583   4.271323   5.527947
    42  H    7.862136   7.081333   6.713518   5.664787   5.957018
    43  H    6.798475   5.561999   6.497512   4.729722   6.463428
    44  H    5.535315   5.016441   4.675169   4.344490   4.822603
    45  H    5.010217   3.725053   4.391696   2.176311   4.224909
                   36         37         38         39         40
    36  H    0.000000
    37  H    3.019387   0.000000
    38  H    9.201916  10.252601   0.000000
    39  H    6.035890   7.637139   4.212185   0.000000
    40  H    7.167022   8.226743   3.116679   1.735312   0.000000
    41  H    6.116404   7.779405   3.431732   2.489685   2.990263
    42  H    7.724963   8.384246   2.075364   3.610296   2.402028
    43  H    7.241965   8.289860   3.530698   4.825286   4.606345
    44  H    6.681852   6.691014   4.445308   4.965986   4.275769
    45  H    4.674431   5.885014   5.186205   4.139785   4.567388
                   41         42         43         44         45
    41  H    0.000000
    42  H    2.983161   0.000000
    43  H    2.577215   2.968520   0.000000
    44  H    3.956899   2.555377   2.985398   0.000000
    45  H    2.517320   3.890787   2.577970   3.005529   0.000000
 Stoichiometry    C12H22O11
 Framework group  C1[X(C12H22O11)]
 Deg. of freedom   129
 Full point group                 C1      NOp   1
 Largest Abelian subgroup         C1      NOp   1
 Largest concise Abelian subgroup C1      NOp   1
                         Standard orientation:                         
 ---------------------------------------------------------------------
 Center     Atomic      Atomic             Coordinates (Angstroms)
 Number     Number       Type             X           Y           Z
 ---------------------------------------------------------------------
      1          8           0        5.046208   -0.363083   -0.365493
      2          6           0        3.738220   -0.071358    0.145982
      3          6           0        3.243898    1.315566   -0.231824
      4          8           0        4.112101    2.380321    0.183993
      5          1           0        5.013119    2.125031   -0.167101
      6          6           0        1.837262    1.528725    0.301285
      7          8           0        1.302447    2.766037   -0.189811
      8          1           0        0.408200    2.890043    0.241136
      9          6           0        3.166354   -2.527406    0.230836
     10          8           0        4.347615   -3.079282   -0.368110
     11          1           0        4.342419   -4.078608   -0.387120
     12          6           0        2.760738   -1.154995   -0.281091
     13          8           0        1.436690   -0.930698    0.223554
     14          6           0        0.953091    0.371579   -0.134585
     15          8           0       -0.295757    0.502227    0.559334
     16          6           0       -1.525684    0.106991   -0.064591
     17          6           0       -2.014275   -1.257636    0.392322
     18          8           0       -1.066325   -2.240514   -0.048610
     19          1           0       -0.155882   -2.115555    0.346183
     20          6           0       -3.421698   -1.531124   -0.115870
     21          8           0       -4.032570   -2.663434    0.518414
     22          1           0       -4.960273   -2.873866    0.207571
     23          6           0       -2.363657    2.596567   -0.263415
     24          8           0       -1.231073    3.248335    0.331104
     25          1           0       -1.494491    4.210312    0.401115
     26          6           0       -2.587027    1.164280    0.192564
     27          8           0       -3.807426    0.848271   -0.493742
     28          6           0       -4.341737   -0.340886    0.105160
     29          8           0       -5.516870   -0.502626   -0.702360
     30          1           0       -6.267893   -0.701187   -0.138323
     31          1           0       -3.239938    3.164823   -0.030784
     32          1           0       -2.232810    2.595613   -1.325384
     33          1           0       -2.788399    1.178926    1.243342
     34          1           0       -1.357777    0.058827   -1.120236
     35          1           0       -2.035769   -1.266994    1.462066
     36          1           0       -3.366985   -1.723524   -1.167007
     37          1           0       -4.582046   -0.197962    1.137984
     38          1           0        5.634169   -0.576930    0.362635
     39          1           0        2.355227   -3.203282    0.057156
     40          1           0        3.326900   -2.457574    1.286416
     41          1           0        2.722700   -1.182578   -1.350059
     42          1           0        3.801333   -0.103991    1.213620
     43          1           0        3.188256    1.351739   -1.299764
     44          1           0        1.869382    1.561233    1.370308
     45          1           0        0.787329    0.419237   -1.190592
 ---------------------------------------------------------------------
 Rotational constants (GHZ):      0.4160665      0.1433402      0.1092156
 Standard basis: 6-31+G(2d,p) (6D, 7F)
 There are   685 symmetry adapted basis functions of A   symmetry.
 Integral buffers will be    131072 words long.
 Raffenetti 2 integral format.
 Two-electron integral symmetry is turned on.
   685 basis functions,  1028 primitive gaussians,   685 cartesian basis functions
    91 alpha electrons       91 beta electrons
       nuclear repulsion energy      2283.9903811097 Hartrees.
 NAtoms=   45 NActive=   45 NUniq=   45 SFac= 1.00D+00 NAtFMM=   50 NAOKFM=F Big=F
 One-electron integrals computed using PRISM.
 NBasis=   685 RedAO= T  NBF=   685
 NBsUse=   685 1.00D-06 NBFU=   685
 Harris functional with IExCor=  402 diagonalized for initial guess.
 ExpMin= 4.38D-02 ExpMax= 5.48D+03 ExpMxC= 8.25D+02 IAcc=2 IRadAn=         0 AccDes= 0.00D+00
 HarFok:  IExCor=  402 AccDes= 0.00D+00 IRadAn=         0 IDoV= 1
 ScaDFX=  1.000000  1.000000  1.000000  1.000000
 FoFCou: FMM=F IPFlag=           0 FMFlag=      100000 FMFlg1=           0
         NFxFlg=           0 DoJE=T BraDBF=F KetDBF=T FulRan=T
         Omega=  0.000000  0.000000  1.000000  0.000000  0.000000 ICntrl=     500 IOpCl=  0
         NMat0=    1 NMatS0=    1 NMatT0=    0 NMatD0=    1 NMtDS0=    0 NMtDT0=    0
         I1Cent=           4 NGrid=           0.
 Petite list used in FoFCou.
 Initial guess orbital symmetries:
       Occupied  (A) (A) (A) (A) (A) (A) (A) (A) (A) (A) (A) (A)
                 (A) (A) (A) (A) (A) (A) (A) (A) (A) (A) (A) (A)
                 (A) (A) (A) (A) (A) (A) (A) (A) (A) (A) (A) (A)
                 (A) (A) (A) (A) (A) (A) (A) (A) (A) (A) (A) (A)
                 (A) (A) (A) (A) (A) (A) (A) (A) (A) (A) (A) (A)
                 (A) (A) (A) (A) (A) (A) (A) (A) (A) (A) (A) (A)
                 (A) (A) (A) (A) (A) (A) (A) (A) (A) (A) (A) (A)
                 (A) (A) (A) (A) (A) (A) (A)
       Virtual   (A) (A) (A) (A) (A) (A) (A) (A) (A) (A) (A) (A)
                 (A) (A) (A) (A) (A) (A) (A) (A) (A) (A) (A) (A)
                 (A) (A) (A) (A) (A) (A) (A) (A) (A) (A) (A) (A)
                 (A) (A) (A) (A) (A) (A) (A) (A) (A) (A) (A) (A)
                 (A) (A) (A) (A) (A) (A) (A) (A) (A) (A) (A) (A)
                 (A) (A) (A) (A) (A) (A) (A) (A) (A) (A) (A) (A)
                 (A) (A) (A) (A) (A) (A) (A) (A) (A) (A) (A) (A)
                 (A) (A) (A) (A) (A) (A) (A) (A) (A) (A) (A) (A)
                 (A) (A) (A) (A) (A) (A) (A) (A) (A) (A) (A) (A)
                 (A) (A) (A) (A) (A) (A) (A) (A) (A) (A) (A) (A)
                 (A) (A) (A) (A) (A) (A) (A) (A) (A) (A) (A) (A)
                 (A) (A) (A) (A) (A) (A) (A) (A) (A) (A) (A) (A)
                 (A) (A) (A) (A) (A) (A) (A) (A) (A) (A) (A) (A)
                 (A) (A) (A) (A) (A) (A) (A) (A) (A) (A) (A) (A)
                 (A) (A) (A) (A) (A) (A) (A) (A) (A) (A) (A) (A)
                 (A) (A) (A) (A) (A) (A) (A) (A) (A) (A) (A) (A)
                 (A) (A) (A) (A) (A) (A) (A) (A) (A) (A) (A) (A)
                 (A) (A) (A) (A) (A) (A) (A) (A) (A) (A) (A) (A)
                 (A) (A) (A) (A) (A) (A) (A) (A) (A) (A) (A) (A)
                 (A) (A) (A) (A) (A) (A) (A) (A) (A) (A) (A) (A)
                 (A) (A) (A) (A) (A) (A) (A) (A) (A) (A) (A) (A)
                 (A) (A) (A) (A) (A) (A) (A) (A) (A) (A) (A) (A)
                 (A) (A) (A) (A) (A) (A) (A) (A) (A) (A) (A) (A)
                 (A) (A) (A) (A) (A) (A) (A) (A) (A) (A) (A) (A)
                 (A) (A) (A) (A) (A) (A) (A) (A) (A) (A) (A) (A)
                 (A) (A) (A) (A) (A) (A) (A) (A) (A) (A) (A) (A)
                 (A) (A) (A) (A) (A) (A) (A) (A) (A) (A) (A) (A)
                 (A) (A) (A) (A) (A) (A) (A) (A) (A) (A) (A) (A)
                 (A) (A) (A) (A) (A) (A) (A) (A) (A) (A) (A) (A)
                 (A) (A) (A) (A) (A) (A) (A) (A) (A) (A) (A) (A)
                 (A) (A) (A) (A) (A) (A) (A) (A) (A) (A) (A) (A)
                 (A) (A) (A) (A) (A) (A) (A) (A) (A) (A) (A) (A)
                 (A) (A) (A) (A) (A) (A) (A) (A) (A) (A) (A) (A)
                 (A) (A) (A) (A) (A) (A) (A) (A) (A) (A) (A) (A)
                 (A) (A) (A) (A) (A) (A) (A) (A) (A) (A) (A) (A)
                 (A) (A) (A) (A) (A) (A) (A) (A) (A) (A) (A) (A)
                 (A) (A) (A) (A) (A) (A) (A) (A) (A) (A) (A) (A)
                 (A) (A) (A) (A) (A) (A) (A) (A) (A) (A) (A) (A)
                 (A) (A) (A) (A) (A) (A) (A) (A) (A) (A) (A) (A)
                 (A) (A) (A) (A) (A) (A) (A) (A) (A) (A) (A) (A)
                 (A) (A) (A) (A) (A) (A) (A) (A) (A) (A) (A) (A)
                 (A) (A) (A) (A) (A) (A) (A) (A) (A) (A) (A) (A)
                 (A) (A) (A) (A) (A) (A) (A) (A) (A) (A) (A) (A)
                 (A) (A) (A) (A) (A) (A) (A) (A) (A) (A) (A) (A)
                 (A) (A) (A) (A) (A) (A) (A) (A) (A) (A) (A) (A)
                 (A) (A) (A) (A) (A) (A) (A) (A) (A) (A) (A) (A)
                 (A) (A) (A) (A) (A) (A) (A) (A) (A) (A) (A) (A)
                 (A) (A) (A) (A) (A) (A) (A) (A) (A) (A) (A) (A)
                 (A) (A) (A) (A) (A) (A) (A) (A) (A) (A) (A) (A)
                 (A) (A) (A) (A) (A) (A)
 The electronic state of the initial guess is 1-A.
 Requested convergence on RMS density matrix=1.00D-08 within 128 cycles.
 Requested convergence on MAX density matrix=1.00D-06.
 Requested convergence on             energy=1.00D-06.
 No special actions if energy rises.
 SCF Done:  E(RB3LYP) =  -1298.00710968     A.U. after   13 cycles
             Convg  =    0.4519D-08             -V/T =  2.0064
 Range of M.O.s used for correlation:     1   685
 NBasis=   685 NAE=    91 NBE=    91 NFC=     0 NFV=     0
 NROrb=    685 NOA=    91 NOB=    91 NVA=   594 NVB=   594

 **** Warning!!: The largest alpha MO coefficient is  0.73789526D+02

          Differentiating once with respect to electric field.
                with respect to dipole field.
          Electric field/nuclear overlap derivatives assumed to be zero.
          There are     3 degrees of freedom in the 1st order CPHF.  IDoFFX=0.
      3 vectors produced by pass  0 Test12= 1.80D-12 3.33D-08 XBig12= 1.23D+02 9.72D-01.
 AX will form     3 AO Fock derivatives at one time.
      3 vectors produced by pass  1 Test12= 1.80D-12 3.33D-08 XBig12= 2.46D+01 4.10D-01.
      3 vectors produced by pass  2 Test12= 1.80D-12 3.33D-08 XBig12= 1.06D+01 2.05D-01.
      3 vectors produced by pass  3 Test12= 1.80D-12 3.33D-08 XBig12= 1.08D+00 8.60D-02.
      3 vectors produced by pass  4 Test12= 1.80D-12 3.33D-08 XBig12= 2.75D-01 3.79D-02.
      3 vectors produced by pass  5 Test12= 1.80D-12 3.33D-08 XBig12= 5.56D-02 2.39D-02.
      3 vectors produced by pass  6 Test12= 1.80D-12 3.33D-08 XBig12= 1.89D-02 1.58D-02.
      3 vectors produced by pass  7 Test12= 1.80D-12 3.33D-08 XBig12= 2.50D-03 7.62D-03.
      3 vectors produced by pass  8 Test12= 1.80D-12 3.33D-08 XBig12= 5.11D-04 2.00D-03.
      3 vectors produced by pass  9 Test12= 1.80D-12 3.33D-08 XBig12= 1.65D-04 1.45D-03.
      3 vectors produced by pass 10 Test12= 1.80D-12 3.33D-08 XBig12= 3.09D-05 5.38D-04.
      3 vectors produced by pass 11 Test12= 1.80D-12 3.33D-08 XBig12= 7.25D-06 3.21D-04.
      3 vectors produced by pass 12 Test12= 1.80D-12 3.33D-08 XBig12= 1.16D-06 1.13D-04.
      3 vectors produced by pass 13 Test12= 1.80D-12 3.33D-08 XBig12= 2.10D-07 4.30D-05.
      3 vectors produced by pass 14 Test12= 1.80D-12 3.33D-08 XBig12= 5.41D-08 3.05D-05.
      3 vectors produced by pass 15 Test12= 1.80D-12 3.33D-08 XBig12= 1.09D-08 9.38D-06.
      3 vectors produced by pass 16 Test12= 1.80D-12 3.33D-08 XBig12= 2.06D-09 5.72D-06.
      3 vectors produced by pass 17 Test12= 1.80D-12 3.33D-08 XBig12= 1.49D-10 1.21D-06.
      3 vectors produced by pass 18 Test12= 1.80D-12 3.33D-08 XBig12= 3.77D-11 3.80D-07.
      3 vectors produced by pass 19 Test12= 1.80D-12 3.33D-08 XBig12= 9.52D-12 2.26D-07.
      3 vectors produced by pass 20 Test12= 1.80D-12 3.33D-08 XBig12= 6.32D-12 2.38D-07.
      1 vectors produced by pass 21 Test12= 1.80D-12 3.33D-08 XBig12= 2.82D-12 1.05D-07.
 Inverted reduced A of dimension    64 with in-core refinement.
 End of Minotr Frequency-dependent properties file   721 does not exist.
 End of Minotr Frequency-dependent properties file   722 does not exist.
 Symmetrizing basis deriv contribution to polar:
 IMax=3 JMax=2 DiffMx= 0.00D+00
 G2DrvN: will do    16 centers at a time, making    3 passes doing MaxLOS=2.
 Calling FoFCou, ICntrl=  3107 FMM=F I1Cent=   0 AccDes= 0.00D+00.
 Calling FoFCou, ICntrl=  3107 FMM=F I1Cent=   0 AccDes= 0.00D+00.
 Calling FoFCou, ICntrl=  3107 FMM=F I1Cent=   0 AccDes= 0.00D+00.
 FoFDir/FoFCou used for L=0 through L=2.
 End of G2Drv Frequency-dependent properties file   721 does not exist.
 End of G2Drv Frequency-dependent properties file   722 does not exist.
          IDoAtm=111111111111111111111111111111111111111111111
          Differentiating once with respect to electric field.
                with respect to dipole field.
          Differentiating once with respect to nuclear coordinates.
          There are   138 degrees of freedom in the 1st order CPHF.  IDoFFX=5.
 Will reuse    3 saved solutions.
    135 vectors produced by pass  0 Test12= 5.41D-14 1.00D-09 XBig12= 1.51D-01 9.41D-02.
 AX will form    45 AO Fock derivatives at one time.
    135 vectors produced by pass  1 Test12= 5.41D-14 1.00D-09 XBig12= 1.64D-02 1.22D-02.
    132 vectors produced by pass  2 Test12= 5.41D-14 1.00D-09 XBig12= 1.23D-04 1.30D-03.
    132 vectors produced by pass  3 Test12= 5.41D-14 1.00D-09 XBig12= 4.22D-07 5.19D-05.
    132 vectors produced by pass  4 Test12= 5.41D-14 1.00D-09 XBig12= 8.97D-10 2.54D-06.
    132 vectors produced by pass  5 Test12= 5.41D-14 1.00D-09 XBig12= 1.82D-12 1.25D-07.
     80 vectors produced by pass  6 Test12= 5.41D-14 1.00D-09 XBig12= 9.98D-14 1.84D-08.
 Inverted reduced A of dimension   878 with in-core refinement.
 Isotropic polarizability for W=    0.000000      191.98 Bohr**3.
 End of Minotr Frequency-dependent properties file   721 does not exist.
 End of Minotr Frequency-dependent properties file   722 does not exist.

 **********************************************************************

            Population analysis using the SCF density.

 **********************************************************************

 Orbital symmetries:
       Occupied  (A) (A) (A) (A) (A) (A) (A) (A) (A) (A) (A) (A)
                 (A) (A) (A) (A) (A) (A) (A) (A) (A) (A) (A) (A)
                 (A) (A) (A) (A) (A) (A) (A) (A) (A) (A) (A) (A)
                 (A) (A) (A) (A) (A) (A) (A) (A) (A) (A) (A) (A)
                 (A) (A) (A) (A) (A) (A) (A) (A) (A) (A) (A) (A)
                 (A) (A) (A) (A) (A) (A) (A) (A) (A) (A) (A) (A)
                 (A) (A) (A) (A) (A) (A) (A) (A) (A) (A) (A) (A)
                 (A) (A) (A) (A) (A) (A) (A)
       Virtual   (A) (A) (A) (A) (A) (A) (A) (A) (A) (A) (A) (A)
                 (A) (A) (A) (A) (A) (A) (A) (A) (A) (A) (A) (A)
                 (A) (A) (A) (A) (A) (A) (A) (A) (A) (A) (A) (A)
                 (A) (A) (A) (A) (A) (A) (A) (A) (A) (A) (A) (A)
                 (A) (A) (A) (A) (A) (A) (A) (A) (A) (A) (A) (A)
                 (A) (A) (A) (A) (A) (A) (A) (A) (A) (A) (A) (A)
                 (A) (A) (A) (A) (A) (A) (A) (A) (A) (A) (A) (A)
                 (A) (A) (A) (A) (A) (A) (A) (A) (A) (A) (A) (A)
                 (A) (A) (A) (A) (A) (A) (A) (A) (A) (A) (A) (A)
                 (A) (A) (A) (A) (A) (A) (A) (A) (A) (A) (A) (A)
                 (A) (A) (A) (A) (A) (A) (A) (A) (A) (A) (A) (A)
                 (A) (A) (A) (A) (A) (A) (A) (A) (A) (A) (A) (A)
                 (A) (A) (A) (A) (A) (A) (A) (A) (A) (A) (A) (A)
                 (A) (A) (A) (A) (A) (A) (A) (A) (A) (A) (A) (A)
                 (A) (A) (A) (A) (A) (A) (A) (A) (A) (A) (A) (A)
                 (A) (A) (A) (A) (A) (A) (A) (A) (A) (A) (A) (A)
                 (A) (A) (A) (A) (A) (A) (A) (A) (A) (A) (A) (A)
                 (A) (A) (A) (A) (A) (A) (A) (A) (A) (A) (A) (A)
                 (A) (A) (A) (A) (A) (A) (A) (A) (A) (A) (A) (A)
                 (A) (A) (A) (A) (A) (A) (A) (A) (A) (A) (A) (A)
                 (A) (A) (A) (A) (A) (A) (A) (A) (A) (A) (A) (A)
                 (A) (A) (A) (A) (A) (A) (A) (A) (A) (A) (A) (A)
                 (A) (A) (A) (A) (A) (A) (A) (A) (A) (A) (A) (A)
                 (A) (A) (A) (A) (A) (A) (A) (A) (A) (A) (A) (A)
                 (A) (A) (A) (A) (A) (A) (A) (A) (A) (A) (A) (A)
                 (A) (A) (A) (A) (A) (A) (A) (A) (A) (A) (A) (A)
                 (A) (A) (A) (A) (A) (A) (A) (A) (A) (A) (A) (A)
                 (A) (A) (A) (A) (A) (A) (A) (A) (A) (A) (A) (A)
                 (A) (A) (A) (A) (A) (A) (A) (A) (A) (A) (A) (A)
                 (A) (A) (A) (A) (A) (A) (A) (A) (A) (A) (A) (A)
                 (A) (A) (A) (A) (A) (A) (A) (A) (A) (A) (A) (A)
                 (A) (A) (A) (A) (A) (A) (A) (A) (A) (A) (A) (A)
                 (A) (A) (A) (A) (A) (A) (A) (A) (A) (A) (A) (A)
                 (A) (A) (A) (A) (A) (A) (A) (A) (A) (A) (A) (A)
                 (A) (A) (A) (A) (A) (A) (A) (A) (A) (A) (A) (A)
                 (A) (A) (A) (A) (A) (A) (A) (A) (A) (A) (A) (A)
                 (A) (A) (A) (A) (A) (A) (A) (A) (A) (A) (A) (A)
                 (A) (A) (A) (A) (A) (A) (A) (A) (A) (A) (A) (A)
                 (A) (A) (A) (A) (A) (A) (A) (A) (A) (A) (A) (A)
                 (A) (A) (A) (A) (A) (A) (A) (A) (A) (A) (A) (A)
                 (A) (A) (A) (A) (A) (A) (A) (A) (A) (A) (A) (A)
                 (A) (A) (A) (A) (A) (A) (A) (A) (A) (A) (A) (A)
                 (A) (A) (A) (A) (A) (A) (A) (A) (A) (A) (A) (A)
                 (A) (A) (A) (A) (A) (A) (A) (A) (A) (A) (A) (A)
                 (A) (A) (A) (A) (A) (A) (A) (A) (A) (A) (A) (A)
                 (A) (A) (A) (A) (A) (A) (A) (A) (A) (A) (A) (A)
                 (A) (A) (A) (A) (A) (A) (A) (A) (A) (A) (A) (A)
                 (A) (A) (A) (A) (A) (A) (A) (A) (A) (A) (A) (A)
                 (A) (A) (A) (A) (A) (A) (A) (A) (A) (A) (A) (A)
                 (A) (A) (A) (A) (A) (A)
 The electronic state is 1-A.
 Alpha  occ. eigenvalues --  -19.18331 -19.18143 -19.17686 -19.17630 -19.17255
 Alpha  occ. eigenvalues --  -19.16403 -19.16254 -19.15924 -19.15066 -19.14209
 Alpha  occ. eigenvalues --  -19.12883 -10.30419 -10.29938 -10.25375 -10.25205
 Alpha  occ. eigenvalues --  -10.25128 -10.25075 -10.24963 -10.24734 -10.24697
 Alpha  occ. eigenvalues --  -10.24166 -10.23800 -10.23756  -1.09591  -1.09096
 Alpha  occ. eigenvalues --   -1.05314  -1.04721  -1.03556  -1.03351  -1.02473
 Alpha  occ. eigenvalues --   -1.02171  -1.01729  -1.00725  -0.99590  -0.81741
 Alpha  occ. eigenvalues --   -0.80146  -0.79196  -0.77961  -0.71739  -0.69484
 Alpha  occ. eigenvalues --   -0.67210  -0.64726  -0.63028  -0.62412  -0.61308
 Alpha  occ. eigenvalues --   -0.59845  -0.56385  -0.55384  -0.54879  -0.54487
 Alpha  occ. eigenvalues --   -0.53940  -0.52993  -0.52870  -0.52305  -0.50875
 Alpha  occ. eigenvalues --   -0.50695  -0.49718  -0.49047  -0.48291  -0.46135
 Alpha  occ. eigenvalues --   -0.45629  -0.44689  -0.44519  -0.43476  -0.42990
 Alpha  occ. eigenvalues --   -0.42564  -0.41574  -0.40704  -0.39923  -0.39267
 Alpha  occ. eigenvalues --   -0.38959  -0.37943  -0.37759  -0.35676  -0.35242
 Alpha  occ. eigenvalues --   -0.35013  -0.34699  -0.34276  -0.33406  -0.33162
 Alpha  occ. eigenvalues --   -0.32240  -0.30909  -0.30705  -0.30262  -0.30049
 Alpha  occ. eigenvalues --   -0.29214  -0.28800  -0.28455  -0.27365  -0.26548
 Alpha  occ. eigenvalues --   -0.26286
 Alpha virt. eigenvalues --   -0.02116  -0.01747  -0.01554   0.00074   0.00409
 Alpha virt. eigenvalues --    0.01011   0.01865   0.02243   0.03122   0.03576
 Alpha virt. eigenvalues --    0.03802   0.04365   0.05080   0.05317   0.05550
 Alpha virt. eigenvalues --    0.06235   0.06516   0.07455   0.07884   0.07961
 Alpha virt. eigenvalues --    0.08564   0.08790   0.09073   0.09569   0.10273
 Alpha virt. eigenvalues --    0.10579   0.11365   0.11620   0.12114   0.12293
 Alpha virt. eigenvalues --    0.12669   0.12862   0.13129   0.13465   0.13584
 Alpha virt. eigenvalues --    0.14073   0.14376   0.14542   0.15052   0.15340
 Alpha virt. eigenvalues --    0.16010   0.16234   0.17198   0.17320   0.17373
 Alpha virt. eigenvalues --    0.17481   0.17612   0.17859   0.18234   0.18779
 Alpha virt. eigenvalues --    0.19038   0.19238   0.19304   0.19766   0.20106
 Alpha virt. eigenvalues --    0.20716   0.21009   0.21492   0.21592   0.21827
 Alpha virt. eigenvalues --    0.22074   0.22353   0.22435   0.23109   0.23483
 Alpha virt. eigenvalues --    0.23827   0.23937   0.24215   0.24361   0.24941
 Alpha virt. eigenvalues --    0.25069   0.25394   0.25687   0.25944   0.26357
 Alpha virt. eigenvalues --    0.26499   0.26547   0.26678   0.27254   0.27406
 Alpha virt. eigenvalues --    0.27541   0.27902   0.28273   0.28437   0.28617
 Alpha virt. eigenvalues --    0.28938   0.29224   0.29963   0.30153   0.30901
 Alpha virt. eigenvalues --    0.31238   0.31480   0.32203   0.32277   0.32438
 Alpha virt. eigenvalues --    0.32615   0.33030   0.33165   0.33683   0.33881
 Alpha virt. eigenvalues --    0.34544   0.34653   0.34971   0.35312   0.35900
 Alpha virt. eigenvalues --    0.36066   0.36433   0.37262   0.37545   0.37740
 Alpha virt. eigenvalues --    0.38192   0.38347   0.38716   0.39216   0.39532
 Alpha virt. eigenvalues --    0.40074   0.40401   0.41015   0.41244   0.41958
 Alpha virt. eigenvalues --    0.42508   0.42696   0.43036   0.43217   0.43810
 Alpha virt. eigenvalues --    0.44352   0.44713   0.45245   0.46211   0.47060
 Alpha virt. eigenvalues --    0.47398   0.47881   0.48144   0.48986   0.49654
 Alpha virt. eigenvalues --    0.50377   0.51503   0.54166   0.57675   0.58733
 Alpha virt. eigenvalues --    0.59325   0.60709   0.60815   0.61887   0.63305
 Alpha virt. eigenvalues --    0.63913   0.64607   0.64792   0.66711   0.67246
 Alpha virt. eigenvalues --    0.67476   0.67963   0.69050   0.69384   0.70462
 Alpha virt. eigenvalues --    0.71279   0.72025   0.72583   0.73433   0.73740
 Alpha virt. eigenvalues --    0.74583   0.75262   0.76225   0.76820   0.77411
 Alpha virt. eigenvalues --    0.77878   0.78829   0.79954   0.80459   0.80904
 Alpha virt. eigenvalues --    0.81358   0.82457   0.83279   0.84603   0.85631
 Alpha virt. eigenvalues --    0.86694   0.87835   0.88428   0.89466   0.89602
 Alpha virt. eigenvalues --    0.90000   0.90685   0.91138   0.92160   0.92295
 Alpha virt. eigenvalues --    0.92472   0.93410   0.93694   0.94151   0.94564
 Alpha virt. eigenvalues --    0.95378   0.95451   0.96110   0.96193   0.96560
 Alpha virt. eigenvalues --    0.97119   0.97486   0.98607   0.98881   0.99608
 Alpha virt. eigenvalues --    0.99681   1.00219   1.01419   1.01983   1.02515
 Alpha virt. eigenvalues --    1.03362   1.03697   1.05006   1.05685   1.06352
 Alpha virt. eigenvalues --    1.06861   1.07319   1.07707   1.08793   1.08985
 Alpha virt. eigenvalues --    1.09289   1.10004   1.10857   1.11169   1.11894
 Alpha virt. eigenvalues --    1.12335   1.13251   1.13396   1.13944   1.15174
 Alpha virt. eigenvalues --    1.15596   1.16011   1.16335   1.16579   1.16853
 Alpha virt. eigenvalues --    1.17588   1.18249   1.18790   1.19496   1.20290
 Alpha virt. eigenvalues --    1.20468   1.20731   1.21206   1.22166   1.23050
 Alpha virt. eigenvalues --    1.23133   1.23999   1.24619   1.25082   1.25413
 Alpha virt. eigenvalues --    1.26097   1.26403   1.27007   1.28084   1.28366
 Alpha virt. eigenvalues --    1.28809   1.29617   1.30270   1.30577   1.31961
 Alpha virt. eigenvalues --    1.33309   1.33650   1.34398   1.34730   1.35316
 Alpha virt. eigenvalues --    1.35502   1.36197   1.36680   1.37346   1.38174
 Alpha virt. eigenvalues --    1.38811   1.39076   1.40354   1.40681   1.41215
 Alpha virt. eigenvalues --    1.42065   1.42519   1.42576   1.42742   1.43591
 Alpha virt. eigenvalues --    1.44497   1.45297   1.46513   1.46988   1.47629
 Alpha virt. eigenvalues --    1.47944   1.49426   1.50095   1.50692   1.51505
 Alpha virt. eigenvalues --    1.53626   1.54633   1.54924   1.56094   1.56455
 Alpha virt. eigenvalues --    1.58446   1.58940   1.59293   1.59999   1.60828
 Alpha virt. eigenvalues --    1.61571   1.62271   1.62802   1.64535   1.65286
 Alpha virt. eigenvalues --    1.65597   1.67269   1.67789   1.68489   1.68921
 Alpha virt. eigenvalues --    1.69403   1.71340   1.72081   1.73028   1.73959
 Alpha virt. eigenvalues --    1.74411   1.75824   1.76123   1.77459   1.79488
 Alpha virt. eigenvalues --    1.81283   1.82009   1.82324   1.83294   1.83710
 Alpha virt. eigenvalues --    1.84481   1.85009   1.85649   1.87535   1.88403
 Alpha virt. eigenvalues --    1.89236   1.89674   1.90877   1.92333   1.93121
 Alpha virt. eigenvalues --    1.93828   1.94405   1.95466   1.99041   1.99705
 Alpha virt. eigenvalues --    2.00284   2.01005   2.03087   2.04576   2.04918
 Alpha virt. eigenvalues --    2.06258   2.06459   2.07915   2.08659   2.09572
 Alpha virt. eigenvalues --    2.10475   2.13217   2.13649   2.15524   2.17054
 Alpha virt. eigenvalues --    2.20495   2.20874   2.22046   2.23355   2.25678
 Alpha virt. eigenvalues --    2.27318   2.28024   2.28799   2.29869   2.31308
 Alpha virt. eigenvalues --    2.32047   2.33570   2.35754   2.36628   2.37716
 Alpha virt. eigenvalues --    2.38887   2.40605   2.41892   2.44763   2.50443
 Alpha virt. eigenvalues --    2.51949   2.52305   2.54176   2.58326   2.59156
 Alpha virt. eigenvalues --    2.61933   2.64325   2.65572   2.66542   2.69014
 Alpha virt. eigenvalues --    2.69219   2.70777   2.71058   2.71862   2.72146
 Alpha virt. eigenvalues --    2.73162   2.75284   2.76190   2.78333   2.79363
 Alpha virt. eigenvalues --    2.80157   2.81931   2.83091   2.84617   2.85938
 Alpha virt. eigenvalues --    2.89131   2.89773   2.91323   2.92484   2.93083
 Alpha virt. eigenvalues --    2.93831   2.95019   2.96012   2.96971   2.98182
 Alpha virt. eigenvalues --    2.98499   2.99525   3.00250   3.01282   3.01506
 Alpha virt. eigenvalues --    3.03000   3.03332   3.03581   3.04451   3.05566
 Alpha virt. eigenvalues --    3.05930   3.06270   3.06741   3.07588   3.07862
 Alpha virt. eigenvalues --    3.08924   3.09304   3.10718   3.12992   3.14074
 Alpha virt. eigenvalues --    3.15039   3.18830   3.19166   3.20586   3.23554
 Alpha virt. eigenvalues --    3.25185   3.26579   3.32292   3.73249   3.78518
 Alpha virt. eigenvalues --    3.99878   4.04132   4.09427   4.10529   4.10845
 Alpha virt. eigenvalues --    4.11915   4.13455   4.15534   4.16263   4.16543
 Alpha virt. eigenvalues --    4.16955   4.18338   4.19886   4.20834   4.22610
 Alpha virt. eigenvalues --    4.23487   4.24010   4.25436   4.26561   4.27002
 Alpha virt. eigenvalues --    4.27907   4.28292   4.29006   4.29770   4.29912
 Alpha virt. eigenvalues --    4.30898   4.31622   4.31789   4.32502   4.32816
 Alpha virt. eigenvalues --    4.33525   4.34631   4.34942   4.35790   4.35936
 Alpha virt. eigenvalues --    4.36126   4.36487   4.37444   4.38117   4.38943
 Alpha virt. eigenvalues --    4.39905   4.40234   4.41410   4.43793   4.44514
 Alpha virt. eigenvalues --    4.45781   4.46875   4.47152   4.49392   4.51395
 Alpha virt. eigenvalues --    4.51854   4.53917   4.54146   4.54786   4.55859
 Alpha virt. eigenvalues --    4.56273   4.57775   4.58156   4.59589   4.60247
 Alpha virt. eigenvalues --    4.62002   4.62246   4.63669   4.64478   4.65157
 Alpha virt. eigenvalues --    4.65454   4.65893   4.66252   4.66755   4.67009
 Alpha virt. eigenvalues --    4.68348   4.69027   4.69381   4.70449   4.70757
 Alpha virt. eigenvalues --    4.72102   4.72732   4.73445   4.74055   4.74311
 Alpha virt. eigenvalues --    4.75512   4.75841   4.76377   4.76764   4.77564
 Alpha virt. eigenvalues --    4.78392   4.79428   4.79587   4.80462   4.81336
 Alpha virt. eigenvalues --    4.81822   4.82441   4.83443   4.84431   4.85491
 Alpha virt. eigenvalues --    4.85975   4.88160   4.89468   4.91171   4.91657
 Alpha virt. eigenvalues --    4.93603   4.94533   4.95296   4.96926   4.98323
 Alpha virt. eigenvalues --    4.99405   4.99931   5.01431   5.03302   5.04974
 Alpha virt. eigenvalues --    5.07319   5.08833   5.11526   5.12765   5.14034
 Alpha virt. eigenvalues --    5.24044   5.26827   5.27416   5.31896   5.40677
 Alpha virt. eigenvalues --    5.43070   5.76910   6.00971   6.23568   6.51606
 Alpha virt. eigenvalues --    6.74808   6.76122   6.77272   6.80399   6.83407
 Alpha virt. eigenvalues --    6.88075   6.90452   6.92852   6.98653   7.00453
 Alpha virt. eigenvalues --    7.04804  11.85811  11.94664  12.10761  12.17907
 Alpha virt. eigenvalues --   12.27704  12.37684  12.66670  12.80487  12.83739
 Alpha virt. eigenvalues --   12.91221  13.14337  13.20347  13.24616  13.28081
 Alpha virt. eigenvalues --   13.29261  13.33663  13.39968  13.44570  13.46844
 Alpha virt. eigenvalues --   13.50180  13.64338  13.68681  13.76504
          Condensed to atoms (all electrons):
              1          2          3          4          5          6
     1  O    8.191488   0.323580  -0.110816  -0.006457   0.016030  -0.000922
     2  C    0.323580   6.315061  -0.232624   0.000961  -0.055360  -0.782837
     3  C   -0.110816  -0.232624   6.274956   0.161206   0.018207   0.397287
     4  O   -0.006457   0.000961   0.161206   8.202754   0.233658  -0.042621
     5  H    0.016030  -0.055360   0.018207   0.233658   0.430493   0.012955
     6  C   -0.000922  -0.782837   0.397287  -0.042621   0.012955   7.287034
     7  O    0.000173   0.000944  -0.096730   0.000183  -0.000170   0.245170
     8  H    0.000003  -0.002070   0.012216  -0.000270   0.000014   0.041253
     9  C    0.021568   0.080450  -0.266521   0.007102  -0.002630   0.231660
    10  O   -0.029747   0.045088   0.013827  -0.000129  -0.000017  -0.006721
    11  H    0.002816  -0.015457  -0.000828   0.000001   0.000000   0.000579
    12  C   -0.153011  -0.553943  -0.040355   0.029251   0.002741   0.028068
    13  O    0.001718  -0.054292  -0.035713  -0.001153  -0.000020   0.046305
    14  C    0.019335   0.467953  -0.239111  -0.016016   0.010082  -1.313117
    15  O   -0.000171   0.004341  -0.005066   0.000277  -0.000020  -0.007869
    16  C    0.000476   0.069196  -0.025327  -0.003239   0.000557  -0.244507
    17  C    0.000162  -0.035194   0.009901   0.000080   0.000017   0.042259
    18  O    0.000019   0.006972   0.000025  -0.000003   0.000000  -0.007962
    19  H   -0.000022  -0.001735   0.001823   0.000001   0.000000   0.006584
    20  C    0.000021  -0.000395  -0.004539  -0.000030   0.000001   0.029538
    21  O    0.000000  -0.000007  -0.000003   0.000000   0.000000  -0.000149
    22  H    0.000000   0.000000   0.000001   0.000000   0.000000  -0.000019
    23  C    0.000030   0.010097   0.009374   0.000226   0.000003  -0.115262
    24  O    0.000000   0.000921  -0.011366  -0.000256  -0.000001   0.028390
    25  H    0.000000   0.000043   0.001259   0.000004   0.000000  -0.000996
    26  C   -0.000003  -0.014585  -0.045770  -0.000534   0.000014   0.012912
    27  O    0.000000  -0.000138   0.000353   0.000000   0.000000   0.004225
    28  C    0.000001   0.000265   0.000336  -0.000003   0.000000   0.003845
    29  O    0.000000   0.000005   0.000022   0.000000   0.000000  -0.000210
    30  H    0.000000   0.000000   0.000000   0.000000   0.000000  -0.000001
    31  H    0.000000   0.000000  -0.000007   0.000000   0.000000   0.001149
    32  H    0.000000   0.000005   0.000443   0.000000   0.000000  -0.004721
    33  H    0.000000  -0.000127   0.001017   0.000000   0.000000  -0.000571
    34  H   -0.000001  -0.003196   0.004562   0.000003   0.000000   0.004564
    35  H    0.000000   0.000276   0.000292   0.000000   0.000000   0.002787
    36  H    0.000000   0.000088  -0.000025   0.000000   0.000000   0.000156
    37  H    0.000000   0.000006   0.000004   0.000000   0.000000  -0.000089
    38  H    0.267464   0.013236  -0.006950  -0.000112  -0.001378  -0.000080
    39  H   -0.000544  -0.016841   0.003177   0.000007   0.000000  -0.002756
    40  H    0.003208   0.034772  -0.012867  -0.000007   0.000000   0.009116
    41  H    0.005704   0.076789  -0.058344   0.000161   0.000013  -0.007763
    42  H   -0.015294   0.364566  -0.065452   0.002533  -0.000156  -0.003400
    43  H    0.001620  -0.004338   0.284135  -0.024081  -0.004048  -0.168810
    44  H   -0.000206   0.016288  -0.095806   0.002744  -0.000170   0.340328
    45  H   -0.000081  -0.023098  -0.015956   0.000130   0.000004   0.015616
              7          8          9         10         11         12
     1  O    0.000173   0.000003   0.021568  -0.029747   0.002816  -0.153011
     2  C    0.000944  -0.002070   0.080450   0.045088  -0.015457  -0.553943
     3  C   -0.096730   0.012216  -0.266521   0.013827  -0.000828  -0.040355
     4  O    0.000183  -0.000270   0.007102  -0.000129   0.000001   0.029251
     5  H   -0.000170   0.000014  -0.002630  -0.000017   0.000000   0.002741
     6  C    0.245170   0.041253   0.231660  -0.006721   0.000579   0.028068
     7  O    8.219412   0.251175  -0.000466  -0.000006   0.000000   0.011657
     8  H    0.251175   0.353636  -0.000031   0.000000   0.000000  -0.001314
     9  C   -0.000466  -0.000031   6.979068   0.051111  -0.002721  -1.339351
    10  O   -0.000006   0.000000   0.051111   8.296737   0.225331   0.004666
    11  H    0.000000   0.000000  -0.002721   0.225331   0.436543   0.024909
    12  C    0.011657  -0.001314  -1.339351   0.004666   0.024909   8.826447
    13  O    0.002455  -0.000374  -0.013828  -0.001566  -0.000637   0.020838
    14  C   -0.020482  -0.076410  -0.516521   0.013892  -0.003155  -0.743383
    15  O    0.001737   0.005950  -0.011141   0.000019  -0.000001  -0.015948
    16  C   -0.001380   0.023725  -0.082173  -0.000201  -0.000275  -0.076411
    17  C   -0.003537   0.001638   0.001159   0.000218   0.000046  -0.064439
    18  O    0.000011  -0.000023  -0.000691  -0.000036  -0.000003  -0.008062
    19  H   -0.000033   0.000000   0.000106  -0.000032  -0.000001  -0.003555
    20  C    0.000987   0.000624  -0.004115  -0.000045   0.000004   0.001668
    21  O    0.000001   0.000000   0.000093   0.000000   0.000000  -0.000084
    22  H    0.000000   0.000000  -0.000002   0.000000   0.000000   0.000012
    23  C    0.040775   0.007953  -0.000512  -0.000003   0.000000  -0.011354
    24  O   -0.052766  -0.001238   0.000095   0.000000   0.000000   0.003751
    25  H    0.004059  -0.001981  -0.000014   0.000000   0.000000  -0.000362
    26  C   -0.034534  -0.020191   0.008625  -0.000043  -0.000001   0.044072
    27  O    0.000074  -0.000030   0.000065   0.000000   0.000000   0.000233
    28  C    0.000253  -0.000091   0.000271   0.000007   0.000000   0.000463
    29  O   -0.000002   0.000000  -0.000004   0.000000   0.000000   0.000040
    30  H    0.000000   0.000000   0.000000   0.000000   0.000000  -0.000001
    31  H   -0.000358   0.000195   0.000000   0.000000   0.000000   0.000052
    32  H    0.001091  -0.000011   0.000003   0.000000   0.000000  -0.000096
    33  H   -0.000181   0.000001   0.000051   0.000000   0.000000   0.000762
    34  H   -0.001406   0.000010   0.000049   0.000001   0.000000   0.004252
    35  H   -0.000030   0.000000  -0.000259   0.000000   0.000000  -0.000236
    36  H    0.000002   0.000000  -0.000070   0.000000   0.000000   0.000334
    37  H    0.000001   0.000000  -0.000003   0.000000   0.000000   0.000026
    38  H   -0.000026   0.000000  -0.002680   0.000118  -0.000082  -0.009154
    39  H   -0.000012   0.000000   0.385936  -0.015533  -0.012218  -0.010223
    40  H    0.000010   0.000000   0.624434  -0.056034   0.001009  -0.298582
    41  H    0.000168   0.000000   0.062115   0.001989  -0.000290   0.058202
    42  H    0.001111   0.000001  -0.026574  -0.001144  -0.000019  -0.087546
    43  H    0.008732  -0.000104   0.009948  -0.000127   0.000000   0.044844
    44  H   -0.026443  -0.006334   0.014451   0.000024   0.000000   0.060331
    45  H   -0.001400   0.000030   0.016643   0.000082   0.000000   0.070154
             13         14         15         16         17         18
     1  O    0.001718   0.019335  -0.000171   0.000476   0.000162   0.000019
     2  C   -0.054292   0.467953   0.004341   0.069196  -0.035194   0.006972
     3  C   -0.035713  -0.239111  -0.005066  -0.025327   0.009901   0.000025
     4  O   -0.001153  -0.016016   0.000277  -0.003239   0.000080  -0.000003
     5  H   -0.000020   0.010082  -0.000020   0.000557   0.000017   0.000000
     6  C    0.046305  -1.313117  -0.007869  -0.244507   0.042259  -0.007962
     7  O    0.002455  -0.020482   0.001737  -0.001380  -0.003537   0.000011
     8  H   -0.000374  -0.076410   0.005950   0.023725   0.001638  -0.000023
     9  C   -0.013828  -0.516521  -0.011141  -0.082173   0.001159  -0.000691
    10  O   -0.001566   0.013892   0.000019  -0.000201   0.000218  -0.000036
    11  H   -0.000637  -0.003155  -0.000001  -0.000275   0.000046  -0.000003
    12  C    0.020838  -0.743383  -0.015948  -0.076411  -0.064439  -0.008062
    13  O    8.209701   0.194903  -0.003049  -0.010197  -0.002150  -0.029476
    14  C    0.194903   8.193329   0.204634  -0.574765   0.083327  -0.013505
    15  O   -0.003049   0.204634   8.061484   0.205403  -0.061462  -0.000081
    16  C   -0.010197  -0.574765   0.205403  10.208993  -1.179502  -0.051560
    17  C   -0.002150   0.083327  -0.061462  -1.179502   6.994295   0.231228
    18  O   -0.029476  -0.013505  -0.000081  -0.051560   0.231228   8.193804
    19  H    0.021079  -0.001041   0.008034  -0.070161   0.052028   0.242757
    20  C   -0.018332  -0.223518   0.003447  -1.128180   0.036213  -0.036540
    21  O   -0.000008   0.000820   0.000133   0.040359  -0.035067   0.006244
    22  H    0.000001  -0.000078  -0.000007  -0.003925   0.005731  -0.000538
    23  C    0.001211  -0.048968   0.002604  -0.067586  -0.176839   0.009030
    24  O    0.000254   0.060255  -0.019331   0.071789   0.003656   0.000117
    25  H   -0.000022  -0.010282   0.002325  -0.019368  -0.001687  -0.000001
    26  C   -0.004046  -0.274006  -0.082191  -2.622014  -0.127334   0.042845
    27  O    0.000052   0.016665   0.000771   0.101930  -0.011920  -0.001163
    28  C    0.001034   0.051201   0.005239   0.888366  -0.014979  -0.011267
    29  O    0.000015   0.000570   0.000037   0.003215  -0.017052   0.000417
    30  H    0.000000  -0.000046  -0.000001  -0.005256   0.009660  -0.000027
    31  H    0.000019   0.003792   0.000625   0.017005   0.007000   0.000008
    32  H   -0.000018  -0.002275   0.000932   0.061507  -0.000838   0.000043
    33  H   -0.000172   0.041234   0.001416   0.014762  -0.025683   0.000157
    34  H   -0.002990  -0.001066  -0.025807   0.132579   0.027944  -0.005172
    35  H    0.000462  -0.010650  -0.002974  -0.110512   0.325215  -0.027303
    36  H    0.000128  -0.008659   0.000470   0.070451  -0.162114   0.005839
    37  H    0.000017   0.001110   0.000613   0.053154  -0.021892   0.000221
    38  H   -0.000548  -0.000289   0.000001   0.000146  -0.000035   0.000000
    39  H   -0.002776  -0.003626  -0.000140   0.004766   0.000310  -0.000161
    40  H   -0.003681   0.004769  -0.000472  -0.003209   0.001289  -0.000120
    41  H   -0.028334   0.138442  -0.001124  -0.000960   0.004647  -0.000129
    42  H    0.007582   0.080728   0.000028  -0.004961   0.001281   0.000030
    43  H    0.004925   0.084798   0.000533  -0.005173   0.000897   0.000034
    44  H    0.009003  -0.037421  -0.007332  -0.023701   0.002056   0.000078
    45  H   -0.042879   0.248813  -0.033402  -0.006020   0.013032  -0.002592
             19         20         21         22         23         24
     1  O   -0.000022   0.000021   0.000000   0.000000   0.000030   0.000000
     2  C   -0.001735  -0.000395  -0.000007   0.000000   0.010097   0.000921
     3  C    0.001823  -0.004539  -0.000003   0.000001   0.009374  -0.011366
     4  O    0.000001  -0.000030   0.000000   0.000000   0.000226  -0.000256
     5  H    0.000000   0.000001   0.000000   0.000000   0.000003  -0.000001
     6  C    0.006584   0.029538  -0.000149  -0.000019  -0.115262   0.028390
     7  O   -0.000033   0.000987   0.000001   0.000000   0.040775  -0.052766
     8  H    0.000000   0.000624   0.000000   0.000000   0.007953  -0.001238
     9  C    0.000106  -0.004115   0.000093  -0.000002  -0.000512   0.000095
    10  O   -0.000032  -0.000045   0.000000   0.000000  -0.000003   0.000000
    11  H   -0.000001   0.000004   0.000000   0.000000   0.000000   0.000000
    12  C   -0.003555   0.001668  -0.000084   0.000012  -0.011354   0.003751
    13  O    0.021079  -0.018332  -0.000008   0.000001   0.001211   0.000254
    14  C   -0.001041  -0.223518   0.000820  -0.000078  -0.048968   0.060255
    15  O    0.008034   0.003447   0.000133  -0.000007   0.002604  -0.019331
    16  C   -0.070161  -1.128180   0.040359  -0.003925  -0.067586   0.071789
    17  C    0.052028   0.036213  -0.035067   0.005731  -0.176839   0.003656
    18  O    0.242757  -0.036540   0.006244  -0.000538   0.009030   0.000117
    19  H    0.379456   0.008861  -0.000366   0.000012  -0.002895  -0.000006
    20  C    0.008861   6.779831   0.067389  -0.008531   0.090866  -0.008362
    21  O   -0.000366   0.067389   8.229491   0.237158  -0.001464   0.000023
    22  H    0.000012  -0.008531   0.237158   0.431741  -0.000056   0.000000
    23  C   -0.002895   0.090866  -0.001464  -0.000056   6.664812  -0.027665
    24  O   -0.000006  -0.008362   0.000023   0.000000  -0.027665   8.345052
    25  H    0.000000   0.001268   0.000000   0.000000   0.010280   0.233795
    26  C   -0.007249   0.877915  -0.026287   0.004229  -1.041768  -0.031590
    27  O    0.000089  -0.112624   0.003284  -0.000833  -0.083400   0.003164
    28  C    0.003445  -0.639910   0.055756  -0.006984  -0.118119   0.011074
    29  O    0.000004  -0.016930   0.002474   0.012068   0.015736   0.000030
    30  H    0.000000  -0.033828  -0.001584  -0.001270  -0.000918  -0.000002
    31  H    0.000000  -0.004154  -0.000002   0.000000   0.353130  -0.014903
    32  H    0.000000  -0.002359   0.000002   0.000000   0.624955  -0.053045
    33  H    0.000018  -0.037487   0.000128   0.000006   0.067569   0.004637
    34  H    0.000191   0.039535  -0.000313   0.000006  -0.000717   0.000117
    35  H   -0.005875  -0.002521  -0.000944  -0.000161   0.015973  -0.000021
    36  H   -0.000148   0.333083  -0.023153  -0.004688   0.008953   0.000011
    37  H    0.000005  -0.118354   0.004366   0.000006  -0.002472   0.000044
    38  H    0.000000   0.000000   0.000000   0.000000   0.000001   0.000000
    39  H    0.000964  -0.000289   0.000001   0.000000   0.000015   0.000000
    40  H    0.000042  -0.000053   0.000000   0.000000  -0.000010   0.000000
    41  H    0.000010  -0.000101   0.000000   0.000000   0.000071   0.000001
    42  H   -0.000004  -0.000014   0.000000   0.000000   0.000013   0.000011
    43  H    0.000000   0.000014   0.000000   0.000000   0.000485   0.000085
    44  H   -0.000005   0.000601   0.000000   0.000000   0.002742   0.000472
    45  H    0.000278   0.009045   0.000003   0.000000   0.003374  -0.000123
             25         26         27         28         29         30
     1  O    0.000000  -0.000003   0.000000   0.000001   0.000000   0.000000
     2  C    0.000043  -0.014585  -0.000138   0.000265   0.000005   0.000000
     3  C    0.001259  -0.045770   0.000353   0.000336   0.000022   0.000000
     4  O    0.000004  -0.000534   0.000000  -0.000003   0.000000   0.000000
     5  H    0.000000   0.000014   0.000000   0.000000   0.000000   0.000000
     6  C   -0.000996   0.012912   0.004225   0.003845  -0.000210  -0.000001
     7  O    0.004059  -0.034534   0.000074   0.000253  -0.000002   0.000000
     8  H   -0.001981  -0.020191  -0.000030  -0.000091   0.000000   0.000000
     9  C   -0.000014   0.008625   0.000065   0.000271  -0.000004   0.000000
    10  O    0.000000  -0.000043   0.000000   0.000007   0.000000   0.000000
    11  H    0.000000  -0.000001   0.000000   0.000000   0.000000   0.000000
    12  C   -0.000362   0.044072   0.000233   0.000463   0.000040  -0.000001
    13  O   -0.000022  -0.004046   0.000052   0.001034   0.000015   0.000000
    14  C   -0.010282  -0.274006   0.016665   0.051201   0.000570  -0.000046
    15  O    0.002325  -0.082191   0.000771   0.005239   0.000037  -0.000001
    16  C   -0.019368  -2.622014   0.101930   0.888366   0.003215  -0.005256
    17  C   -0.001687  -0.127334  -0.011920  -0.014979  -0.017052   0.009660
    18  O   -0.000001   0.042845  -0.001163  -0.011267   0.000417  -0.000027
    19  H    0.000000  -0.007249   0.000089   0.003445   0.000004   0.000000
    20  C    0.001268   0.877915  -0.112624  -0.639910  -0.016930  -0.033828
    21  O    0.000000  -0.026287   0.003284   0.055756   0.002474  -0.001584
    22  H    0.000000   0.004229  -0.000833  -0.006984   0.012068  -0.001270
    23  C    0.010280  -1.041768  -0.083400  -0.118119   0.015736  -0.000918
    24  O    0.233795  -0.031590   0.003164   0.011074   0.000030  -0.000002
    25  H    0.424919   0.018753  -0.000882  -0.002085  -0.000005   0.000000
    26  C    0.018753  10.614777   0.019420  -1.067203  -0.052584   0.003678
    27  O   -0.000882   0.019420   8.173917   0.226236  -0.058352   0.006251
    28  C   -0.002085  -1.067203   0.226236   5.763897   0.258336   0.016166
    29  O   -0.000005  -0.052584  -0.058352   0.258336   8.155071   0.257899
    30  H    0.000000   0.003678   0.006251   0.016166   0.257899   0.427626
    31  H   -0.013840  -0.015143  -0.006462   0.003728  -0.000044  -0.000001
    32  H    0.000776  -0.320262   0.001006   0.006459  -0.000145   0.000000
    33  H   -0.000353   0.136420  -0.025082   0.065362  -0.000038   0.000016
    34  H   -0.000015   0.078343   0.004058  -0.002858  -0.000497   0.000002
    35  H    0.000000   0.093363   0.001945  -0.029093   0.000015   0.000009
    36  H    0.000000   0.007709   0.001695   0.032067  -0.001883   0.000071
    37  H    0.000000  -0.016940  -0.038211   0.436230  -0.023528  -0.008321
    38  H    0.000000  -0.000008   0.000000   0.000000   0.000000   0.000000
    39  H    0.000000   0.000241   0.000000   0.000006   0.000000   0.000000
    40  H    0.000000  -0.000122   0.000000   0.000007   0.000000   0.000000
    41  H    0.000000  -0.001009   0.000000   0.000039   0.000000   0.000000
    42  H    0.000000  -0.000158   0.000000   0.000000   0.000000   0.000000
    43  H    0.000000   0.000293   0.000000  -0.000012   0.000000   0.000000
    44  H    0.000004  -0.002611   0.000000  -0.000056   0.000000   0.000000
    45  H    0.000007   0.010576   0.000151  -0.001065  -0.000004   0.000000
             31         32         33         34         35         36
     1  O    0.000000   0.000000   0.000000  -0.000001   0.000000   0.000000
     2  C    0.000000   0.000005  -0.000127  -0.003196   0.000276   0.000088
     3  C   -0.000007   0.000443   0.001017   0.004562   0.000292  -0.000025
     4  O    0.000000   0.000000   0.000000   0.000003   0.000000   0.000000
     5  H    0.000000   0.000000   0.000000   0.000000   0.000000   0.000000
     6  C    0.001149  -0.004721  -0.000571   0.004564   0.002787   0.000156
     7  O   -0.000358   0.001091  -0.000181  -0.001406  -0.000030   0.000002
     8  H    0.000195  -0.000011   0.000001   0.000010   0.000000   0.000000
     9  C    0.000000   0.000003   0.000051   0.000049  -0.000259  -0.000070
    10  O    0.000000   0.000000   0.000000   0.000001   0.000000   0.000000
    11  H    0.000000   0.000000   0.000000   0.000000   0.000000   0.000000
    12  C    0.000052  -0.000096   0.000762   0.004252  -0.000236   0.000334
    13  O    0.000019  -0.000018  -0.000172  -0.002990   0.000462   0.000128
    14  C    0.003792  -0.002275   0.041234  -0.001066  -0.010650  -0.008659
    15  O    0.000625   0.000932   0.001416  -0.025807  -0.002974   0.000470
    16  C    0.017005   0.061507   0.014762   0.132579  -0.110512   0.070451
    17  C    0.007000  -0.000838  -0.025683   0.027944   0.325215  -0.162114
    18  O    0.000008   0.000043   0.000157  -0.005172  -0.027303   0.005839
    19  H    0.000000   0.000000   0.000018   0.000191  -0.005875  -0.000148
    20  C   -0.004154  -0.002359  -0.037487   0.039535  -0.002521   0.333083
    21  O   -0.000002   0.000002   0.000128  -0.000313  -0.000944  -0.023153
    22  H    0.000000   0.000000   0.000006   0.000006  -0.000161  -0.004688
    23  C    0.353130   0.624955   0.067569  -0.000717   0.015973   0.008953
    24  O   -0.014903  -0.053045   0.004637   0.000117  -0.000021   0.000011
    25  H   -0.013840   0.000776  -0.000353  -0.000015   0.000000   0.000000
    26  C   -0.015143  -0.320262   0.136420   0.078343   0.093363   0.007709
    27  O   -0.006462   0.001006  -0.025082   0.004058   0.001945   0.001695
    28  C    0.003728   0.006459   0.065362  -0.002858  -0.029093   0.032067
    29  O   -0.000044  -0.000145  -0.000038  -0.000497   0.000015  -0.001883
    30  H   -0.000001   0.000000   0.000016   0.000002   0.000009   0.000071
    31  H    0.569518  -0.042891  -0.005915  -0.000045   0.000004   0.000002
    32  H   -0.042891   0.560940   0.006118   0.002529  -0.000003  -0.000011
    33  H   -0.005915   0.006118   0.630208   0.006571   0.002239  -0.000044
    34  H   -0.000045   0.002529   0.006571   0.610606   0.006008   0.000936
    35  H    0.000004  -0.000003   0.002239   0.006008   0.609070   0.006137
    36  H    0.000002  -0.000011  -0.000044   0.000936   0.006137   0.587449
    37  H    0.000004  -0.000022   0.003669  -0.000058   0.001418   0.004969
    38  H    0.000000   0.000000   0.000000   0.000000   0.000000   0.000000
    39  H    0.000000   0.000000   0.000000   0.000000   0.000000   0.000000
    40  H    0.000000   0.000000   0.000000   0.000000   0.000000   0.000000
    41  H    0.000000   0.000000   0.000000  -0.000009   0.000000   0.000000
    42  H    0.000000   0.000000   0.000000   0.000000   0.000000   0.000000
    43  H    0.000000   0.000000   0.000000  -0.000001   0.000000   0.000000
    44  H    0.000000   0.000001   0.000000   0.000001  -0.000005   0.000000
    45  H    0.000000   0.000030  -0.000005   0.007462  -0.000003  -0.000002
             37         38         39         40         41         42
     1  O    0.000000   0.267464  -0.000544   0.003208   0.005704  -0.015294
     2  C    0.000006   0.013236  -0.016841   0.034772   0.076789   0.364566
     3  C    0.000004  -0.006950   0.003177  -0.012867  -0.058344  -0.065452
     4  O    0.000000  -0.000112   0.000007  -0.000007   0.000161   0.002533
     5  H    0.000000  -0.001378   0.000000   0.000000   0.000013  -0.000156
     6  C   -0.000089  -0.000080  -0.002756   0.009116  -0.007763  -0.003400
     7  O    0.000001  -0.000026  -0.000012   0.000010   0.000168   0.001111
     8  H    0.000000   0.000000   0.000000   0.000000   0.000000   0.000001
     9  C   -0.000003  -0.002680   0.385936   0.624434   0.062115  -0.026574
    10  O    0.000000   0.000118  -0.015533  -0.056034   0.001989  -0.001144
    11  H    0.000000  -0.000082  -0.012218   0.001009  -0.000290  -0.000019
    12  C    0.000026  -0.009154  -0.010223  -0.298582   0.058202  -0.087546
    13  O    0.000017  -0.000548  -0.002776  -0.003681  -0.028334   0.007582
    14  C    0.001110  -0.000289  -0.003626   0.004769   0.138442   0.080728
    15  O    0.000613   0.000001  -0.000140  -0.000472  -0.001124   0.000028
    16  C    0.053154   0.000146   0.004766  -0.003209  -0.000960  -0.004961
    17  C   -0.021892  -0.000035   0.000310   0.001289   0.004647   0.001281
    18  O    0.000221   0.000000  -0.000161  -0.000120  -0.000129   0.000030
    19  H    0.000005   0.000000   0.000964   0.000042   0.000010  -0.000004
    20  C   -0.118354   0.000000  -0.000289  -0.000053  -0.000101  -0.000014
    21  O    0.004366   0.000000   0.000001   0.000000   0.000000   0.000000
    22  H    0.000006   0.000000   0.000000   0.000000   0.000000   0.000000
    23  C   -0.002472   0.000001   0.000015  -0.000010   0.000071   0.000013
    24  O    0.000044   0.000000   0.000000   0.000000   0.000001   0.000011
    25  H    0.000000   0.000000   0.000000   0.000000   0.000000   0.000000
    26  C   -0.016940  -0.000008   0.000241  -0.000122  -0.001009  -0.000158
    27  O   -0.038211   0.000000   0.000000   0.000000   0.000000   0.000000
    28  C    0.436230   0.000000   0.000006   0.000007   0.000039   0.000000
    29  O   -0.023528   0.000000   0.000000   0.000000   0.000000   0.000000
    30  H   -0.008321   0.000000   0.000000   0.000000   0.000000   0.000000
    31  H    0.000004   0.000000   0.000000   0.000000   0.000000   0.000000
    32  H   -0.000022   0.000000   0.000000   0.000000   0.000000   0.000000
    33  H    0.003669   0.000000   0.000000   0.000000   0.000000   0.000000
    34  H   -0.000058   0.000000   0.000000   0.000000  -0.000009   0.000000
    35  H    0.001418   0.000000   0.000000   0.000000   0.000000   0.000000
    36  H    0.004969   0.000000   0.000000   0.000000   0.000000   0.000000
    37  H    0.587930   0.000000   0.000000   0.000000   0.000000   0.000000
    38  H    0.000000   0.412914   0.000027  -0.000373  -0.000194  -0.014259
    39  H    0.000000   0.000027   0.582964  -0.047211  -0.004043   0.000102
    40  H    0.000000  -0.000373  -0.047211   0.594796   0.006145   0.004308
    41  H    0.000000  -0.000194  -0.004043   0.006145   0.620029   0.006667
    42  H    0.000000  -0.014259   0.000102   0.004308   0.006667   0.629192
    43  H    0.000000  -0.000179   0.000006  -0.000003   0.001969   0.006936
    44  H    0.000000   0.000019   0.000001  -0.000035  -0.000093   0.002476
    45  H    0.000000   0.000003  -0.000032  -0.000016   0.002461  -0.000026
             43         44         45
     1  O    0.001620  -0.000206  -0.000081
     2  C   -0.004338   0.016288  -0.023098
     3  C    0.284135  -0.095806  -0.015956
     4  O   -0.024081   0.002744   0.000130
     5  H   -0.004048  -0.000170   0.000004
     6  C   -0.168810   0.340328   0.015616
     7  O    0.008732  -0.026443  -0.001400
     8  H   -0.000104  -0.006334   0.000030
     9  C    0.009948   0.014451   0.016643
    10  O   -0.000127   0.000024   0.000082
    11  H    0.000000   0.000000   0.000000
    12  C    0.044844   0.060331   0.070154
    13  O    0.004925   0.009003  -0.042879
    14  C    0.084798  -0.037421   0.248813
    15  O    0.000533  -0.007332  -0.033402
    16  C   -0.005173  -0.023701  -0.006020
    17  C    0.000897   0.002056   0.013032
    18  O    0.000034   0.000078  -0.002592
    19  H    0.000000  -0.000005   0.000278
    20  C    0.000014   0.000601   0.009045
    21  O    0.000000   0.000000   0.000003
    22  H    0.000000   0.000000   0.000000
    23  C    0.000485   0.002742   0.003374
    24  O    0.000085   0.000472  -0.000123
    25  H    0.000000   0.000004   0.000007
    26  C    0.000293  -0.002611   0.010576
[...]
 ,-0.00002836,0.00000686,0.00000104,0.00003422,-0.00002512,0.00001893,-
 0.00004340,0.00002955,-0.00000860,-0.00000497,0.00000201,-0.00000181,0
 .00001166,-0.00000547,0.00000573,-0.00000281,-0.00000058,-0.00000122,-
 0.00001534,-0.00000074,0.00000771,0.00002231,0.00000712,0.00002435,-0.
 00001383,0.00000014,0.00000252,-0.00001800,-0.00001048,-0.00000371,0.0
 0001528,-0.00000211,0.00000767,-0.00001437,0.00000709,-0.00000527,0.00
 000565,-0.00000086,-0.00000034,-0.00000167,-0.00000023,0.00000037,0.00
 000039,-0.00000007,0.00000209,0.00000643,0.00000033,-0.00000338,0.0000
 0805,0.00000140,0.00000734,0.00001131,0.00000149,-0.00000845,0.0000090
 3,0.00000161,0.00001012,0.00000368,0.00000122,-0.00000343,0.00000334,0
 .00000102,0.00000191,0.00169415,-0.00004648,-0.00072066,0.00047299,0.0
 0014115,-0.00002066,0.00087330,-0.00082101,-0.00023540,0.00054919,-0.0
 0096101,0.00101442,0.37774415,-0.01091197,-0.00049440,-0.00629793,-0.0
 1131315,-0.04410185,0.00253341,0.03518775,-0.00158204,-0.00500230,-0.0
 0243534,0.00338380,-0.00003853,0.00037304,-0.00010529,0.00016968,0.001
 06751,0.00114168,0.00112956,-0.00049884,-0.00020203,-0.00004035,-0.000
 09486,0.00000767,0.00006038,-0.00272608,0.00135107,-0.00028779,0.00045
 740,-0.00000180,0.00014236,-0.00001271,-0.00006039,0.00000507,-0.02780
 356,-0.00467923,0.00514252,0.00157138,0.00132661,-0.00138938,0.0001655
 6,-0.00043069,-0.00003609,-0.00000531,0.00010657,-0.00003708,-0.000030
 17,0.00001477,-0.00000258,0.00001110,0.00000556,-0.00000927,0.00001593
 ,-0.00000450,-0.00002268,-0.00002374,0.00000797,0.00002346,-0.00000532
 ,-0.00000114,0.00000097,0.00000213,0.00000283,-0.00000359,-0.00000083,
 -0.00000074,-0.00000022,0.00000149,-0.00000922,0.00000559,-0.00000559,
 -0.00000282,-0.00003753,0.00000874,0.00000229,-0.00000357,0.00000229,-
 0.00000320,0.00000755,-0.00000258,0.00000395,-0.00000601,0.00000206,-0
 .00000204,0.00000686,0.00000235,0.00000009,-0.00000616,-0.00000002,0.0
 0000037,0.00000105,0.00000026,0.00000151,-0.00000449,-0.00000135,-0.00
 000029,0.00000280,-0.00000133,0.00000132,-0.00000103,0.00000228,-0.000
 00586,0.00000425,0.00000166,0.00000240,0.00000296,0.00000061,-0.000000
 41,-0.00000126,-0.00000036,0.00000063,-0.00000023,-0.00107665,0.001449
 79,0.00002552,0.00034104,0.00031513,-0.00009670,0.00097892,-0.00030242
 ,-0.00009645,-0.00109405,-0.00312550,0.00332205,0.01657997,0.05174907,
 -0.04181899,-0.00874785,-0.01908360,0.03120648,0.00250818,-0.04315738,
 0.01120860,0.00050102,0.00017226,-0.00119948,-0.00016602,0.00068788,-0
 .00020004,-0.00029674,-0.00017255,0.00122494,-0.00007987,0.00035843,-0
 .00031988,-0.00000956,-0.00006996,0.00001873,0.00002697,0.00001271,0.0
 0050035,-0.00157474,0.00049882,-0.00014927,0.00000906,0.00014944,0.000
 01949,-0.00003926,0.00005512,0.02513868,0.00419718,-0.00241067,-0.0011
 6222,-0.00051890,0.00244070,0.00036338,-0.00014016,-0.00019752,-0.0000
 7413,0.00001768,-0.00014990,0.00000577,-0.00003304,0.00000467,0.000015
 37,0.00000322,0.00001317,-0.00004130,-0.00000395,-0.00000841,0.0000517
 6,0.00000918,-0.00000935,0.00000571,-0.00000567,0.00000693,-0.00000894
 ,0.00000782,-0.00000979,0.00000181,-0.00000042,0.00000167,0.00000771,0
 .00000174,-0.00000106,-0.00001139,-0.00000690,-0.00001405,0.00000585,0
 .00000129,-0.00000060,0.00001160,0.00001159,0.00000727,-0.00000850,0.0
 0000246,-0.00001526,0.00000740,-0.00000525,0.00001483,0.00000045,0.000
 00033,-0.00000947,0.00000044,0.00000051,0.00000165,-0.00000110,-0.0000
 0166,-0.00000170,-0.00000319,0.00000105,0.00000285,-0.00000507,-0.0000
 0208,-0.00000565,-0.00000977,0.00000103,0.00000849,-0.00000834,-0.0000
 0390,-0.00001060,-0.00000331,-0.00000037,0.00000343,-0.00000205,-0.000
 00089,-0.00000210,-0.00345748,0.00057206,0.00285688,-0.00010558,-0.000
 24134,-0.00002435,-0.00071822,0.00025577,0.00026495,0.00065017,0.00311
 794,-0.00317130,-0.02113792,0.00310548,0.06124979,0.00166819,0.0000913
 5,0.00050707,-0.01587086,0.00185556,-0.00093083,-0.34918568,-0.0068635
 9,0.00729388,-0.00474811,-0.00930940,0.00935461,0.00015800,-0.00076984
 ,0.00000521,-0.01516911,0.00102023,-0.00160445,0.00202158,0.00012951,0
 .00077621,0.00028101,0.00010388,0.00005319,0.00040974,0.00033159,-0.00
 018267,0.00005114,0.00001579,0.00000566,-0.00000713,0.00000176,0.00000
 608,-0.00067287,-0.00072324,0.00052049,0.00042465,0.00030453,-0.000104
 92,-0.00147113,-0.00091208,0.00092485,0.00072739,0.00007832,-0.0001164
 9,-0.00007239,0.00006737,-0.00012091,0.00000354,-0.00000491,-0.0000457
 6,0.00004092,-0.00000322,0.00002451,-0.00002627,0.00000372,0.00001118,
 -0.00001942,0.00001131,-0.00000471,0.00001620,-0.00000417,0.00000648,-
 0.00000485,0.00000016,-0.00000310,-0.00005084,-0.00001789,0.00003284,0
 .00003128,0.00002855,0.00001821,-0.00002343,-0.00000627,0.00001229,-0.
 00000713,0.00000123,-0.00001232,0.00001910,0.00000016,0.00000005,-0.00
 001288,0.00000131,-0.00001091,0.00000368,0.00000208,0.00000526,-0.0000
 0118,-0.00000116,-0.00000138,0.00000698,0.00000188,0.00000186,0.000016
 30,0.00000127,-0.00001280,0.00001094,0.00000009,0.00001236,0.00001414,
 0.00000797,-0.00004095,0.00000994,-0.00000196,0.00000847,0.00000515,0.
 00000124,-0.00000294,0.00000396,0.00000094,0.00000248,0.00031630,-0.00
 032460,-0.00016223,-0.00000141,0.00012971,0.00000916,0.00016208,-0.000
 28449,-0.00001227,0.00087563,0.00062514,-0.00049400,0.00020263,0.00196
 274,0.00039144,0.37884511,-0.00232518,0.00204963,0.00112222,0.03524496
 ,-0.00324851,-0.00134491,-0.00538646,-0.03813367,-0.00382829,-0.032162
 33,-0.01377225,0.01601596,-0.00015430,0.00013751,-0.00102908,-0.009608
 22,0.00094833,-0.00197641,0.00007304,0.00082762,0.00114792,0.00007809,
 -0.00001981,-0.00005732,0.00018181,-0.00008201,-0.00009441,-0.00008014
 ,-0.00003715,-0.00005824,-0.00000360,0.00001870,-0.00000434,0.00109132
 ,0.00237867,-0.00071373,-0.00025967,-0.00022451,0.00027364,0.00064174,
 -0.00047028,0.00061757,0.00008619,-0.00003012,-0.00016006,0.00000033,0
 .00003060,-0.00001472,0.00000363,-0.00001706,-0.00002608,-0.00000822,0
 .00000539,0.00002850,0.00000852,0.00000519,-0.00003172,-0.00000418,0.0
 0000812,0.00000275,0.00000262,-0.00000224,-0.00000165,-0.00000127,0.00
 000162,-0.00000116,-0.00000236,0.00003260,-0.00002227,0.00002604,-0.00
 000190,0.00011769,-0.00002118,-0.00000147,0.00000277,-0.00001021,0.000
 02836,0.00000053,0.00000814,-0.00002146,0.00000087,-0.00000504,0.00000
 766,-0.00000652,-0.00000142,-0.00000219,0.00000531,0.00000005,-0.00000
 008,-0.00000093,-0.00000040,-0.00000655,0.00000991,0.00000303,0.000000
 75,-0.00000590,0.00000301,-0.00000528,0.00000187,0.00000205,0.00000586
 ,-0.00000809,-0.00000006,0.00000051,0.00000008,0.00000051,0.00000007,0
 .00000055,0.00000085,-0.00000079,0.00000057,-0.00008431,0.00030283,0.0
 0042271,-0.00013797,-0.00003793,0.00001736,-0.00031779,0.00002278,0.00
 006393,-0.00079045,-0.00026621,0.00027740,0.00233169,-0.00537289,-0.00
 207774,0.01205920,0.05475961,-0.00059587,0.00131157,0.00145351,0.01342
 081,-0.00322888,0.00114511,0.00725964,-0.00509162,-0.04214647,0.027616
 64,0.01607370,-0.01002938,0.00137245,0.00019523,0.00066800,-0.03543264
 ,-0.00115363,-0.00233213,0.00198594,0.00147283,0.00277542,-0.00005932,
 0.00034517,0.00000489,-0.00005433,-0.00014293,0.00008912,-0.00001312,0
 .00000028,-0.00001669,-0.00000267,0.00001261,-0.00000819,-0.00046794,0
 .00050432,-0.00034435,0.00016812,0.00028928,-0.00027713,-0.00166107,-0
 .00068748,0.00127715,0.00046786,0.00003902,-0.00008678,0.00008781,0.00
 004495,0.00005312,0.00000461,-0.00001988,-0.00002238,0.00001570,0.0000
 1485,0.00000116,-0.00001104,-0.00002210,0.00000988,-0.00000747,0.00000
 079,0.00001293,0.00000166,0.00000915,-0.00001390,-0.00000202,-0.000000
 21,-0.00000078,-0.00001268,0.00002944,0.00000957,0.00002602,-0.0000048
 1,0.00014506,-0.00000786,0.00000885,0.00000073,-0.00001866,0.00002875,
 0.00002364,0.00001132,-0.00001047,-0.00002669,-0.00000234,-0.00000375,
 0.00001660,0.00000668,0.00000040,-0.00001309,-0.00000060,0.00000063,0.
 00000232,-0.00000002,-0.00000907,0.00000878,0.00000805,0.00000013,-0.0
 0000664,0.00000662,-0.00000350,0.00000870,0.00003217,0.00001812,-0.000
 06167,0.00000336,-0.00000303,0.00000715,-0.00000007,0.00000041,-0.0000
 0184,0.00000058,0.00000037,0.00000013,-0.00007894,0.00036558,0.0000736
 5,-0.00003704,-0.00008894,-0.00000205,-0.00007905,0.00007569,-0.000009
 06,-0.00017860,0.00000334,0.00029677,0.00100933,-0.00185907,-0.0002816
 3,-0.01357398,-0.00735226,0.05342220,0.00060624,0.00005401,0.00000026,
 -0.00098691,0.00096295,0.00037887,-0.01294529,-0.00380427,-0.00052394,
 0.00153167,0.00056632,0.00031899,0.00021619,0.00004278,0.00013887,-0.3
 4709746,-0.04777990,0.00596959,-0.01383781,0.01170434,0.00675936,0.000
 23744,0.00028395,-0.00156484,-0.00010927,-0.00005315,0.00001127,0.0000
 5792,0.00003112,0.00001947,-0.00001025,-0.00000586,-0.00000080,0.00005
 618,-0.00014216,0.00019938,0.00151645,-0.00111926,-0.00045232,-0.00979
 303,-0.00115778,-0.00044090,0.00125456,0.00041992,-0.00080874,0.000327
 93,0.00014077,0.00020441,-0.00001402,0.00002651,-0.00001378,0.00005348
 ,-0.00002602,-0.00002457,-0.00005060,-0.00002193,-0.00000433,-0.000015
 43,0.00001899,0.00001875,0.00001729,-0.00001804,-0.00001385,-0.0000046
 7,0.00000514,-0.00000160,0.00003179,0.00021745,-0.00015418,0.00010382,
 -0.00008501,0.00069071,-0.00005759,-0.00001412,-0.00002319,-0.00006739
 ,0.00009499,0.00001666,0.00005213,-0.00010985,0.00000555,-0.00003999,0
 .00005623,-0.00001470,0.00000810,-0.00001745,0.00000238,-0.00000202,0.
 00000153,0.00000140,-0.00000405,-0.00003890,0.00005817,0.00000937,-0.0
 0001206,-0.00003200,0.00002108,-0.00000961,0.00002040,0.00004824,0.000
 06257,-0.00028893,0.00001044,-0.00000997,0.00002216,0.00000515,0.00000
 297,-0.00000411,0.00000618,-0.00000250,0.00000381,-0.00003185,-0.00013
 420,-0.00011708,0.00001419,-0.00000097,-0.00001724,0.00005845,-0.00003
 130,-0.00001731,0.00005293,0.00016873,-0.00002285,0.00093837,-0.000584
 61,-0.00022033,0.00019284,-0.00056585,-0.00170309,0.37731481,0.0002276
 0,-0.00001413,0.00004447,-0.00111039,0.00016188,0.00013917,-0.00728630
 ,-0.00006908,0.00057922,0.00094338,0.00048446,-0.00019512,-0.00004486,
 -0.00008533,0.00005678,-0.04796799,-0.04592621,0.00290884,0.03972661,-
 0.01106101,-0.00850030,0.00067093,0.00140568,0.00192544,-0.00010930,0.
 00001404,0.00002427,0.00003148,-0.00002150,0.00000262,-0.00000142,-0.0
 0000081,-0.00000425,-0.00010440,-0.00024540,-0.00006136,0.00151300,0.0
 0205227,-0.00053787,-0.02896482,-0.00434096,0.00194464,0.00111007,0.00
 097859,-0.00193299,-0.00008834,0.00016710,0.00000169,0.00006818,-0.000
 00802,-0.00012880,0.00008591,-0.00001670,0.00008145,-0.00007942,0.0000
 3334,-0.00001446,-0.00001874,0.00002372,-0.00000214,0.00000797,0.00001
 619,-0.00000208,-0.00000376,-0.00000344,-0.00000199,-0.00009689,-0.000
 18404,0.00017603,-0.00022648,-0.00005881,-0.00057798,0.00009566,0.0000
 0997,-0.00003755,0.00008636,-0.00008423,0.00001128,-0.00002302,0.00008
 403,-0.00003809,0.00002139,-0.00005346,0.00002001,0.00000248,0.0000170
 0,-0.00001041,0.00000028,-0.00000056,0.00000050,0.00001274,0.00003247,
 -0.00004824,0.00000684,-0.00000508,0.00003245,-0.00000275,0.00003134,0
 .00001996,0.00019386,0.00002457,-0.00011630,0.00002013,-0.00001842,0.0
 0002957,0.00000526,0.00000161,-0.00000704,-0.00000177,0.00000482,-0.00
 000022,0.00000442,0.00000478,-0.00002552,0.00001359,-0.00001403,-0.000
 00455,0.00004749,-0.00003452,-0.00002861,0.00012214,0.00010373,0.00002
 350,0.00018953,-0.00024540,-0.00041862,-0.00008139,-0.00002009,-0.0014
 5816,0.04144596,0.06008239,0.00061420,0.00010989,-0.00020894,-0.001427
 21,0.00146184,0.00119642,-0.03441920,-0.00674845,-0.00123742,0.0018967
 5,0.00016993,0.00293106,0.00020401,-0.00025773,0.00050259,0.00380630,0
 .00326667,-0.04398551,0.01468934,-0.00666345,-0.00010494,0.00127987,0.
 00019704,0.00083172,-0.00002890,-0.00003488,0.00008423,0.00000769,0.00
 002160,0.00001673,0.00000437,-0.00000103,0.00000652,-0.00030559,-0.000
 19745,-0.00055773,-0.00144048,-0.00044583,0.00062784,0.02481685,0.0065
 5175,-0.00197712,-0.00018313,-0.00074152,0.00234252,0.00030235,-0.0001
 0808,-0.00019237,-0.00006200,0.00002205,0.00016533,-0.00007469,-0.0000
 0322,-0.00008660,0.00006633,-0.00002434,0.00007492,0.00001868,-0.00003
 833,-0.00001991,-0.00001212,-0.00001601,0.00002149,0.00000589,-0.00000
 061,0.00000347,0.00006422,0.00001177,-0.00002801,-0.00020294,-0.000050
 02,-0.00012872,0.00003437,-0.00001244,0.00001360,0.00000440,-0.0000329
 8,-0.00002687,-0.00003910,0.00000085,0.00007170,0.00000702,0.00002779,
 -0.00002468,-0.00001099,-0.00000747,0.00001420,0.00000183,-0.00000037,
 -0.00000278,-0.00001234,0.00000011,-0.00000229,-0.00003652,-0.00000632
 ,0.00003712,-0.00002755,-0.00001256,-0.00005814,-0.00029869,-0.0000620
 8,0.00003424,-0.00003426,0.00003345,-0.00003089,-0.00000661,-0.0000033
 9,0.00000980,-0.00000232,-0.00000234,-0.00000273,0.00005032,-0.0001408
 0,-0.00007203,0.00001478,-0.00003468,0.00000693,0.00000722,-0.00001658
 ,0.00000241,0.00012192,0.00001658,-0.00011500,0.00067749,-0.00043874,-
 0.00013940,-0.00198098,-0.00140018,-0.00559119,-0.00892510,0.00294780,
 0.04817350,0.00006932,-0.00006812,0.00021006,-0.00002143,0.00033241,0.
 00001927,-0.00072924,-0.00022599,-0.00046542,0.00048594,0.00008570,-0.
 00012875,-0.00003723,0.00000192,0.00010077,-0.00857150,0.00060850,0.00
 233329,0.00227406,0.00005000,-0.00127365,-0.00026299,-0.00006600,-0.00
 004831,0.00048099,0.00000228,0.00020222,-0.00000440,0.00025401,0.00014
 008,-0.00000725,-0.00000639,0.00003638,-0.00031762,-0.00039220,-0.0008
 4816,-0.00783151,0.01045998,0.00506819,-0.34448371,-0.02150239,0.05039
 187,-0.01909393,-0.00419339,-0.00878338,0.00062321,-0.00080411,0.00358
 595,0.00027690,0.00014421,-0.00020824,0.00040940,-0.00015434,-0.000098
 76,-0.00029372,-0.00017395,0.00042776,-0.00004294,0.00008052,0.0000353
 7,0.00003221,0.00001911,-0.00004870,-0.00001524,0.00000289,-0.00000845
 ,-0.00027959,0.00005312,-0.00001298,0.00012362,-0.00005318,0.00003924,
 0.00000306,-0.00002180,-0.00000896,0.00048787,0.00024344,0.00003646,0.
 00006678,-0.00013241,-0.00027157,-0.00001073,-0.00001743,0.00005078,0.
 00002331,0.00000335,-0.00004492,-0.00000112,0.00000406,0.00000572,0.00
 006064,-0.00000161,0.00000796,0.00010308,-0.00001929,-0.00002571,0.000
 05063,0.00014745,0.00025367,0.00120042,0.00044639,-0.00134680,0.000063
 55,-0.00020623,0.00019208,0.00001979,0.00001435,-0.00003675,0.00000398
 ,0.00000498,0.00000219,0.00000448,0.00000340,-0.00000567,0.00000762,-0
 .00006316,-0.00000022,0.00008904,-0.00020160,-0.00012148,0.00033576,0.
 00052648,0.00114843,0.00006657,-0.00010779,-0.00016965,0.00082627,0.00
 008380,0.00049503,0.00032439,-0.00044121,0.00083454,0.37349122,-0.0000
 2723,0.00035663,-0.00030991,-0.00032249,-0.00077960,-0.00015661,-0.000
 99591,-0.00003580,-0.00131566,0.00043532,0.00001421,0.00032577,0.00011
 413,-0.00010574,0.00005871,-0.02437376,-0.00114728,0.00672624,0.001105
 23,0.00315043,-0.00074738,-0.00029412,-0.00008079,-0.00009562,-0.00014
 688,0.00019501,0.00001494,-0.00013327,-0.00036852,-0.00024070,-0.00001
 392,0.00002485,-0.00004796,0.00348297,0.00160483,0.00432091,0.03799006
 ,-0.01608004,-0.01433631,-0.02265411,-0.04112783,0.00649650,-0.0089380
 2,0.00310519,-0.00309147,0.00061329,-0.00052923,0.00118174,0.00011175,
 -0.00018704,-0.00004156,-0.00028691,0.00022849,0.00027374,0.00030308,0
 .00013500,-0.00072483,0.00004159,0.00002909,0.00009677,-0.00002609,0.0
 0005898,-0.00007495,-0.00000369,-0.00000206,0.00000261,-0.00010954,0.0
 0006166,-0.00010088,0.00005672,-0.00005172,0.00006628,-0.00001331,-0.0
 0000502,-0.00000371,-0.00007033,0.00018775,0.00007002,0.00001042,-0.00
 005320,-0.00016004,0.00001336,-0.00003936,0.00010712,0.00002030,0.0000
 0682,-0.00005999,-0.00000104,0.00000213,0.00001050,0.00003559,-0.00002
 034,0.00001261,0.00004244,-0.00002124,-0.00003417,0.00000189,-0.000030
 42,0.00001375,0.00038737,0.00009428,-0.00000650,0.00000252,-0.00004326
 ,0.00002470,-0.00000852,-0.00000138,-0.00000339,-0.00000296,-0.0000001
 6,-0.00000523,-0.00001867,0.00000510,0.00001408,0.00002729,0.00005278,
 -0.00000429,-0.00020489,0.00007684,0.00004118,-0.00136119,0.00016081,-
 0.00016522,0.00002410,-0.00014095,0.00002334,0.00046962,0.00020205,0.0
 0029432,-0.00056247,-0.00322278,0.00266273,0.01528024,0.05432080,-0.00
 005528,-0.00006131,-0.00028329,-0.00005220,0.00011215,-0.00012395,0.00
 159282,-0.00010374,0.00140921,-0.00056466,0.00001315,-0.00010882,-0.00
 002969,-0.00000885,-0.00002930,0.02416381,0.00298997,-0.00157378,-0.00
 215764,-0.00127212,0.00113052,-0.00004232,0.00014557,-0.00026312,-0.00
 004153,0.00000015,0.00009136,-0.00009782,-0.00012926,-0.00010174,0.000
 00998,0.00001351,-0.00000826,0.00205571,0.00062711,0.00267153,0.011518
 39,-0.00765278,-0.00050956,0.05745356,0.00915888,-0.05346803,-0.037359
 64,-0.00468766,-0.01394126,-0.00589523,-0.00203662,0.00496368,0.000205
 78,0.00018869,-0.00054618,0.00008570,0.00011166,0.00031617,-0.00006421
 ,0.00004453,-0.00040519,0.00000581,0.00011435,0.00007741,0.00001069,0.
 00004975,-0.00005835,-0.00000979,0.00000175,-0.00000715,-0.00009109,0.
 00009948,0.00003156,0.00005540,-0.00011179,0.00011139,0.00003131,-0.00
 001096,-0.00003139,-0.00017107,-0.00010427,-0.00002693,0.00014174,0.00
 004015,-0.00016353,0.00000395,-0.00006892,0.00007845,0.00002122,0.0000
 1547,-0.00005171,-0.00000166,0.00000286,0.00000763,0.00002364,-0.00000
 913,0.00000684,0.00004108,-0.00005706,-0.00001269,0.00018230,0.0000934
 3,0.00007903,0.00154304,0.00045205,-0.00004099,0.00027435,-0.00011422,
 0.00004315,0.00002498,0.00001111,-0.00005254,0.,0.00000124,0.00000595,
 -0.00002461,-0.00000117,0.00000782,0.00000450,0.00003188,-0.00000542,-
 0.00014300,0.00005181,-0.00000564,-0.00079897,-0.00012498,-0.00001729,
 -0.00017253,0.00002750,0.00013436,-0.00056524,0.00008587,-0.00023354,0
 .00054930,0.00318298,-0.00257507,-0.05166086,-0.00111218,0.06347869\\0
 .01006295,-0.01384071,-0.00622856,-0.00946618,-0.00016467,0.00716604,0
 .00237148,-0.00952748,0.00789926,0.00431256,0.02214948,0.02048952,-0.0
 0992120,-0.01077363,-0.02520349,0.01179867,-0.01592952,0.00133993,-0.0
 1255844,0.01500903,-0.00530132,0.01395596,0.00381594,0.01726448,0.0041
 4872,0.01679613,0.00900543,0.00622533,0.01904839,0.00380786,-0.0012171
 6,-0.03482992,-0.00646771,-0.00053673,0.00953650,0.00639742,-0.0003600
 0,-0.01263244,0.01545550,-0.02782001,0.00762281,-0.03385532,-0.0002559
 5,0.00063890,0.00748155,0.00813514,-0.01236523,0.00636361,-0.00316602,
 0.01275366,0.02487389,-0.00386044,0.00712621,0.00330121,0.00936423,-0.
 00753944,-0.02856890,-0.00462914,0.01083307,-0.01477659,-0.00765495,0.
 00992000,-0.01143627,0.00115755,-0.01411110,0.03438276,-0.00248033,0.0
 0433185,0.02068585,-0.00784137,-0.03611234,-0.01998410,-0.00200949,0.0
 3071315,0.01383764,0.00719066,-0.01799312,-0.00447997,-0.02520830,0.01
 787539,0.01148284,0.06000983,-0.01123416,-0.01290397,-0.01569504,0.010
 53817,0.00399548,-0.00169469,-0.00202789,-0.00343638,-0.00300615,-0.00
 525874,-0.01523619,0.01947571,0.00166410,0.00088871,-0.02195507,-0.003
 72321,-0.00219237,0.01975278,0.00389639,0.00203577,-0.02132516,-0.0027
 3368,-0.00164534,0.01932837,0.00135026,0.00043440,-0.01766079,-0.00549
 543,-0.00402762,-0.00045649,0.00245122,-0.00076219,0.00093876,0.007500
 86,-0.01702432,-0.02038667,-0.00302521,0.00063839,0.02123459,0.0027701
 4,-0.00010623,-0.02093382,-0.00182763,-0.00086352,0.02276303,0.0004217
 2,-0.00205226,-0.02016489,0.00014673,0.00034827,0.02003814,0.00223545,
 -0.00302321\\\@


 ALL OUR THINKING ABOUT NATURE MUST NECESSARILY MOVE IN CIRCLES OR SPIRALS;
 FOR WE CAN ONLY UNDERSTAND NATURE IF WE THINK ABOUT HER, AND WE CAN ONLY
 THINK BECAUSE OUR BRAIN IS BUILT IN ACCORDANCE WITH NATURE'S LAWS.

                                             -- TIMOTHY FERRIS, "GALAXIES"
 Job cpu time:  1 days  7 hours 18 minutes  3.4 seconds.
 File lengths (MBytes):  RWF=   1769 Int=      0 D2E=      0 Chk=     28 Scr=      1
 Normal termination of Gaussian 09 at Mon Mar 28 08:22:19 2016.
Gaussian '09 finished on node013 at Mon Mar 28 08:22:19 EDT 2016.
