Job fuarn_raman_4 started on node028 at Wed Feb 25 14:37:05 2015
jobid: volta-0-54ee245e

  +--------------------------------------------------------------------+
  |  Jaguar version 8.5, release  13                                   |
  |                                                                    |
  |  Copyright Schrodinger, Inc.                                       |
  |  All Rights Reserved.                                              |
  |                                                                    |
  |  The following have contributed to Jaguar (listed alphabetically): |
  |  Mike Beachy, Art Bochevarov, Dale Braden, Yixiang Cao,            |
  |  Chris Cortis, Rich Friesner, Bill Goddard, Hod Greeley,           |
  |  Tom Hughes, Jean-Marc Langlois, Daniel Mainz, Rob Murphy,         |
  |  Dean Philipp, Tom Pollard, Murco Ringnalda.                       |
  |                                                                    |
  |  Use of this program should be acknowledged in publications as:    |
  |                                                                    |
  |  Jaguar, version 8.5, Schrodinger, Inc., New York, NY, 2014.       |
  |                                                                    |
  |  A. D. Bochevarov, E. Harder, T. F. Hughes, J. R. Greenwood,       |
  |  D. A. Braden, D. M. Philipp, D. Rinaldo, M. D. Halls,             |
  |  J. Zhang, R. A. Friesner, "Jaguar: A High-Performance Quantum     |
  |  Chemistry Software Program with Strengths in Life and Materials   |
  |  Sciences", Int. J. Quantum Chem., 2013, 113(18), 2110-2142.       |
  +--------------------------------------------------------------------+
  
  start of program pre
  
  Job name: fuarn_raman_4
  Executables used: /opt/schrodinger2014-3/jaguar-v85013/bin/Linux-x86_64
  Temporary files : /home/srmcgrat/.schrodinger/tmp/fuarn_raman_4
  Maestro file (input):  fuarn_raman_4.mae
  Maestro file (output): fuarn_raman_4.01.mae
  
  
  basis set:             6-311g          
  net molecular charge:    0
  multiplicity:            1
  
  number of basis functions....           77
  
 Input geometry:
                                   angstroms
  atom               x                 y                 z
  C1           -1.1056940000     -0.0318400000      1.8660390000 
  C2           -0.4211940000     -1.1811400000      1.8640390000 
  C3            1.0083050000     -0.8470400000      1.8625390000 
  C4            1.1125060000      0.4865600000      1.8636390000 
  O5           -0.2194950000      1.1810600000      1.8660390000 
  H6           -2.2067940000      0.0369600000      1.8674390000 
  H7           -0.8486940000     -2.1972400000      1.8636390000 
  H8            1.8419050000     -1.5683400000      1.8608390000 
  H9            2.0691050000      1.0362600000      1.8629390000 
   
  principal moments of inertia:
        amu*angstrom^2:       57.62919       58.90223      116.53142
                g*cm^2: 9.56955087E-39 9.78094389E-39 1.93504948E-38
   
  rotational constants:
               cm^(-1):      0.29251893      0.28619680      0.14466167
                   GHz:      8.76949704      8.57996416      4.33684767
   
  Molecular weight:      68.03 amu
   
  Stoichiometry: C4H4O
  Molecular Point Group: C1      
  Point Group used: C1 (symmetry turned off)
  
  nuclear repulsion energy.......     154.843260697 hartrees
 
 Non-default options chosen:
   SCF calculation type: DFT(b3lyp)                  
   DFT=Becke_3_Parameter/HF+Slater+Becke88+VWN+LYP (B3LYP)
   Solvation energy will be computed using PBF
   Vibrational frequencies and related properties will be computed
      from analytic second derivatives
   IR intensities will be computed
   Solvent: water                                                           
   Internal dielectric constant:    1.000
   Continuum dielectric constant:  80.370
   Solvent probe molecule radius:   1.400
  
 Temporary integer options set:
     73=  2
  
  atom       vdw   vdw2    cov     mass  grid  daf  charge   basis
  C1        1.949  2.000  0.770   12.000    Y    Y      Y    6-311g
  C2        1.949  2.000  0.770   12.000    Y    Y      Y    6-311g
  C3        1.949  2.000  0.770   12.000    Y    Y      Y    6-311g
  C4        1.949  2.000  0.770   12.000    Y    Y      Y    6-311g
  O5        1.702  1.450  0.730   15.995    Y    Y      Y    6-311g
  H6        1.597  1.250  0.320    1.008    Y    Y      Y    6-311g
  H7        1.597  1.250  0.320    1.008    Y    Y      Y    6-311g
  H8        1.597  1.250  0.320    1.008    Y    Y      Y    6-311g
  H9        1.597  1.250  0.320    1.008    Y    Y      Y    6-311g
  
  Peak memory usage:    765 Mb
  
  end of program pre
   
 Time(pre)  user:        0.8  user+sys:        0.8  wallclock:        2.9
  
  start of program onee
  
  smallest eigenvalue of S:    9.349E-04
  number of canonical orbitals.....           77
  Peak memory usage:    707 Mb
  
  end of program onee
   
 Time(onee)  user:        0.2  user+sys:        0.2  wallclock:        0.6
  
  start of program hfig
  
  initial wavefunction generated automatically from atomic wavefunctions
 
  Irreducible     Total no   No of occupied orbitals 
  representation  orbitals   Shell_1  Shell_2    ...
  No Symm           77         18
  ------------------------
  Orbital occupation/shell    1.000
 
  Peak memory usage:    648 Mb
  
  end of program hfig
   
 Time(hfig)  user:        0.2  user+sys:        0.2  wallclock:        0.4
  
  start of program probe
  
  Peak memory usage:    650 Mb
  
  end of program probe
   
 Time(probe)  user:        0.1  user+sys:        0.1  wallclock:        0.1
  
  start of program grid
  
  
   grid     grid set  grid #  grid sym
  ------    --------  ------  --------
  coarse        0        0        1
  medium        2        1        1
  fine          0        0        1
  ultrafine     4        2        1
  charge       -1        3        1
  gradient      4        2        1
  density       0        0        1
  DFT-fine    -11        4        1
  DFT-med.    -10        5        1
  DFT-grad    -12        6        1
  DFT-der2     -8        7        1
  DFT-cphf     -9        8        1
  LMP2-enrg     4        2        1
  LMP2-grad     2        1        1
  DFT-cphf2   -15        9        1
  PBF-dens      0        0        1
  plotting      0        0        1
  Rel-grad    -17        0        1
  
   
  number of gridpoints: 
     atom        C1       C2       C3       C4       O5       H6       H7
  grid # 1      175      173      173      175      232      156      156
  grid # 2      342      336      336      342      487      329      329
  grid # 3       52       52       52       52      281      492      474
  grid # 4     4304     4304     4304     4304     4304     4304     4304
  grid # 5     1192     1192     1192     1192     1192     1192     1192
  grid # 6     5226     5226     5226     5226     5226     5226     5226
  grid # 7    12650    12650    12650    12650    23504    13718    13718
  grid # 8      688      688      688      688      714      744      744
  grid # 9      358      358      358      358      360      382      382
   
  number of gridpoints: 
     atom        H8       H9    total
  grid # 1      156      156     1552
  grid # 2      329      329     3159
  grid # 3      474      492     2421
  grid # 4     4304     4304    38736
  grid # 5     1192     1192    10728
  grid # 6     5226     5226    47034
  grid # 7    13718    13718   128976
  grid # 8      744      744     6442
  grid # 9      382      382     3320
   
  Peak memory usage:    691 Mb
  
  end of program grid
   
 Time(grid)  user:        0.8  user+sys:        0.8  wallclock:        2.0
  
  start of program rwr
  
  Peak memory usage:    573 Mb
  
  end of program rwr
   
 Time(rwr)  user:        0.8  user+sys:        0.8  wallclock:        1.0
  
  start of program scf
  
 number of electrons..........         36
 number of alpha electrons....         18
 number of beta electrons.....         18
 number of orbitals, total....         77
 number of doubly-occ'd orbs..         18
 number of open shell orbs....          0
 number of occupied orbitals..         18
 number of virtual orbitals...         59
 number of hamiltonians.......          1
 number of shells.............          1
 SCF type: DFT=Becke_3_Parameter/HF+Slater+Becke88+VWN+LYP (B3LYP)
  
       i  u  d  i  g                   
       t  p  i  c  r                                 RMS    maximum
       e  d  i  u  i                       energy  density   DIIS  
       r  t  s  t  d       total energy    change  change    error 
  
etot    1  N  N  5  M    -229.42104308752           7.5E-03  1.7E-01
etot    2  Y  Y  6  M    -229.86879657643  4.5E-01  6.3E-03  1.3E-01
etot    3  Y  Y  6  M    -229.79792453180 -7.1E-02  4.2E-03  1.9E-01
etot    4  N  Y  2  U    -229.97731642182  1.8E-01  2.0E-03  2.7E-02
etot    5  Y  Y  6  M    -229.98654384606  9.2E-03  7.2E-04  1.0E-02
etot    6  N  Y  2  U    -229.98726725509  7.2E-04  2.6E-04  5.6E-03
etot    7  Y  Y  6  M    -229.98746509999  2.0E-04  4.2E-05  7.8E-04
etot    8  N  Y  2  U    -229.98748283550  1.8E-05  7.7E-06  1.5E-04
etot    9  N  Y  2  U    -229.98748298582  1.5E-07  2.6E-07  1.2E-05
etot   10  N  N  2  U    -229.98748298615  3.3E-10  0.0E+00  0.0E+00
  
  
 Energy components, in hartrees:
   (A)  Nuclear repulsion............     154.84326069655
   (E)  Total one-electron terms.....    -617.33441051158
   (F)    Electron-nuclear...........    -846.21792906275
   (H)    Kinetic....................     228.88351855117
   (I)  Total two-electron terms.....     232.50366682888
   (J)    Coulomb....................     264.14602678905
   (K)    Exchange+Correlation.......     -31.64235996017
   (L)  Electronic energy............    -384.83074368270  (E+I)
   (M)  -V/T.........................       2.00482325876  (-(A+F+I)/H)
   (N)  Total energy.................    -229.98748298615  (A+L)
  
 SCFE: SCF energy: DFT(b3lyp)      -229.98748298615 hartrees   iterations:  10
  
 
 HOMO energy:    -0.24925
 LUMO energy:    -0.01406
 
  Orbital energies (hartrees): 
   -19.18968   -10.23738   -10.23729   -10.19050   -10.19020    -1.05303
    -0.81967    -0.74480    -0.58715    -0.57302    -0.53712    -0.43714
    -0.42804    -0.41712    -0.39586    -0.37807    -0.29079    -0.24925
    -0.01406     0.04763     0.05501     0.06033     0.07419     0.09739
     0.11593     0.12327     0.26887     0.29772
 
  Peak memory usage:    790 Mb
  
  end of program scf
   
 Time(scf)  user:        4.1  user+sys:        4.1  wallclock:        5.7
  
  start of program ch
  
  gridpoints used for charge fit         2217
    out of a possible maximum of         2421
  
   Electrostatic potential fitting constrained to reproduce
     total charge:                yes
     dipole moment:               no 
     traceless quadrupole moment: no 
     traceless octapole moment:   no 
  
  Atomic charges from electrostatic potential: 
   
 Atom       C1           C2           C3           C4           O5      
 Charge    0.05795     -0.21364     -0.21359      0.05796     -0.28557
   
 Atom       H6           H7           H8           H9      
 Charge    0.13255      0.16590      0.16589      0.13254
  
  sum of atomic charges:     0.000000
   
 RMS Error   1.47E-03 hartrees
 
  Peak memory usage:    602 Mb
  
  end of program ch
   
 Time(ch)  user:        0.2  user+sys:        0.2  wallclock:        0.6
  
  start of program post
  
  Writing input files for PBF
  Peak memory usage:    571 Mb
  
  end of program post
   
 Time(post)  user:        0.1  user+sys:        0.1  wallclock:        0.2

  start of program pbf

Pbf Version 4.00

Molecular surface area:       98.99001   [A2]
Reaction field energy:        -7.52387   [kT]

Solvent-accessible surface area:  227.22006 [A2]
Cavity energy:                      3.70874 [kT]

  Peak memory usage: 531 Mb

  end of program pbf

 Time(pbf)  user:        0.2  user+sys:        0.2  wallclock:        0.3
  
  start of program solv
  
   number of surface charges from PBF    1000
   sum of surface charges     -0.00000
   
  nuclear repulsion energy.......     154.843260697 hartrees
  Peak memory usage:    703 Mb
  
  end of program solv
   
 Time(solv)  user:        0.2  user+sys:        0.2  wallclock:        0.2
  
  start of program scf
  
  
       i  u  d  i  g                   
       t  p  i  c  r                                 RMS    maximum
       e  d  i  u  i                       energy  density   DIIS  
       r  t  s  t  d       total energy    change  change    error 
  
etot    1  N  N  2  U    -230.00197731888           1.0E-03  7.2E-03
etot    2  Y  Y  6  M    -230.00292706642  9.5E-04  3.6E-04  1.3E-02
etot    3  Y  Y  6  M    -230.00385113114  9.2E-04  9.8E-05  2.6E-03
etot    4  Y  Y  6  M    -230.00391394255  6.3E-05  3.5E-05  6.8E-04
etot    5  N  Y  2  U    -230.00315981526 -7.5E-04  9.8E-06  2.6E-04
etot    6  N  Y  2  U    -230.00316029620  4.8E-07  1.7E-06  4.3E-05
etot    7  N  N  2  U    -230.00316030776  1.2E-08  0.0E+00  0.0E+00
  
  
 Energy components, in hartrees:
   (A)  Total zero-electron terms....     155.19784360498
   (B)    Nuclear-nuclear............     154.84326069655
   (C)    Nuclear-solvent............       0.35458290843
   (E)  Total one-electron terms.....    -617.91220082883
   (F)    Electron-nuclear...........    -846.44606214022
   (G)    Electron-solvent...........      -0.37144083429
   (H)    Kinetic....................     228.90530214568
   (I)  Total two-electron terms.....     232.71119691609
   (J)    Coulomb....................     264.36210441374
   (K)    Exchange+Correlation.......     -31.65090749765
   (L)  Electronic energy............    -385.20100391274  (E+I)
   (N)  Total quantum mech. energy...    -230.00316030776  (A+L)
   (O)  Gas phase energy.............    -229.98748298615
   (P)  Solution phase energy........    -229.98915968470  (Q+R+S+T)
   (Q)    Total solute energy........    -229.98630238190  (N-C-G)
   (R)    Total solvent energy.......      -0.00842896293  (C/2+G/2)
   (S)    Solute cavity energy.......       0.00349997825
   (T)    First shell corr. factor...       0.00207168188
   (U)  Reorganization energy........       0.00118060425  (Q-O)
   (V)  Solvation energy.............      -0.00167669855  (P-O)
  
 SCFE:  Solution phase energy: DFT(b3lyp)       -229.98915968470 hartrees
        SCF iterations:   7
  
 
 HOMO energy:    -0.25349
 LUMO energy:    -0.01958
 
  Orbital energies (hartrees): 
   -19.19821   -10.24019   -10.24010   -10.19250   -10.19219    -1.06279
    -0.82433    -0.74747    -0.58787    -0.57695    -0.53882    -0.43910
    -0.42770    -0.42729    -0.39627    -0.39068    -0.29944    -0.25349
    -0.01958     0.05098     0.05715     0.05992     0.08255     0.10306
     0.11712     0.12196     0.26961     0.29833
 
  Peak memory usage:    790 Mb
  
  end of program scf
   
 Time(scf)  user:        2.3  user+sys:        2.3  wallclock:        2.8
  
  start of program sole
  
    SCRF                   solvation energy
  iteration          Hartrees            kcal/mol
     0               0.0000000            0.0000
     1              -0.0016767           -1.0521
  
  solvation energy not yet converged... 
  
  Peak memory usage:    671 Mb
  
  end of program sole
   
 Time(sole)  user:        0.1  user+sys:        0.1  wallclock:        0.1
  
  start of program ch
  
  gridpoints used for charge fit         2217
    out of a possible maximum of         2217
  
   Electrostatic potential fitting constrained to reproduce
     total charge:                yes
     dipole moment:               no 
     traceless quadrupole moment: no 
     traceless octapole moment:   no 
  
  Atomic charges from electrostatic potential: 
   
 Atom       C1           C2           C3           C4           O5      
 Charge    0.06160     -0.22416     -0.22403      0.06136     -0.34618
   
 Atom       H6           H7           H8           H9      
 Charge    0.14925      0.18643      0.18643      0.14929
  
  sum of atomic charges:     0.000000
   
 RMS Error   1.50E-03 hartrees
 
  Peak memory usage:    602 Mb
  
  end of program ch
   
 Time(ch)  user:        0.2  user+sys:        0.2  wallclock:        0.2
  
  start of program post
  
  Writing input files for PBF
  Peak memory usage:    571 Mb
  
  end of program post
   
 Time(post)  user:        0.1  user+sys:        0.1  wallclock:        0.2

  start of program pbf

Pbf Version 4.00

Molecular surface area:       98.99001   [A2]
Reaction field energy:       -10.48911   [kT]

Solvent-accessible surface area:  227.22006 [A2]
Cavity energy:                      3.70874 [kT]

  Peak memory usage: 531 Mb

  end of program pbf

 Time(pbf)  user:        0.2  user+sys:        0.2  wallclock:        0.3
  
  start of program solv
  
   number of surface charges from PBF    1000
   sum of surface charges     -0.00002
   
  nuclear repulsion energy.......     154.843260697 hartrees
  Peak memory usage:    703 Mb
  
  end of program solv
   
 Time(solv)  user:        0.2  user+sys:        0.2  wallclock:        0.2
  
  start of program scf
  
  
       i  u  d  i  g                   
       t  p  i  c  r                                 RMS    maximum
       e  d  i  u  i                       energy  density   DIIS  
       r  t  s  t  d       total energy    change  change    error 
  
etot    1  N  N  2  U    -230.00619791265           2.7E-04  1.9E-03
etot    2  Y  Y  6  M    -230.00694287430  7.4E-04  9.8E-05  3.7E-03
etot    3  Y  Y  6  M    -230.00702424631  8.1E-05  2.5E-05  2.8E-04
etot    4  N  Y  2  U    -230.00625680640 -7.7E-04  6.5E-06  1.5E-04
etot    5  N  Y  2  U    -230.00625698351  1.8E-07  2.4E-06  9.7E-05
etot    6  N  N  2  U    -230.00625703240  4.9E-08  0.0E+00  0.0E+00
  
  
 Energy components, in hartrees:
   (A)  Total zero-electron terms....     155.25770940823
   (B)    Nuclear-nuclear............     154.84326069655
   (C)    Nuclear-solvent............       0.41444871168
   (E)  Total one-electron terms.....    -618.01244530958
   (F)    Electron-nuclear...........    -846.48739946836
   (G)    Electron-solvent...........      -0.43495578101
   (H)    Kinetic....................     228.90990993978
   (I)  Total two-electron terms.....     232.74847886895
   (J)    Coulomb....................     264.40120850624
   (K)    Exchange+Correlation.......     -31.65272963729
   (L)  Electronic energy............    -385.26396644064  (E+I)
   (N)  Total quantum mech. energy...    -230.00625703240  (A+L)
   (O)  Gas phase energy.............    -229.98748298615
   (P)  Solution phase energy........    -229.99043183760  (Q+R+S+T)
   (Q)    Total solute energy........    -229.98574996307  (N-C-G)
   (R)    Total solvent energy.......      -0.01025353467  (C/2+G/2)
   (S)    Solute cavity energy.......       0.00349997825
   (T)    First shell corr. factor...       0.00207168188
   (U)  Reorganization energy........       0.00173302308  (Q-O)
   (V)  Solvation energy.............      -0.00294885146  (P-O)
  
 SCFE:  Solution phase energy: DFT(b3lyp)       -229.99043183760 hartrees
        SCF iterations:   6
  
 
 HOMO energy:    -0.25403
 LUMO energy:    -0.02039
 
  Orbital energies (hartrees): 
   -19.19981   -10.24067   -10.24058   -10.19248   -10.19217    -1.06467
    -0.82486    -0.74785    -0.58791    -0.57767    -0.53899    -0.43960
    -0.42920    -0.42734    -0.39616    -0.39315    -0.30066    -0.25403
    -0.02039     0.05125     0.05706     0.06084     0.08355     0.10405
     0.11734     0.12200     0.27047     0.29857
 
  Peak memory usage:    790 Mb
  
  end of program scf
   
 Time(scf)  user:        2.2  user+sys:        2.2  wallclock:        2.5
  
  start of program sole
  
    SCRF                   solvation energy
  iteration          Hartrees            kcal/mol
     0               0.0000000            0.0000
     1              -0.0016767           -1.0521
     2              -0.0029489           -1.8504
  
  solvation energy not yet converged... 
  
  Peak memory usage:    671 Mb
  
  end of program sole
   
 Time(sole)  user:        0.1  user+sys:        0.1  wallclock:        0.2
  
  start of program ch
  
  gridpoints used for charge fit         2217
    out of a possible maximum of         2217
  
   Electrostatic potential fitting constrained to reproduce
     total charge:                yes
     dipole moment:               no 
     traceless quadrupole moment: no 
     traceless octapole moment:   no 
  
  Atomic charges from electrostatic potential: 
   
 Atom       C1           C2           C3           C4           O5      
 Charge    0.06060     -0.22172     -0.22160      0.06029     -0.35956
   
 Atom       H6           H7           H8           H9      
 Charge    0.15106      0.18992      0.18992      0.15110
  
  sum of atomic charges:     0.000000
   
 RMS Error   1.50E-03 hartrees
 
  Peak memory usage:    602 Mb
  
  end of program ch
   
 Time(ch)  user:        0.2  user+sys:        0.2  wallclock:        0.2
  
  start of program post
  
  Writing input files for PBF
  Peak memory usage:    571 Mb
  
  end of program post
   
 Time(post)  user:        0.1  user+sys:        0.1  wallclock:        0.2

  start of program pbf

Pbf Version 4.00

Molecular surface area:       98.99001   [A2]
Reaction field energy:       -11.19195   [kT]

Solvent-accessible surface area:  227.22006 [A2]
Cavity energy:                      3.70874 [kT]

  Peak memory usage: 531 Mb

  end of program pbf

 Time(pbf)  user:        0.2  user+sys:        0.2  wallclock:        0.3
  
  start of program solv
  
   number of surface charges from PBF    1000
   sum of surface charges     -0.00002
   
  nuclear repulsion energy.......     154.843260697 hartrees
  Peak memory usage:    703 Mb
  
  end of program solv
   
 Time(solv)  user:        0.2  user+sys:        0.2  wallclock:        0.2
  
  start of program scf
  
  
       i  u  d  i  g                   
       t  p  i  c  r                                 RMS    maximum
       e  d  i  u  i                       energy  density   DIIS  
       r  t  s  t  d       total energy    change  change    error 
  
etot    1  N  N  2  U    -230.00692158577           8.3E-05  5.3E-04
etot    2  Y  Y  6  M    -230.00768748216  7.7E-04  3.2E-05  1.1E-03
etot    3  N  Y  2  U    -230.00692587070 -7.6E-04  7.9E-06  8.1E-05
etot    4  N  Y  2  U    -230.00692595132  8.1E-08  1.8E-06  6.4E-05
etot    5  N  N  2  U    -230.00692597424  2.3E-08  0.0E+00  0.0E+00
  
  
 Energy components, in hartrees:
   (A)  Total zero-electron terms....     155.26959709330
   (B)    Nuclear-nuclear............     154.84326069655
   (C)    Nuclear-solvent............       0.42633639675
   (E)  Total one-electron terms.....    -618.03174951339
   (F)    Electron-nuclear...........    -846.49421040432
   (G)    Electron-solvent...........      -0.44766396634
   (H)    Kinetic....................     228.91012485726
   (I)  Total two-electron terms.....     232.75522644585
   (J)    Coulomb....................     264.40826305630
   (K)    Exchange+Correlation.......     -31.65303661045
   (L)  Electronic energy............    -385.27652306754  (E+I)
   (N)  Total quantum mech. energy...    -230.00692597424  (A+L)
   (O)  Gas phase energy.............    -229.98748298615
   (P)  Solution phase energy........    -229.99069052931  (Q+R+S+T)
   (Q)    Total solute energy........    -229.98559840465  (N-C-G)
   (R)    Total solvent energy.......      -0.01066378479  (C/2+G/2)
   (S)    Solute cavity energy.......       0.00349997825
   (T)    First shell corr. factor...       0.00207168188
   (U)  Reorganization energy........       0.00188458150  (Q-O)
   (V)  Solvation energy.............      -0.00320754316  (P-O)
  
 SCFE:  Solution phase energy: DFT(b3lyp)       -229.99069052931 hartrees
        SCF iterations:   5
  
 
 HOMO energy:    -0.25412
 LUMO energy:    -0.02055
 
  Orbital energies (hartrees): 
   -19.20024   -10.24071   -10.24062   -10.19256   -10.19225    -1.06510
    -0.82496    -0.74793    -0.58792    -0.57783    -0.53901    -0.43974
    -0.42962    -0.42722    -0.39616    -0.39371    -0.30089    -0.25412
    -0.02055     0.05133     0.05709     0.06097     0.08363     0.10433
     0.11737     0.12199     0.27078     0.29862
 
  Peak memory usage:    790 Mb
  
  end of program scf
   
 Time(scf)  user:        2.1  user+sys:        2.1  wallclock:        3.0
  
  start of program sole
  
    SCRF                   solvation energy
  iteration          Hartrees            kcal/mol
     0               0.0000000            0.0000
     1              -0.0016767           -1.0521
     2              -0.0029489           -1.8504
     3              -0.0032075           -2.0128
  
  solvation energy not yet converged... 
  
  Peak memory usage:    671 Mb
  
  end of program sole
   
 Time(sole)  user:        0.1  user+sys:        0.1  wallclock:        0.1
  
  start of program ch
  
  gridpoints used for charge fit         2217
    out of a possible maximum of         2217
  
   Electrostatic potential fitting constrained to reproduce
     total charge:                yes
     dipole moment:               no 
     traceless quadrupole moment: no 
     traceless octapole moment:   no 
  
  Atomic charges from electrostatic potential: 
   
 Atom       C1           C2           C3           C4           O5      
 Charge    0.05968     -0.22012     -0.21999      0.05934     -0.36262
   
 Atom       H6           H7           H8           H9      
 Charge    0.15118      0.19065      0.19065      0.15123
  
  sum of atomic charges:     0.000000
   
 RMS Error   1.50E-03 hartrees
 
  Peak memory usage:    602 Mb
  
  end of program ch
   
 Time(ch)  user:        0.2  user+sys:        0.2  wallclock:        0.2
  
  start of program post
  
  Writing input files for PBF
  Peak memory usage:    571 Mb
  
  end of program post
   
 Time(post)  user:        0.1  user+sys:        0.1  wallclock:        0.2

  start of program pbf

Pbf Version 4.00

Molecular surface area:       98.99001   [A2]
Reaction field energy:       -11.36670   [kT]

Solvent-accessible surface area:  227.22006 [A2]
Cavity energy:                      3.70874 [kT]

  Peak memory usage: 531 Mb

  end of program pbf

 Time(pbf)  user:        0.2  user+sys:        0.2  wallclock:        0.3
  
  start of program solv
  
   number of surface charges from PBF    1000
   sum of surface charges     -0.00003
   
  nuclear repulsion energy.......     154.843260697 hartrees
  Peak memory usage:    703 Mb
  
  end of program solv
   
 Time(solv)  user:        0.2  user+sys:        0.2  wallclock:        0.2
  
  start of program scf
  
  
       i  u  d  i  g                   
       t  p  i  c  r                                 RMS    maximum
       e  d  i  u  i                       energy  density   DIIS  
       r  t  s  t  d       total energy    change  change    error 
  
etot    1  N  N  2  U    -230.00708711757           2.5E-05  1.6E-04
etot    2  N  Y  2  U    -230.00708676374 -3.5E-07  9.0E-06  3.5E-04
etot    3  N  Y  2  U    -230.00708749191  7.3E-07  2.4E-06  2.2E-05
etot    4  N  N  2  U    -230.00708750228  1.0E-08  0.0E+00  0.0E+00
  
  
 Energy components, in hartrees:
   (A)  Total zero-electron terms....     155.27232461889
   (B)    Nuclear-nuclear............     154.84326069655
   (C)    Nuclear-solvent............       0.42906392234
   (E)  Total one-electron terms.....    -618.03655396440
   (F)    Electron-nuclear...........    -846.49644503068
   (G)    Electron-solvent...........      -0.45059584974
   (H)    Kinetic....................     228.91048691602
   (I)  Total two-electron terms.....     232.75714184322
   (J)    Coulomb....................     264.41030405094
   (K)    Exchange+Correlation.......     -31.65316220772
   (L)  Electronic energy............    -385.27941212117  (E+I)
   (N)  Total quantum mech. energy...    -230.00708750228  (A+L)
   (O)  Gas phase energy.............    -229.98748298615
   (P)  Solution phase energy........    -229.99074987845  (Q+R+S+T)
   (Q)    Total solute energy........    -229.98555557488  (N-C-G)
   (R)    Total solvent energy.......      -0.01076596370  (C/2+G/2)
   (S)    Solute cavity energy.......       0.00349997825
   (T)    First shell corr. factor...       0.00207168188
   (U)  Reorganization energy........       0.00192741127  (Q-O)
   (V)  Solvation energy.............      -0.00326689230  (P-O)
  
 SCFE:  Solution phase energy: DFT(b3lyp)       -229.99074987845 hartrees
        SCF iterations:   4
  
 
 HOMO energy:    -0.25416
 LUMO energy:    -0.02058
 
  Orbital energies (hartrees): 
   -19.20025   -10.24079   -10.24070   -10.19251   -10.19220    -1.06519
    -0.82496    -0.74796    -0.58793    -0.57786    -0.53900    -0.43979
    -0.42971    -0.42717    -0.39614    -0.39383    -0.30091    -0.25416
    -0.02058     0.05136     0.05712     0.06098     0.08362     0.10443
     0.11738     0.12199     0.27090     0.29864
 
  Peak memory usage:    791 Mb
  
  end of program scf
   
 Time(scf)  user:        1.9  user+sys:        1.9  wallclock:        2.2
  
  start of program sole
  
    SCRF                   solvation energy
  iteration          Hartrees            kcal/mol
     0               0.0000000            0.0000
     1              -0.0016767           -1.0521
     2              -0.0029489           -1.8504
     3              -0.0032075           -2.0128
     4              -0.0032669           -2.0500
  
  stopping: solvation energy converged
  
  iterations:   4    sfinal:     -2.0500 kcal/mol
  
  Peak memory usage:    671 Mb
  
  end of program sole
   
 Time(sole)  user:        0.1  user+sys:        0.1  wallclock:        0.1
  
  start of program cutabab2
  
  Peak memory usage:    663 Mb
  
  end of program cutabab2
   
 Time(cutabab2)  user:        0.2  user+sys:        0.2  wallclock:        0.3
  
  start of program der2a
  
  Peak memory usage:    709 Mb
  
  end of program der2a
   
 Time(der2a)  user:        0.8  user+sys:        0.8  wallclock:        0.9
  
  start of program der2b
  
  Peak memory usage:    850 Mb
  
  end of program der2b
   
 Time(der2b)  user:        9.7  user+sys:        9.7  wallclock:        9.9
  
  start of program der2nda
  
 
  Peak memory usage:    707 Mb
  
  end of program der2nda
   
 Time(der2nda)  user:        1.3  user+sys:        1.3  wallclock:        1.4
  
  start of program der2ndb
  
  Peak memory usage:    681 Mb
  
  end of program der2ndb
   
 Time(der2ndb)  user:       21.8  user+sys:       21.8  wallclock:       22.1
  
  start of program rwr
  
  Peak memory usage:    573 Mb
  
  end of program rwr
   
 Time(rwr)  user:        0.7  user+sys:        0.7  wallclock:        0.9
  
  start of program cphfa
  
       1  vectors produced in CPHF
  
     v    i  j  k  i  g
     e    t  c  c  c  r
     c    e  o  o  u  i
     t    r  r  r  t  d       RMS  
  
     1    1  0  0  6  M     3.5E-02
     1    2  0  0  6  M     3.3E-03
     1    3  0  0  6  M     8.9E-04
     1    4  0  0  6  M     4.1E-04
     1    5  0  0  6  M     8.4E-05
     1    6  0  0  6  M     1.4E-05
  
  
  Atomic Polar Tensors (au): Total
  =========================
  
  APT for atom C1      
  --------------------------------------
        0.1146       0.0085      -0.0003
        0.1003       0.4245       0.0002
       -0.0001       0.0006      -0.1315
  --------------------------------------
  
  APT for atom C2      
  --------------------------------------
       -0.0341       0.1468      -0.0000
        0.0821      -0.0636      -0.0001
       -0.0001      -0.0001      -0.1673
  --------------------------------------
  
  APT for atom C3      
  --------------------------------------
        0.0514      -0.0901      -0.0003
       -0.0251      -0.1485      -0.0000
       -0.0003       0.0001      -0.1672
  --------------------------------------
  
  APT for atom C4      
  --------------------------------------
        0.2186      -0.1103      -0.0004
       -0.2023       0.3201       0.0005
       -0.0006       0.0007      -0.1319
  --------------------------------------
  
  APT for atom O5      
  --------------------------------------
       -0.4417       0.0907       0.0004
        0.0908      -0.8087      -0.0009
        0.0005      -0.0012      -0.2294
  --------------------------------------
  
  APT for atom H6      
  --------------------------------------
        0.0389       0.0230       0.0003
       -0.0164       0.0782      -0.0002
        0.0002      -0.0002       0.2274
  --------------------------------------
  
  APT for atom H7      
  --------------------------------------
        0.0853      -0.0491       0.0001
       -0.0572       0.0342      -0.0002
        0.0001      -0.0001       0.1858
  --------------------------------------
  
  APT for atom H8      
  --------------------------------------
        0.0331       0.0485       0.0003
        0.0566       0.0865      -0.0003
        0.0003      -0.0002       0.1858
  --------------------------------------
  
  APT for atom H9      
  --------------------------------------
        0.0492      -0.0373       0.0002
        0.0020       0.0678      -0.0003
        0.0003      -0.0001       0.2274
  --------------------------------------
  
  Peak memory usage:    784 Mb
  
  end of program cphfa
   
 Time(cphfa)  user:       24.6  user+sys:       24.6  wallclock:       26.0
  
  start of program rwr
  
  Peak memory usage:    573 Mb
  
  end of program rwr
   
 Time(rwr)  user:        0.7  user+sys:        0.7  wallclock:        0.9
  
  start of program scf
  
 number of electrons..........         36
 number of alpha electrons....         18
 number of beta electrons.....         18
 number of orbitals, total....         77
 number of doubly-occ'd orbs..         18
 number of open shell orbs....          0
 number of occupied orbitals..         18
 number of virtual orbitals...         59
 number of hamiltonians.......          1
 number of shells.............          1
 SCF type: DFT=Becke_3_Parameter/HF+Slater+Becke88+VWN+LYP (B3LYP)
  
       i  u  d  i  g                   
       t  p  i  c  r                                 RMS    maximum
       e  d  i  u  i                       energy  density   DIIS  
       r  t  s  t  d       total energy    change  change    error 
  
etot    1  N  N  5  M    -230.00708276605           1.7E-04  9.3E-04
etot    2  Y  Y  6  M    -230.00707822419 -4.5E-06  4.1E-06  4.0E-05
etot    3  N  N  2  U    -230.00708401995  5.8E-06  0.0E+00  0.0E+00
  
  
 Energy components, in hartrees:
   (A)  Total zero-electron terms....     155.27232461889
   (B)    Nuclear-nuclear............     154.84326069655
   (C)    Nuclear-solvent............       0.42906392234
   (E)  Total one-electron terms.....    -618.03635609179
   (F)    Electron-nuclear...........    -846.49471741315
   (G)    Electron-solvent...........      -0.45059973081
   (H)    Kinetic....................     228.90896105216
   (I)  Total two-electron terms.....     232.75694745295
   (J)    Coulomb....................     264.40998609912
   (K)    Exchange+Correlation.......     -31.65303864617
   (L)  Electronic energy............    -385.27940863884  (E+I)
   (N)  Total energy.................    -230.00708401995  (A+L)
  
 SCFE: SCF energy: DFT(b3lyp)      -230.00708401995 hartrees   iterations:   3
  
 
 HOMO energy:    -0.25416
 LUMO energy:    -0.02059
 
  Orbital energies (hartrees): 
   -19.20029   -10.24091   -10.24082   -10.19243   -10.19213    -1.06520
    -0.82494    -0.74797    -0.58792    -0.57787    -0.53900    -0.43982
    -0.42972    -0.42717    -0.39612    -0.39383    -0.30089    -0.25416
    -0.02059     0.05135     0.05714     0.06097     0.08361     0.10442
     0.11737     0.12199     0.27091     0.29864
 
  Peak memory usage:    790 Mb
  
  end of program scf
   
 Time(scf)  user:        1.3  user+sys:        1.3  wallclock:        2.1
  
  start of program der1a
  
  Peak memory usage:    709 Mb
  
  end of program der1a
   
 Time(der1a)  user:        0.4  user+sys:        0.4  wallclock:        0.5
  
  start of program rwr
  
  Will use SVD to solve RwR matrix  5 for grid 2
  for gradients; estimated inverse condition number = 9.3E-15
  Peak memory usage:    574 Mb
  
  end of program rwr
   
 Time(rwr)  user:        0.6  user+sys:        0.6  wallclock:        0.8
  
  start of program der1b
  
   
  forces (hartrees/bohr) : total     
   
 atom  label           x              y              z
 ---- --------   -------------  -------------  -------------
    1 C1         -2.395945E-02   2.262221E-02   3.688620E-05
    2 C2          1.779393E-02  -1.368800E-02  -2.889629E-05
    3 C3         -9.898259E-03  -2.017919E-02  -7.215345E-06
    4 C4          1.147647E-02   3.097327E-02   1.511527E-05
    5 O5          1.679512E-02  -7.182966E-02  -8.315220E-05
    6 H6          1.830556E-02   1.646252E-02  -7.833253E-07
    7 H7          4.525319E-03   1.587057E-02   7.678130E-06
    8 H8         -1.109250E-02   1.220315E-02   2.825936E-05
    9 H9         -2.372972E-02   6.627731E-03   4.369405E-05
 -------------   -------------  -------------  -------------
     total        2.164723E-04  -9.374012E-04   1.158585E-05
   
  Peak memory usage:    789 Mb
  
  end of program der1b
   
 Time(der1b)  user:        1.5  user+sys:        1.5  wallclock:        1.6
  
  start of program raman
  
  calculation with applied electric field of
     Ex= 0.02400 Ey= 0.00000 Ez= 0.00000 follows...
  nuclear repulsion energy.......     154.843260697 hartrees
  nuclear electric field energy..      -0.120780711 hartrees
  Peak memory usage:    534 Mb
  
  end of program raman
   
 Time(raman)  user:        0.1  user+sys:        0.1  wallclock:        0.2
  
  start of program rwr
  
  Peak memory usage:    573 Mb
  
  end of program rwr
   
 Time(rwr)  user:        0.7  user+sys:        0.7  wallclock:        0.9
  
  start of program scf
  
 number of electrons..........         36
 number of alpha electrons....         18
 number of beta electrons.....         18
 number of orbitals, total....         77
 number of doubly-occ'd orbs..         18
 number of open shell orbs....          0
 number of occupied orbitals..         18
 number of virtual orbitals...         59
 number of hamiltonians.......          1
 number of shells.............          1
 SCF type: DFT=Becke_3_Parameter/HF+Slater+Becke88+VWN+LYP (B3LYP)
  
       i  u  d  i  g                   
       t  p  i  c  r                                 RMS    maximum
       e  d  i  u  i                       energy  density   DIIS  
       r  t  s  t  d       total energy    change  change    error 
  
etot    1  N  N  5  M    -230.44163254998           3.8E-03  2.2E-02
etot    2  Y  Y  6  M    -230.45110065494  9.5E-03  1.1E-03  2.4E-02
etot    3  N  Y  2  U    -230.45523888006  4.1E-03  4.2E-04  1.1E-02
etot    4  Y  Y  6  M    -230.45629998381  1.1E-03  1.8E-04  2.1E-03
etot    5  Y  Y  6  M    -230.45632514781  2.5E-05  1.1E-04  1.7E-03
etot    6  N  Y  2  U    -230.45633429183  9.1E-06  2.3E-05  5.6E-04
etot    7  N  Y  2  U    -230.45633729313  3.0E-06  6.3E-06  1.2E-04
etot    8  N  Y  2  U    -230.45633741628  1.2E-07  8.8E-07  2.0E-05
etot    9  N  N  2  U    -230.45633742046  4.2E-09  0.0E+00  0.0E+00
  
  
 Energy components, in hartrees:
   (A)  Nuclear repulsion............     154.72247998511
   (E)  Total one-electron terms.....    -617.94013916784
   (F)    Electron-nuclear...........    -846.94247300031
   (H)    Kinetic....................     228.91659638103
   (I)  Total two-electron terms.....     232.76132176227
   (J)    Coulomb....................     264.41326173067
   (K)    Exchange+Correlation.......     -31.65193996840
   (L)  Electronic energy............    -385.17881740557  (E+I)
   (M)  -V/T.........................       2.00710074550  (-(A+F+I)/H)
   (N)  Total energy.................    -230.45633742046  (A+L)
  
 SCFE: SCF energy: DFT(b3lyp)      -230.45633742046 hartrees   iterations:   9
  
 
 HOMO energy:    -0.24703
 LUMO energy:    -0.02178
 
  Orbital energies (hartrees): 
   -19.19988   -10.25429   -10.22180   -10.20468   -10.17016    -1.06498
    -0.82369    -0.74493    -0.59351    -0.57000    -0.53842    -0.43966
    -0.43023    -0.42109    -0.38968    -0.38414    -0.30085    -0.24703
    -0.02178    -0.01739     0.04099     0.06794     0.07618     0.11733
     0.16084     0.18591     0.26591     0.28215
 
  Peak memory usage:    790 Mb
  
  end of program scf
   
 Time(scf)  user:        3.9  user+sys:        3.9  wallclock:        4.7
  
  start of program der1a
  
  Peak memory usage:    709 Mb
  
  end of program der1a
   
 Time(der1a)  user:        0.2  user+sys:        0.2  wallclock:        0.2
  
  start of program rwr
  
  Peak memory usage:    574 Mb
  
  end of program rwr
   
 Time(rwr)  user:        0.6  user+sys:        0.6  wallclock:        0.8
  
  start of program der1b
  
   
  forces (hartrees/bohr) : total     
   
 atom  label           x              y              z
 ---- --------   -------------  -------------  -------------
    1 C1         -2.596285E-02   2.677270E-02   6.009207E-05
    2 C2          1.851822E-02  -2.041455E-02  -4.655848E-05
    3 C3         -5.952362E-03  -2.823942E-02  -2.581972E-05
    4 C4          2.006677E-02   2.890063E-02   2.144906E-05
    5 O5          5.147849E-03  -6.709414E-02  -1.050040E-04
    6 H6          1.843131E-02   1.669371E-02   2.478965E-06
    7 H7          8.333535E-03   1.940455E-02   9.690278E-06
    8 H8         -1.405210E-02   1.686543E-02   3.648043E-05
    9 H9         -2.451021E-02   7.070403E-03   4.621325E-05
 -------------   -------------  -------------  -------------
     total        2.015379E-05  -4.067423E-05  -9.781617E-07
   
  Peak memory usage:    789 Mb
  
  end of program der1b
   
 Time(der1b)  user:        1.5  user+sys:        1.5  wallclock:        1.5
  
  start of program raman
  
  calculation with applied electric field of
     Ex=-0.02400 Ey= 0.00000 Ez= 0.00000 follows...
  nuclear repulsion energy.......     154.843260697 hartrees
  nuclear electric field energy..       0.120780711 hartrees
  Peak memory usage:    534 Mb
  
  end of program raman
   
 Time(raman)  user:        0.1  user+sys:        0.1  wallclock:        0.1
  
  start of program rwr
  
  Peak memory usage:    574 Mb
  
  end of program rwr
   
 Time(rwr)  user:        0.7  user+sys:        0.7  wallclock:        0.9
  
  start of program scf
  
 number of electrons..........         36
 number of alpha electrons....         18
 number of beta electrons.....         18
 number of orbitals, total....         77
 number of doubly-occ'd orbs..         18
 number of open shell orbs....          0
 number of occupied orbitals..         18
 number of virtual orbitals...         59
 number of hamiltonians.......          1
 number of shells.............          1
 SCF type: DFT=Becke_3_Parameter/HF+Slater+Becke88+VWN+LYP (B3LYP)
  
       i  u  d  i  g                   
       t  p  i  c  r                                 RMS    maximum
       e  d  i  u  i                       energy  density   DIIS  
       r  t  s  t  d       total energy    change  change    error 
  
etot    1  N  N  5  M    -230.43066242993           4.5E-03  2.2E-02
etot    2  Y  Y  6  M    -230.43540954321  4.7E-03  1.5E-03  3.1E-02
etot    3  N  Y  2  U    -230.44422866001  8.8E-03  4.5E-04  9.4E-03
etot    4  Y  Y  6  M    -230.44525344036  1.0E-03  1.9E-04  3.8E-03
etot    5  Y  Y  6  M    -230.44534206359  8.9E-05  1.3E-04  1.7E-03
etot    6  N  Y  2  U    -230.44536193947  2.0E-05  2.6E-05  5.5E-04
etot    7  N  Y  2  U    -230.44536494399  3.0E-06  5.8E-06  1.2E-04
etot    8  N  Y  2  U    -230.44536505276  1.1E-07  1.7E-06  4.6E-05
etot    9  N  N  2  U    -230.44536507498  2.2E-08  0.0E+00  0.0E+00
  
  
 Energy components, in hartrees:
   (A)  Nuclear repulsion............     154.96404140800
   (E)  Total one-electron terms.....    -618.03866196283
   (F)    Electron-nuclear...........    -846.79694387902
   (H)    Kinetic....................     228.90312404262
   (I)  Total two-electron terms.....     232.62925547985
   (J)    Coulomb....................     264.27443573557
   (K)    Exchange+Correlation.......     -31.64518025572
   (L)  Electronic energy............    -385.40940648297  (E+I)
   (M)  -V/T.........................       2.00610476118  (-(A+F+I)/H)
   (N)  Total energy.................    -230.44536507498  (A+L)
  
 SCFE: SCF energy: DFT(b3lyp)      -230.44536507498 hartrees   iterations:   9
  
 
 HOMO energy:    -0.25741
 LUMO energy:    -0.03138
 
  Orbital energies (hartrees): 
   -19.20616   -10.26371   -10.23165   -10.21899   -10.18467    -1.07025
    -0.83594    -0.75519    -0.60518    -0.57940    -0.55160    -0.44879
    -0.43584    -0.43492    -0.39719    -0.39402    -0.31112    -0.25741
    -0.03138    -0.01997     0.00828     0.05361     0.06717     0.10753
     0.12804     0.18156     0.25018     0.26627
 
  Peak memory usage:    790 Mb
  
  end of program scf
   
 Time(scf)  user:        4.0  user+sys:        4.0  wallclock:        4.6
  
  start of program der1a
  
  Peak memory usage:    709 Mb
  
  end of program der1a
   
 Time(der1a)  user:        0.2  user+sys:        0.2  wallclock:        0.2
  
  start of program rwr
  
  Peak memory usage:    574 Mb
  
  end of program rwr
   
 Time(rwr)  user:        0.6  user+sys:        0.6  wallclock:        0.9
  
  start of program der1b
  
   
  forces (hartrees/bohr) : total     
   
 atom  label           x              y              z
 ---- --------   -------------  -------------  -------------
    1 C1         -3.090569E-02   2.163789E-02   6.180765E-05
    2 C2          1.930131E-02  -2.403607E-02  -3.594819E-05
    3 C3         -8.730744E-03  -2.702017E-02  -1.401922E-05
    4 C4          1.009843E-02   3.883956E-02   4.408377E-05
    5 O5          2.646200E-02  -7.085541E-02  -1.166914E-04
    6 H6          1.837873E-02   1.845816E-02  -8.567851E-06
    7 H7          4.840703E-03   2.261302E-02   6.769537E-06
    8 H8         -1.424770E-02   1.352601E-02   2.186623E-05
    9 H9         -2.519605E-02   6.799879E-03   3.992166E-05
 -------------   -------------  -------------  -------------
     total        9.801355E-07  -3.713373E-05  -7.778419E-07
   
  Peak memory usage:    789 Mb
  
  end of program der1b
   
 Time(der1b)  user:        1.5  user+sys:        1.5  wallclock:        2.4
  
  start of program raman
  
  calculation with applied electric field of
     Ex= 0.00000 Ey= 0.02400 Ez= 0.00000 follows...
  nuclear repulsion energy.......     154.843260697 hartrees
  nuclear electric field energy..       0.121757624 hartrees
  Peak memory usage:    534 Mb
  
  end of program raman
   
 Time(raman)  user:        0.1  user+sys:        0.1  wallclock:        0.1
  
  start of program rwr
  
  Peak memory usage:    574 Mb
  
  end of program rwr
   
 Time(rwr)  user:        0.8  user+sys:        0.8  wallclock:        1.1
  
  start of program scf
  
 number of electrons..........         36
 number of alpha electrons....         18
 number of beta electrons.....         18
 number of orbitals, total....         77
 number of doubly-occ'd orbs..         18
 number of open shell orbs....          0
 number of occupied orbitals..         18
 number of virtual orbitals...         59
 number of hamiltonians.......          1
 number of shells.............          1
 SCF type: DFT=Becke_3_Parameter/HF+Slater+Becke88+VWN+LYP (B3LYP)
  
       i  u  d  i  g                   
       t  p  i  c  r                                 RMS    maximum
       e  d  i  u  i                       energy  density   DIIS  
       r  t  s  t  d       total energy    change  change    error 
  
etot    1  N  N  5  M    -230.41262912041           5.2E-03  2.4E-02
etot    2  Y  Y  6  M    -230.40520474702 -7.4E-03  1.8E-03  5.7E-02
etot    3  N  Y  2  U    -230.42620338765  2.1E-02  6.5E-04  8.2E-03
etot    4  Y  Y  6  M    -230.42659217988  3.9E-04  1.8E-04  5.3E-03
etot    5  Y  Y  6  M    -230.42677488411  1.8E-04  8.8E-05  1.4E-03
etot    6  N  Y  2  U    -230.42679212656  1.7E-05  1.7E-05  2.4E-04
etot    7  N  Y  2  U    -230.42679319780  1.1E-06  5.2E-06  5.6E-05
etot    8  N  Y  2  U    -230.42679321979  2.2E-08  1.1E-06  3.6E-05
etot    9  N  N  2  U    -230.42679323184  1.2E-08  0.0E+00  0.0E+00
  
  
 Energy components, in hartrees:
   (A)  Nuclear repulsion............     154.96501832081
   (E)  Total one-electron terms.....    -617.81655532324
   (F)    Electron-nuclear...........    -846.56963033320
   (H)    Kinetic....................     228.87982556630
   (I)  Total two-electron terms.....     232.42474377059
   (J)    Coulomb....................     264.05978263195
   (K)    Exchange+Correlation.......     -31.63503886136
   (L)  Electronic energy............    -385.39181155265  (E+I)
   (M)  -V/T.........................       2.00620507773  (-(A+F+I)/H)
   (N)  Total energy.................    -230.42679323184  (A+L)
  
 SCFE: SCF energy: DFT(b3lyp)      -230.42679323184 hartrees   iterations:   9
  
 
 HOMO energy:    -0.26655
 LUMO energy:    -0.03059
 
  Orbital energies (hartrees): 
   -19.20505   -10.25594   -10.24845   -10.21814   -10.21006    -1.06763
    -0.84246    -0.76150    -0.60627    -0.59018    -0.55737    -0.45918
    -0.43878    -0.43358    -0.41353    -0.38985    -0.31361    -0.26655
    -0.03059    -0.02252     0.02224     0.03631     0.05684     0.09212
     0.10883     0.13778     0.23130     0.26771
 
  Peak memory usage:    790 Mb
  
  end of program scf
   
 Time(scf)  user:        4.0  user+sys:        4.0  wallclock:        4.9
  
  start of program der1a
  
  Peak memory usage:    709 Mb
  
  end of program der1a
   
 Time(der1a)  user:        0.2  user+sys:        0.2  wallclock:        0.2
  
  start of program rwr
  
  Peak memory usage:    574 Mb
  
  end of program rwr
   
 Time(rwr)  user:        0.6  user+sys:        0.6  wallclock:        0.8
  
  start of program der1b
  
   
  forces (hartrees/bohr) : total     
   
 atom  label           x              y              z
 ---- --------   -------------  -------------  -------------
    1 C1         -2.768465E-02   3.263448E-02   7.191203E-05
    2 C2          1.928264E-02  -2.215827E-02  -3.515397E-05
    3 C3         -6.798522E-03  -2.971394E-02  -1.833246E-05
    4 C4          1.215479E-02   4.052159E-02   4.530787E-05
    5 O5          1.761265E-02  -8.482125E-02  -1.238048E-04
    6 H6          2.200590E-02   1.957968E-02  -9.624959E-06
    7 H7          4.732103E-03   1.882235E-02   4.494044E-06
    8 H8         -1.348128E-02   1.645338E-02   2.444656E-05
    9 H9         -2.781295E-02   8.659775E-03   3.989888E-05
 -------------   -------------  -------------  -------------
     total        1.066870E-05  -2.220711E-05  -8.567803E-07
   
  Peak memory usage:    789 Mb
  
  end of program der1b
   
 Time(der1b)  user:        1.5  user+sys:        1.5  wallclock:        1.8
  
  start of program raman
  
  calculation with applied electric field of
     Ex= 0.00000 Ey=-0.02400 Ez= 0.00000 follows...
  nuclear repulsion energy.......     154.843260697 hartrees
  nuclear electric field energy..      -0.121757624 hartrees
  Peak memory usage:    534 Mb
  
  end of program raman
   
 Time(raman)  user:        0.1  user+sys:        0.1  wallclock:        0.1
  
  start of program rwr
  
  Peak memory usage:    574 Mb
  
  end of program rwr
   
 Time(rwr)  user:        0.7  user+sys:        0.7  wallclock:        0.9
  
  start of program scf
  
 number of electrons..........         36
 number of alpha electrons....         18
 number of beta electrons.....         18
 number of orbitals, total....         77
 number of doubly-occ'd orbs..         18
 number of open shell orbs....          0
 number of occupied orbitals..         18
 number of virtual orbitals...         59
 number of hamiltonians.......          1
 number of shells.............          1
 SCF type: DFT=Becke_3_Parameter/HF+Slater+Becke88+VWN+LYP (B3LYP)
  
       i  u  d  i  g                   
       t  p  i  c  r                                 RMS    maximum
       e  d  i  u  i                       energy  density   DIIS  
       r  t  s  t  d       total energy    change  change    error 
  
etot    1  N  N  5  M    -230.45966585951           4.1E-03  2.4E-02
etot    2  Y  Y  6  M    -230.46182781044  2.2E-03  1.1E-03  3.7E-02
etot    3  N  Y  2  U    -230.47312502454  1.1E-02  5.8E-04  5.0E-03
etot    4  Y  Y  6  M    -230.47349677957  3.7E-04  1.2E-04  2.7E-03
etot    5  Y  Y  6  M    -230.47353318726  3.6E-05  6.7E-05  1.7E-03
etot    6  N  Y  2  U    -230.47353990333  6.7E-06  1.1E-05  1.8E-04
etot    7  N  Y  2  U    -230.47354018245  2.8E-07  4.5E-06  1.0E-04
etot    8  N  N  2  U    -230.47354025037  6.8E-08  0.0E+00  0.0E+00
  
  
 Energy components, in hartrees:
   (A)  Nuclear repulsion............     154.72150307229
   (E)  Total one-electron terms.....    -618.19054160971
   (F)    Electron-nuclear...........    -847.19853408687
   (H)    Kinetic....................     228.93738303767
   (I)  Total two-electron terms.....     232.99549828705
   (J)    Coulomb....................     264.65986733994
   (K)    Exchange+Correlation.......     -31.66436905289
   (L)  Electronic energy............    -385.19504332266  (E+I)
   (M)  -V/T.........................       2.00701836734  (-(A+F+I)/H)
   (N)  Total energy.................    -230.47354025037  (A+L)
  
 SCFE: SCF energy: DFT(b3lyp)      -230.47354025037 hartrees   iterations:   8
  
 
 HOMO energy:    -0.24492
 LUMO energy:    -0.01243
 
  Orbital energies (hartrees): 
   -19.20002   -10.23635   -10.22824   -10.17873   -10.17044    -1.06676
    -0.81185    -0.73891    -0.57890    -0.56967    -0.52435    -0.43937
    -0.43158    -0.40192    -0.39587    -0.37884    -0.29021    -0.24492
    -0.01243     0.03730     0.06093     0.07688     0.08442     0.11945
     0.15998     0.18872     0.29885     0.30186
 
  Peak memory usage:    790 Mb
  
  end of program scf
   
 Time(scf)  user:        3.4  user+sys:        3.4  wallclock:        3.8
  
  start of program der1a
  
  Peak memory usage:    709 Mb
  
  end of program der1a
   
 Time(der1a)  user:        0.2  user+sys:        0.2  wallclock:        0.2
  
  start of program rwr
  
  Peak memory usage:    574 Mb
  
  end of program rwr
   
 Time(rwr)  user:        0.6  user+sys:        0.6  wallclock:        0.9
  
  start of program der1b
  
   
  forces (hartrees/bohr) : total     
   
 atom  label           x              y              z
 ---- --------   -------------  -------------  -------------
    1 C1         -2.812271E-02   1.276647E-02   4.731320E-05
    2 C2          1.298544E-02  -2.001768E-02  -3.318997E-05
    3 C3         -3.069251E-03  -2.389963E-02  -2.442552E-05
    4 C4          1.726059E-02   2.605918E-02   1.249791E-05
    5 O5          1.407795E-02  -4.824230E-02  -9.443623E-05
    6 H6          2.074086E-02   1.572135E-02  -1.655393E-06
    7 H7          7.870097E-03   1.898599E-02   1.064717E-05
    8 H8         -1.665331E-02   1.323434E-02   3.418570E-05
    9 H9         -2.507615E-02   5.338466E-03   4.816910E-05
 -------------   -------------  -------------  -------------
     total        1.351886E-05  -5.380263E-05  -8.940175E-07
   
  Peak memory usage:    789 Mb
  
  end of program der1b
   
 Time(der1b)  user:        1.5  user+sys:        1.5  wallclock:        1.6
  
  start of program raman
  
  calculation with applied electric field of
     Ex= 0.00000 Ey= 0.00000 Ez= 0.02400 follows...
  nuclear repulsion energy.......     154.843260697 hartrees
  nuclear electric field energy..      -3.044153949 hartrees
  Peak memory usage:    534 Mb
  
  end of program raman
   
 Time(raman)  user:        0.1  user+sys:        0.1  wallclock:        0.1
  
  start of program rwr
  
  Peak memory usage:    574 Mb
  
  end of program rwr
   
 Time(rwr)  user:        0.7  user+sys:        0.7  wallclock:        0.9
  
  start of program scf
  
 number of electrons..........         36
 number of alpha electrons....         18
 number of beta electrons.....         18
 number of orbitals, total....         77
 number of doubly-occ'd orbs..         18
 number of open shell orbs....          0
 number of occupied orbitals..         18
 number of virtual orbitals...         59
 number of hamiltonians.......          1
 number of shells.............          1
 SCF type: DFT=Becke_3_Parameter/HF+Slater+Becke88+VWN+LYP (B3LYP)
  
       i  u  d  i  g                   
       t  p  i  c  r                                 RMS    maximum
       e  d  i  u  i                       energy  density   DIIS  
       r  t  s  t  d       total energy    change  change    error 
  
etot    1  N  N  5  M    -230.43611243508           2.9E-03  1.4E-02
etot    2  Y  Y  6  M    -230.44127752858  5.2E-03  6.1E-04  6.2E-03
etot    3  N  Y  2  U    -230.44191122862  6.3E-04  2.9E-04  1.3E-03
etot    4  Y  Y  6  M    -230.44192582489  1.5E-05  6.5E-05  4.0E-04
etot    5  Y  Y  6  M    -230.44192694039  1.1E-06  1.8E-05  5.5E-04
etot    6  N  Y  2  U    -230.44192232951 -4.6E-06  7.4E-06  1.8E-04
etot    7  N  Y  2  U    -230.44192254633  2.2E-07  2.5E-06  3.6E-05
etot    8  N  N  2  U    -230.44192255538  9.0E-09  0.0E+00  0.0E+00
  
  
 Energy components, in hartrees:
   (A)  Nuclear repulsion............     151.79910674751
   (E)  Total one-electron terms.....    -614.97714442889
   (F)    Electron-nuclear...........    -846.91610562072
   (H)    Kinetic....................     228.90639000695
   (I)  Total two-electron terms.....     232.73611512600
   (J)    Coulomb....................     264.38709302983
   (K)    Exchange+Correlation.......     -31.65097790382
   (L)  Electronic energy............    -382.24102930289  (E+I)
   (M)  -V/T.........................       2.01995620888  (-(A+F+I)/H)
   (N)  Total energy.................    -230.44192255538  (A+L)
  
 SCFE: SCF energy: DFT(b3lyp)      -230.44192255538 hartrees   iterations:   8
  
 
 HOMO energy:    -0.17042
 LUMO energy:     0.06244
 
  Orbital energies (hartrees): 
   -19.11652   -10.15716   -10.15707   -10.10886   -10.10855    -0.98144
    -0.74129    -0.66427    -0.50419    -0.49408    -0.45518    -0.35588
    -0.34579    -0.34330    -0.31217    -0.30992    -0.21691    -0.17042
     0.06244     0.13528     0.13989     0.14487     0.16733     0.18834
     0.20116     0.20613     0.35344     0.38190
 
  Peak memory usage:    790 Mb
  
  end of program scf
   
 Time(scf)  user:        3.3  user+sys:        3.3  wallclock:        3.9
  
  start of program der1a
  
  Peak memory usage:    709 Mb
  
  end of program der1a
   
 Time(der1a)  user:        0.2  user+sys:        0.2  wallclock:        0.2
  
  start of program rwr
  
  Peak memory usage:    574 Mb
  
  end of program rwr
   
 Time(rwr)  user:        0.7  user+sys:        0.7  wallclock:        0.8
  
  start of program der1b
  
   
  forces (hartrees/bohr) : total     
   
 atom  label           x              y              z
 ---- --------   -------------  -------------  -------------
    1 C1         -2.765413E-02   2.304369E-02  -1.951542E-03
    2 C2          1.662434E-02  -2.120599E-02  -4.116672E-03
    3 C3         -5.539085E-03  -2.641698E-02  -4.099707E-03
    4 C4          1.459623E-02   3.299026E-02  -1.989606E-03
    5 O5          1.624826E-02  -6.958196E-02  -7.608634E-03
    6 H6          2.158343E-02   1.744763E-02   5.458650E-03
    7 H7          6.996925E-03   2.147816E-02   4.395308E-03
    8 H8         -1.577082E-02   1.613294E-02   4.416485E-03
    9 H9         -2.707403E-02   6.074613E-03   5.509339E-03
 -------------   -------------  -------------  -------------
     total        1.111960E-05  -3.762750E-05   1.362120E-05
   
  Peak memory usage:    789 Mb
  
  end of program der1b
   
 Time(der1b)  user:        1.5  user+sys:        1.5  wallclock:        1.6
  
  start of program raman
  
  calculation with applied electric field of
     Ex= 0.00000 Ey= 0.00000 Ez=-0.02400 follows...
  nuclear repulsion energy.......     154.843260697 hartrees
  nuclear electric field energy..       3.044153949 hartrees
  Peak memory usage:    534 Mb
  
  end of program raman
   
 Time(raman)  user:        0.1  user+sys:        0.1  wallclock:        0.1
  
  start of program rwr
  
  Peak memory usage:    574 Mb
  
  end of program rwr
   
 Time(rwr)  user:        0.8  user+sys:        0.8  wallclock:        0.9
  
  start of program scf
  
 number of electrons..........         36
 number of alpha electrons....         18
 number of beta electrons.....         18
 number of orbitals, total....         77
 number of doubly-occ'd orbs..         18
 number of open shell orbs....          0
 number of occupied orbitals..         18
 number of virtual orbitals...         59
 number of hamiltonians.......          1
 number of shells.............          1
 SCF type: DFT=Becke_3_Parameter/HF+Slater+Becke88+VWN+LYP (B3LYP)
  
       i  u  d  i  g                   
       t  p  i  c  r                                 RMS    maximum
       e  d  i  u  i                       energy  density   DIIS  
       r  t  s  t  d       total energy    change  change    error 
  
etot    1  N  N  5  M    -230.43618254483           2.9E-03  1.4E-02
etot    2  Y  Y  6  M    -230.44134747738  5.2E-03  6.1E-04  6.2E-03
etot    3  N  Y  2  U    -230.44198084814  6.3E-04  2.9E-04  1.2E-03
etot    4  Y  Y  6  M    -230.44199613896  1.5E-05  6.3E-05  3.3E-04
etot    5  Y  Y  6  M    -230.44199616636  2.7E-08  2.3E-05  5.0E-04
etot    6  N  Y  2  U    -230.44199199378 -4.2E-06  6.4E-06  1.3E-04
etot    7  N  Y  2  U    -230.44199217954  1.9E-07  2.5E-06  4.4E-05
etot    8  N  N  2  U    -230.44199218895  9.4E-09  0.0E+00  0.0E+00
  
  
 Energy components, in hartrees:
   (A)  Nuclear repulsion............     157.88741464559
   (E)  Total one-electron terms.....    -621.06624115273
   (F)    Electron-nuclear...........    -846.91692048706
   (H)    Kinetic....................     228.90648558934
   (I)  Total two-electron terms.....     232.73683431819
   (J)    Coulomb....................     264.38784987430
   (K)    Exchange+Correlation.......     -31.65101555612
   (L)  Electronic energy............    -388.32940683454  (E+I)
   (M)  -V/T.........................       1.99335842472  (-(A+F+I)/H)
   (N)  Total energy.................    -230.44199218895  (A+L)
  
 SCFE: SCF energy: DFT(b3lyp)      -230.44199218895 hartrees   iterations:   8
  
 
 HOMO energy:    -0.33952
 LUMO energy:    -0.10667
 
  Orbital energies (hartrees): 
   -19.28563   -10.32626   -10.32617   -10.27794   -10.27763    -1.15057
    -0.91038    -0.83337    -0.67329    -0.66318    -0.62427    -0.52499
    -0.51492    -0.51237    -0.48125    -0.47906    -0.38600    -0.33952
    -0.10667    -0.03376    -0.02919    -0.02422    -0.00179     0.01934
     0.03208     0.03704     0.18440     0.21282
 
  Peak memory usage:    790 Mb
  
  end of program scf
   
 Time(scf)  user:        3.3  user+sys:        3.3  wallclock:        4.6
  
  start of program der1a
  
  Peak memory usage:    709 Mb
  
  end of program der1a
   
 Time(der1a)  user:        0.2  user+sys:        0.2  wallclock:        0.2
  
  start of program rwr
  
  Peak memory usage:    574 Mb
  
  end of program rwr
   
 Time(rwr)  user:        0.6  user+sys:        0.6  wallclock:        0.9
  
  start of program der1b
  
   
  forces (hartrees/bohr) : total     
   
 atom  label           x              y              z
 ---- --------   -------------  -------------  -------------
    1 C1         -2.764214E-02   2.302089E-02   2.083810E-03
    2 C2          1.662849E-02  -2.120138E-02   4.036836E-03
    3 C3         -5.524529E-03  -2.641762E-02   4.049106E-03
    4 C4          1.462134E-02   3.295294E-02   2.052849E-03
    5 O5          1.623376E-02  -6.955052E-02   7.388685E-03
    6 H6          2.156903E-02   1.745142E-02  -5.470387E-03
    7 H7          6.993143E-03   2.148214E-02  -4.377351E-03
    8 H8         -1.578469E-02   1.614262E-02  -4.356137E-03
    9 H9         -2.708336E-02   6.081861E-03  -5.422819E-03
 -------------   -------------  -------------  -------------
     total        1.104300E-05  -3.765717E-05  -1.540968E-05
   
  Peak memory usage:    789 Mb
  
  end of program der1b
   
 Time(der1b)  user:        1.5  user+sys:        1.5  wallclock:        1.5
  
  start of program raman
  
  calculation with applied electric field of
     Ex= 0.01200 Ey= 0.01200 Ez= 0.00000 follows...
  nuclear repulsion energy.......     154.843260697 hartrees
  nuclear electric field energy..       0.000488456 hartrees
  Peak memory usage:    534 Mb
  
  end of program raman
   
 Time(raman)  user:        0.1  user+sys:        0.1  wallclock:        0.1
  
  start of program rwr
  
  Peak memory usage:    574 Mb
  
  end of program rwr
   
 Time(rwr)  user:        0.7  user+sys:        0.7  wallclock:        0.9
  
  start of program scf
  
 number of electrons..........         36
 number of alpha electrons....         18
 number of beta electrons.....         18
 number of orbitals, total....         77
 number of doubly-occ'd orbs..         18
 number of open shell orbs....          0
 number of occupied orbitals..         18
 number of virtual orbitals...         59
 number of hamiltonians.......          1
 number of shells.............          1
 SCF type: DFT=Becke_3_Parameter/HF+Slater+Becke88+VWN+LYP (B3LYP)
  
       i  u  d  i  g                   
       t  p  i  c  r                                 RMS    maximum
       e  d  i  u  i                       energy  density   DIIS  
       r  t  s  t  d       total energy    change  change    error 
  
etot    1  N  N  5  M    -230.42713083520           3.2E-03  1.3E-02
etot    2  Y  Y  6  M    -230.42820616555  1.1E-03  1.1E-03  2.2E-02
etot    3  N  Y  2  U    -230.43386220288  5.7E-03  3.6E-04  8.0E-03
etot    4  Y  Y  6  M    -230.43430060872  4.4E-04  1.4E-04  3.2E-03
etot    5  Y  Y  6  M    -230.43437624478  7.6E-05  9.1E-05  9.8E-04
etot    6  N  Y  2  U    -230.43438668336  1.0E-05  1.7E-05  3.8E-04
etot    7  N  Y  2  U    -230.43438792252  1.2E-06  3.9E-06  9.7E-05
etot    8  N  N  2  U    -230.43438798115  5.9E-08  0.0E+00  0.0E+00
  
  
 Energy components, in hartrees:
   (A)  Nuclear repulsion............     154.84374915296
   (E)  Total one-electron terms.....    -617.89895749841
   (F)    Electron-nuclear...........    -846.79252534109
   (H)    Kinetic....................     228.89958177900
   (I)  Total two-electron terms.....     232.62082036430
   (J)    Coulomb....................     264.26636945155
   (K)    Exchange+Correlation.......     -31.64554908724
   (L)  Electronic energy............    -385.27813713411  (E+I)
   (M)  -V/T.........................       2.00667887750  (-(A+F+I)/H)
   (N)  Total energy.................    -230.43438798115  (A+L)
  
 SCFE: SCF energy: DFT(b3lyp)      -230.43438798115 hartrees   iterations:   8
  
 
 HOMO energy:    -0.25643
 LUMO energy:    -0.02527
 
  Orbital energies (hartrees): 
   -19.20120   -10.25421   -10.23420   -10.21027   -10.18896    -1.06519
    -0.83158    -0.75197    -0.59747    -0.57862    -0.54672    -0.44435
    -0.43335    -0.43038    -0.39889    -0.39067    -0.30608    -0.25643
    -0.02527     0.00726     0.03262     0.05215     0.07856     0.09985
     0.11040     0.15970     0.25547     0.27504
 
  Peak memory usage:    790 Mb
  
  end of program scf
   
 Time(scf)  user:        3.3  user+sys:        3.3  wallclock:        3.8
  
  start of program der1a
  
  Peak memory usage:    709 Mb
  
  end of program der1a
   
 Time(der1a)  user:        0.2  user+sys:        0.2  wallclock:        0.2
  
  start of program rwr
  
  Peak memory usage:    574 Mb
  
  end of program rwr
   
 Time(rwr)  user:        0.6  user+sys:        0.6  wallclock:        0.8
  
  start of program der1b
  
   
  forces (hartrees/bohr) : total     
   
 atom  label           x              y              z
 ---- --------   -------------  -------------  -------------
    1 C1         -2.661292E-02   2.911190E-02   6.705948E-05
    2 C2          1.853573E-02  -2.064817E-02  -4.092062E-05
    3 C3         -6.169848E-03  -2.895826E-02  -2.403942E-05
    4 C4          1.594395E-02   3.457197E-02   3.401509E-05
    5 O5          1.184073E-02  -7.699275E-02  -1.150797E-04
    6 H6          2.131102E-02   1.783972E-02  -4.898776E-06
    7 H7          6.442539E-03   1.950055E-02   7.505546E-06
    8 H8         -1.489694E-02   1.773691E-02   3.241751E-05
    9 H9         -2.637789E-02   7.807908E-03   4.301203E-05
 -------------   -------------  -------------  -------------
     total        1.637027E-05  -3.023067E-05  -9.288221E-07
   
  Peak memory usage:    789 Mb
  
  end of program der1b
   
 Time(der1b)  user:        1.5  user+sys:        1.5  wallclock:        1.6
  
  start of program raman
  
  calculation with applied electric field of
     Ex=-0.01200 Ey=-0.01200 Ez= 0.00000 follows...
  nuclear repulsion energy.......     154.843260697 hartrees
  nuclear electric field energy..      -0.000488456 hartrees
  Peak memory usage:    534 Mb
  
  end of program raman
   
 Time(raman)  user:        0.1  user+sys:        0.1  wallclock:        0.1
  
  start of program rwr
  
  Peak memory usage:    574 Mb
  
  end of program rwr
   
 Time(rwr)  user:        0.7  user+sys:        0.7  wallclock:        0.9
  
  start of program scf
  
 number of electrons..........         36
 number of alpha electrons....         18
 number of beta electrons.....         18
 number of orbitals, total....         77
 number of doubly-occ'd orbs..         18
 number of open shell orbs....          0
 number of occupied orbitals..         18
 number of virtual orbitals...         59
 number of hamiltonians.......          1
 number of shells.............          1
 SCF type: DFT=Becke_3_Parameter/HF+Slater+Becke88+VWN+LYP (B3LYP)
  
       i  u  d  i  g                   
       t  p  i  c  r                                 RMS    maximum
       e  d  i  u  i                       energy  density   DIIS  
       r  t  s  t  d       total energy    change  change    error 
  
etot    1  N  N  5  M    -230.44516414472           2.8E-03  1.3E-02
etot    2  Y  Y  6  M    -230.44867870898  3.5E-03  8.0E-04  1.5E-02
etot    3  N  Y  2  U    -230.45188684254  3.2E-03  3.5E-04  7.2E-03
etot    4  Y  Y  6  M    -230.45236415989  4.8E-04  1.2E-04  2.5E-03
etot    5  Y  Y  6  M    -230.45240993257  4.6E-05  8.5E-05  1.0E-03
etot    6  N  Y  2  U    -230.45240671195 -3.2E-06  1.6E-05  3.9E-04
etot    7  N  Y  2  U    -230.45240791619  1.2E-06  3.7E-06  9.6E-05
etot    8  N  N  2  U    -230.45240797842  6.2E-08  0.0E+00  0.0E+00
  
  
 Energy components, in hartrees:
   (A)  Nuclear repulsion............     154.84277224014
   (E)  Total one-electron terms.....    -618.13191146212
   (F)    Electron-nuclear...........    -847.02982800896
   (H)    Kinetic....................     228.92094541464
   (I)  Total two-electron terms.....     232.83673124356
   (J)    Coulomb....................     264.49329283592
   (K)    Exchange+Correlation.......     -31.65656159237
   (L)  Electronic energy............    -385.29518021856  (E+I)
   (M)  -V/T.........................       2.00658932145  (-(A+F+I)/H)
   (N)  Total energy.................    -230.45240797842  (A+L)
  
 SCFE: SCF energy: DFT(b3lyp)      -230.45240797842 hartrees   iterations:   8
  
 
 HOMO energy:    -0.25061
 LUMO energy:    -0.02078
 
  Orbital energies (hartrees): 
   -19.20194   -10.24941   -10.22896   -10.19802   -10.17641    -1.06749
    -0.82253    -0.74600    -0.58961    -0.57373    -0.53631    -0.44114
    -0.43225    -0.42001    -0.39530    -0.38867    -0.29993    -0.25061
    -0.02078     0.01245     0.05332     0.06492     0.09401     0.11291
     0.13195     0.16675     0.27642     0.28939
 
  Peak memory usage:    790 Mb
  
  end of program scf
   
 Time(scf)  user:        3.3  user+sys:        3.3  wallclock:        4.1
  
  start of program der1a
  
  Peak memory usage:    709 Mb
  
  end of program der1a
   
 Time(der1a)  user:        0.2  user+sys:        0.2  wallclock:        0.2
  
  start of program rwr
  
  Peak memory usage:    574 Mb
  
  end of program rwr
   
 Time(rwr)  user:        0.6  user+sys:        0.6  wallclock:        0.9
  
  start of program der1b
  
   
  forces (hartrees/bohr) : total     
   
 atom  label           x              y              z
 ---- --------   -------------  -------------  -------------
    1 C1         -2.927751E-02   1.654338E-02   5.579357E-05
    2 C2          1.589713E-02  -2.133955E-02  -3.495358E-05
    3 C3         -5.744794E-03  -2.547695E-02  -2.110729E-05
    4 C4          1.344512E-02   3.231225E-02   2.917242E-05
    5 O5          2.086611E-02  -6.051304E-02  -1.064480E-04
    6 H6          2.047811E-02   1.681584E-02  -6.345507E-06
    7 H7          6.309865E-03   2.113524E-02   9.138896E-06
    8 H8         -1.663582E-02   1.441663E-02   2.997339E-05
    9 H9         -2.533048E-02   6.060920E-03   4.393284E-05
 -------------   -------------  -------------  -------------
     total        7.737257E-06  -4.528662E-05  -8.432029E-07
   
  Peak memory usage:    789 Mb
  
  end of program der1b
   
 Time(der1b)  user:        1.5  user+sys:        1.5  wallclock:        2.7
  
  start of program raman
  
  calculation with applied electric field of
     Ex=-0.01200 Ey= 0.01200 Ez= 0.00000 follows...
  nuclear repulsion energy.......     154.843260697 hartrees
  nuclear electric field energy..       0.121269168 hartrees
  Peak memory usage:    534 Mb
  
  end of program raman
   
 Time(raman)  user:        0.1  user+sys:        0.1  wallclock:        0.1
  
  start of program rwr
  
  Peak memory usage:    574 Mb
  
  end of program rwr
   
 Time(rwr)  user:        0.7  user+sys:        0.7  wallclock:        0.8
  
  start of program scf
  
 number of electrons..........         36
 number of alpha electrons....         18
 number of beta electrons.....         18
 number of orbitals, total....         77
 number of doubly-occ'd orbs..         18
 number of open shell orbs....          0
 number of occupied orbitals..         18
 number of virtual orbitals...         59
 number of hamiltonians.......          1
 number of shells.............          1
 SCF type: DFT=Becke_3_Parameter/HF+Slater+Becke88+VWN+LYP (B3LYP)
  
       i  u  d  i  g                   
       t  p  i  c  r                                 RMS    maximum
       e  d  i  u  i                       energy  density   DIIS  
       r  t  s  t  d       total energy    change  change    error 
  
etot    1  N  N  5  M    -230.42164577517           3.5E-03  1.5E-02
etot    2  Y  Y  6  M    -230.41969344509 -2.0E-03  1.2E-03  3.4E-02
etot    3  N  Y  2  U    -230.42842910203  8.7E-03  4.2E-04  6.2E-03
etot    4  Y  Y  6  M    -230.42867640234  2.5E-04  1.3E-04  3.3E-03
etot    5  Y  Y  6  M    -230.42875588002  7.9E-05  7.4E-05  1.0E-03
etot    6  N  Y  2  U    -230.42876608829  1.0E-05  1.3E-05  2.5E-04
etot    7  N  Y  2  U    -230.42876679500  7.1E-07  3.5E-06  8.4E-05
etot    8  N  N  2  U    -230.42876683240  3.7E-08  0.0E+00  0.0E+00
  
  
 Energy components, in hartrees:
   (A)  Nuclear repulsion............     154.96452986440
   (E)  Total one-electron terms.....    -617.95098137514
   (F)    Electron-nuclear...........    -846.72241369542
   (H)    Kinetic....................     228.89248389548
   (I)  Total two-electron terms.....     232.55768467833
   (J)    Coulomb....................     264.20007747982
   (K)    Exchange+Correlation.......     -31.64239280148
   (L)  Electronic energy............    -385.39329669680  (E+I)
   (M)  -V/T.........................       2.00618295253  (-(A+F+I)/H)
   (N)  Total energy.................    -230.42876683240  (A+L)
  
 SCFE: SCF energy: DFT(b3lyp)      -230.42876683240 hartrees   iterations:   8
  
 
 HOMO energy:    -0.26239
 LUMO energy:    -0.02861
 
  Orbital energies (hartrees): 
   -19.20424   -10.25519   -10.24268   -10.21335   -10.20014    -1.06775
    -0.83706    -0.75723    -0.60118    -0.58525    -0.55208    -0.45077
    -0.43815    -0.43304    -0.40710    -0.39249    -0.31041    -0.26239
    -0.02861     0.00070     0.04372     0.04402     0.06237     0.08879
     0.10560     0.14280     0.24513     0.27327
 
  Peak memory usage:    790 Mb
  
  end of program scf
   
 Time(scf)  user:        3.4  user+sys:        3.4  wallclock:        3.9
  
  start of program der1a
  
  Peak memory usage:    709 Mb
  
  end of program der1a
   
 Time(der1a)  user:        0.2  user+sys:        0.2  wallclock:        0.2
  
  start of program rwr
  
  Peak memory usage:    574 Mb
  
  end of program rwr
   
 Time(rwr)  user:        0.6  user+sys:        0.6  wallclock:        0.9
  
  start of program der1b
  
   
  forces (hartrees/bohr) : total     
   
 atom  label           x              y              z
 ---- --------   -------------  -------------  -------------
    1 C1         -2.892914E-02   2.677215E-02   6.583755E-05
    2 C2          1.845224E-02  -2.311585E-02  -3.400666E-05
    3 C3         -7.239446E-03  -2.730817E-02  -1.590714E-05
    4 C4          1.107557E-02   3.886345E-02   4.410038E-05
    5 O5          2.205450E-02  -7.837786E-02  -1.208407E-04
    6 H6          2.088546E-02   1.916419E-02  -9.724399E-06
    7 H7          5.465589E-03   2.202605E-02   6.017687E-06
    8 H8         -1.390676E-02   1.505890E-02   2.325643E-05
    9 H9         -2.785346E-02   6.888123E-03   4.044512E-05
 -------------   -------------  -------------  -------------
     total        4.555290E-06  -2.900241E-05  -8.217593E-07
   
  Peak memory usage:    789 Mb
  
  end of program der1b
   
 Time(der1b)  user:        1.5  user+sys:        1.5  wallclock:        1.6
  
  start of program raman
  
  calculation with applied electric field of
     Ex= 0.01200 Ey=-0.01200 Ez= 0.00000 follows...
  nuclear repulsion energy.......     154.843260697 hartrees
  nuclear electric field energy..      -0.121269168 hartrees
  Peak memory usage:    534 Mb
  
  end of program raman
   
 Time(raman)  user:        0.1  user+sys:        0.1  wallclock:        0.1
  
  start of program rwr
  
  Peak memory usage:    574 Mb
  
  end of program rwr
   
 Time(rwr)  user:        0.7  user+sys:        0.7  wallclock:        1.4
  
  start of program scf
  
 number of electrons..........         36
 number of alpha electrons....         18
 number of beta electrons.....         18
 number of orbitals, total....         77
 number of doubly-occ'd orbs..         18
 number of open shell orbs....          0
 number of occupied orbitals..         18
 number of virtual orbitals...         59
 number of hamiltonians.......          1
 number of shells.............          1
 SCF type: DFT=Becke_3_Parameter/HF+Slater+Becke88+VWN+LYP (B3LYP)
  
       i  u  d  i  g                   
       t  p  i  c  r                                 RMS    maximum
       e  d  i  u  i                       energy  density   DIIS  
       r  t  s  t  d       total energy    change  change    error 
  
etot    1  N  N  5  M    -230.45064920475           3.0E-03  1.5E-02
etot    2  Y  Y  6  M    -230.45211469063  1.5E-03  8.2E-04  2.5E-02
etot    3  N  Y  2  U    -230.45740009000  5.3E-03  3.9E-04  5.3E-03
etot    4  Y  Y  6  M    -230.45767004977  2.7E-04  1.0E-04  2.3E-03
etot    5  Y  Y  6  M    -230.45770616738  3.6E-05  6.2E-05  1.1E-03
[...]
  Peak memory usage:    534 Mb
  
  end of program raman
   
 Time(raman)  user:        0.1  user+sys:        0.1  wallclock:        0.1
  
  start of program rwr
  
  Peak memory usage:    574 Mb
  
  end of program rwr
   
 Time(rwr)  user:        0.7  user+sys:        0.7  wallclock:        0.9
  
  start of program scf
  
 number of electrons..........         36
 number of alpha electrons....         18
 number of beta electrons.....         18
 number of orbitals, total....         77
 number of doubly-occ'd orbs..         18
 number of open shell orbs....          0
 number of occupied orbitals..         18
 number of virtual orbitals...         59
 number of hamiltonians.......          1
 number of shells.............          1
 SCF type: DFT=Becke_3_Parameter/HF+Slater+Becke88+VWN+LYP (B3LYP)
  
       i  u  d  i  g                   
       t  p  i  c  r                                 RMS    maximum
       e  d  i  u  i                       energy  density   DIIS  
       r  t  s  t  d       total energy    change  change    error 
  
etot    1  N  N  5  M    -230.44788914729           2.8E-03  1.2E-02
etot    2  Y  Y  6  M    -230.44761030591 -2.8E-04  9.5E-04  2.5E-02
etot    3  N  Y  2  U    -230.45245264261  4.8E-03  3.1E-04  6.7E-03
etot    4  Y  Y  6  M    -230.45281376675  3.6E-04  8.4E-05  1.7E-03
etot    5  Y  Y  6  M    -230.45282593838  1.2E-05  5.7E-05  1.0E-03
etot    6  N  Y  2  U    -230.45282225201 -3.7E-06  8.5E-06  8.9E-05
etot    7  N  Y  2  U    -230.45282234525  9.3E-08  2.7E-06  8.2E-05
etot    8  N  N  2  U    -230.45282240226  5.7E-08  0.0E+00  0.0E+00
  
  
 Energy components, in hartrees:
   (A)  Nuclear repulsion............     153.26030490990
   (E)  Total one-electron terms.....    -616.59513203558
   (F)    Electron-nuclear...........    -847.07983092393
   (H)    Kinetic....................     228.92332893022
   (I)  Total two-electron terms.....     232.88200472342
   (J)    Coulomb....................     264.54103010654
   (K)    Exchange+Correlation.......     -31.65902538312
   (L)  Electronic energy............    -383.71312731216  (E+I)
   (M)  -V/T.........................       2.01350174071  (-(A+F+I)/H)
   (N)  Total energy.................    -230.45282240226  (A+L)
  
 SCFE: SCF energy: DFT(b3lyp)      -230.45282240226 hartrees   iterations:   8
  
 
 HOMO energy:    -0.20712
 LUMO energy:     0.02556
 
  Orbital energies (hartrees): 
   -19.15750   -10.19611   -10.19211   -10.14303   -10.13891    -1.02341
    -0.77583    -0.70083    -0.54031    -0.53121    -0.48897    -0.39674
    -0.38786    -0.37184    -0.35379    -0.34534    -0.25314    -0.20712
     0.02556     0.09395     0.10710     0.10900     0.12513     0.15970
     0.17500     0.19148     0.33007     0.34574
 
  Peak memory usage:    790 Mb
  
  end of program scf
   
 Time(scf)  user:        3.3  user+sys:        3.3  wallclock:        3.9
  
  start of program der1a
  
  Peak memory usage:    709 Mb
  
  end of program der1a
   
 Time(der1a)  user:        0.2  user+sys:        0.2  wallclock:        0.2
  
  start of program rwr
  
  Peak memory usage:    574 Mb
  
  end of program rwr
   
 Time(rwr)  user:        0.6  user+sys:        0.6  wallclock:        0.8
  
  start of program der1b
  
   
  forces (hartrees/bohr) : total     
   
 atom  label           x              y              z
 ---- --------   -------------  -------------  -------------
    1 C1         -2.778521E-02   1.775664E-02  -1.351276E-03
    2 C2          1.483443E-02  -2.047976E-02  -1.493546E-03
    3 C3         -4.419157E-03  -2.487415E-02  -1.523356E-03
    4 C4          1.599428E-02   2.920444E-02  -1.609992E-03
    5 O5          1.521639E-02  -5.952480E-02  -4.154559E-03
    6 H6          2.123182E-02   1.655801E-02   2.780391E-03
    7 H7          7.611044E-03   2.083959E-02   2.319173E-03
    8 H8         -1.640578E-02   1.499900E-02   2.277770E-03
    9 H9         -2.626580E-02   5.475160E-03   2.763017E-03
 -------------   -------------  -------------  -------------
     total        1.201591E-05  -4.585677E-05   7.621253E-06
   
  Peak memory usage:    789 Mb
  
  end of program der1b
   
 Time(der1b)  user:        1.5  user+sys:        1.5  wallclock:        1.5
  
  start of program raman
  
  calculation with applied electric field of
     Ex= 0.00000 Ey= 0.01200 Ez=-0.01200 follows...
  nuclear repulsion energy.......     154.843260697 hartrees
  nuclear electric field energy..       1.582955787 hartrees
  Peak memory usage:    534 Mb
  
  end of program raman
   
 Time(raman)  user:        0.1  user+sys:        0.1  wallclock:        0.1
  
  start of program rwr
  
  Peak memory usage:    574 Mb
  
  end of program rwr
   
 Time(rwr)  user:        0.7  user+sys:        0.7  wallclock:        1.4
  
  start of program scf
  
 number of electrons..........         36
 number of alpha electrons....         18
 number of beta electrons.....         18
 number of orbitals, total....         77
 number of doubly-occ'd orbs..         18
 number of open shell orbs....          0
 number of occupied orbitals..         18
 number of virtual orbitals...         59
 number of hamiltonians.......          1
 number of shells.............          1
 SCF type: DFT=Becke_3_Parameter/HF+Slater+Becke88+VWN+LYP (B3LYP)
  
       i  u  d  i  g                   
       t  p  i  c  r                                 RMS    maximum
       e  d  i  u  i                       energy  density   DIIS  
       r  t  s  t  d       total energy    change  change    error 
  
etot    1  N  N  5  M    -230.42440583262           2.9E-03  1.2E-02
etot    2  Y  Y  6  M    -230.42397192142 -4.3E-04  9.9E-04  2.7E-02
etot    3  N  Y  2  U    -230.42898702678  5.0E-03  3.3E-04  7.3E-03
etot    4  Y  Y  6  M    -230.42933347308  3.5E-04  1.1E-04  2.2E-03
etot    5  Y  Y  6  M    -230.42936845445  3.5E-05  7.6E-05  9.4E-04
etot    6  N  Y  2  U    -230.42937876666  1.0E-05  1.3E-05  1.1E-04
etot    7  N  Y  2  U    -230.42937899461  2.3E-07  3.4E-06  5.7E-05
etot    8  N  N  2  U    -230.42937905246  5.8E-08  0.0E+00  0.0E+00
  
  
 Energy components, in hartrees:
   (A)  Nuclear repulsion............     156.42621648320
   (E)  Total one-electron terms.....    -619.45449127811
   (F)    Electron-nuclear...........    -846.76811208886
   (H)    Kinetic....................     228.89480182976
   (I)  Total two-electron terms.....     232.59889574244
   (J)    Coulomb....................     264.24341396064
   (K)    Exchange+Correlation.......     -31.64451821819
   (L)  Electronic energy............    -386.85559553567  (E+I)
   (M)  -V/T.........................       1.99979639644  (-(A+F+I)/H)
   (N)  Total energy.................    -230.42937905246  (A+L)
  
 SCFE: SCF energy: DFT(b3lyp)      -230.42937905246 hartrees   iterations:   8
  
 
 HOMO energy:    -0.30238
 LUMO energy:    -0.06795
 
  Orbital energies (hartrees): 
   -19.24455   -10.29050   -10.28662   -10.24716   -10.24317    -1.10837
    -0.87561    -0.79662    -0.63831    -0.62588    -0.59030    -0.48884
    -0.47801    -0.47331    -0.44727    -0.43415    -0.34945    -0.30238
    -0.06795    -0.02171     0.00402     0.01387     0.02107     0.05115
     0.06984     0.08302     0.20869     0.24155
 
  Peak memory usage:    790 Mb
  
  end of program scf
   
 Time(scf)  user:        3.3  user+sys:        3.3  wallclock:        3.9
  
  start of program der1a
  
  Peak memory usage:    709 Mb
  
  end of program der1a
   
 Time(der1a)  user:        0.2  user+sys:        0.2  wallclock:        0.2
  
  start of program rwr
  
  Peak memory usage:    574 Mb
  
  end of program rwr
   
 Time(rwr)  user:        0.6  user+sys:        0.6  wallclock:        0.8
  
  start of program der1b
  
   
  forces (hartrees/bohr) : total     
   
 atom  label           x              y              z
 ---- --------   -------------  -------------  -------------
    1 C1         -2.753934E-02   2.768775E-02   7.015978E-04
    2 C2          1.795338E-02  -2.165806E-02   2.550624E-03
    3 C3         -6.246502E-03  -2.786076E-02   2.544142E-03
    4 C4          1.339143E-02   3.644137E-02   4.494371E-04
    5 O5          1.699966E-02  -7.783262E-02   3.307643E-03
    6 H6          2.186096E-02   1.848283E-02  -2.696879E-03
    7 H7          6.066263E-03   2.088734E-02  -2.046656E-03
    8 H8         -1.484832E-02   1.666019E-02  -2.104197E-03
    9 H9         -2.762691E-02   7.162622E-03  -2.712697E-03
 -------------   -------------  -------------  -------------
     total        1.060620E-05  -2.933160E-05  -6.986251E-06
   
  Peak memory usage:    789 Mb
  
  end of program der1b
   
 Time(der1b)  user:        1.5  user+sys:        1.5  wallclock:        1.5
  
  start of program raman
  
   gradient of polarizability calculations complete...
  Peak memory usage:    534 Mb
  
  end of program raman
   
 Time(raman)  user:        0.1  user+sys:        0.1  wallclock:        0.1
  
  start of program freq
  
   
  harmonic frequencies in cm**-1, reduced masses in amu,
  force constants in mDyne/A, and
  normal modes in cartesian coordinates:
  IR intensities in km/mol
  Raman intensities in Angstrom^4
  
  frequencies       588.52   605.99   708.73   734.64   841.44   861.24
  intensities        13.84     0.00    15.32    66.04     0.00     0.03
  reduc. mass         2.93     2.19     5.03     6.12     0.53     2.79
  force const         0.60     0.47     1.49     1.94     0.22     1.22
  Raman Int.          4.38     0.15    86.90    15.71     8.89    11.20
    C1       X    -0.00018  0.00011  0.06534 -0.06152  0.00008 -0.15618
    C1       Y     0.00015 -0.00009  0.09973 -0.08377 -0.00002 -0.04051
    C1       Z    -0.13729  0.09581 -0.00000  0.00002  0.09550  0.00037
    C2       X     0.00007 -0.00020  0.01644  0.00865  0.00011 -0.02484
    C2       Y    -0.00004  0.00015  0.06541 -0.03976  0.00010  0.06769
    C2       Z     0.06131 -0.15279  0.00002 -0.00002  0.02935  0.00022
    C3       X     0.00008  0.00019  0.04372  0.00979  0.00005 -0.00767
    C3       Y    -0.00004 -0.00014 -0.05142 -0.03938 -0.00006  0.07165
    C3       Z     0.06141  0.15276 -0.00010 -0.00004 -0.02931  0.00016
    C4       X    -0.00018 -0.00012  0.10304  0.09201 -0.00024  0.15786
    C4       Y     0.00014  0.00008 -0.06055 -0.04770  0.00001  0.03290
    C4       Z    -0.13739 -0.09573 -0.00018 -0.00017 -0.09532  0.00000
    O5       X     0.00019  0.00000 -0.17491 -0.04375 -0.00000  0.02207
    O5       Y    -0.00018  0.00000 -0.04066  0.18818 -0.00001 -0.09425
    O5       Z     0.14146 -0.00005  0.00019  0.00025 -0.00006 -0.00022
    H6       X    -0.00033  0.00023  0.05751 -0.08035 -0.00079 -0.16740
    H6       Y     0.00022 -0.00012  0.00791 -0.19940  0.00032 -0.04206
    H6       Z    -0.25758  0.18772  0.00009 -0.00045 -0.58225 -0.00131
    H7       X     0.00003 -0.00022 -0.05403  0.04559 -0.00012  0.14257
    H7       Y    -0.00002  0.00021  0.10014 -0.06131  0.00030 -0.00203
    H7       Z     0.03966 -0.27172  0.00027 -0.00030 -0.19799 -0.00158
    H8       X     0.00006  0.00039 -0.00417 -0.01369  0.00038 -0.12686
    H8       Y    -0.00002 -0.00022 -0.11396 -0.07494 -0.00023 -0.06508
    H8       Z     0.03988  0.27168 -0.00009 -0.00015  0.19720 -0.00113
    H9       X    -0.00031 -0.00022  0.05549  0.16019  0.00051  0.16854
    H9       Y     0.00026  0.00017  0.01806 -0.14311 -0.00053  0.03655
    H9       Z    -0.25749 -0.18742 -0.00012 -0.00055  0.58127 -0.00146
  
  frequencies       879.87   884.55  1007.57  1013.24  1022.19  1182.82
  intensities         1.15   159.93     0.11     0.00     2.21     0.01
  reduc. mass         2.41     0.26     0.29     0.48     2.35     0.24
  force const         1.10     0.12     0.17     0.29     1.45     0.20
  Raman Int.         18.31     0.99    14.40     1.62   215.92   151.61
    C1       X     0.11943 -0.00070 -0.00020 -0.00005  0.03989  0.02190
    C1       Y    -0.01481 -0.00011 -0.00005 -0.00008 -0.00457 -0.01977
    C1       Z    -0.00014 -0.06347  0.05288  0.02951  0.00030 -0.00008
    C2       X    -0.07198 -0.00012 -0.00105 -0.00037  0.14390  0.01173
    C2       Y    -0.12976  0.00027 -0.00038 -0.00001  0.07143  0.05662
    C2       Z    -0.00004 -0.03369 -0.07150 -0.08985 -0.00080  0.00011
    C3       X    -0.12209  0.00013  0.00094  0.00045 -0.16064 -0.03601
    C3       Y     0.08444  0.00016  0.00011 -0.00008  0.00024  0.04426
    C3       Z     0.00021 -0.03376 -0.07086  0.09033 -0.00011  0.00012
    C4       X     0.10062  0.00036  0.00033  0.00003 -0.03377 -0.00956
    C4       Y     0.06621  0.00010  0.00012  0.00011 -0.02178 -0.02406
    C4       Z    -0.00021 -0.06365  0.05268 -0.02986  0.00029 -0.00002
    O5       X    -0.02855  0.00012  0.00004  0.00002  0.00054  0.00686
    O5       Y    -0.00668 -0.00022 -0.00005 -0.00000 -0.00219 -0.02635
    O5       Z     0.00005  0.02997  0.01505 -0.00006  0.00012 -0.00006
    H6       X     0.13767 -0.00005 -0.00073 -0.00035  0.03177 -0.02623
    H6       Y     0.11336 -0.00063  0.00103  0.00007 -0.15877 -0.48641
    H6       Z    -0.00014  0.50243 -0.39570 -0.19575 -0.00283 -0.00008
    H7       X    -0.05567  0.00058 -0.00242 -0.00063  0.37846 -0.41205
    H7       Y    -0.13964 -0.00023 -0.00015 -0.00022 -0.01160  0.24447
    H7       Z     0.00014  0.41732  0.49669  0.59000  0.00438  0.00010
    H8       X    -0.11194  0.00053  0.00296 -0.00034 -0.33412  0.24398
    H8       Y     0.10041 -0.00049  0.00093  0.00064 -0.17820  0.38114
    H8       Z     0.00060  0.41764  0.49266 -0.59343  0.00266 -0.00017
    H9       X     0.17377  0.00103 -0.00063  0.00011  0.04174  0.22743
    H9       Y    -0.04060 -0.00035  0.00132  0.00025 -0.15625 -0.40025
    H9       Z     0.00073  0.50364 -0.39446  0.19843 -0.00222 -0.00056
  
  frequencies      1183.43  1319.89  1408.10  1562.09  1658.42  3000.09
  intensities         8.94     6.88    10.47    17.35     0.99     2.72
  reduc. mass         0.25     0.31     0.68     2.43     2.30     0.24
  force const         0.21     0.32     0.79     3.49     3.72     1.28
  Raman Int.        238.95     0.30   881.62    28.13   139.44   107.15
    C1       X     0.04585 -0.00898 -0.03728  0.07310 -0.05728 -0.03592
    C1       Y    -0.04287 -0.07673 -0.05642 -0.12420  0.10479  0.00470
    C1       Z    -0.00013 -0.00004  0.00000 -0.00021  0.00018  0.00005
    C2       X    -0.01610  0.05482  0.11001 -0.08193  0.08640  0.01670
    C2       Y     0.01562  0.00889  0.00962  0.09903 -0.11797  0.04205
    C2       Z     0.00011 -0.00003 -0.00011  0.00020 -0.00022  0.00002
    C3       X    -0.00540  0.05302 -0.10288  0.02949  0.02520  0.03367
    C3       Y    -0.02371  0.01639 -0.04017  0.12485  0.14424 -0.03030
    C3       Z    -0.00005 -0.00007  0.00010  0.00007  0.00010 -0.00007
    C4       X     0.02265 -0.04205  0.05842 -0.01045 -0.00491 -0.03064
    C4       Y     0.06023  0.06472 -0.03405 -0.14357 -0.11956 -0.02050
    C4       Z     0.00003  0.00010 -0.00011 -0.00012 -0.00011  0.00002
    O5       X     0.02309 -0.02400 -0.00255 -0.00359  0.00618  0.00013
    O5       Y     0.00619 -0.00561  0.01097  0.01532  0.00145  0.00003
    O5       Z    -0.00003  0.00002  0.00001  0.00002 -0.00001 -0.00000
    H6       X     0.00572  0.05606  0.01217  0.13520 -0.10979  0.42219
    H6       Y    -0.45004  0.46173  0.40502  0.14608 -0.06189 -0.04653
    H6       Z    -0.00013  0.00029  0.00030 -0.00008  0.00011 -0.00056
    H7       X    -0.41779 -0.36369 -0.30556  0.09126 -0.23339 -0.20082
    H7       Y     0.18660  0.18722  0.19439  0.05403 -0.01689 -0.48125
    H7       Z     0.00002  0.00035  0.00039 -0.00001  0.00018 -0.00021
    H8       X    -0.30620 -0.24291  0.18776 -0.10531 -0.21682 -0.39420
    H8       Y    -0.37490 -0.32877  0.30972  0.00825 -0.08825  0.34306
    H8       Z     0.00041  0.00015 -0.00003  0.00018  0.00026  0.00083
    H9       X    -0.20771  0.25491 -0.19052 -0.18582 -0.12618  0.36352
    H9       Y     0.42957 -0.38921  0.35785  0.07115  0.00698  0.23249
    H9       Z     0.00061 -0.00070  0.00056  0.00029  0.00014 -0.00022
  
  frequencies      3008.04  3027.02  3040.37
  intensities         0.03     0.27     0.97
  reduc. mass         0.23     0.24     0.24
  force const         1.24     1.31     1.29
  Raman Int.         12.93     1.98  2634.49
    C1       X    -0.04263  0.04838 -0.04697
    C1       Y     0.00404 -0.01221  0.01075
    C1       Z     0.00006 -0.00007  0.00007
    C2       X     0.01772  0.00922 -0.01560
    C2       Y     0.03785  0.04033 -0.04522
    C2       Z     0.00001  0.00003 -0.00002
    C3       X    -0.03201  0.02687  0.03401
    C3       Y     0.02537 -0.03270 -0.03354
    C3       Z     0.00007 -0.00006 -0.00007
    C4       X     0.03669  0.03774  0.03685
    C4       Y     0.02280  0.03232  0.03007
    C4       Z    -0.00002 -0.00002 -0.00002
    O5       X     0.00024 -0.00218 -0.00013
    O5       Y    -0.00110 -0.00050  0.00060
    O5       Z    -0.00000  0.00000  0.00000
    H6       X     0.47693 -0.51481  0.46331
    H6       Y    -0.05367  0.06107 -0.05707
    H6       Z    -0.00064  0.00069 -0.00062
    H7       X    -0.18736 -0.15514  0.18345
    H7       Y    -0.43746 -0.38735  0.43964
    H7       Z    -0.00018 -0.00018  0.00019
    H8       X     0.35420 -0.31865 -0.35913
    H8       Y    -0.30228  0.28521  0.31253
    H8       Z    -0.00074  0.00068  0.00076
    H9       X    -0.40678 -0.43188 -0.38443
    H9       Y    -0.26149 -0.28131 -0.25286
    H9       Z     0.00025  0.00026  0.00023
  
  Number of imaginary frequencies:   0
   
  Writing vibrational animation data to fuarn_raman_4.vib
  Writing vibrational spectrum data to fuarn_raman_4_vib.spm
  
  Thermochemical properties at    1.0000 atm
  
  rotational symmetry number:  1

  rotational temperatures (K):      0.420869      0.411773      0.208136
   
  vibrational temperatures:
       mode:      1        2        3        4        5        6
  temp. (K):   846.75   871.89  1019.70  1056.99  1210.65  1239.13
   
       mode:      7        8        9       10       11       12
  temp. (K):  1265.93  1272.66  1449.66  1457.82  1470.70  1701.81
   
       mode:     13       14       15       16       17       18
  temp. (K):  1702.69  1899.03  2025.95  2247.50  2386.09  4316.45
   
       mode:     19       20       21
  temp. (K):  4327.90  4355.20  4374.41
   
   
  Thermodynamic properties calculated assuming an ideal gas

  In the table below, the units for temperature
  are kelvins, the units for U, H, and G are
  kcal/mol and the units for Cv and S are cal/(mol K)

  The zero point energy (ZPE):     42.227 kcal/mol
  is not included in U, H, or G in the table below


  T =   298.15 K
   
              U         Cv          S          H          G        ln(Q)
          ---------  ---------  ---------  ---------  ---------  ---------
  trans.      0.889      2.981     38.570      1.481    -10.018   16.90896
    rot.      0.889      2.981     24.403      0.889     -6.387   10.77990
    vib.      0.591      7.705      2.523      0.591     -0.161    0.27255
   elec.      0.000      0.000      0.000      0.000      0.000    0.00000
   total      2.368     13.666     65.495      2.961    -16.567   27.96141
   
  Total internal energy, Utot (SCFE + ZPE + U):    -230.358312 hartrees
              Total enthalpy, Htot (Utot + pV):    -230.357368 hartrees
    Total Gibbs free energy, Gtot (Htot - T*S):    -230.388487 hartrees
   
  Peak memory usage:    565 Mb
  
  end of program freq
   
 Time(freq)  user:        0.1  user+sys:        0.1  wallclock:        0.1
  
  start of program post
  
  Writing input files for PBF
  Peak memory usage:    571 Mb
  
  end of program post
   
 Time(post)  user:        0.1  user+sys:        0.1  wallclock:        0.2

 Total cpu seconds     user:     141.079   user+sys:     141.079
  
 Total elapsed time:    411 seconds

Job fuarn_raman_4 completed on node028 at Wed Feb 25 14:43:56 2015
