Job fuarn_raman_4 started on node028 at Wed Feb 25 14:37:05 2015
jobid: volta-0-54ee245e 
Jaguar version 8.5, release  13
Molecular Point Group: C1      
Point Group used: C1 (symmetry turned off)
pre (input checking) done.
onee (1-electron integrals) done.
hfig (HF initial guess) done.
probe (project orbitals) done.
grid (grid generation) done.
rwr (Q operators) done.
scf type: DFT=Becke_3_Parameter/HF+Slater+Becke88+VWN+LYP (B3LYP)
  
       i  u  d  i  g
       t  p  i  c  r                                 RMS    maximum
       e  d  i  u  i                       energy  density   DIIS  
       r  t  s  t  d       total energy    change  change    error 
  
etot    1  N  N  5  M    -229.42104308752           7.5E-03  1.7E-01
etot    2  Y  Y  6  M    -229.86879657643  4.5E-01  6.3E-03  1.3E-01
etot    3  Y  Y  6  M    -229.79792453180 -7.1E-02  4.2E-03  1.9E-01
etot    4  N  Y  2  U    -229.97731642182  1.8E-01  2.0E-03  2.7E-02
etot    5  Y  Y  6  M    -229.98654384606  9.2E-03  7.2E-04  1.0E-02
etot    6  N  Y  2  U    -229.98726725509  7.2E-04  2.6E-04  5.6E-03
etot    7  Y  Y  6  M    -229.98746509999  2.0E-04  4.2E-05  7.8E-04
etot    8  N  Y  2  U    -229.98748283550  1.8E-05  7.7E-06  1.5E-04
etot    9  N  Y  2  U    -229.98748298582  1.5E-07  2.6E-07  1.2E-05
etot   10  N  N  2  U    -229.98748298615  3.3E-10  0.0E+00  0.0E+00
scf (DFT) done.
--------gas phase calculation complete----------------------
ch (properties) done.
post (output conversion) done.
pbf (Poisson-Boltzmann solver) done.
solv (solvation checking) done.
  
       i  u  d  i  g
       t  p  i  c  r                                 RMS    maximum
       e  d  i  u  i                       energy  density   DIIS  
       r  t  s  t  d       total energy    change  change    error 
  
etot    1  N  N  2  U    -230.00197731888           1.0E-03  7.2E-03
etot    2  Y  Y  6  M    -230.00292706642  9.5E-04  3.6E-04  1.3E-02
etot    3  Y  Y  6  M    -230.00385113114  9.2E-04  9.8E-05  2.6E-03
etot    4  Y  Y  6  M    -230.00391394255  6.3E-05  3.5E-05  6.8E-04
etot    5  N  Y  2  U    -230.00315981526 -7.5E-04  9.8E-06  2.6E-04
etot    6  N  Y  2  U    -230.00316029620  4.8E-07  1.7E-06  4.3E-05
etot    7  N  N  2  U    -230.00316030776  1.2E-08  0.0E+00  0.0E+00
scf (DFT) done.
sole (solvation energy) done.
----------solvation iteration  1 complete------------------
ch (properties) done.
post (output conversion) done.
pbf (Poisson-Boltzmann solver) done.
solv (solvation checking) done.
  
       i  u  d  i  g
       t  p  i  c  r                                 RMS    maximum
       e  d  i  u  i                       energy  density   DIIS  
       r  t  s  t  d       total energy    change  change    error 
  
etot    1  N  N  2  U    -230.00619791265           2.7E-04  1.9E-03
etot    2  Y  Y  6  M    -230.00694287430  7.4E-04  9.8E-05  3.7E-03
etot    3  Y  Y  6  M    -230.00702424631  8.1E-05  2.5E-05  2.8E-04
etot    4  N  Y  2  U    -230.00625680640 -7.7E-04  6.5E-06  1.5E-04
etot    5  N  Y  2  U    -230.00625698351  1.8E-07  2.4E-06  9.7E-05
etot    6  N  N  2  U    -230.00625703240  4.9E-08  0.0E+00  0.0E+00
scf (DFT) done.
sole (solvation energy) done.
----------solvation iteration  2 complete------------------
ch (properties) done.
post (output conversion) done.
pbf (Poisson-Boltzmann solver) done.
solv (solvation checking) done.
  
       i  u  d  i  g
       t  p  i  c  r                                 RMS    maximum
       e  d  i  u  i                       energy  density   DIIS  
       r  t  s  t  d       total energy    change  change    error 
  
etot    1  N  N  2  U    -230.00692158577           8.3E-05  5.3E-04
etot    2  Y  Y  6  M    -230.00768748216  7.7E-04  3.2E-05  1.1E-03
etot    3  N  Y  2  U    -230.00692587070 -7.6E-04  7.9E-06  8.1E-05
etot    4  N  Y  2  U    -230.00692595132  8.1E-08  1.8E-06  6.4E-05
etot    5  N  N  2  U    -230.00692597424  2.3E-08  0.0E+00  0.0E+00
scf (DFT) done.
sole (solvation energy) done.
----------solvation iteration  3 complete------------------
ch (properties) done.
post (output conversion) done.
pbf (Poisson-Boltzmann solver) done.
solv (solvation checking) done.
  
       i  u  d  i  g
       t  p  i  c  r                                 RMS    maximum
       e  d  i  u  i                       energy  density   DIIS  
       r  t  s  t  d       total energy    change  change    error 
  
etot    1  N  N  2  U    -230.00708711757           2.5E-05  1.6E-04
etot    2  N  Y  2  U    -230.00708676374 -3.5E-07  9.0E-06  3.5E-04
etot    3  N  Y  2  U    -230.00708749191  7.3E-07  2.4E-06  2.2E-05
etot    4  N  N  2  U    -230.00708750228  1.0E-08  0.0E+00  0.0E+00
scf (DFT) done.
sole (solvation energy) done.
----final solvation iteration  4 complete------------------
cutabab2 (abab integrals) done.
der2a (1-e JK-1st deriv.) done.
der2b (2-e JK-1st deriv.) done.
der2nda (1-e 2nd deriv.) done.
der2ndb (2-e 2nd deriv.) done.
rwr (Q operators) done.
cphfa (gradient of wave function) done.
rwr (Q operators) done.
scf type: DFT=Becke_3_Parameter/HF+Slater+Becke88+VWN+LYP (B3LYP)
  
       i  u  d  i  g
       t  p  i  c  r                                 RMS    maximum
       e  d  i  u  i                       energy  density   DIIS  
       r  t  s  t  d       total energy    change  change    error 
  
etot    1  N  N  5  M    -230.00708276605           1.7E-04  9.3E-04
etot    2  Y  Y  6  M    -230.00707822419 -4.5E-06  4.1E-06  4.0E-05
etot    3  N  N  2  U    -230.00708401995  5.8E-06  0.0E+00  0.0E+00
scf (DFT) done.
der1a (1-e 1st deriv.) done.
rwr (1st deriv. Q) done.
der1b (2-e 1st deriv.) done.
----------------------------------------------------------------
  calculation with applied electric field    1 of  18 follows...
raman (gradient of polarizabilities) done.
rwr (Q operators) done.
scf type: DFT=Becke_3_Parameter/HF+Slater+Becke88+VWN+LYP (B3LYP)
  
       i  u  d  i  g
       t  p  i  c  r                                 RMS    maximum
       e  d  i  u  i                       energy  density   DIIS  
       r  t  s  t  d       total energy    change  change    error 
  
etot    1  N  N  5  M    -230.44163254998           3.8E-03  2.2E-02
etot    2  Y  Y  6  M    -230.45110065494  9.5E-03  1.1E-03  2.4E-02
etot    3  N  Y  2  U    -230.45523888006  4.1E-03  4.2E-04  1.1E-02
etot    4  Y  Y  6  M    -230.45629998381  1.1E-03  1.8E-04  2.1E-03
etot    5  Y  Y  6  M    -230.45632514781  2.5E-05  1.1E-04  1.7E-03
etot    6  N  Y  2  U    -230.45633429183  9.1E-06  2.3E-05  5.6E-04
etot    7  N  Y  2  U    -230.45633729313  3.0E-06  6.3E-06  1.2E-04
etot    8  N  Y  2  U    -230.45633741628  1.2E-07  8.8E-07  2.0E-05
etot    9  N  N  2  U    -230.45633742046  4.2E-09  0.0E+00  0.0E+00
scf (DFT) done.
der1a (1-e 1st deriv.) done.
rwr (1st deriv. Q) done.
der1b (2-e 1st deriv.) done.
----------------------------------------------------------------
  calculation with applied electric field    2 of  18 follows...
raman (gradient of polarizabilities) done.
rwr (Q operators) done.
scf type: DFT=Becke_3_Parameter/HF+Slater+Becke88+VWN+LYP (B3LYP)
  
       i  u  d  i  g
       t  p  i  c  r                                 RMS    maximum
       e  d  i  u  i                       energy  density   DIIS  
       r  t  s  t  d       total energy    change  change    error 
  
etot    1  N  N  5  M    -230.43066242993           4.5E-03  2.2E-02
etot    2  Y  Y  6  M    -230.43540954321  4.7E-03  1.5E-03  3.1E-02
etot    3  N  Y  2  U    -230.44422866001  8.8E-03  4.5E-04  9.4E-03
etot    4  Y  Y  6  M    -230.44525344036  1.0E-03  1.9E-04  3.8E-03
etot    5  Y  Y  6  M    -230.44534206359  8.9E-05  1.3E-04  1.7E-03
etot    6  N  Y  2  U    -230.44536193947  2.0E-05  2.6E-05  5.5E-04
etot    7  N  Y  2  U    -230.44536494399  3.0E-06  5.8E-06  1.2E-04
etot    8  N  Y  2  U    -230.44536505276  1.1E-07  1.7E-06  4.6E-05
etot    9  N  N  2  U    -230.44536507498  2.2E-08  0.0E+00  0.0E+00
scf (DFT) done.
der1a (1-e 1st deriv.) done.
rwr (1st deriv. Q) done.
der1b (2-e 1st deriv.) done.
----------------------------------------------------------------
  calculation with applied electric field    3 of  18 follows...
raman (gradient of polarizabilities) done.
rwr (Q operators) done.
scf type: DFT=Becke_3_Parameter/HF+Slater+Becke88+VWN+LYP (B3LYP)
  
       i  u  d  i  g
       t  p  i  c  r                                 RMS    maximum
       e  d  i  u  i                       energy  density   DIIS  
       r  t  s  t  d       total energy    change  change    error 
  
etot    1  N  N  5  M    -230.41262912041           5.2E-03  2.4E-02
etot    2  Y  Y  6  M    -230.40520474702 -7.4E-03  1.8E-03  5.7E-02
etot    3  N  Y  2  U    -230.42620338765  2.1E-02  6.5E-04  8.2E-03
etot    4  Y  Y  6  M    -230.42659217988  3.9E-04  1.8E-04  5.3E-03
etot    5  Y  Y  6  M    -230.42677488411  1.8E-04  8.8E-05  1.4E-03
etot    6  N  Y  2  U    -230.42679212656  1.7E-05  1.7E-05  2.4E-04
etot    7  N  Y  2  U    -230.42679319780  1.1E-06  5.2E-06  5.6E-05
etot    8  N  Y  2  U    -230.42679321979  2.2E-08  1.1E-06  3.6E-05
etot    9  N  N  2  U    -230.42679323184  1.2E-08  0.0E+00  0.0E+00
scf (DFT) done.
der1a (1-e 1st deriv.) done.
rwr (1st deriv. Q) done.
der1b (2-e 1st deriv.) done.
----------------------------------------------------------------
  calculation with applied electric field    4 of  18 follows...
raman (gradient of polarizabilities) done.
rwr (Q operators) done.
scf type: DFT=Becke_3_Parameter/HF+Slater+Becke88+VWN+LYP (B3LYP)
  
       i  u  d  i  g
       t  p  i  c  r                                 RMS    maximum
       e  d  i  u  i                       energy  density   DIIS  
       r  t  s  t  d       total energy    change  change    error 
  
etot    1  N  N  5  M    -230.45966585951           4.1E-03  2.4E-02
etot    2  Y  Y  6  M    -230.46182781044  2.2E-03  1.1E-03  3.7E-02
etot    3  N  Y  2  U    -230.47312502454  1.1E-02  5.8E-04  5.0E-03
etot    4  Y  Y  6  M    -230.47349677957  3.7E-04  1.2E-04  2.7E-03
etot    5  Y  Y  6  M    -230.47353318726  3.6E-05  6.7E-05  1.7E-03
etot    6  N  Y  2  U    -230.47353990333  6.7E-06  1.1E-05  1.8E-04
etot    7  N  Y  2  U    -230.47354018245  2.8E-07  4.5E-06  1.0E-04
etot    8  N  N  2  U    -230.47354025037  6.8E-08  0.0E+00  0.0E+00
scf (DFT) done.
der1a (1-e 1st deriv.) done.
rwr (1st deriv. Q) done.
der1b (2-e 1st deriv.) done.
----------------------------------------------------------------
  calculation with applied electric field    5 of  18 follows...
raman (gradient of polarizabilities) done.
rwr (Q operators) done.
scf type: DFT=Becke_3_Parameter/HF+Slater+Becke88+VWN+LYP (B3LYP)
  
       i  u  d  i  g
       t  p  i  c  r                                 RMS    maximum
       e  d  i  u  i                       energy  density   DIIS  
       r  t  s  t  d       total energy    change  change    error 
  
etot    1  N  N  5  M    -230.43611243508           2.9E-03  1.4E-02
etot    2  Y  Y  6  M    -230.44127752858  5.2E-03  6.1E-04  6.2E-03
etot    3  N  Y  2  U    -230.44191122862  6.3E-04  2.9E-04  1.3E-03
etot    4  Y  Y  6  M    -230.44192582489  1.5E-05  6.5E-05  4.0E-04
etot    5  Y  Y  6  M    -230.44192694039  1.1E-06  1.8E-05  5.5E-04
etot    6  N  Y  2  U    -230.44192232951 -4.6E-06  7.4E-06  1.8E-04
etot    7  N  Y  2  U    -230.44192254633  2.2E-07  2.5E-06  3.6E-05
etot    8  N  N  2  U    -230.44192255538  9.0E-09  0.0E+00  0.0E+00
scf (DFT) done.
der1a (1-e 1st deriv.) done.
rwr (1st deriv. Q) done.
der1b (2-e 1st deriv.) done.
----------------------------------------------------------------
  calculation with applied electric field    6 of  18 follows...
raman (gradient of polarizabilities) done.
rwr (Q operators) done.
scf type: DFT=Becke_3_Parameter/HF+Slater+Becke88+VWN+LYP (B3LYP)
  
       i  u  d  i  g
       t  p  i  c  r                                 RMS    maximum
       e  d  i  u  i                       energy  density   DIIS  
       r  t  s  t  d       total energy    change  change    error 
  
etot    1  N  N  5  M    -230.43618254483           2.9E-03  1.4E-02
etot    2  Y  Y  6  M    -230.44134747738  5.2E-03  6.1E-04  6.2E-03
etot    3  N  Y  2  U    -230.44198084814  6.3E-04  2.9E-04  1.2E-03
etot    4  Y  Y  6  M    -230.44199613896  1.5E-05  6.3E-05  3.3E-04
etot    5  Y  Y  6  M    -230.44199616636  2.7E-08  2.3E-05  5.0E-04
etot    6  N  Y  2  U    -230.44199199378 -4.2E-06  6.4E-06  1.3E-04
etot    7  N  Y  2  U    -230.44199217954  1.9E-07  2.5E-06  4.4E-05
etot    8  N  N  2  U    -230.44199218895  9.4E-09  0.0E+00  0.0E+00
scf (DFT) done.
der1a (1-e 1st deriv.) done.
rwr (1st deriv. Q) done.
der1b (2-e 1st deriv.) done.
----------------------------------------------------------------
  calculation with applied electric field    7 of  18 follows...
raman (gradient of polarizabilities) done.
rwr (Q operators) done.
scf type: DFT=Becke_3_Parameter/HF+Slater+Becke88+VWN+LYP (B3LYP)
  
       i  u  d  i  g
       t  p  i  c  r                                 RMS    maximum
       e  d  i  u  i                       energy  density   DIIS  
       r  t  s  t  d       total energy    change  change    error 
  
etot    1  N  N  5  M    -230.42713083520           3.2E-03  1.3E-02
etot    2  Y  Y  6  M    -230.42820616555  1.1E-03  1.1E-03  2.2E-02
etot    3  N  Y  2  U    -230.43386220288  5.7E-03  3.6E-04  8.0E-03
etot    4  Y  Y  6  M    -230.43430060872  4.4E-04  1.4E-04  3.2E-03
etot    5  Y  Y  6  M    -230.43437624478  7.6E-05  9.1E-05  9.8E-04
etot    6  N  Y  2  U    -230.43438668336  1.0E-05  1.7E-05  3.8E-04
etot    7  N  Y  2  U    -230.43438792252  1.2E-06  3.9E-06  9.7E-05
etot    8  N  N  2  U    -230.43438798115  5.9E-08  0.0E+00  0.0E+00
scf (DFT) done.
der1a (1-e 1st deriv.) done.
rwr (1st deriv. Q) done.
der1b (2-e 1st deriv.) done.
----------------------------------------------------------------
  calculation with applied electric field    8 of  18 follows...
raman (gradient of polarizabilities) done.
rwr (Q operators) done.
scf type: DFT=Becke_3_Parameter/HF+Slater+Becke88+VWN+LYP (B3LYP)
  
       i  u  d  i  g
       t  p  i  c  r                                 RMS    maximum
       e  d  i  u  i                       energy  density   DIIS  
       r  t  s  t  d       total energy    change  change    error 
  
etot    1  N  N  5  M    -230.44516414472           2.8E-03  1.3E-02
etot    2  Y  Y  6  M    -230.44867870898  3.5E-03  8.0E-04  1.5E-02
etot    3  N  Y  2  U    -230.45188684254  3.2E-03  3.5E-04  7.2E-03
etot    4  Y  Y  6  M    -230.45236415989  4.8E-04  1.2E-04  2.5E-03
etot    5  Y  Y  6  M    -230.45240993257  4.6E-05  8.5E-05  1.0E-03
etot    6  N  Y  2  U    -230.45240671195 -3.2E-06  1.6E-05  3.9E-04
etot    7  N  Y  2  U    -230.45240791619  1.2E-06  3.7E-06  9.6E-05
etot    8  N  N  2  U    -230.45240797842  6.2E-08  0.0E+00  0.0E+00
scf (DFT) done.
der1a (1-e 1st deriv.) done.
rwr (1st deriv. Q) done.
der1b (2-e 1st deriv.) done.
----------------------------------------------------------------
  calculation with applied electric field    9 of  18 follows...
raman (gradient of polarizabilities) done.
rwr (Q operators) done.
scf type: DFT=Becke_3_Parameter/HF+Slater+Becke88+VWN+LYP (B3LYP)
  
       i  u  d  i  g
       t  p  i  c  r                                 RMS    maximum
       e  d  i  u  i                       energy  density   DIIS  
       r  t  s  t  d       total energy    change  change    error 
  
etot    1  N  N  5  M    -230.42164577517           3.5E-03  1.5E-02
etot    2  Y  Y  6  M    -230.41969344509 -2.0E-03  1.2E-03  3.4E-02
etot    3  N  Y  2  U    -230.42842910203  8.7E-03  4.2E-04  6.2E-03
etot    4  Y  Y  6  M    -230.42867640234  2.5E-04  1.3E-04  3.3E-03
etot    5  Y  Y  6  M    -230.42875588002  7.9E-05  7.4E-05  1.0E-03
etot    6  N  Y  2  U    -230.42876608829  1.0E-05  1.3E-05  2.5E-04
etot    7  N  Y  2  U    -230.42876679500  7.1E-07  3.5E-06  8.4E-05
etot    8  N  N  2  U    -230.42876683240  3.7E-08  0.0E+00  0.0E+00
scf (DFT) done.
der1a (1-e 1st deriv.) done.
rwr (1st deriv. Q) done.
der1b (2-e 1st deriv.) done.
----------------------------------------------------------------
  calculation with applied electric field   10 of  18 follows...
raman (gradient of polarizabilities) done.
rwr (Q operators) done.
scf type: DFT=Becke_3_Parameter/HF+Slater+Becke88+VWN+LYP (B3LYP)
  
       i  u  d  i  g
       t  p  i  c  r                                 RMS    maximum
       e  d  i  u  i                       energy  density   DIIS  
       r  t  s  t  d       total energy    change  change    error 
  
etot    1  N  N  5  M    -230.45064920475           3.0E-03  1.5E-02
etot    2  Y  Y  6  M    -230.45211469063  1.5E-03  8.2E-04  2.5E-02
etot    3  N  Y  2  U    -230.45740009000  5.3E-03  3.9E-04  5.3E-03
etot    4  Y  Y  6  M    -230.45767004977  2.7E-04  1.0E-04  2.3E-03
etot    5  Y  Y  6  M    -230.45770616738  3.6E-05  6.2E-05  1.1E-03
etot    6  N  Y  2  U    -230.45770373329 -2.4E-06  1.1E-05  2.8E-04
etot    7  N  Y  2  U    -230.45770429585  5.6E-07  3.9E-06  9.1E-05
etot    8  N  N  2  U    -230.45770434800  5.2E-08  0.0E+00  0.0E+00
scf (DFT) done.
der1a (1-e 1st deriv.) done.
rwr (1st deriv. Q) done.
der1b (2-e 1st deriv.) done.
----------------------------------------------------------------
  calculation with applied electric field   11 of  18 follows...
raman (gradient of polarizabilities) done.
rwr (Q operators) done.
scf type: DFT=Becke_3_Parameter/HF+Slater+Becke88+VWN+LYP (B3LYP)
  
       i  u  d  i  g
       t  p  i  c  r                                 RMS    maximum
       e  d  i  u  i                       energy  density   DIIS  
       r  t  s  t  d       total energy    change  change    error 
  
etot    1  N  N  5  M    -230.43887249253           2.6E-03  1.1E-02
etot    2  Y  Y  6  M    -230.44163173925  2.8E-03  8.4E-04  1.5E-02
etot    3  N  Y  2  U    -230.44342342125  1.8E-03  2.8E-04  7.8E-03
etot    4  Y  Y  6  M    -230.44397343183  5.5E-04  1.2E-04  1.3E-03
etot    5  Y  Y  6  M    -230.44398267973  9.2E-06  7.9E-05  1.0E-03
etot    6  N  Y  2  U    -230.44398299265  3.1E-07  1.7E-05  2.8E-04
etot    7  N  Y  2  U    -230.44398384700  8.5E-07  4.4E-06  1.4E-04
etot    8  N  N  2  U    -230.44398399326  1.5E-07  0.0E+00  0.0E+00
scf (DFT) done.
der1a (1-e 1st deriv.) done.
rwr (1st deriv. Q) done.
der1b (2-e 1st deriv.) done.
----------------------------------------------------------------
  calculation with applied electric field   12 of  18 follows...
raman (gradient of polarizabilities) done.
rwr (Q operators) done.
scf type: DFT=Becke_3_Parameter/HF+Slater+Becke88+VWN+LYP (B3LYP)
  
       i  u  d  i  g
       t  p  i  c  r                                 RMS    maximum
       e  d  i  u  i                       energy  density   DIIS  
       r  t  s  t  d       total energy    change  change    error 
  
etot    1  N  N  5  M    -230.43342248738           2.6E-03  1.1E-02
etot    2  Y  Y  6  M    -230.43609547342  2.7E-03  8.4E-04  1.5E-02
etot    3  N  Y  2  U    -230.43795436869  1.9E-03  2.8E-04  7.5E-03
etot    4  Y  Y  6  M    -230.43850412769  5.5E-04  1.3E-04  1.7E-03
etot    5  Y  Y  6  M    -230.43852619809  2.2E-05  8.5E-05  1.0E-03
etot    6  N  Y  2  U    -230.43853374849  7.6E-06  1.8E-05  2.9E-04
etot    7  N  Y  2  U    -230.43853461795  8.7E-07  4.2E-06  1.4E-04
etot    8  N  N  2  U    -230.43853475406  1.4E-07  0.0E+00  0.0E+00
scf (DFT) done.
der1a (1-e 1st deriv.) done.
rwr (1st deriv. Q) done.
der1b (2-e 1st deriv.) done.
----------------------------------------------------------------
  calculation with applied electric field   13 of  18 follows...
raman (gradient of polarizabilities) done.
rwr (Q operators) done.
scf type: DFT=Becke_3_Parameter/HF+Slater+Becke88+VWN+LYP (B3LYP)
  
       i  u  d  i  g
       t  p  i  c  r                                 RMS    maximum
       e  d  i  u  i                       energy  density   DIIS  
       r  t  s  t  d       total energy    change  change    error 
  
etot    1  N  N  5  M    -230.43338743251           2.6E-03  1.1E-02
etot    2  Y  Y  6  M    -230.43605726728  2.7E-03  8.4E-04  1.5E-02
etot    3  N  Y  2  U    -230.43793014385  1.9E-03  2.8E-04  7.5E-03
etot    4  Y  Y  6  M    -230.43848026361  5.5E-04  1.3E-04  1.7E-03
etot    5  Y  Y  6  M    -230.43850259353  2.2E-05  8.5E-05  1.0E-03
etot    6  N  Y  2  U    -230.43851020143  7.6E-06  1.8E-05  3.0E-04
etot    7  N  Y  2  U    -230.43851107385  8.7E-07  4.2E-06  1.4E-04
etot    8  N  N  2  U    -230.43851120967  1.4E-07  0.0E+00  0.0E+00
scf (DFT) done.
der1a (1-e 1st deriv.) done.
rwr (1st deriv. Q) done.
der1b (2-e 1st deriv.) done.
----------------------------------------------------------------
  calculation with applied electric field   14 of  18 follows...
raman (gradient of polarizabilities) done.
rwr (Q operators) done.
scf type: DFT=Becke_3_Parameter/HF+Slater+Becke88+VWN+LYP (B3LYP)
  
       i  u  d  i  g
       t  p  i  c  r                                 RMS    maximum
       e  d  i  u  i                       energy  density   DIIS  
       r  t  s  t  d       total energy    change  change    error 
  
etot    1  N  N  5  M    -230.43890754741           2.6E-03  1.1E-02
etot    2  Y  Y  6  M    -230.44166471768  2.8E-03  8.4E-04  1.5E-02
etot    3  N  Y  2  U    -230.44346893967  1.8E-03  2.8E-04  7.8E-03
etot    4  Y  Y  6  M    -230.44401940575  5.5E-04  1.2E-04  1.3E-03
etot    5  Y  Y  6  M    -230.44402884648  9.4E-06  7.9E-05  1.0E-03
etot    6  N  Y  2  U    -230.44402910614  2.6E-07  1.6E-05  2.8E-04
etot    7  N  Y  2  U    -230.44402996204  8.6E-07  4.3E-06  1.4E-04
etot    8  N  N  2  U    -230.44403010053  1.4E-07  0.0E+00  0.0E+00
scf (DFT) done.
der1a (1-e 1st deriv.) done.
rwr (1st deriv. Q) done.
der1b (2-e 1st deriv.) done.
----------------------------------------------------------------
  calculation with applied electric field   15 of  18 follows...
raman (gradient of polarizabilities) done.
rwr (Q operators) done.
scf type: DFT=Becke_3_Parameter/HF+Slater+Becke88+VWN+LYP (B3LYP)
  
       i  u  d  i  g
       t  p  i  c  r                                 RMS    maximum
       e  d  i  u  i                       energy  density   DIIS  
       r  t  s  t  d       total energy    change  change    error 
  
etot    1  N  N  5  M    -230.42437077774           2.9E-03  1.2E-02
etot    2  Y  Y  6  M    -230.42392181018 -4.5E-04  9.9E-04  2.7E-02
etot    3  N  Y  2  U    -230.42896104282  5.0E-03  3.3E-04  7.2E-03
etot    4  Y  Y  6  M    -230.42930600655  3.4E-04  1.1E-04  2.2E-03
etot    5  Y  Y  6  M    -230.42934116503  3.5E-05  7.6E-05  9.4E-04
etot    6  N  Y  2  U    -230.42935139343  1.0E-05  1.3E-05  1.1E-04
etot    7  N  Y  2  U    -230.42935162224  2.3E-07  3.4E-06  5.7E-05
etot    8  N  N  2  U    -230.42935166947  4.7E-08  0.0E+00  0.0E+00
scf (DFT) done.
der1a (1-e 1st deriv.) done.
rwr (1st deriv. Q) done.
der1b (2-e 1st deriv.) done.
----------------------------------------------------------------
  calculation with applied electric field   16 of  18 follows...
raman (gradient of polarizabilities) done.
rwr (Q operators) done.
scf type: DFT=Becke_3_Parameter/HF+Slater+Becke88+VWN+LYP (B3LYP)
  
       i  u  d  i  g
       t  p  i  c  r                                 RMS    maximum
       e  d  i  u  i                       energy  density   DIIS  
       r  t  s  t  d       total energy    change  change    error 
  
etot    1  N  N  5  M    -230.44792420217           2.5E-03  1.2E-02
etot    2  Y  Y  6  M    -230.44927653952  1.4E-03  7.3E-04  2.1E-02
etot    3  N  Y  2  U    -230.45249600428  3.2E-03  3.1E-04  6.7E-03
etot    4  Y  Y  6  M    -230.45285555597  3.6E-04  8.4E-05  1.7E-03
etot    5  Y  Y  6  M    -230.45286800357  1.2E-05  5.7E-05  1.0E-03
etot    6  N  Y  2  U    -230.45286430225 -3.7E-06  8.5E-06  8.9E-05
etot    7  N  Y  2  U    -230.45286439439  9.2E-08  2.7E-06  8.1E-05
etot    8  N  N  2  U    -230.45286445100  5.7E-08  0.0E+00  0.0E+00
scf (DFT) done.
der1a (1-e 1st deriv.) done.
rwr (1st deriv. Q) done.
der1b (2-e 1st deriv.) done.
----------------------------------------------------------------
  calculation with applied electric field   17 of  18 follows...
raman (gradient of polarizabilities) done.
rwr (Q operators) done.
scf type: DFT=Becke_3_Parameter/HF+Slater+Becke88+VWN+LYP (B3LYP)
  
       i  u  d  i  g
       t  p  i  c  r                                 RMS    maximum
       e  d  i  u  i                       energy  density   DIIS  
       r  t  s  t  d       total energy    change  change    error 
  
etot    1  N  N  5  M    -230.44788914729           2.8E-03  1.2E-02
etot    2  Y  Y  6  M    -230.44761030591 -2.8E-04  9.5E-04  2.5E-02
etot    3  N  Y  2  U    -230.45245264261  4.8E-03  3.1E-04  6.7E-03
etot    4  Y  Y  6  M    -230.45281376675  3.6E-04  8.4E-05  1.7E-03
etot    5  Y  Y  6  M    -230.45282593838  1.2E-05  5.7E-05  1.0E-03
etot    6  N  Y  2  U    -230.45282225201 -3.7E-06  8.5E-06  8.9E-05
etot    7  N  Y  2  U    -230.45282234525  9.3E-08  2.7E-06  8.2E-05
etot    8  N  N  2  U    -230.45282240226  5.7E-08  0.0E+00  0.0E+00
scf (DFT) done.
der1a (1-e 1st deriv.) done.
rwr (1st deriv. Q) done.
der1b (2-e 1st deriv.) done.
----------------------------------------------------------------
  calculation with applied electric field   18 of  18 follows...
raman (gradient of polarizabilities) done.
rwr (Q operators) done.
scf type: DFT=Becke_3_Parameter/HF+Slater+Becke88+VWN+LYP (B3LYP)
  
       i  u  d  i  g
       t  p  i  c  r                                 RMS    maximum
       e  d  i  u  i                       energy  density   DIIS  
       r  t  s  t  d       total energy    change  change    error 
  
etot    1  N  N  5  M    -230.42440583262           2.9E-03  1.2E-02
etot    2  Y  Y  6  M    -230.42397192142 -4.3E-04  9.9E-04  2.7E-02
etot    3  N  Y  2  U    -230.42898702678  5.0E-03  3.3E-04  7.3E-03
etot    4  Y  Y  6  M    -230.42933347308  3.5E-04  1.1E-04  2.2E-03
etot    5  Y  Y  6  M    -230.42936845445  3.5E-05  7.6E-05  9.4E-04
etot    6  N  Y  2  U    -230.42937876666  1.0E-05  1.3E-05  1.1E-04
etot    7  N  Y  2  U    -230.42937899461  2.3E-07  3.4E-06  5.7E-05
etot    8  N  N  2  U    -230.42937905246  5.8E-08  0.0E+00  0.0E+00
scf (DFT) done.
der1a (1-e 1st deriv.) done.
rwr (1st deriv. Q) done.
der1b (2-e 1st deriv.) done.
-------------------------------------------------------
gradient of polarizability calculations complete
raman (gradient of polarizabilities) done.
freq (vib. frequencies) done.
post (output conversion) done.
Job fuarn_raman_4 completed on node028 at Wed Feb 25 14:43:56 2015
