Gaussian '09 started on node030 at Mon Feb 29 14:22:26 EST 2016.
 Entering Gaussian System, Link 0=/usr/local/gaussian/g09/g09
 Initial command:
 /usr/local/gaussian/g09/l1.exe /home/srmcgrat/thesis/gaussian/cellobiose/280/5000/2/gdp/gaussian1256/Gau-1292.inp -scrdir=/home/srmcgrat/thesis/gaussian/cellobiose/280/5000/2/gdp/gaussian1256/
 Entering Link 1 = /usr/local/gaussian/g09/l1.exe PID=      1294.
  
 Copyright (c) 1988,1990,1992,1993,1995,1998,2003,2009,2010,
            Gaussian, Inc.  All Rights Reserved.
  
 This is part of the Gaussian(R) 09 program.  It is based on
 the Gaussian(R) 03 system (copyright 2003, Gaussian, Inc.),
 the Gaussian(R) 98 system (copyright 1998, Gaussian, Inc.),
 the Gaussian(R) 94 system (copyright 1995, Gaussian, Inc.),
 the Gaussian 92(TM) system (copyright 1992, Gaussian, Inc.),
 the Gaussian 90(TM) system (copyright 1990, Gaussian, Inc.),
 the Gaussian 88(TM) system (copyright 1988, Gaussian, Inc.),
 the Gaussian 86(TM) system (copyright 1986, Carnegie Mellon
 University), and the Gaussian 82(TM) system (copyright 1983,
 Carnegie Mellon University). Gaussian is a federally registered
 trademark of Gaussian, Inc.
  
 This software contains proprietary and confidential information,
 including trade secrets, belonging to Gaussian, Inc.
  
 This software is provided under written license and may be
 used, copied, transmitted, or stored only in accord with that
 written license.
  
 The following legend is applicable only to US Government
 contracts under FAR:
  
                    RESTRICTED RIGHTS LEGEND
  
 Use, reproduction and disclosure by the US Government is
 subject to restrictions as set forth in subparagraphs (a)
 and (c) of the Commercial Computer Software - Restricted
 Rights clause in FAR 52.227-19.
  
 Gaussian, Inc.
 340 Quinnipiac St., Bldg. 40, Wallingford CT 06492
  
  
 ---------------------------------------------------------------
 Warning -- This program may not be used in any manner that
 competes with the business of Gaussian, Inc. or will provide
 assistance to any competitor of Gaussian, Inc.  The licensee
 of this program is prohibited from giving any competitor of
 Gaussian, Inc. access to this program.  By using this program,
 the user acknowledges that Gaussian, Inc. is engaged in the
 business of creating and licensing software in the field of
 computational chemistry and represents and warrants to the
 licensee that it is not a competitor of Gaussian, Inc. and that
 it will not use this program in any manner prohibited above.
 ---------------------------------------------------------------
  

 Cite this work as:
 Gaussian 09, Revision B.01,
 M. J. Frisch, G. W. Trucks, H. B. Schlegel, G. E. Scuseria, 
 M. A. Robb, J. R. Cheeseman, G. Scalmani, V. Barone, B. Mennucci, 
 G. A. Petersson, H. Nakatsuji, M. Caricato, X. Li, H. P. Hratchian, 
 A. F. Izmaylov, J. Bloino, G. Zheng, J. L. Sonnenberg, M. Hada, 
 M. Ehara, K. Toyota, R. Fukuda, J. Hasegawa, M. Ishida, T. Nakajima, 
 Y. Honda, O. Kitao, H. Nakai, T. Vreven, J. A. Montgomery, Jr., 
 J. E. Peralta, F. Ogliaro, M. Bearpark, J. J. Heyd, E. Brothers, 
 K. N. Kudin, V. N. Staroverov, T. Keith, R. Kobayashi, J. Normand, 
 K. Raghavachari, A. Rendell, J. C. Burant, S. S. Iyengar, J. Tomasi, 
 M. Cossi, N. Rega, J. M. Millam, M. Klene, J. E. Knox, J. B. Cross, 
 V. Bakken, C. Adamo, J. Jaramillo, R. Gomperts, R. E. Stratmann, 
 O. Yazyev, A. J. Austin, R. Cammi, C. Pomelli, J. W. Ochterski, 
 R. L. Martin, K. Morokuma, V. G. Zakrzewski, G. A. Voth, 
 P. Salvador, J. J. Dannenberg, S. Dapprich, A. D. Daniels, 
 O. Farkas, J. B. Foresman, J. V. Ortiz, J. Cioslowski, 
 and D. J. Fox, Gaussian, Inc., Wallingford CT, 2010.
 
 ******************************************
 Gaussian 09:  EM64L-G09RevB.01 12-Aug-2010
                29-Feb-2016 
 ******************************************
 ------------------------------------------------
 # freq=raman b3lyp/6-31+g(d,p) geom=connectivity
 ------------------------------------------------
 1/10=4,30=1,38=1,57=2/1,3;
 2/12=2,17=6,18=5,40=1/2;
 3/5=1,6=6,7=111,11=2,16=1,25=1,30=1,71=2,74=-5/1,2,3;
 4//1;
 5/5=2,38=5,98=1/2;
 8/6=4,10=90,11=11/1;
 10/13=10,15=4/2;
 11/6=3,8=1,9=11,15=111,16=1/1,2,10;
 10/6=1/2;
 6/7=2,8=2,9=2,10=2,18=1,28=1/1;
 7/8=1,10=1,25=1/1,2,3,16;
 1/10=4,30=1/3;
 99//99;
 ------------
 280 5000.com
 ------------
 Symbolic Z-matrix:
 Charge =  0 Multiplicity = 1
 O                     7.573     7.785     22.785 
 C                     8.202     8.11      24.033 
 C                     7.512     9.374     24.521 
 O                     7.711     10.421    23.561 
 H                     7.658     10.001    22.655 
 C                     7.833     9.722     25.965 
 O                     7.003     10.815    26.386 
 H                     7.36      11.282    27.196 
 C                     8.527     5.687     24.821 
 O                     8.235     4.925     23.641 
 H                     8.106     3.96      23.872 
 C                     7.865     7.036     25.055 
 O                     8.226     7.379     26.401 
 C                     7.604     8.563     26.921 
 O                     8.423     8.685     28.093 
 C                     7.829     8.351     29.356 
 C                     8.453     7.083     29.917 
 O                     8.238     6.097     28.897 
 H                     8.479     6.458     27.997 
 C                     7.89      6.712     31.279 
 O                     8.602     5.545     31.715 
 H                     8.229     5.258     32.597 
 C                     7.613     10.959    30.045 
 O                     7.983     11.717    28.884 
 H                     8.248     12.655    29.106 
 C                     8.047     9.525     30.297 
 O                     7.344     9.083     31.468 
 C                     7.981     7.975     32.12 
 O                     7.271     7.815     33.357 
 H                     8.24621   7.61253   22.1227 
 H                     7.89929   7.72189   34.07685 
 H                     7.94528   11.52496   30.8901 
 H                     6.54336   10.95699   30.0725 
 H                     9.09028   9.55012   30.53328 
 H                     6.77865   8.1972    29.22183 
 H                     9.50644   7.24012   30.01933 
 H                     6.85765   6.45545   31.16349 
 H                     9.00645   8.2089    32.31659 
 H                     8.28591   5.0694    25.66085 
 H                     9.58444   5.84979   24.83557 
 H                     6.80564   6.88768   25.02914 
 H                     9.25794   8.24658   23.92705 
 H                     6.46378   9.15993   24.50365 
 H                     8.85795   10.02285   26.02724 
 H                     6.57111   8.41234   27.15624 
 

 GradGradGradGradGradGradGradGradGradGradGradGradGradGradGradGradGradGrad
 Berny optimization.
 Initialization pass.
 Trust Radius=3.00D-01 FncErr=1.00D-07 GrdErr=1.00D-07
 Number of steps in this run=      2 maximum allowed number of steps=      2.
 GradGradGradGradGradGradGradGradGradGradGradGradGradGradGradGradGradGrad

                          Input orientation:                          
 ---------------------------------------------------------------------
 Center     Atomic      Atomic             Coordinates (Angstroms)
 Number     Number       Type             X           Y           Z
 ---------------------------------------------------------------------
      1          8           0        7.573000    7.785000   22.785000
      2          6           0        8.202000    8.110000   24.033000
      3          6           0        7.512000    9.374000   24.521000
      4          8           0        7.711000   10.421000   23.561000
      5          1           0        7.658000   10.001000   22.655000
      6          6           0        7.833000    9.722000   25.965000
      7          8           0        7.003000   10.815000   26.386000
      8          1           0        7.360000   11.282000   27.196000
      9          6           0        8.527000    5.687000   24.821000
     10          8           0        8.235000    4.925000   23.641000
     11          1           0        8.106000    3.960000   23.872000
     12          6           0        7.865000    7.036000   25.055000
     13          8           0        8.226000    7.379000   26.401000
     14          6           0        7.604000    8.563000   26.921000
     15          8           0        8.423000    8.685000   28.093000
     16          6           0        7.829000    8.351000   29.356000
     17          6           0        8.453000    7.083000   29.917000
     18          8           0        8.238000    6.097000   28.897000
     19          1           0        8.479000    6.458000   27.997000
     20          6           0        7.890000    6.712000   31.279000
     21          8           0        8.602000    5.545000   31.715000
     22          1           0        8.229000    5.258000   32.597000
     23          6           0        7.613000   10.959000   30.045000
     24          8           0        7.983000   11.717000   28.884000
     25          1           0        8.248000   12.655000   29.106000
     26          6           0        8.047000    9.525000   30.297000
     27          8           0        7.344000    9.083000   31.468000
     28          6           0        7.981000    7.975000   32.120000
     29          8           0        7.271000    7.815000   33.357000
     30          1           0        8.246213    7.612527   22.122703
     31          1           0        7.899286    7.721891   34.076852
     32          1           0        7.945276   11.524957   30.890095
     33          1           0        6.543355   10.956987   30.072497
     34          1           0        9.090283    9.550118   30.533284
     35          1           0        6.778647    8.197197   29.221827
     36          1           0        9.506444    7.240116   30.019327
     37          1           0        6.857653    6.455448   31.163494
     38          1           0        9.006447    8.208903   32.316590
     39          1           0        8.285913    5.069398   25.660848
     40          1           0        9.584444    5.849786   24.835572
     41          1           0        6.805645    6.887683   25.029144
     42          1           0        9.257945    8.246581   23.927048
     43          1           0        6.463777    9.159926   24.503648
     44          1           0        8.857945   10.022853   26.027243
     45          1           0        6.571109    8.412344   27.156241
 ---------------------------------------------------------------------
                    Distance matrix (angstroms):
                    1          2          3          4          5
     1  O    0.000000
     2  C    1.434841   0.000000
     3  C    2.354217   1.520506   0.000000
     4  O    2.751312   2.409271   1.434367   0.000000
     5  H    2.221437   2.402228   1.973930   1.000022   0.000000
     6  C    3.732555   2.543094   1.519632   2.506532   3.326344
     7  O    4.740570   3.780375   2.411180   2.938899   3.874530
     8  H    5.633054   4.557973   3.289254   3.752032   4.727626
     9  C    3.075226   2.568560   3.835908   4.966308   4.904825
    10  O    3.057872   3.209202   4.592464   5.521503   5.202970
    11  H    4.012017   4.154231   5.485019   6.480530   6.178630
    12  C    2.408146   1.520371   2.424048   3.703239   3.820219
    13  O    3.696850   2.478379   2.832706   4.193398   4.607605
    14  C    4.208651   2.983849   2.534992   3.840991   4.502168
    15  O    5.450446   4.106466   3.750177   4.905065   5.647028
    16  C    6.600298   5.341492   4.952196   6.154742   6.903270
    17  C    7.220293   5.978226   5.937253   7.217447   7.866600
    18  O    6.375587   5.264215   5.514996   6.888222   7.385132
    19  H    5.454054   4.303386   4.639043   5.997774   6.462496
    20  C    8.567371   7.386221   7.273217   8.564826   9.232807
    21  O    9.263981   8.108782   8.222103   9.542378  10.140546
    22  H   10.153394   9.026446   9.092707  10.419894  11.030206
    23  C    7.923602   6.678912   5.747782   6.507020   7.451972
    24  O    7.268186   6.049017   4.974662   5.485246   6.469213
    25  H    8.007969   6.811349   5.685849   6.002179   7.000515
    26  C    7.725440   6.423702   5.802689   6.803632   7.666685
    27  O    8.782467   7.547325   6.955121   8.027801   8.866244
    28  C    9.345843   8.091145   7.740928   8.905745   9.684794
    29  O   10.576355   9.375007   8.975715  10.146253  10.929829
    30  H    0.960000   1.974505   3.064912   3.200418   2.516771
    31  H   11.296742  10.055905   9.705347  10.858351  11.649518
    32  H    8.934116   7.664698   6.736447   7.415473   8.379843
    33  H    8.014318   6.879823   5.853481   6.637038   7.561455
    34  H    8.090345   6.716895   6.218484   7.160558   8.020105
    35  H    6.498741   5.381214   4.901066   6.153011   6.866599
    36  H    7.508035   6.188245   6.225983   7.419678   8.079142
    37  H    8.513436   7.442362   7.284836   8.616944   9.252349
    38  H    9.648092   8.323147   8.022596   9.123153   9.918480
    39  H    4.019109   3.449955   4.519711   5.777502   5.809483
    40  H    3.463496   2.768365   4.100496   5.101993   5.069385
    41  H    2.535783   2.106222   2.634183   3.931850   4.006971
    42  H    2.087192   1.070000   2.161522   2.693534   2.693681
    43  H    2.464659   2.084531   1.070000   2.008596   2.356072
    44  H    4.143816   2.840119   2.121638   2.748883   3.579437
    45  H    4.528255   3.536361   2.958809   4.273150   4.895542
                    6          7          8          9         10
     6  C    0.000000
     7  O    1.435545   0.000000
     8  H    2.042716   1.000819   0.000000
     9  C    4.251070   5.573884   6.189228   0.000000
    10  O    5.345446   6.613996   7.335878   1.434680   0.000000
    11  H    6.136434   7.384296   8.075715   2.015036   1.000613
    12  C    2.836145   4.098225   4.781989   1.520790   2.567609
    13  O    2.415408   3.647198   4.076198   2.334495   3.693210
    14  C    1.519756   2.391428   2.743742   3.678764   4.938786
    15  O    2.439642   3.076873   2.946012   4.439009   5.830373
    16  C    3.657668   3.946451   3.671011   5.305688   6.675593
    17  C    4.792392   5.338378   5.121532   5.284270   6.640231
    18  O    4.679880   5.485423   5.527071   4.106750   5.385084
    19  H    3.898722   4.874151   5.016447   3.268596   4.624323
    20  C    6.107532   6.446924   6.151153   6.569791   7.851843
    21  O    7.148510   7.663416   7.407908   6.895870   8.106082
    22  H    8.004220   8.423767   8.137232   7.793524   8.962191
    23  C    4.269071   3.712293   2.878392   7.477938   8.820842
    24  O    3.538797   2.830902   1.851134   7.291420   8.583928
    25  H    4.317476   3.511983   2.514314   8.184870   9.466747
    26  C    4.341754   4.248524   3.629768   6.704269   8.093064
    27  O    5.561515   5.379854   4.804773   7.557441   8.907568
    28  C    6.399839   6.473086   5.963863   7.668667   9.014458
    29  O    7.654682   7.593857   7.070073   8.886463  10.182438
    30  H    4.402711   5.475136   6.323666   3.326755   3.086770
    31  H    8.355057   8.337857   7.766037   9.497663  10.809362
    32  H    5.245934   4.656049   3.748055   8.441212   9.807790
    33  H    4.478829   3.717754   3.007786   7.699729   8.978345
    34  H    4.741257   4.812134   4.138932   6.918898   8.344267
    35  H    3.747480   3.865895   3.736035   5.359580   6.631279
    36  H    5.039616   5.678740   5.377288   5.513083   6.903578
    37  H    6.216591   6.469256   6.268091   6.603368   7.799184
    38  H    6.633938   6.780667   6.194768   7.922988   9.308330
    39  H    4.684479   5.931581   6.466098   1.070000   2.025643
    40  H    4.397409   5.806982   6.326826   1.070000   2.025643
    41  H    3.156681   4.159787   4.930780   2.109035   2.796806
    42  H    2.891466   4.210463   4.847887   2.808004   3.487283
    43  H    2.079964   2.563841   3.543328   4.052013   4.670759
    44  H    1.070000   2.048664   2.279317   4.512668   5.663066
    45  H    2.174080   2.559797   2.976383   4.087341   5.223698
                   11         12         13         14         15
    11  H    0.000000
    12  C    3.304443   0.000000
    13  O    4.254386   1.435161   0.000000
    14  C    5.544007   2.425243   1.434970   0.000000
    15  O    6.343734   3.501430   2.146464   1.435001   0.000000
    16  C    7.030780   4.497680   3.135988   2.454546   1.435117
    17  C    6.812897   4.897652   3.535732   3.447784   2.427814
    18  O    5.462126   3.972633   2.806009   3.222994   2.716318
    19  H    4.836813   3.060465   1.859964   2.520799   2.229772
    20  C    7.904670   6.232478   4.934842   4.743433   3.785157
    21  O    8.016913   6.864536   5.634140   5.752110   4.796929
    22  H    8.821880   7.757290   6.548974   6.597774   5.662860
    23  C    9.345319   6.352443   5.144988   3.937039   3.104429
    24  O    9.236142   6.048713   5.004256   3.734264   3.164223
    25  H   10.149776   6.937611   5.929054   4.683313   4.100938
    26  C    8.500196   5.805757   4.451536   3.538230   2.388429
    27  O    9.193747   6.751905   5.418120   4.584017   3.565567
    28  C    9.174168   7.128071   5.755189   5.245710   4.112930
    29  O   10.272462   8.359598   7.034775   6.487872   5.458361
    30  H    4.052240   3.012652   4.284713   4.933507   6.068434
    31  H   10.878123   9.047952   7.690450   7.211164   6.083448
    32  H   10.320274   7.362439   6.117168   4.964209   4.014638
    33  H    9.478705   6.503550   5.395663   4.097326   3.551535
    34  H    8.751624   6.150910   4.747263   4.028899   2.673701
    35  H    6.952435   4.459931   3.274346   2.471603   2.053314
    36  H    7.107041   5.232642   3.840718   3.868972   2.640507
    37  H    7.807145   6.218158   5.040503   4.795578   4.104771
    38  H    9.496056   7.443742   6.024288   5.586111   4.290197
    39  H    2.112608   2.100415   2.426041   3.776009   4.359671
    40  H    2.585645   2.100415   2.575739   3.953821   4.471938
    41  H    3.406058   1.070000   2.034893   2.650128   3.902999
    42  H    4.439007   2.162887   2.817454   3.435026   4.271358
    43  H    5.489545   2.603550   3.142781   2.738616   4.116741
    44  H    6.478324   3.294312   2.743904   2.121875   2.499276
    45  H    5.741558   2.825542   2.092093   1.070000   2.093170
                   16         17         18         19         20
    16  C    0.000000
    17  C    1.520500   0.000000
    18  O    2.336339   1.434859   0.000000
    19  H    2.419262   2.019332   0.999201   0.000000
    20  C    2.527444   1.519755   2.484603   3.344093   0.000000
    21  O    3.746471   2.370749   2.894533   3.830434   1.434897
    22  H    4.497858   3.250108   3.793943   4.760515   1.991522
    23  C    2.706112   3.968042   5.034637   5.020285   4.431308
    24  O    3.402419   4.770948   5.625797   5.356292   5.549297
    25  H    4.331567   5.634441   6.561337   6.299687   6.337929
    26  C    1.520290   2.504516   3.707784   3.857864   2.983612
    27  O    2.287268   2.763238   4.040479   4.497409   2.440385
    28  C    2.793596   2.423150   3.739072   4.421360   1.520109
    29  O    4.075127   3.710330   4.876291   5.659533   2.432664
    30  H    7.282856   7.815000   6.941757   5.991201   9.207367
    31  H    4.763105   4.244897   5.439289   6.236833   2.974549
    32  H    3.527176   4.575552   5.789718   5.859088   4.828960
    33  H    2.992895   4.321886   5.279497   5.319332   4.614002
    34  H    2.101122   2.621566   3.915078   4.045688   3.170439
    35  H    1.070000   2.127947   2.577994   2.723271   2.769996
    36  H    2.118462   1.070000   2.043351   2.399407   2.116264
    37  H    2.793504   2.119599   2.677842   3.557451   1.070000
    38  H    3.189305   2.707766   4.091973   4.690706   2.136297
    39  H    4.963046   4.711405   3.395724   2.724537   5.866730
    40  H    5.456366   5.349944   4.285934   3.403904   6.718060
    41  H    4.680837   5.161692   4.199658   3.434081   6.345659
    42  H    5.614829   6.154785   5.510119   4.513345   7.633964
    43  H    5.105244   6.129846   5.641890   4.854383   7.343831
    44  H    3.864511   4.892538   4.902261   4.090443   6.283281
    45  H    2.534757   3.595895   3.342093   2.857689   4.650569
                   21         22         23         24         25
    21  O    0.000000
    22  H    0.999711   0.000000
    23  C    5.751384   6.276429   0.000000
    24  O    6.818453   7.454231   1.435056   0.000000
    25  H    7.581840   8.179429   2.039942   0.999676   0.000000
    26  C    4.261355   4.850816   1.519281   2.608741   3.354964
    27  O    3.763113   4.085155   2.369951   3.744774   4.376693
    28  C    2.540584   2.769679   3.653123   4.947147   5.572960
    29  O    3.101713   2.834363   4.579415   5.978317   6.515453
    30  H    9.819033  10.735688   8.623377   7.913982   8.613534
    31  H    3.288009   2.892997   5.178481   6.552375   7.011886
    32  H    6.072202   6.501444   1.070000   2.015620   2.133456
    33  H    6.018757   6.457009   1.070000   2.015620   2.592909
    34  H    4.204265   4.839732   2.098984   2.939658   3.519499
    35  H    4.071201   4.704700   3.000219   3.735453   4.695149
    36  H    2.562566   3.493572   4.173234   4.863367   5.633721
    37  H    2.043482   2.317199   4.701442   5.843494   6.678382
    38  H    2.760773   3.064455   3.829471   5.013668   5.536326
    39  H    6.081025   6.938949   7.372992   7.393989   8.331378
    40  H    6.955906   7.901089   7.558360   7.306066   8.144543
    41  H    7.051975   7.871102   6.510473   6.290340   7.208543
    42  H    8.269281   9.228132   6.891473   6.183904   6.875732
    43  H    8.345255   9.156603   5.938347   5.294729   6.048193
    44  H    7.243429   8.140093   4.309134   3.434636   4.096215
    45  H    5.755733   6.503872   3.989477   3.987398   4.961216
                   26         27         28         29         30
    26  C    0.000000
    27  O    1.435554   0.000000
    28  C    2.393780   1.434760   0.000000
    29  O    3.590247   2.276285   1.435224   0.000000
    30  H    8.397403   9.503202  10.007381  11.278363   0.000000
    31  H    4.190502   2.994507   1.974845   0.960000  11.959682
    32  H    2.088525   2.580438   3.757144   4.506001   9.605459
    33  H    2.088525   2.469876   3.892472   4.603206   8.791153
    34  H    1.070000   2.035043   2.495831   3.780714   8.672057
    35  H    2.127858   2.479832   3.145542   4.181883   7.272767
    36  H    2.725394   3.189206   2.698122   4.058049   8.005220
    37  H    3.404042   2.689477   2.117982   2.613562   9.219698
    38  H    2.594493   2.061039   1.070000   2.061405  10.239578
    39  H    6.434545   7.121742   7.089156   8.234023   4.357471
    40  H    6.760040   7.711185   7.755673   9.045929   3.501111
    41  H    6.020524   6.824083   7.269385   8.392238   3.323859
    42  H    6.608860   7.824879   8.296313   9.646668   2.163628
    43  H    6.016876   7.020179   7.855879   8.991233   3.352673
    44  H    4.374508   5.725137   6.487251   7.817823   4.629181
    45  H    3.644260   4.431525   5.178607   6.268659   5.364903
                   31         32         33         34         35
    31  H    0.000000
    32  H    4.961940   0.000000
    33  H    5.323463   1.719429   0.000000
    34  H    4.161462   2.310486   2.945920   0.000000
    35  H    5.005300   3.901042   2.897489   2.982277   0.000000
    36  H    4.390737   4.642773   4.753720   2.402800   2.998814
    37  H    3.343132   5.192069   4.642511   3.867658   2.609598
    38  H    2.135769   3.762603   4.319113   2.232951   3.813239
    39  H    8.832572   8.314763   7.560612   6.668170   4.973484
    40  H    9.578403   8.458824   7.921939   6.811797   5.711573
    41  H    9.151665   7.560014   6.485634   6.527150   4.392510
    42  H   10.253769   7.807360   7.244435   6.735701   5.846712
    43  H    9.786464   6.969571   5.852166   6.588421   4.825681
    44  H    8.426724   5.170746   4.753316   4.536724   4.226331
    45  H    7.080653   5.051571   3.870469   4.364079   2.087105
                   36         37         38         39         40
    36  H    0.000000
    37  H    2.990136   0.000000
    38  H    2.542826   3.003589   0.000000
    39  H    5.019766   5.851510   7.394225   0.000000
    40  H    5.367534   6.916995   7.865441   1.725187   0.000000
    41  H    5.685108   6.149779   7.726320   2.428251   2.972613
    42  H    6.179853   7.831712   8.393396   3.747720   2.583921
    43  H    6.585302   7.198812   8.271135   4.625117   4.561333
    44  H    4.909268   6.565716   6.547393   4.999818   4.400270
    45  H    4.264689   4.468739   5.709770   4.043765   4.586109
                   41         42         43         44         45
    41  H    0.000000
    42  H    3.012474   0.000000
    43  H    2.357139   2.995670   0.000000
    44  H    3.877813   2.779561   2.966147   0.000000
    45  H    2.627572   4.204076   2.758015   3.016289   0.000000
 Stoichiometry    C12H22O11
 Framework group  C1[X(C12H22O11)]
 Deg. of freedom   129
 Full point group                 C1      NOp   1
 Largest Abelian subgroup         C1      NOp   1
 Largest concise Abelian subgroup C1      NOp   1
                         Standard orientation:                         
 ---------------------------------------------------------------------
 Center     Atomic      Atomic             Coordinates (Angstroms)
 Number     Number       Type             X           Y           Z
 ---------------------------------------------------------------------
      1          8           0        5.014884   -0.305438   -0.399032
      2          6           0        3.762909   -0.087996    0.267337
      3          6           0        3.251274    1.246957   -0.250416
      4          8           0        4.193326    2.275451    0.084467
      5          1           0        5.106390    1.882092   -0.023371
      6          6           0        1.802191    1.524238    0.113667
      7          8           0        1.360196    2.709291   -0.565362
      8          1           0        0.543024    3.110956   -0.149991
      9          6           0        3.018099   -2.546195    0.270944
     10          8           0        4.210517   -3.242281   -0.118813
     11          1           0        3.996088   -4.185861   -0.373575
     12          6           0        2.759007   -1.126200   -0.207894
     13          8           0        1.408093   -0.857407    0.195177
     14          6           0        0.866021    0.388749   -0.265684
     15          8           0       -0.305968    0.381342    0.562334
     16          6           0       -1.564363    0.106143   -0.070335
     17          6           0       -2.101653   -1.242577    0.381543
     18          8           0       -1.065116   -2.173626    0.038673
     19          1           0       -0.170980   -1.831648    0.324985
     20          6           0       -3.458312   -1.560269   -0.225253
     21          8           0       -3.872174   -2.818250    0.327133
     22          1           0       -4.749919   -3.069209   -0.080303
     23          6           0       -2.299292    2.707356    0.058549
     24          8           0       -1.150817    3.430462    0.524928
     25          1           0       -1.388521    4.321419    0.910992
     26          6           0       -2.525186    1.224528    0.300225
     27          8           0       -3.689971    0.858236   -0.454706
     28          6           0       -4.321008   -0.335211    0.031106
     29          8           0       -5.556721   -0.422238   -0.693676
     30          1           0        5.681698   -0.553233    0.245605
     31          1           0       -6.273334   -0.609813   -0.083037
     32          1           0       -3.153340    3.209736    0.462427
     33          1           0       -2.329306    2.845514   -1.002069
     34          1           0       -2.759378    1.108090    1.337769
     35          1           0       -1.430037    0.094164   -1.131803
     36          1           0       -2.204188   -1.227160    1.446507
     37          1           0       -3.340814   -1.676785   -1.282381
     38          1           0       -4.519199   -0.241664    1.078421
     39          1           0        2.188584   -3.141436   -0.049203
     40          1           0        3.003216   -2.524138    1.340613
     41          1           0        2.784916   -1.133466   -1.277555
     42          1           0        3.868985   -0.089592    1.332065
     43          1           0        3.269854    1.172901   -1.317689
     44          1           0        1.737157    1.686576    1.169279
     45          1           0        0.630978    0.371085   -1.309400
 ---------------------------------------------------------------------
 Rotational constants (GHZ):      0.4028681      0.1457434      0.1097638
 Standard basis: 6-31+G(d,p) (6D, 7F)
 There are   547 symmetry adapted basis functions of A   symmetry.
 Integral buffers will be    131072 words long.
 Raffenetti 2 integral format.
 Two-electron integral symmetry is turned on.
   547 basis functions,   890 primitive gaussians,   547 cartesian basis functions
    91 alpha electrons       91 beta electrons
       nuclear repulsion energy      2281.8910236463 Hartrees.
 NAtoms=   45 NActive=   45 NUniq=   45 SFac= 1.00D+00 NAtFMM=   50 NAOKFM=F Big=F
 One-electron integrals computed using PRISM.
 NBasis=   547 RedAO= T  NBF=   547
 NBsUse=   547 1.00D-06 NBFU=   547
 Harris functional with IExCor=  402 diagonalized for initial guess.
 ExpMin= 4.38D-02 ExpMax= 5.48D+03 ExpMxC= 8.25D+02 IAcc=2 IRadAn=         0 AccDes= 0.00D+00
 HarFok:  IExCor=  402 AccDes= 0.00D+00 IRadAn=         0 IDoV= 1
 ScaDFX=  1.000000  1.000000  1.000000  1.000000
 FoFCou: FMM=F IPFlag=           0 FMFlag=      100000 FMFlg1=           0
         NFxFlg=           0 DoJE=T BraDBF=F KetDBF=T FulRan=T
         Omega=  0.000000  0.000000  1.000000  0.000000  0.000000 ICntrl=     500 IOpCl=  0
         NMat0=    1 NMatS0=    1 NMatT0=    0 NMatD0=    1 NMtDS0=    0 NMtDT0=    0
         I1Cent=           4 NGrid=           0.
 Petite list used in FoFCou.
 Initial guess orbital symmetries:
       Occupied  (A) (A) (A) (A) (A) (A) (A) (A) (A) (A) (A) (A)
                 (A) (A) (A) (A) (A) (A) (A) (A) (A) (A) (A) (A)
                 (A) (A) (A) (A) (A) (A) (A) (A) (A) (A) (A) (A)
                 (A) (A) (A) (A) (A) (A) (A) (A) (A) (A) (A) (A)
                 (A) (A) (A) (A) (A) (A) (A) (A) (A) (A) (A) (A)
                 (A) (A) (A) (A) (A) (A) (A) (A) (A) (A) (A) (A)
                 (A) (A) (A) (A) (A) (A) (A) (A) (A) (A) (A) (A)
                 (A) (A) (A) (A) (A) (A) (A)
       Virtual   (A) (A) (A) (A) (A) (A) (A) (A) (A) (A) (A) (A)
                 (A) (A) (A) (A) (A) (A) (A) (A) (A) (A) (A) (A)
                 (A) (A) (A) (A) (A) (A) (A) (A) (A) (A) (A) (A)
                 (A) (A) (A) (A) (A) (A) (A) (A) (A) (A) (A) (A)
                 (A) (A) (A) (A) (A) (A) (A) (A) (A) (A) (A) (A)
                 (A) (A) (A) (A) (A) (A) (A) (A) (A) (A) (A) (A)
                 (A) (A) (A) (A) (A) (A) (A) (A) (A) (A) (A) (A)
                 (A) (A) (A) (A) (A) (A) (A) (A) (A) (A) (A) (A)
                 (A) (A) (A) (A) (A) (A) (A) (A) (A) (A) (A) (A)
                 (A) (A) (A) (A) (A) (A) (A) (A) (A) (A) (A) (A)
                 (A) (A) (A) (A) (A) (A) (A) (A) (A) (A) (A) (A)
                 (A) (A) (A) (A) (A) (A) (A) (A) (A) (A) (A) (A)
                 (A) (A) (A) (A) (A) (A) (A) (A) (A) (A) (A) (A)
                 (A) (A) (A) (A) (A) (A) (A) (A) (A) (A) (A) (A)
                 (A) (A) (A) (A) (A) (A) (A) (A) (A) (A) (A) (A)
                 (A) (A) (A) (A) (A) (A) (A) (A) (A) (A) (A) (A)
                 (A) (A) (A) (A) (A) (A) (A) (A) (A) (A) (A) (A)
                 (A) (A) (A) (A) (A) (A) (A) (A) (A) (A) (A) (A)
                 (A) (A) (A) (A) (A) (A) (A) (A) (A) (A) (A) (A)
                 (A) (A) (A) (A) (A) (A) (A) (A) (A) (A) (A) (A)
                 (A) (A) (A) (A) (A) (A) (A) (A) (A) (A) (A) (A)
                 (A) (A) (A) (A) (A) (A) (A) (A) (A) (A) (A) (A)
                 (A) (A) (A) (A) (A) (A) (A) (A) (A) (A) (A) (A)
                 (A) (A) (A) (A) (A) (A) (A) (A) (A) (A) (A) (A)
                 (A) (A) (A) (A) (A) (A) (A) (A) (A) (A) (A) (A)
                 (A) (A) (A) (A) (A) (A) (A) (A) (A) (A) (A) (A)
                 (A) (A) (A) (A) (A) (A) (A) (A) (A) (A) (A) (A)
                 (A) (A) (A) (A) (A) (A) (A) (A) (A) (A) (A) (A)
                 (A) (A) (A) (A) (A) (A) (A) (A) (A) (A) (A) (A)
                 (A) (A) (A) (A) (A) (A) (A) (A) (A) (A) (A) (A)
                 (A) (A) (A) (A) (A) (A) (A) (A) (A) (A) (A) (A)
                 (A) (A) (A) (A) (A) (A) (A) (A) (A) (A) (A) (A)
                 (A) (A) (A) (A) (A) (A) (A) (A) (A) (A) (A) (A)
                 (A) (A) (A) (A) (A) (A) (A) (A) (A) (A) (A) (A)
                 (A) (A) (A) (A) (A) (A) (A) (A) (A) (A) (A) (A)
                 (A) (A) (A) (A) (A) (A) (A) (A) (A) (A) (A) (A)
                 (A) (A) (A) (A) (A) (A) (A) (A) (A) (A) (A) (A)
                 (A) (A) (A) (A) (A) (A) (A) (A) (A) (A) (A) (A)
 The electronic state of the initial guess is 1-A.
 Requested convergence on RMS density matrix=1.00D-08 within 128 cycles.
 Requested convergence on MAX density matrix=1.00D-06.
 Requested convergence on             energy=1.00D-06.
 No special actions if energy rises.
 SCF Done:  E(RB3LYP) =  -1297.94018285     A.U. after   13 cycles
             Convg  =    0.7163D-08             -V/T =  2.0087
 Range of M.O.s used for correlation:     1   547
 NBasis=   547 NAE=    91 NBE=    91 NFC=     0 NFV=     0
 NROrb=    547 NOA=    91 NOB=    91 NVA=   456 NVB=   456

 **** Warning!!: The largest alpha MO coefficient is  0.67137574D+02

          Differentiating once with respect to electric field.
                with respect to dipole field.
          Electric field/nuclear overlap derivatives assumed to be zero.
          There are     3 degrees of freedom in the 1st order CPHF.  IDoFFX=0.
      3 vectors produced by pass  0 Test12= 1.38D-12 3.33D-08 XBig12= 1.20D+02 1.08D+00.
 AX will form     3 AO Fock derivatives at one time.
      3 vectors produced by pass  1 Test12= 1.38D-12 3.33D-08 XBig12= 2.21D+01 3.53D-01.
      3 vectors produced by pass  2 Test12= 1.38D-12 3.33D-08 XBig12= 9.54D+00 2.59D-01.
      3 vectors produced by pass  3 Test12= 1.38D-12 3.33D-08 XBig12= 9.42D-01 7.95D-02.
      3 vectors produced by pass  4 Test12= 1.38D-12 3.33D-08 XBig12= 2.86D-01 3.78D-02.
      3 vectors produced by pass  5 Test12= 1.38D-12 3.33D-08 XBig12= 5.39D-02 1.75D-02.
      3 vectors produced by pass  6 Test12= 1.38D-12 3.33D-08 XBig12= 1.71D-02 1.42D-02.
      3 vectors produced by pass  7 Test12= 1.38D-12 3.33D-08 XBig12= 2.01D-03 6.49D-03.
      3 vectors produced by pass  8 Test12= 1.38D-12 3.33D-08 XBig12= 3.75D-04 1.86D-03.
      3 vectors produced by pass  9 Test12= 1.38D-12 3.33D-08 XBig12= 8.38D-05 8.53D-04.
      3 vectors produced by pass 10 Test12= 1.38D-12 3.33D-08 XBig12= 1.98D-05 3.62D-04.
      3 vectors produced by pass 11 Test12= 1.38D-12 3.33D-08 XBig12= 6.26D-06 1.75D-04.
      3 vectors produced by pass 12 Test12= 1.38D-12 3.33D-08 XBig12= 7.25D-07 6.41D-05.
      3 vectors produced by pass 13 Test12= 1.38D-12 3.33D-08 XBig12= 2.37D-07 3.57D-05.
      3 vectors produced by pass 14 Test12= 1.38D-12 3.33D-08 XBig12= 3.18D-08 1.24D-05.
      3 vectors produced by pass 15 Test12= 1.38D-12 3.33D-08 XBig12= 1.03D-08 6.37D-06.
      3 vectors produced by pass 16 Test12= 1.38D-12 3.33D-08 XBig12= 9.17D-10 1.93D-06.
      3 vectors produced by pass 17 Test12= 1.38D-12 3.33D-08 XBig12= 7.25D-11 5.68D-07.
      3 vectors produced by pass 18 Test12= 1.38D-12 3.33D-08 XBig12= 2.19D-11 2.69D-07.
      3 vectors produced by pass 19 Test12= 1.38D-12 3.33D-08 XBig12= 1.47D-11 3.23D-07.
      2 vectors produced by pass 20 Test12= 1.38D-12 3.33D-08 XBig12= 6.52D-12 2.09D-07.
      2 vectors produced by pass 21 Test12= 1.38D-12 3.33D-08 XBig12= 2.31D-12 1.23D-07.
      1 vectors produced by pass 22 Test12= 1.38D-12 3.33D-08 XBig12= 4.16D-13 3.94D-08.
 Inverted reduced A of dimension    65 with in-core refinement.
 End of Minotr Frequency-dependent properties file   721 does not exist.
 End of Minotr Frequency-dependent properties file   722 does not exist.
 Symmetrizing basis deriv contribution to polar:
 IMax=3 JMax=2 DiffMx= 0.00D+00
 G2DrvN: will do    23 centers at a time, making    2 passes doing MaxLOS=2.
 Calling FoFCou, ICntrl=  3107 FMM=F I1Cent=   0 AccDes= 0.00D+00.
 Calling FoFCou, ICntrl=  3107 FMM=F I1Cent=   0 AccDes= 0.00D+00.
 FoFDir/FoFCou used for L=0 through L=2.
 End of G2Drv Frequency-dependent properties file   721 does not exist.
 End of G2Drv Frequency-dependent properties file   722 does not exist.
          IDoAtm=111111111111111111111111111111111111111111111
          Differentiating once with respect to electric field.
                with respect to dipole field.
          Differentiating once with respect to nuclear coordinates.
          There are   138 degrees of freedom in the 1st order CPHF.  IDoFFX=5.
 Will reuse    3 saved solutions.
    135 vectors produced by pass  0 Test12= 4.15D-14 1.00D-09 XBig12= 2.05D-01 8.00D-02.
 AX will form    68 AO Fock derivatives at one time.
    135 vectors produced by pass  1 Test12= 4.15D-14 1.00D-09 XBig12= 2.93D-02 1.50D-02.
    132 vectors produced by pass  2 Test12= 4.15D-14 1.00D-09 XBig12= 1.88D-04 1.58D-03.
    132 vectors produced by pass  3 Test12= 4.15D-14 1.00D-09 XBig12= 7.78D-07 6.63D-05.
    132 vectors produced by pass  4 Test12= 4.15D-14 1.00D-09 XBig12= 1.09D-09 2.54D-06.
    132 vectors produced by pass  5 Test12= 4.15D-14 1.00D-09 XBig12= 4.57D-12 1.45D-07.
     78 vectors produced by pass  6 Test12= 4.15D-14 1.00D-09 XBig12= 1.44D-13 2.36D-08.
 Inverted reduced A of dimension   876 with in-core refinement.
 Isotropic polarizability for W=    0.000000      188.03 Bohr**3.
 End of Minotr Frequency-dependent properties file   721 does not exist.
 End of Minotr Frequency-dependent properties file   722 does not exist.

 **********************************************************************

            Population analysis using the SCF density.

 **********************************************************************

 Orbital symmetries:
       Occupied  (A) (A) (A) (A) (A) (A) (A) (A) (A) (A) (A) (A)
                 (A) (A) (A) (A) (A) (A) (A) (A) (A) (A) (A) (A)
                 (A) (A) (A) (A) (A) (A) (A) (A) (A) (A) (A) (A)
                 (A) (A) (A) (A) (A) (A) (A) (A) (A) (A) (A) (A)
                 (A) (A) (A) (A) (A) (A) (A) (A) (A) (A) (A) (A)
                 (A) (A) (A) (A) (A) (A) (A) (A) (A) (A) (A) (A)
                 (A) (A) (A) (A) (A) (A) (A) (A) (A) (A) (A) (A)
                 (A) (A) (A) (A) (A) (A) (A)
       Virtual   (A) (A) (A) (A) (A) (A) (A) (A) (A) (A) (A) (A)
                 (A) (A) (A) (A) (A) (A) (A) (A) (A) (A) (A) (A)
                 (A) (A) (A) (A) (A) (A) (A) (A) (A) (A) (A) (A)
                 (A) (A) (A) (A) (A) (A) (A) (A) (A) (A) (A) (A)
                 (A) (A) (A) (A) (A) (A) (A) (A) (A) (A) (A) (A)
                 (A) (A) (A) (A) (A) (A) (A) (A) (A) (A) (A) (A)
                 (A) (A) (A) (A) (A) (A) (A) (A) (A) (A) (A) (A)
                 (A) (A) (A) (A) (A) (A) (A) (A) (A) (A) (A) (A)
                 (A) (A) (A) (A) (A) (A) (A) (A) (A) (A) (A) (A)
                 (A) (A) (A) (A) (A) (A) (A) (A) (A) (A) (A) (A)
                 (A) (A) (A) (A) (A) (A) (A) (A) (A) (A) (A) (A)
                 (A) (A) (A) (A) (A) (A) (A) (A) (A) (A) (A) (A)
                 (A) (A) (A) (A) (A) (A) (A) (A) (A) (A) (A) (A)
                 (A) (A) (A) (A) (A) (A) (A) (A) (A) (A) (A) (A)
                 (A) (A) (A) (A) (A) (A) (A) (A) (A) (A) (A) (A)
                 (A) (A) (A) (A) (A) (A) (A) (A) (A) (A) (A) (A)
                 (A) (A) (A) (A) (A) (A) (A) (A) (A) (A) (A) (A)
                 (A) (A) (A) (A) (A) (A) (A) (A) (A) (A) (A) (A)
                 (A) (A) (A) (A) (A) (A) (A) (A) (A) (A) (A) (A)
                 (A) (A) (A) (A) (A) (A) (A) (A) (A) (A) (A) (A)
                 (A) (A) (A) (A) (A) (A) (A) (A) (A) (A) (A) (A)
                 (A) (A) (A) (A) (A) (A) (A) (A) (A) (A) (A) (A)
                 (A) (A) (A) (A) (A) (A) (A) (A) (A) (A) (A) (A)
                 (A) (A) (A) (A) (A) (A) (A) (A) (A) (A) (A) (A)
                 (A) (A) (A) (A) (A) (A) (A) (A) (A) (A) (A) (A)
                 (A) (A) (A) (A) (A) (A) (A) (A) (A) (A) (A) (A)
                 (A) (A) (A) (A) (A) (A) (A) (A) (A) (A) (A) (A)
                 (A) (A) (A) (A) (A) (A) (A) (A) (A) (A) (A) (A)
                 (A) (A) (A) (A) (A) (A) (A) (A) (A) (A) (A) (A)
                 (A) (A) (A) (A) (A) (A) (A) (A) (A) (A) (A) (A)
                 (A) (A) (A) (A) (A) (A) (A) (A) (A) (A) (A) (A)
                 (A) (A) (A) (A) (A) (A) (A) (A) (A) (A) (A) (A)
                 (A) (A) (A) (A) (A) (A) (A) (A) (A) (A) (A) (A)
                 (A) (A) (A) (A) (A) (A) (A) (A) (A) (A) (A) (A)
                 (A) (A) (A) (A) (A) (A) (A) (A) (A) (A) (A) (A)
                 (A) (A) (A) (A) (A) (A) (A) (A) (A) (A) (A) (A)
                 (A) (A) (A) (A) (A) (A) (A) (A) (A) (A) (A) (A)
                 (A) (A) (A) (A) (A) (A) (A) (A) (A) (A) (A) (A)
 The electronic state is 1-A.
 Alpha  occ. eigenvalues --  -19.19783 -19.18864 -19.18770 -19.18686 -19.18014
 Alpha  occ. eigenvalues --  -19.17994 -19.17789 -19.16878 -19.15296 -19.14295
 Alpha  occ. eigenvalues --  -19.14145 -10.31497 -10.30740 -10.26309 -10.26056
 Alpha  occ. eigenvalues --  -10.25435 -10.25385 -10.25367 -10.25234 -10.24672
 Alpha  occ. eigenvalues --  -10.24560 -10.24100 -10.24078  -1.09986  -1.09206
 Alpha  occ. eigenvalues --   -1.05560  -1.05241  -1.03843  -1.03660  -1.02863
 Alpha  occ. eigenvalues --   -1.02249  -1.01547  -1.00242  -0.99807  -0.81715
 Alpha  occ. eigenvalues --   -0.80074  -0.79965  -0.77963  -0.72327  -0.70097
 Alpha  occ. eigenvalues --   -0.67198  -0.64732  -0.63324  -0.62489  -0.61685
 Alpha  occ. eigenvalues --   -0.60121  -0.56432  -0.55668  -0.55512  -0.54560
 Alpha  occ. eigenvalues --   -0.54054  -0.53543  -0.52768  -0.52153  -0.51410
 Alpha  occ. eigenvalues --   -0.50454  -0.49859  -0.48648  -0.48437  -0.46873
 Alpha  occ. eigenvalues --   -0.46528  -0.45176  -0.44097  -0.43537  -0.43034
 Alpha  occ. eigenvalues --   -0.42855  -0.41821  -0.41088  -0.40206  -0.38727
 Alpha  occ. eigenvalues --   -0.38280  -0.38202  -0.37492  -0.36471  -0.35327
 Alpha  occ. eigenvalues --   -0.35186  -0.34784  -0.33912  -0.33504  -0.32994
 Alpha  occ. eigenvalues --   -0.32765  -0.31584  -0.30836  -0.30675  -0.29496
 Alpha  occ. eigenvalues --   -0.29201  -0.28560  -0.28305  -0.27387  -0.26483
 Alpha  occ. eigenvalues --   -0.26156
 Alpha virt. eigenvalues --   -0.02569  -0.02198  -0.01568  -0.00161   0.00124
 Alpha virt. eigenvalues --    0.01158   0.02122   0.02437   0.02898   0.03411
 Alpha virt. eigenvalues --    0.03923   0.04237   0.04789   0.05499   0.05612
 Alpha virt. eigenvalues --    0.06129   0.06559   0.07368   0.07683   0.07899
 Alpha virt. eigenvalues --    0.08697   0.09056   0.09161   0.09664   0.10123
 Alpha virt. eigenvalues --    0.10642   0.10943   0.11149   0.11547   0.11846
 Alpha virt. eigenvalues --    0.12423   0.12937   0.13355   0.13655   0.13976
 Alpha virt. eigenvalues --    0.14139   0.14504   0.14646   0.15183   0.15416
 Alpha virt. eigenvalues --    0.15699   0.16278   0.16826   0.16931   0.17229
 Alpha virt. eigenvalues --    0.17558   0.17851   0.17908   0.18440   0.18713
 Alpha virt. eigenvalues --    0.18883   0.19193   0.19458   0.20004   0.20190
 Alpha virt. eigenvalues --    0.20589   0.21026   0.21445   0.21760   0.21811
 Alpha virt. eigenvalues --    0.22181   0.22339   0.22897   0.23104   0.23649
 Alpha virt. eigenvalues --    0.23834   0.23971   0.24269   0.24571   0.24887
 Alpha virt. eigenvalues --    0.25026   0.25068   0.25828   0.25924   0.26256
 Alpha virt. eigenvalues --    0.26453   0.26635   0.26905   0.27106   0.27507
 Alpha virt. eigenvalues --    0.27779   0.28228   0.28312   0.28325   0.29159
 Alpha virt. eigenvalues --    0.29285   0.29745   0.30016   0.30274   0.30746
 Alpha virt. eigenvalues --    0.31270   0.31457   0.31809   0.31878   0.32395
 Alpha virt. eigenvalues --    0.32699   0.33159   0.33230   0.33354   0.34131
 Alpha virt. eigenvalues --    0.34538   0.34861   0.35217   0.35521   0.36371
 Alpha virt. eigenvalues --    0.36402   0.36554   0.36886   0.37005   0.37887
 Alpha virt. eigenvalues --    0.38187   0.38476   0.38707   0.39355   0.39830
 Alpha virt. eigenvalues --    0.40001   0.40756   0.41208   0.41752   0.41775
 Alpha virt. eigenvalues --    0.42145   0.42718   0.43036   0.43772   0.43981
 Alpha virt. eigenvalues --    0.44453   0.45306   0.45726   0.46259   0.47066
 Alpha virt. eigenvalues --    0.47282   0.48159   0.49379   0.49763   0.50743
 Alpha virt. eigenvalues --    0.51219   0.52892   0.56053   0.62876   0.64186
 Alpha virt. eigenvalues --    0.65334   0.66737   0.68342   0.69565   0.69942
 Alpha virt. eigenvalues --    0.70073   0.71992   0.73159   0.74326   0.74682
 Alpha virt. eigenvalues --    0.75410   0.76015   0.77241   0.78186   0.78422
 Alpha virt. eigenvalues --    0.79210   0.80456   0.81479   0.81854   0.85602
 Alpha virt. eigenvalues --    0.86240   0.87163   0.87903   0.88773   0.90037
 Alpha virt. eigenvalues --    0.90852   0.91957   0.92513   0.93808   0.95251
 Alpha virt. eigenvalues --    0.95727   0.96634   0.97515   0.98597   1.00524
 Alpha virt. eigenvalues --    1.01196   1.01627   1.02489   1.03288   1.04270
 Alpha virt. eigenvalues --    1.04765   1.05314   1.05987   1.07366   1.08128
 Alpha virt. eigenvalues --    1.08521   1.08860   1.09400   1.09591   1.09910
 Alpha virt. eigenvalues --    1.11922   1.12810   1.13450   1.14208   1.15681
 Alpha virt. eigenvalues --    1.16898   1.18496   1.19326   1.19951   1.20635
 Alpha virt. eigenvalues --    1.21253   1.22550   1.23169   1.23393   1.25212
 Alpha virt. eigenvalues --    1.25331   1.26217   1.26656   1.27092   1.28577
 Alpha virt. eigenvalues --    1.29141   1.29184   1.29934   1.30866   1.31070
 Alpha virt. eigenvalues --    1.31907   1.32049   1.33155   1.33678   1.34428
 Alpha virt. eigenvalues --    1.35013   1.35994   1.36772   1.37208   1.38152
 Alpha virt. eigenvalues --    1.39123   1.39601   1.41504   1.42517   1.43337
 Alpha virt. eigenvalues --    1.44888   1.45620   1.46483   1.47787   1.48619
 Alpha virt. eigenvalues --    1.49022   1.50518   1.51329   1.51945   1.53740
 Alpha virt. eigenvalues --    1.54041   1.55374   1.56291   1.57070   1.57620
 Alpha virt. eigenvalues --    1.57930   1.59224   1.59907   1.60658   1.61802
 Alpha virt. eigenvalues --    1.62300   1.63692   1.64516   1.66411   1.66812
 Alpha virt. eigenvalues --    1.67033   1.67151   1.68144   1.69160   1.69805
 Alpha virt. eigenvalues --    1.70218   1.71358   1.72226   1.72412   1.74424
 Alpha virt. eigenvalues --    1.74527   1.75407   1.76071   1.76859   1.77129
 Alpha virt. eigenvalues --    1.77945   1.78757   1.79445   1.80747   1.81549
 Alpha virt. eigenvalues --    1.82950   1.83731   1.84523   1.85794   1.86830
 Alpha virt. eigenvalues --    1.87100   1.87792   1.89116   1.90004   1.90745
 Alpha virt. eigenvalues --    1.91923   1.92533   1.93600   1.94616   1.95229
 Alpha virt. eigenvalues --    1.95698   1.96796   1.97136   1.98023   1.98445
 Alpha virt. eigenvalues --    2.00177   2.00306   2.01420   2.02404   2.03483
 Alpha virt. eigenvalues --    2.03751   2.04270   2.05834   2.06483   2.06870
 Alpha virt. eigenvalues --    2.07453   2.08037   2.09872   2.10768   2.12297
 Alpha virt. eigenvalues --    2.13433   2.14028   2.14678   2.15666   2.15930
 Alpha virt. eigenvalues --    2.16198   2.17306   2.17570   2.19165   2.20349
 Alpha virt. eigenvalues --    2.21724   2.23013   2.23515   2.25664   2.27854
 Alpha virt. eigenvalues --    2.28979   2.30290   2.32375   2.33186   2.34709
 Alpha virt. eigenvalues --    2.37006   2.37293   2.37734   2.39109   2.39444
 Alpha virt. eigenvalues --    2.40534   2.41757   2.42824   2.44022   2.45297
 Alpha virt. eigenvalues --    2.45729   2.46633   2.47937   2.47964   2.49269
 Alpha virt. eigenvalues --    2.49983   2.51159   2.51302   2.52819   2.54694
 Alpha virt. eigenvalues --    2.55813   2.56751   2.57250   2.58118   2.59302
 Alpha virt. eigenvalues --    2.59550   2.61349   2.62020   2.63200   2.63473
 Alpha virt. eigenvalues --    2.64309   2.66305   2.66522   2.68995   2.69369
 Alpha virt. eigenvalues --    2.70754   2.72432   2.73081   2.74004   2.74400
 Alpha virt. eigenvalues --    2.75950   2.76728   2.78013   2.78552   2.79751
 Alpha virt. eigenvalues --    2.81261   2.82840   2.83885   2.84903   2.85689
 Alpha virt. eigenvalues --    2.86063   2.86896   2.88678   2.89101   2.90182
 Alpha virt. eigenvalues --    2.90766   2.91476   2.92557   2.93412   2.95448
 Alpha virt. eigenvalues --    2.95881   2.96167   2.98114   2.98942   3.00437
 Alpha virt. eigenvalues --    3.01744   3.03165   3.04227   3.04617   3.05416
 Alpha virt. eigenvalues --    3.07025   3.08263   3.10460   3.11556   3.12711
 Alpha virt. eigenvalues --    3.15360   3.17989   3.25113   3.27523   3.28504
 Alpha virt. eigenvalues --    3.32161   3.36656   3.36995   3.38377   3.40703
 Alpha virt. eigenvalues --    3.41427   3.42971   3.44944   3.46954   3.48297
 Alpha virt. eigenvalues --    3.50438   3.51301   3.52805   3.54057   3.54538
 Alpha virt. eigenvalues --    3.56500   3.56986   3.60901   3.62273   3.62540
 Alpha virt. eigenvalues --    3.65481   3.65766   3.69936   4.31140   4.33971
 Alpha virt. eigenvalues --    4.34080   4.36195   4.40184   4.42640   4.43635
 Alpha virt. eigenvalues --    4.48292   4.48861   4.49735   4.52715   4.53821
 Alpha virt. eigenvalues --    4.58319   4.59523   4.62890   4.65847   4.72652
 Alpha virt. eigenvalues --    4.74946   4.82538   4.84181   4.86687   4.92100
 Alpha virt. eigenvalues --    4.93252
          Condensed to atoms (all electrons):
              1          2          3          4          5          6
     1  O    8.336077   0.105286  -0.053763  -0.032442   0.037997   0.118812
     2  C    0.105286   9.318283  -0.985049   0.006672  -0.119423  -2.921797
     3  C   -0.053763  -0.985049   8.583910   0.288703   0.036775  -0.357591
     4  O   -0.032442   0.006672   0.288703   8.236070   0.195878  -0.185391
     5  H    0.037997  -0.119423   0.036775   0.195878   0.425425   0.047843
     6  C    0.118812  -2.921797  -0.357591  -0.185391   0.047843  12.483413
     7  O   -0.002101   0.041451  -0.093789   0.007815  -0.000803   0.139390
     8  H    0.000038  -0.011867   0.006546  -0.000845   0.000015   0.080725
     9  C   -0.045239   0.136863  -0.488082   0.011010  -0.001413   0.149167
    10  O    0.006266   0.057707   0.015463   0.000135  -0.000058  -0.003750
    11  H    0.000927  -0.014516   0.000164   0.000002   0.000000   0.000069
    12  C   -0.117334  -1.904534  -0.040328   0.001927   0.034529   0.646664
    13  O    0.006744  -0.016575  -0.032529   0.000550   0.000122  -0.183052
    14  C    0.007459   1.318570  -0.222815   0.018702  -0.006476  -3.501260
    15  O    0.000354  -0.049370  -0.003584   0.000247   0.000071   0.164410
    16  C    0.002510   0.181125  -0.315791  -0.001280   0.000821  -0.134113
    17  C    0.000651  -0.026852  -0.027256   0.000601   0.000055   0.207102
    18  O    0.000015   0.008359  -0.003431  -0.000007   0.000000   0.000509
    19  H   -0.000018  -0.004593   0.006177  -0.000004   0.000000   0.013537
    20  C    0.000041   0.006144  -0.011761   0.000004   0.000001   0.020646
    21  O    0.000000   0.000013  -0.000048   0.000000   0.000000  -0.000511
    22  H    0.000000   0.000001   0.000001   0.000000   0.000000  -0.000042
    23  C    0.000200   0.028132  -0.067972   0.000782   0.000005  -0.365546
    24  O    0.000006   0.002660  -0.010286   0.000076  -0.000004  -0.035654
    25  H    0.000000   0.000018   0.001003   0.000001   0.000000   0.000134
    26  C   -0.000513   0.047969  -0.009117   0.000343  -0.000013  -0.373359
    27  O    0.000000  -0.000012   0.000711   0.000000   0.000000   0.004557
    28  C    0.000003  -0.001429  -0.000967  -0.000002   0.000000   0.022016
    29  O    0.000000   0.000002   0.000058   0.000000   0.000000  -0.000392
    30  H    0.223814   0.114729  -0.043237   0.002478  -0.004763   0.000582
    31  H    0.000000   0.000000   0.000001   0.000000   0.000000  -0.000003
    32  H    0.000000   0.000015  -0.000160   0.000000   0.000000   0.000786
    33  H    0.000000  -0.000011   0.000427   0.000000   0.000000  -0.004936
    34  H    0.000000  -0.000331   0.001105   0.000000   0.000000   0.005253
    35  H   -0.000002  -0.001498   0.002160   0.000002   0.000000  -0.003300
    36  H    0.000000  -0.000253   0.000470   0.000000   0.000000   0.000991
    37  H    0.000000   0.000023   0.000079   0.000000   0.000000   0.000106
    38  H    0.000000  -0.000008   0.000025   0.000000   0.000000   0.000284
    39  H    0.000711  -0.006399  -0.003667   0.000027   0.000000   0.006017
    40  H   -0.001121  -0.009466  -0.010891  -0.000022   0.000000   0.013094
    41  H    0.005330   0.042706  -0.082199   0.000212  -0.000021   0.003053
    42  H   -0.044037   0.440559  -0.090241   0.000849  -0.000878  -0.013633
    43  H   -0.012386   0.199153   0.196136  -0.046667  -0.003231  -0.315980
    44  H   -0.000791   0.112684  -0.191930   0.007063  -0.000045   0.220091
    45  H    0.000003   0.040684  -0.051044  -0.000341   0.000003  -0.079514
              7          8          9         10         11         12
     1  O   -0.002101   0.000038  -0.045239   0.006266   0.000927  -0.117334
     2  C    0.041451  -0.011867   0.136863   0.057707  -0.014516  -1.904534
     3  C   -0.093789   0.006546  -0.488082   0.015463   0.000164  -0.040328
     4  O    0.007815  -0.000845   0.011010   0.000135   0.000002   0.001927
     5  H   -0.000803   0.000015  -0.001413  -0.000058   0.000000   0.034529
     6  C    0.139390   0.080725   0.149167  -0.003750   0.000069   0.646664
     7  O    8.246316   0.223374   0.002028   0.000028   0.000000   0.012778
     8  H    0.223374   0.342113   0.000634   0.000000   0.000000  -0.000136
     9  C    0.002028   0.000634   8.645170   0.169125   0.029270  -3.127079
    10  O    0.000028   0.000000   0.169125   8.328569   0.214384  -0.125373
    11  H    0.000000   0.000000   0.029270   0.214384   0.425437   0.002088
    12  C    0.012778  -0.000136  -3.127079  -0.125373   0.002088  12.368564
    13  O    0.013101  -0.001380   0.108259  -0.002066  -0.000333  -0.227578
    14  C   -0.022767  -0.060272  -0.424859  -0.002414  -0.003199  -1.241278
    15  O   -0.010093   0.004483  -0.014120  -0.000266   0.000006   0.027448
    16  C    0.014273   0.007602  -0.221761  -0.002796  -0.000200   0.061145
    17  C   -0.009866   0.002440   0.002395   0.000120  -0.000030  -0.228175
    18  O   -0.000027  -0.000020   0.006928  -0.000056  -0.000001  -0.017958
    19  H   -0.000107   0.000000  -0.001869  -0.000023  -0.000004  -0.003513
    20  C    0.003515   0.000198   0.008335   0.000109   0.000018  -0.020827
    21  O   -0.000003   0.000000   0.000251   0.000000   0.000000  -0.000182
    22  H    0.000000   0.000000  -0.000004   0.000000   0.000000   0.000034
    23  C    0.060216   0.013013  -0.001688  -0.000010   0.000000  -0.031116
    24  O   -0.014498   0.004337   0.000260   0.000000   0.000000   0.003135
    25  H    0.001596   0.000071  -0.000008   0.000000   0.000000  -0.000082
    26  C   -0.026769  -0.029370  -0.005579  -0.000063   0.000004   0.112244
    27  O    0.000052   0.000025  -0.000067   0.000000   0.000000  -0.000712
    28  C   -0.000785  -0.000196  -0.002556  -0.000002   0.000000   0.000407
    29  O   -0.000007   0.000000  -0.000009   0.000000   0.000000   0.000101
    30  H    0.000010   0.000000   0.001650  -0.000764  -0.000003  -0.049373
    31  H    0.000000   0.000000   0.000000   0.000000   0.000000   0.000000
    32  H   -0.000568   0.000255  -0.000001   0.000000   0.000000   0.000012
    33  H    0.001678  -0.000069  -0.000001   0.000000   0.000000  -0.000218
    34  H    0.000221  -0.000016   0.000127   0.000000   0.000000   0.000203
    35  H   -0.000139  -0.000055   0.000472   0.000001   0.000000   0.004620
    36  H    0.000003   0.000000  -0.000033   0.000000   0.000000   0.002556
    37  H    0.000001   0.000000  -0.000054   0.000000   0.000000   0.000556
    38  H    0.000002   0.000000   0.000000   0.000000   0.000000   0.000021
    39  H   -0.000014   0.000000   0.419627  -0.035397  -0.015728  -0.042112
    40  H    0.000000   0.000000   0.704894  -0.071273   0.003008  -0.340345
    41  H   -0.000377   0.000002   0.074260   0.006457  -0.000005   0.140085
    42  H   -0.000166   0.000004   0.025854   0.000164   0.000003  -0.154947
    43  H    0.007286  -0.000116   0.029274   0.000056   0.000001  -0.026399
    44  H   -0.037112  -0.009305   0.008261   0.000007   0.000000  -0.001909
    45  H    0.000007  -0.000555   0.004066   0.000042   0.000000  -0.016292
             13         14         15         16         17         18
     1  O    0.006744   0.007459   0.000354   0.002510   0.000651   0.000015
     2  C   -0.016575   1.318570  -0.049370   0.181125  -0.026852   0.008359
     3  C   -0.032529  -0.222815  -0.003584  -0.315791  -0.027256  -0.003431
     4  O    0.000550   0.018702   0.000247  -0.001280   0.000601  -0.000007
     5  H    0.000122  -0.006476   0.000071   0.000821   0.000055   0.000000
     6  C   -0.183052  -3.501260   0.164410  -0.134113   0.207102   0.000509
     7  O    0.013101  -0.022767  -0.010093   0.014273  -0.009866  -0.000027
     8  H   -0.001380  -0.060272   0.004483   0.007602   0.002440  -0.000020
     9  C    0.108259  -0.424859  -0.014120  -0.221761   0.002395   0.006928
    10  O   -0.002066  -0.002414  -0.000266  -0.002796   0.000120  -0.000056
    11  H   -0.000333  -0.003199   0.000006  -0.000200  -0.000030  -0.000001
    12  C   -0.227578  -1.241278   0.027448   0.061145  -0.228175  -0.017958
    13  O    8.579639   0.238993  -0.089220   0.091969  -0.116230   0.018307
    14  C    0.238993  10.786670   0.112314  -0.899960  -0.307968  -0.049374
    15  O   -0.089220   0.112314   8.331897  -0.014120   0.075083  -0.003892
    16  C    0.091969  -0.899960  -0.014120  13.927731  -1.976100  -0.170961
    17  C   -0.116230  -0.307968   0.075083  -1.976100   8.751542   0.377390
    18  O    0.018307  -0.049374  -0.003892  -0.170961   0.377390   8.219592
    19  H    0.014250   0.003832   0.034552  -0.104723   0.046458   0.194288
    20  C   -0.011489  -0.279135   0.050508  -1.698445  -0.057496  -0.084298
    21  O   -0.000071  -0.000209  -0.000589  -0.009888  -0.086345   0.006659
    22  H   -0.000002  -0.000037   0.000049  -0.006533   0.001837  -0.000513
    23  C    0.016764  -0.127739  -0.067724  -0.257109  -0.306875   0.005157
    24  O    0.000562   0.044321  -0.004825   0.019820  -0.006280   0.000175
    25  H    0.000043  -0.004147   0.001300  -0.006994  -0.000127  -0.000001
    26  C    0.023269  -0.375614  -0.106800  -3.539699  -0.747438   0.086987
    27  O   -0.000323  -0.010154   0.011243  -0.125357  -0.023612   0.001747
    28  C   -0.000410  -0.027622   0.016307   0.757734   0.252906  -0.005129
    29  O    0.000020   0.002288   0.000311  -0.013298  -0.000776  -0.000395
    30  H   -0.001011  -0.001882  -0.000024   0.000168  -0.000052   0.000000
    31  H    0.000000   0.000199   0.000002  -0.002308   0.006916  -0.000033
    32  H    0.000005   0.002547   0.000789   0.020702  -0.002510   0.000033
    33  H   -0.000051  -0.004083   0.000373   0.036404   0.006563   0.000011
    34  H   -0.000598   0.043418   0.002649   0.065638   0.018671  -0.000063
    35  H    0.000302   0.029729  -0.062610   0.252145   0.003992  -0.003947
    36  H    0.003397   0.041247  -0.011136   0.014632   0.280720  -0.047446
    37  H    0.000434   0.004096  -0.001197   0.084169  -0.175038   0.003800
    38  H    0.000032   0.005695   0.000273   0.128187  -0.009221  -0.000784
    39  H   -0.002926  -0.002478  -0.000652   0.004212  -0.000803  -0.000643
    40  H    0.007955   0.000796  -0.000499  -0.005647   0.001622   0.000044
    41  H   -0.034030   0.088235  -0.002086  -0.000970   0.004366   0.000164
    42  H    0.013106   0.070579  -0.000412  -0.000526   0.000957   0.000043
    43  H    0.008182   0.163434  -0.000156   0.010109   0.000860   0.000051
    44  H    0.016006   0.066278  -0.011131   0.032281   0.002608   0.000136
    45  H   -0.049370   0.368121  -0.067567   0.016109   0.036973  -0.000505
             19         20         21         22         23         24
     1  O   -0.000018   0.000041   0.000000   0.000000   0.000200   0.000006
     2  C   -0.004593   0.006144   0.000013   0.000001   0.028132   0.002660
     3  C    0.006177  -0.011761  -0.000048   0.000001  -0.067972  -0.010286
     4  O   -0.000004   0.000004   0.000000   0.000000   0.000782   0.000076
     5  H    0.000000   0.000001   0.000000   0.000000   0.000005  -0.000004
     6  C    0.013537   0.020646  -0.000511  -0.000042  -0.365546  -0.035654
     7  O   -0.000107   0.003515  -0.000003   0.000000   0.060216  -0.014498
     8  H    0.000000   0.000198   0.000000   0.000000   0.013013   0.004337
     9  C   -0.001869   0.008335   0.000251  -0.000004  -0.001688   0.000260
    10  O   -0.000023   0.000109   0.000000   0.000000  -0.000010   0.000000
    11  H   -0.000004   0.000018   0.000000   0.000000   0.000000   0.000000
    12  C   -0.003513  -0.020827  -0.000182   0.000034  -0.031116   0.003135
    13  O    0.014250  -0.011489  -0.000071  -0.000002   0.016764   0.000562
    14  C    0.003832  -0.279135  -0.000209  -0.000037  -0.127739   0.044321
    15  O    0.034552   0.050508  -0.000589   0.000049  -0.067724  -0.004825
    16  C   -0.104723  -1.698445  -0.009888  -0.006533  -0.257109   0.019820
    17  C    0.046458  -0.057496  -0.086345   0.001837  -0.306875  -0.006280
    18  O    0.194288  -0.084298   0.006659  -0.000513   0.005157   0.000175
    19  H    0.358627   0.029312  -0.000950   0.000017  -0.005165  -0.000018
    20  C    0.029312   7.808165   0.194111   0.031623   0.199769  -0.000224
    21  O   -0.000950   0.194111   8.257688   0.195145   0.002560   0.000011
    22  H    0.000017   0.031623   0.195145   0.442241  -0.000061   0.000000
    23  C   -0.005165   0.199769   0.002560  -0.000061   8.355494   0.056917
    24  O   -0.000018  -0.000224   0.000011   0.000000   0.056917   8.471591
    25  H    0.000000   0.000764   0.000000   0.000000   0.015586   0.221376
    26  C    0.004671   0.614330   0.038510   0.000005  -2.320126  -0.018715
    27  O    0.000273  -0.093649   0.005206   0.000016  -0.046353   0.001383
    28  C   -0.000515  -0.823035  -0.070932  -0.013049  -0.183108   0.002205
    29  O    0.000021  -0.131694   0.003645   0.010972  -0.006114   0.000035
    30  H    0.000000   0.000000   0.000000   0.000000   0.000002   0.000000
    31  H    0.000000  -0.025723  -0.000647  -0.000795  -0.000009  -0.000001
    32  H    0.000000  -0.000676  -0.000003   0.000000   0.423513  -0.040378
    33  H    0.000001  -0.001245  -0.000004   0.000000   0.676884  -0.071154
    34  H    0.000053  -0.036830  -0.000233   0.000005  -0.012824   0.006324
    35  H   -0.000458   0.037291  -0.000516   0.000004   0.019396   0.000244
    36  H   -0.004390  -0.057601   0.000403  -0.000068   0.024943  -0.000025
    37  H    0.000012   0.415154  -0.042571  -0.006761   0.011870  -0.000003
    38  H    0.000008  -0.141104   0.005374  -0.000362  -0.013102  -0.000017
    39  H    0.000576  -0.001102  -0.000003   0.000000   0.000016   0.000000
    40  H    0.000032   0.000222   0.000000   0.000000   0.000004   0.000000
    41  H    0.000234   0.000412   0.000000   0.000000   0.000240   0.000006
    42  H    0.000000   0.000033   0.000000   0.000000   0.000104   0.000008
    43  H   -0.000001   0.000057   0.000000   0.000000   0.000943   0.000108
    44  H   -0.000019   0.000841   0.000000   0.000000   0.010693   0.003058
    45  H    0.000260   0.009610   0.000004   0.000000   0.004899   0.000455
             25         26         27         28         29         30
     1  O    0.000000  -0.000513   0.000000   0.000003   0.000000   0.223814
     2  C    0.000018   0.047969  -0.000012  -0.001429   0.000002   0.114729
     3  C    0.001003  -0.009117   0.000711  -0.000967   0.000058  -0.043237
     4  O    0.000001   0.000343   0.000000  -0.000002   0.000000   0.002478
     5  H    0.000000  -0.000013   0.000000   0.000000   0.000000  -0.004763
     6  C    0.000134  -0.373359   0.004557   0.022016  -0.000392   0.000582
     7  O    0.001596  -0.026769   0.000052  -0.000785  -0.000007   0.000010
     8  H    0.000071  -0.029370   0.000025  -0.000196   0.000000   0.000000
     9  C   -0.000008  -0.005579  -0.000067  -0.002556  -0.000009   0.001650
    10  O    0.000000  -0.000063   0.000000  -0.000002   0.000000  -0.000764
    11  H    0.000000   0.000004   0.000000   0.000000   0.000000  -0.000003
    12  C   -0.000082   0.112244  -0.000712   0.000407   0.000101  -0.049373
    13  O    0.000043   0.023269  -0.000323  -0.000410   0.000020  -0.001011
    14  C   -0.004147  -0.375614  -0.010154  -0.027622   0.002288  -0.001882
    15  O    0.001300  -0.106800   0.011243   0.016307   0.000311  -0.000024
    16  C   -0.006994  -3.539699  -0.125357   0.757734  -0.013298   0.000168
    17  C   -0.000127  -0.747438  -0.023612   0.252906  -0.000776  -0.000052
    18  O   -0.000001   0.086987   0.001747  -0.005129  -0.000395   0.000000
    19  H    0.000000   0.004671   0.000273  -0.000515   0.000021   0.000000
    20  C    0.000764   0.614330  -0.093649  -0.823035  -0.131694   0.000000
    21  O    0.000000   0.038510   0.005206  -0.070932   0.003645   0.000000
    22  H    0.000000   0.000005   0.000016  -0.013049   0.010972   0.000000
    23  C    0.015586  -2.320126  -0.046353  -0.183108  -0.006114   0.000002
    24  O    0.221376  -0.018715   0.001383   0.002205   0.000035   0.000000
    25  H    0.387784   0.000033  -0.000083  -0.001534   0.000001   0.000000
    26  C    0.000033  13.510941   0.290737  -0.945172  -0.068976  -0.000010
    27  O   -0.000083   0.290737   8.349043   0.086701  -0.048289   0.000000
    28  C   -0.001534  -0.945172   0.086701   5.908319   0.404369   0.000000
    29  O    0.000001  -0.068976  -0.048289   0.404369   8.211726   0.000000
    30  H    0.000000  -0.000010   0.000000   0.000000   0.000000   0.395904
    31  H    0.000000   0.014149   0.002911   0.013054   0.234034   0.000000
    32  H   -0.012670  -0.072917   0.000134   0.003728  -0.000059   0.000000
    33  H    0.001597  -0.361339   0.010175   0.007483  -0.000128   0.000000
    34  H   -0.000071   0.138434  -0.045436   0.040823  -0.000358   0.000000
    35  H    0.000003  -0.033071   0.002746  -0.009612  -0.000729   0.000000
    36  H    0.000000   0.018135   0.003351  -0.039679  -0.000419   0.000000
    37  H    0.000000   0.020952   0.001803  -0.067609  -0.003135   0.000000
    38  H    0.000000  -0.098656  -0.060943   0.455023  -0.049619   0.000000
    39  H    0.000000  -0.000174   0.000000   0.000085   0.000000  -0.000033
    40  H    0.000000  -0.000217   0.000000  -0.000020   0.000000   0.000228
    41  H    0.000000   0.000267   0.000000  -0.000060   0.000000   0.000062
    42  H    0.000000   0.000216   0.000000  -0.000006   0.000000  -0.009831
    43  H    0.000000   0.001552   0.000000  -0.000017   0.000000   0.000415
    44  H    0.000007   0.004258   0.000010  -0.000077   0.000000   0.000013
    45  H    0.000001   0.020875   0.000155  -0.000969  -0.000004   0.000001
             31         32         33         34         35         36
     1  O    0.000000   0.000000   0.000000   0.000000  -0.000002   0.000000
     2  C    0.000000   0.000015  -0.000011  -0.000331  -0.001498  -0.000253
     3  C    0.000001  -0.000160   0.000427   0.001105   0.002160   0.000470
     4  O    0.000000   0.000000   0.000000   0.000000   0.000002   0.000000
     5  H    0.000000   0.000000   0.000000   0.000000   0.000000   0.000000
     6  C   -0.000003   0.000786  -0.004936   0.005253  -0.003300   0.000991
     7  O    0.000000  -0.000568   0.001678   0.000221  -0.000139   0.000003
     8  H    0.000000   0.000255  -0.000069  -0.000016  -0.000055   0.000000
     9  C    0.000000  -0.000001  -0.000001   0.000127   0.000472  -0.000033
    10  O    0.000000   0.000000   0.000000   0.000000   0.000001   0.000000
    11  H    0.000000   0.000000   0.000000   0.000000   0.000000   0.000000
    12  C    0.000000   0.000012  -0.000218   0.000203   0.004620   0.002556
    13  O    0.000000   0.000005  -0.000051  -0.000598   0.000302   0.003397
    14  C    0.000199   0.002547  -0.004083   0.043418   0.029729   0.041247
    15  O    0.000002   0.000789   0.000373   0.002649  -0.062610  -0.011136
    16  C   -0.002308   0.020702   0.036404   0.065638   0.252145   0.014632
    17  C    0.006916  -0.002510   0.006563   0.018671   0.003992   0.280720
    18  O   -0.000033   0.000033   0.000011  -0.000063  -0.003947  -0.047446
    19  H    0.000000   0.000000   0.000001   0.000053  -0.000458  -0.004390
    20  C   -0.025723  -0.000676  -0.001245  -0.036830   0.037291  -0.057601
    21  O   -0.000647  -0.000003  -0.000004  -0.000233  -0.000516   0.000403
    22  H   -0.000795   0.000000   0.000000   0.000005   0.000004  -0.000068
    23  C   -0.000009   0.423513   0.676884  -0.012824   0.019396   0.024943
    24  O   -0.000001  -0.040378  -0.071154   0.006324   0.000244  -0.000025
    25  H    0.000000  -0.012670   0.001597  -0.000071   0.000003   0.000000
    26  C    0.014149  -0.072917  -0.361339   0.138434  -0.033071   0.018135
    27  O    0.002911   0.000134   0.010175  -0.045436   0.002746   0.003351
    28  C    0.013054   0.003728   0.007483   0.040823  -0.009612  -0.039679
    29  O    0.234034  -0.000059  -0.000128  -0.000358  -0.000729  -0.000419
    30  H    0.000000   0.000000   0.000000   0.000000   0.000000   0.000000
    31  H    0.406736  -0.000002  -0.000001   0.000006   0.000002   0.000014
    32  H   -0.000002   0.595570  -0.040022  -0.010841  -0.000093   0.000004
    33  H   -0.000001  -0.040022   0.577248   0.007340   0.002480   0.000000
    34  H    0.000006  -0.010841   0.007340   0.635783   0.006058   0.002872
    35  H    0.000002  -0.000093   0.002480   0.006058   0.601938   0.005724
    36  H    0.000014   0.000004   0.000000   0.002872   0.005724   0.611274
    37  H    0.000150   0.000002  -0.000006   0.000002   0.002126   0.006112
    38  H   -0.008639   0.000007   0.000005   0.008781   0.000014   0.002916
    39  H    0.000000   0.000000   0.000000   0.000000   0.000000   0.000000
    40  H    0.000000   0.000000   0.000000   0.000000   0.000000   0.000000
    41  H    0.000000   0.000000   0.000000   0.000000  -0.000010   0.000000
    42  H    0.000000   0.000000   0.000000   0.000000   0.000000   0.000000
    43  H    0.000000   0.000000   0.000000   0.000000  -0.000002   0.000000
    44  H    0.000000   0.000002  -0.000007  -0.000011   0.000023  -0.000003
    45  H    0.000000   0.000001  -0.000013  -0.000022   0.011415  -0.000028
             37         38         39         40         41         42
     1  O    0.000000   0.000000   0.000711  -0.001121   0.005330  -0.044037
     2  C    0.000023  -0.000008  -0.006399  -0.009466   0.042706   0.440559
     3  C    0.000079   0.000025  -0.003667  -0.010891  -0.082199  -0.090241
     4  O    0.000000   0.000000   0.000027  -0.000022   0.000212   0.000849
     5  H    0.000000   0.000000   0.000000   0.000000  -0.000021  -0.000878
     6  C    0.000106   0.000284   0.006017   0.013094   0.003053  -0.013633
     7  O    0.000001   0.000002  -0.000014   0.000000  -0.000377  -0.000166
     8  H    0.000000   0.000000   0.000000   0.000000   0.000002   0.000004
     9  C   -0.000054   0.000000   0.419627   0.704894   0.074260   0.025854
    10  O    0.000000   0.000000  -0.035397  -0.071273   0.006457   0.000164
    11  H    0.000000   0.000000  -0.015728   0.003008  -0.000005   0.000003
    12  C    0.000556   0.000021  -0.042112  -0.340345   0.140085  -0.154947
    13  O    0.000434   0.000032  -0.002926   0.007955  -0.034030   0.013106
    14  C    0.004096   0.005695  -0.002478   0.000796   0.088235   0.070579
    15  O   -0.001197   0.000273  -0.000652  -0.000499  -0.002086  -0.000412
    16  C    0.084169   0.128187   0.004212  -0.005647  -0.000970  -0.000526
    17  C   -0.175038  -0.009221  -0.000803   0.001622   0.004366   0.000957
    18  O    0.003800  -0.000784  -0.000643   0.000044   0.000164   0.000043
    19  H    0.000012   0.000008   0.000576   0.000032   0.000234   0.000000
    20  C    0.415154  -0.141104  -0.001102   0.000222   0.000412   0.000033
    21  O   -0.042571   0.005374  -0.000003   0.000000   0.000000   0.000000
    22  H   -0.006761  -0.000362   0.000000   0.000000   0.000000   0.000000
    23  C    0.011870  -0.013102   0.000016   0.000004   0.000240   0.000104
    24  O   -0.000003  -0.000017   0.000000   0.000000   0.000006   0.000008
    25  H    0.000000   0.000000   0.000000   0.000000   0.000000   0.000000
    26  C    0.020952  -0.098656  -0.000174  -0.000217   0.000267   0.000216
    27  O    0.001803  -0.060943   0.000000   0.000000   0.000000   0.000000
    28  C   -0.067609   0.455023   0.000085  -0.000020  -0.000060  -0.000006
    29  O   -0.003135  -0.049619   0.000000   0.000000   0.000000   0.000000
    30  H    0.000000   0.000000  -0.000033   0.000228   0.000062  -0.009831
    31  H    0.000150  -0.008639   0.000000   0.000000   0.000000   0.000000
    32  H    0.000002   0.000007   0.000000   0.000000   0.000000   0.000000
    33  H   -0.000006   0.000005   0.000000   0.000000   0.000000   0.000000
    34  H    0.000002   0.008781   0.000000   0.000000   0.000000   0.000000
    35  H    0.002126   0.000014   0.000000   0.000000  -0.000010   0.000000
    36  H    0.006112   0.002916   0.000000   0.000000   0.000000   0.000000
    37  H    0.586171   0.005863   0.000000   0.000000   0.000000   0.000000
    38  H    0.005863   0.648345   0.000000   0.000000   0.000000   0.000000
    39  H    0.000000   0.000000   0.598177  -0.044853  -0.007362   0.000039
    40  H    0.000000   0.000000  -0.044853   0.603444   0.006673   0.004394
    41  H    0.000000   0.000000  -0.007362   0.006673   0.607119   0.005790
    42  H    0.000000   0.000000   0.000039   0.004394   0.005790   0.601786
    43  H    0.000000   0.000000   0.000004  -0.000007   0.003366   0.005986
    44  H    0.000000   0.000000   0.000002  -0.000010   0.000032   0.002531
    45  H   -0.000015   0.000000  -0.000014  -0.000010   0.004096  -0.000004
             43         44         45
     1  O   -0.012386  -0.000791   0.000003
     2  C    0.199153   0.112684   0.040684
     3  C    0.196136  -0.191930  -0.051044
     4  O   -0.046667   0.007063  -0.000341
     5  H   -0.003231  -0.000045   0.000003
     6  C   -0.315980   0.220091  -0.079514
     7  O    0.007286  -0.037112   0.000007
     8  H   -0.000116  -0.009305  -0.000555
     9  C    0.029274   0.008261   0.004066
    10  O    0.000056   0.000007   0.000042
    11  H    0.000001   0.000000   0.000000
    12  C   -0.026399  -0.001909  -0.016292
    13  O    0.008182   0.016006  -0.049370
    14  C    0.163434   0.066278   0.368121
    15  O   -0.000156  -0.011131  -0.067567
    16  C    0.010109   0.032281   0.016109
    17  C    0.000860   0.002608   0.036973
    18  O    0.000051   0.000136  -0.000505
    19  H   -0.000001  -0.000019   0.000260
    20  C    0.000057   0.000841   0.009610
    21  O    0.000000   0.000000   0.000004
    22  H    0.000000   0.000000   0.000000
    23  C    0.000943   0.010693   0.004899
    24  O    0.000108   0.003058   0.000455
    25  H    0.000000   0.000007   0.000001
    26  C    0.001552   0.004258   0.020875
    27  O    0.000000   0.000010   0.000155
    28  C   -0.000017  -0.000077  -0.000969
    29  O    0.000000   0.000000  -0.000004
    30  H    0.000415   0.000013   0.000001
    31  H    0.000000   0.000000   0.000000
    32  H    0.000000   0.000002   0.000001
    33  H    0.000000  -0.000007  -0.000013
    34  H    0.000000  -0.000011  -0.000022
    35  H   -0.000002   0.000023   0.011415
    36  H    0.000000  -0.000003  -0.000028
    37  H    0.000000   0.000000  -0.000015
    38  H    0.000000   0.000000   0.000000
    39  H    0.000004   0.000002  -0.000014
    40  H   -0.000007  -0.000010  -0.000010
    41  H    0.003366   0.000032   0.004096
    42  H    0.005986   0.002531  -0.000004
    43  H    0.633153   0.007964   0.002762
    44  H    0.007964   0.606540   0.004895
    45  H    0.002762   0.004895   0.607266
 Mulliken atomic charges:
              1
     1  O   -0.543496
     2  C   -0.135824
     3  C    0.057617
     4  O   -0.513145
     5  H    0.357587
     6  C    0.130574
     7  O   -0.555152
     8  H    0.428327
     9  C   -0.203761
    10  O   -0.554322
    11  H    0.358639
    12  C    0.298686
    13  O   -0.392768
    14  C    0.158218
    15  O   -0.312594
    16  C   -0.220908
    17  C    0.026220
    18  O   -0.540911
    19  H    0.419178
    20  C    0.045117
    21  O   -0.495874
    22  H    0.346275
    23  C   -0.115458
    24  O   -0.636992
    25  H    0.394400
    26  C    0.184825
    27  O   -0.317990
    28  C    0.223329
    29  O   -0.543183
    30  H    0.370924
    31  H    0.359986
    32  H    0.132796
    33  H    0.154618
    34  H    0.123870
    35  H    0.133155
    36  H    0.141319
    37  H    0.152910
    38  H    0.121601
    39  H    0.134866
    40  H    0.137969
    41  H    0.133954
    42  H    0.141679
    43  H    0.134108
    44  H    0.146068
    45  H    0.133561
 Sum of Mulliken atomic charges =   0.00000
 Mulliken charges with hydrogens summed into heavy atoms:
              1
     1  O   -0.172572
     2  C    0.005855
     3  C    0.191725
     4  O   -0.155558
     6  C    0.276642
     7  O   -0.126825
     9  C    0.069074
    10  O   -0.195683
    12  C    0.432640
    13  O   -0.392768
    14  C    0.291779
    15  O   -0.312594
    16  C   -0.087753
    17  C    0.167539
    18  O   -0.121733
    20  C    0.198027
    21  O   -0.149599
    23  C    0.171957
    24  O   -0.242591
    26  C    0.308696
    27  O   -0.317990
    28  C    0.344930
    29  O   -0.183197
 Sum of Mulliken charges with hydrogens summed into heavy atoms =   0.00000
 APT atomic charges:
              1
     1  O   -0.632462
     2  C    0.382144
     3  C    0.421906
     4  O   -0.648733
     5  H    0.277483
     6  C    0.370125
     7  O   -0.716100
     8  H    0.418090
     9  C    0.491318
    10  O   -0.633526
    11  H    0.253139
    12  C    0.427659
    13  O   -0.842371
    14  C    0.911318
    15  O   -0.867460
    16  C    0.500481
    17  C    0.374191
    18  O   -0.729717
    19  H    0.409371
    20  C    0.386020
    21  O   -0.594027
    22  H    0.242429
    23  C    0.470634
    24  O   -0.665834
    25  H    0.257736
    26  C    0.425352
    27  O   -0.811196
    28  C    0.910884
    29  O   -0.677275
    30  H    0.266147
    31  H    0.265958
    32  H   -0.042396
    33  H   -0.025944
    34  H   -0.061137
    35  H   -0.032233
    36  H   -0.051110
    37  H   -0.032132
    38  H   -0.077448
    39  H   -0.039271
    40  H   -0.051976
    41  H   -0.053761
    42  H   -0.041007
    43  H   -0.050726
    44  H   -0.030847
    45  H   -0.053700
 Sum of APT charges=   0.00000
 APT Atomic charges with hydrogens summed into heavy atoms:
              1
[...]
 856,-0.00012804,0.00010369,0.00003038,0.00015732,0.00001276,0.00000130
 ,-0.00001731,-0.00002734,-0.00000659,-0.00000011,0.00003804,-0.0000167
 3,0.00004118,-0.00005831,0.00003822,-0.00005019,-0.00000139,0.00000475
 ,-0.00000244,0.00000890,-0.00000509,0.00000722,-0.00000233,-0.00000068
 ,-0.00000179,-0.00000974,-0.00000138,0.00000563,0.00004007,0.00001356,
 0.00002413,-0.00001358,0.00000073,0.00001101,-0.00001747,-0.00000716,-
 0.00000545,0.00001220,0.00000011,0.00000992,-0.00001134,0.00000199,-0.
 00000745,0.00000315,0.00000056,0.00000454,0.00089978,0.00013265,-0.000
 40330,-0.00000171,-0.00000049,-0.00000105,-0.00000001,0.00000052,0.000
 00289,0.00000401,-0.00000059,-0.00000454,0.00000753,-0.00000013,0.0000
 0659,0.00000945,0.00000159,-0.00000874,0.00000760,0.00000339,0.0000092
 0,0.00000347,0.00000065,-0.00000260,0.00000362,0.00000112,0.00000148,0
 .00025088,0.00005514,0.00004620,0.00049965,-0.00077650,0.00012435,0.00
 047378,-0.00028462,0.00042536,0.37849389,-0.00869267,-0.00091054,-0.00
 334055,-0.03707826,-0.04943958,0.00578232,0.03020690,0.00410669,-0.004
 41285,-0.00251320,0.00329854,-0.00055449,0.00040477,-0.00011219,0.0004
 5683,0.00048662,0.00115640,0.00142534,-0.00035163,-0.00036920,-0.00022
 061,-0.00005277,-0.00001474,0.00002953,-0.00178791,0.00171716,-0.00087
 600,0.00031582,-0.00004131,0.00010972,0.00000594,-0.00003250,-0.000020
 40,-0.02654991,-0.00333670,0.00353685,0.00154933,0.00111424,-0.0002471
 4,0.00031825,-0.00071737,-0.00009197,0.00000754,0.00015028,0.00005767,
 -0.00002767,0.00003313,-0.00001698,-0.00000183,-0.00001015,-0.00001592
 ,0.00002546,-0.00001680,0.00003064,-0.00003998,0.00005158,-0.00005235,
 -0.00000390,0.00000437,-0.00000091,0.00000514,-0.00000115,0.00000301,-
 0.00000159,0.00000012,-0.00000087,-0.00000423,-0.00001541,0.00000739,-
 0.00002678,-0.00000381,-0.00005198,0.00000636,0.00000046,-0.00001262,0
 .00000198,-0.00001121,0.00000497,-0.00000177,0.00000593,0.00000421,0.0
 0000013,-0.00000243,0.00000083,0.00000066,0.00000046,0.00000008,-0.000
 69316,0.00111140,0.00019356,-0.00000028,0.00000040,0.00000026,0.000000
 45,0.00000391,-0.00000579,-0.00000018,0.00000096,0.00000303,-0.0000007
 8,0.00000172,-0.00000076,0.00000137,-0.00000630,0.00000511,0.00000248,
 0.00000490,0.00000391,0.00000168,-0.00000062,-0.00000124,0.00000033,0.
 00000076,0.00000029,0.00037141,0.00035929,-0.00003234,0.00102694,-0.00
 022561,-0.00001612,-0.00120869,-0.00306169,0.00311728,0.04240956,0.049
 90027,-0.03860361,-0.00743748,-0.01088632,0.04361170,0.00473954,-0.050
 19760,0.01215860,0.00373490,-0.00098086,-0.00151899,0.00019443,0.00086
 280,-0.00038703,-0.00058731,-0.00005730,0.00075252,0.00061855,0.000801
 79,-0.00023695,-0.00019636,-0.00010975,-0.00001063,0.00002451,0.000022
 61,0.00026002,-0.00136793,0.00044244,-0.00004422,0.00004065,0.00013156
 ,-0.00001181,-0.00001806,0.00003258,0.02276163,0.00282893,-0.00064050,
 -0.00144191,-0.00082564,0.00174271,0.00032757,-0.00001035,-0.00002988,
 -0.00009236,-0.00002637,-0.00022534,-0.00001679,-0.00002576,0.00003455
 ,0.00002394,0.00000521,0.00001171,-0.00004013,0.00000663,-0.00003265,0
 .00005346,-0.00001337,0.00003276,0.00000207,-0.00000828,0.00000961,-0.
 00001102,0.00001202,-0.00001415,0.00000278,-0.00000063,0.00000218,0.00
 000578,0.00000268,-0.00000296,-0.00002435,-0.00001092,-0.00002078,0.00
 000908,0.00000045,-0.00000682,0.00001142,0.00001149,0.00001378,-0.0000
 0874,0.00000297,-0.00002896,0.00000932,-0.00000572,0.00002510,0.000002
 45,-0.00000001,-0.00001712,-0.00229614,0.00055192,0.00343230,0.0000008
 9,0.00000063,0.00000303,-0.00000086,-0.00000259,-0.00000355,-0.0000021
 4,0.00000157,0.00000401,-0.00000655,-0.00000118,-0.00000707,-0.0000099
 6,-0.00000082,0.00001074,-0.00000902,-0.00000444,-0.00001132,-0.000003
 75,-0.00000009,0.00000317,-0.00000313,-0.00000074,-0.00000241,-0.00012
 357,-0.00017792,-0.00002493,-0.00072132,0.00024952,0.00008525,0.000849
 71,0.00284683,-0.00294594,-0.03571515,-0.00274629,0.05937778,0.0022654
 3,-0.00045805,-0.00125395,-0.02068423,-0.00019081,-0.00081597,-0.34332
 701,-0.05289034,-0.01260656,-0.00033802,-0.00924195,0.00912255,-0.0001
 5685,-0.00084357,-0.00016263,-0.01101270,-0.00108133,-0.00338644,0.001
 78787,0.00025722,0.00043538,0.00024082,0.00003326,0.00010224,0.0006360
 9,0.00047779,-0.00008847,0.00002368,-0.00006056,-0.00003116,-0.0000087
 0,0.00001535,0.00000034,-0.00100684,-0.00219060,0.00058813,0.00023016,
 0.00068422,-0.00018390,-0.00065163,-0.00119511,0.00046806,0.00038677,0
 .00017465,-0.00023617,-0.00008788,0.00006643,-0.00004873,0.00001216,-0
 .00002181,-0.00006098,0.00003899,0.00001935,0.00004583,-0.00002633,-0.
 00000810,-0.00000441,-0.00002146,0.00000938,-0.00000087,0.00001425,0.0
 0000687,0.00000506,-0.00000628,-0.00000138,-0.00000498,-0.00003412,-0.
 00003048,0.00005606,0.00005112,0.00004362,-0.00000246,-0.00001711,0.00
 000036,0.00002225,-0.00001251,-0.00001454,0.00000229,0.00001383,0.0000
 1704,-0.00001030,-0.00000282,-0.00001509,-0.00000140,0.00000367,0.0000
 0678,0.00000234,0.00055399,-0.00055168,-0.00036311,-0.00000101,-0.0000
 0180,-0.00000132,0.00000260,0.00000269,-0.00000237,0.00001101,0.000000
 31,-0.00000984,0.00000883,0.00000043,0.00000910,0.00001182,0.00000645,
 -0.00003492,0.00001038,0.00000257,0.00001024,0.00000481,0.00000092,-0.
 00000272,0.00000334,0.00000224,0.00000202,-0.00001715,0.00012485,0.000
 00905,0.00024644,-0.00035456,0.00001211,0.00128764,0.00070866,-0.00040
 018,-0.00031463,0.00239602,0.00085725,0.36892539,-0.00129213,0.0019462
 6,0.00173939,0.03128741,0.00051407,-0.00038107,-0.05397637,-0.04791150
 ,-0.00830401,-0.03075960,-0.01941177,0.01792737,-0.00080232,-0.0004307
 4,-0.00074213,-0.01147865,0.00029023,-0.00326971,-0.00009527,0.0009123
 5,0.00126495,0.00010436,-0.00006880,0.00004069,0.00028578,0.00005609,-
 0.00008245,-0.00007015,-0.00001840,-0.00004484,-0.00000190,0.00001145,
 0.00000729,0.00191458,0.00104093,-0.00040419,-0.00029020,-0.00021136,0
 .00011129,0.00029215,-0.00033997,0.00038733,0.00011704,0.00006440,-0.0
 0032947,-0.00004927,0.00005182,0.00002746,0.00001394,-0.00001621,-0.00
 004758,-0.00000526,0.00000759,0.00002621,0.00000126,-0.00000029,-0.000
 02963,-0.00000991,0.00000667,0.00000707,0.00000339,0.00000326,-0.00000
 767,-0.00000199,0.00000137,-0.00000113,-0.00002249,0.00001334,-0.00000
 025,0.00008244,0.00001284,0.00007330,-0.00001561,0.00000368,0.00002487
 ,-0.00001058,0.00002629,0.00000782,0.00001124,-0.00001271,-0.00001087,
 -0.00000248,0.00000199,0.00000111,0.00000181,-0.00000062,-0.00000099,0
 .00012675,0.00021416,0.00044302,-0.00000026,-0.00000014,-0.00000036,0.
 00000230,-0.00000574,0.00000612,0.00000635,0.00000171,-0.00001117,0.00
 000564,-0.00000557,0.00000310,0.00000460,0.00000770,-0.00001220,0.0000
 0215,-0.00000145,0.00000234,0.00000096,0.00000053,-0.00000116,0.000001
 09,0.00000011,0.00000051,-0.00011552,-0.00001100,-0.00001584,-0.000245
 27,-0.00006139,0.00002185,0.00008112,-0.00080481,0.00040595,0.00191707
 ,-0.00442111,-0.00222523,0.06339197,0.06828491,0.00038619,0.00072109,0
 .00105443,0.01301969,-0.00165297,0.00071062,-0.01417128,-0.00830542,-0
 .04047873,0.02595238,0.02116655,-0.01011787,0.00145677,0.00063036,0.00
 044743,-0.03683766,-0.00827729,-0.00629219,0.00142129,0.00201020,0.002
 69307,-0.00011029,0.00021849,0.00009624,-0.00004428,-0.00009948,0.0000
 0671,-0.00002346,0.00001456,0.00000223,-0.00000143,0.00000818,0.000003
 36,-0.00069603,0.00093311,-0.00028993,0.00016965,0.00041761,-0.0002243
 1,-0.00111585,-0.00075956,0.00117299,0.00041381,0.00013478,-0.00012202
 ,0.00002775,0.00005712,0.00006681,0.00001373,-0.00001498,-0.00002331,0
 .00001766,0.00002476,0.00000394,-0.00001581,-0.00002434,0.00000550,-0.
 00001289,-0.00000105,0.00000806,0.00000265,0.00001454,-0.00001054,-0.0
 0000282,-0.00000081,-0.00000179,-0.00003236,-0.00001133,0.00004882,0.0
 0013163,-0.00000815,0.00006431,-0.00001001,0.00002388,0.00001053,-0.00
 001908,0.00000567,0.00003113,0.00001310,0.00000915,-0.00004132,0.00000
 268,-0.00001738,0.00002531,0.00000721,0.00000288,-0.00001751,-0.000010
 58,0.00026175,0.00009177,-0.00000060,0.00000085,0.00000292,0.00000088,
 -0.00000400,-0.00000033,0.00001098,0.00000306,-0.00001814,0.00000856,-
 0.00000373,0.00000824,0.00002506,0.00001423,-0.00005551,0.00000291,0.0
 0000043,0.00000529,0.00000085,0.00000168,0.00000024,0.00000049,0.00000
 150,0.00000020,-0.00003032,-0.00006236,-0.00000716,-0.00006648,0.00005
 350,-0.00003287,-0.00026827,0.00031229,0.00015084,0.00100457,-0.001677
 51,-0.00072956,0.00979895,-0.00466632,0.05827130,0.00035928,0.00003537
 ,-0.00006944,-0.00036346,0.00049466,0.00000207,-0.00690502,-0.00431756
 ,-0.00179674,0.00104849,0.00069725,-0.00006234,0.00007247,0.00009066,0
 .00002554,-0.32686476,-0.09389588,-0.01984947,-0.02397620,0.00921227,0
 .00533369,0.00031965,-0.00033798,-0.00168194,-0.00004263,-0.00003471,-
 0.00000723,0.00003678,0.00003080,0.00001902,-0.00000791,-0.00000129,-0
 .00000013,-0.00011566,-0.00012731,0.00006325,0.00144428,-0.00078353,-0
 .00033488,-0.00592215,-0.00171744,-0.00061530,0.00113021,0.00075233,-0
 .00114381,0.00015804,0.00021457,0.00026178,0.00004453,0.00002644,-0.00
 005247,0.00003298,0.00002621,-0.00002736,-0.00002592,-0.00004640,-0.00
 003223,-0.00003054,0.00001713,0.00002497,0.00001092,0.00001034,-0.0000
 2691,-0.00000510,0.00000212,-0.00000312,-0.00006562,0.00009288,0.00001
 949,0.00040430,-0.00007806,0.00038668,-0.00003959,0.00003728,0.0000554
 2,-0.00007009,0.00007299,0.00003595,0.00004132,-0.00005953,-0.00005149
 ,-0.00001562,0.00001260,0.00002308,0.00001313,-0.00000674,-0.00002163,
 -0.00002032,-0.00009765,-0.00007818,-0.00000124,0.00000197,0.00000359,
 0.00001251,-0.00003197,0.00003359,0.00003323,0.00000309,-0.00006246,0.
 00002500,-0.00001651,0.00001874,0.00001497,0.00004952,-0.00025830,0.00
 000487,-0.00001255,0.00001339,0.00000391,0.00000256,-0.00000046,0.0000
 0478,-0.00000028,0.00000227,0.00001160,0.00000127,-0.00001218,0.000043
 38,-0.00002296,-0.00000378,0.00003950,0.00010517,-0.00001071,0.0004612
 9,-0.00042639,-0.00022238,0.00062327,-0.00047613,-0.00077005,0.3578714
 2,0.00019373,0.00000075,-0.00003477,-0.00081692,0.00044335,0.00038472,
 -0.00968355,-0.00194967,-0.00133345,0.00112510,0.00082254,-0.00050834,
 -0.00003926,-0.00002431,0.00006189,-0.09599162,-0.07237030,-0.00481106
 ,0.03905862,-0.00245231,-0.00337204,0.00043678,0.00219445,0.00139995,-
 0.00010314,0.00003446,0.00003528,0.00003214,-0.00002322,-0.00000713,-0
 .00000079,0.00000418,-0.00000038,-0.00011010,-0.00017931,-0.00004121,0
 .00137445,0.00149761,-0.00012847,-0.02816024,-0.00806296,-0.00026333,0
 .00101682,0.00143531,-0.00206467,-0.00009767,0.00031121,0.00018270,0.0
 0009264,-0.00003198,-0.00016827,0.00011429,0.00000044,0.00007790,-0.00
 012371,0.00000894,-0.00006402,-0.00003297,0.00003511,0.00001709,0.0000
 1402,0.00001723,-0.00001507,-0.00000568,0.00000189,-0.00000503,0.00001
 349,0.00002140,0.00005564,-0.00028371,-0.00018003,-0.00004785,0.000061
 32,-0.00001497,-0.00011907,0.00004357,-0.00003178,0.00004039,0.0000033
 2,0.00002489,-0.00004305,0.00000642,-0.00003622,0.00001828,0.00000252,
 0.00001099,-0.00000447,0.00002022,-0.00000825,-0.00001676,0.00000003,-
 0.00000025,0.00000080,-0.00001310,-0.00000155,-0.00000284,-0.00002005,
 -0.00001379,0.00004123,0.00000258,0.00002545,0.00002248,0.00020951,0.0
 0003299,-0.00017000,0.00002274,-0.00001583,0.00003348,0.00000687,0.000
 00248,-0.00000798,-0.00000074,0.00000332,0.00000119,0.00001079,-0.0000
 1923,-0.00000156,0.00005819,-0.00004064,-0.00001192,0.00011168,0.00015
 028,0.00003328,0.00026688,-0.00018254,-0.00020191,0.00022928,0.0000388
 6,-0.00185391,0.09066102,0.08156844,0.00050636,0.00019044,-0.00027956,
 -0.00093910,0.00102815,0.00112089,-0.03486728,-0.01245052,-0.00406933,
 0.00208302,0.00082251,0.00294017,0.00013113,-0.00021616,0.00033724,-0.
 02391897,-0.00531115,-0.04547184,0.01366290,-0.00344028,0.00119794,0.0
 0115501,0.00039325,0.00101015,-0.00003102,-0.00000463,0.00006260,0.000
 01705,0.00002097,0.00001763,-0.00000022,0.00000069,0.00000747,-0.00025
 005,-0.00019233,-0.00052346,-0.00106949,-0.00057393,0.00025481,0.02281
 357,0.01034788,-0.00024146,0.00026961,-0.00107447,0.00178425,0.0003824
 8,-0.00005130,-0.00033610,-0.00007159,0.00004341,0.00015384,-0.0000900
 7,-0.00004911,-0.00009402,0.00008923,0.00001650,0.00011741,0.00002836,
 -0.00002747,-0.00002121,-0.00000752,-0.00003321,0.00001738,0.00000521,
 0.00000068,0.00000578,0.00015635,0.00013035,-0.00017799,-0.00029221,-0
 .00003463,0.00019240,0.00002596,-0.00005392,0.00003656,-0.00001325,0.0
 0003053,-0.00005745,-0.00003821,-0.00006670,0.00011785,-0.00001480,0.0
 0006844,-0.00005082,-0.00001344,-0.00001797,0.00002678,0.00014435,-0.0
 0013581,-0.00006897,0.00000111,-0.00000039,-0.00000426,-0.00001711,-0.
 00002199,0.00003339,-0.00004731,-0.00001177,0.00004547,-0.00003013,-0.
 00000916,-0.00005728,-0.00027739,-0.00005770,0.00005577,-0.00003397,0.
 00002481,-0.00003284,-0.00000628,-0.00000469,0.00000910,-0.00000036,-0
 .00000402,-0.00000257,0.00001464,-0.00003064,0.00000888,0.00002374,-0.
 00002952,0.00000078,0.00013893,0.00009528,-0.00009689,0.00053976,-0.00
 032179,-0.00017804,-0.00125246,-0.00179114,-0.00612512,0.02076987,0.01
 013854,0.05075724,0.00007943,-0.00009562,0.00020256,0.00003628,0.00038
 932,-0.00008470,-0.00023704,-0.00046218,0.00011960,0.00018254,0.000105
 00,-0.00005617,-0.00004522,0.00000495,0.00004434,-0.00325068,0.0013330
 4,0.00105218,0.00198313,0.00023089,-0.00141428,-0.00015744,-0.00016969
 ,0.00000668,0.00032543,-0.00010674,0.00017019,0.00000053,0.00020405,0.
 00010577,-0.00002007,-0.00000628,0.00002740,-0.00044706,-0.00029079,-0
 .00071249,-0.00890788,0.00870899,0.00598438,-0.33780763,-0.05407356,0.
 06872171,-0.01939428,-0.00401249,-0.00593508,-0.00007687,-0.00091662,0
 .00420770,0.00041959,0.00027145,-0.00013591,0.00053198,-0.00007629,-0.
 00023593,-0.00046385,-0.00037425,0.00059154,-0.00005210,0.00009046,0.0
 0000979,0.00003523,0.00000591,-0.00001991,-0.00001561,0.00000447,-0.00
 001207,-0.00020204,0.00004033,0.00004403,0.00013893,-0.00002735,0.0000
 0548,-0.00001155,0.00000008,0.00001282,0.00041360,0.00017175,-0.000037
 63,0.00011261,-0.00011441,-0.00034859,0.00000028,-0.00003789,0.0000254
 8,0.00001054,0.00000914,-0.00001936,0.00000551,-0.00000151,-0.00001137
 ,-0.00000048,0.00000311,-0.00000019,0.00004292,0.00000788,-0.00000445,
 0.00007854,-0.00003358,-0.00002797,0.00007952,0.00015905,0.00026742,0.
 00143469,0.00036198,-0.00118369,0.00011253,-0.00023427,0.00021092,0.00
 002530,0.00001940,-0.00003545,0.00000363,0.00000630,0.00000333,-0.0000
 0977,-0.00002734,-0.00000656,0.00008593,-0.00015437,-0.00008202,0.0001
 5714,0.00040045,0.00102779,0.00002833,-0.00008156,-0.00013769,0.000332
 92,0.00006600,0.00035012,0.00020575,0.00029421,0.00032362,0.36423672,-
 0.00007032,0.00042413,-0.00027352,-0.00020415,-0.00083726,-0.00020770,
 -0.00100319,-0.00079677,-0.00149929,0.00036059,0.00015867,0.00068626,0
 .00012981,-0.00017839,0.00008062,-0.02302469,-0.00249865,0.00743980,0.
 00035781,0.00317915,-0.00114105,-0.00014670,-0.00008636,-0.00006260,-0
 .00001507,0.00022744,-0.00012229,-0.00012086,-0.00035636,-0.00015351,0
 .00000364,0.00001430,-0.00005988,0.00291672,0.00160005,0.00432490,0.03
 436942,-0.00671027,-0.01494217,-0.05578952,-0.05191323,0.01462382,-0.0
 0617771,0.00297273,-0.00023417,0.00069951,-0.00029285,0.00142713,0.000
 16633,-0.00000688,0.00003782,-0.00033780,0.00014294,0.00018916,0.00022
 258,0.00020022,-0.00097918,0.00003046,0.00003040,0.00008043,-0.0000247
 1,0.00004684,-0.00006052,-0.00000152,0.00000094,0.00000103,-0.00013288
 ,0.00001625,-0.00004288,0.00007764,-0.00004587,0.00001698,-0.00000477,
 0.00000968,0.00001201,-0.00005679,0.00014985,0.00003053,0.00001659,-0.
 00005895,-0.00014601,0.00000386,-0.00001183,0.00009020,0.00001333,-0.0
 0000020,-0.00005212,-0.00001065,0.00000555,0.00002153,0.00000094,0.000
 00217,0.00000881,0.00003508,-0.00001644,0.00000050,0.00004293,-0.00002
 073,-0.00003737,0.00000156,-0.00001652,0.00003600,0.00038760,0.0003327
 4,-0.00003021,0.00000078,-0.00006939,0.00002954,-0.00000984,-0.0000015
 1,0.00000188,-0.00000198,-0.00000273,-0.00000447,0.00002106,0.00002589
 ,0.00002984,-0.00019936,0.00007066,-0.00000204,-0.00127390,0.00012636,
 -0.00009243,0.00002610,-0.00009000,0.00002194,0.00047307,0.00022094,0.
 00039836,-0.00015960,-0.00304745,0.00266399,0.04840861,0.05710076,-0.0
 0010916,-0.00002662,-0.00033893,-0.00007064,0.00015902,-0.00000023,0.0
 0123958,-0.00007300,0.00171656,-0.00049988,0.00006069,-0.00027536,-0.0
 0004139,-0.00001276,-0.00001181,0.02168398,0.00384369,-0.00083152,-0.0
 0186228,-0.00183475,0.00131544,-0.00011812,0.00013667,-0.00015959,-0.0
 0005978,-0.00001503,0.00000798,-0.00007272,-0.00019878,-0.00011429,0.0
 0001170,0.00001199,-0.00001978,0.00200973,0.00099482,0.00331866,0.0142
 1465,-0.00648079,-0.00333332,0.07631582,0.01822755,-0.06377598,-0.0329
 7715,-0.00361785,-0.00858410,-0.00646777,-0.00237436,0.00411072,0.0000
 6519,0.00005154,-0.00041932,0.00010940,0.00016867,0.00036420,-0.000137
 31,-0.00014385,-0.00063428,0.00000587,0.00006424,0.00009654,0.00001229
 ,0.00006674,-0.00004645,-0.00000907,0.00000077,-0.00000952,-0.00007052
 ,0.00014462,0.00002565,0.00001401,-0.00013893,0.00007730,0.00003412,0.
 00000657,-0.00003039,-0.00011130,0.00005661,0.00002091,0.00018217,0.00
 006542,-0.00030086,0.00001869,-0.00010291,0.00011214,0.00002083,0.0000
 2459,-0.00006960,-0.00003068,-0.00000065,0.00002036,0.00000092,0.00000
 355,0.00000938,0.00001292,-0.00001922,0.00000680,0.00001758,-0.0000467
 1,-0.00000074,0.00016776,0.00006024,0.00005302,0.00096034,0.00044999,-
 0.00072475,0.00026523,-0.00003891,0.00002424,0.00002761,0.00002125,-0.
 00005098,-0.00000190,0.00000334,0.00000660,0.00000837,0.00001783,0.000
 00305,-0.00015748,0.00008641,-0.00002377,-0.00097777,-0.00004071,-0.00
 021390,-0.00013012,-0.00005535,0.00007137,-0.00058293,-0.00014965,-0.0
 0039408,0.00010259,0.00275373,-0.00242257,-0.07301337,-0.01210968,0.07
 142518\\-0.00391499,-0.00491049,-0.00075446,0.02442415,-0.00002295,-0.
 01455224,0.00278413,-0.00538281,0.01977872,-0.00974586,0.00178414,0.00
 760264,0.00234702,-0.00830110,-0.02834400,0.00874068,-0.03247375,-0.00
 836601,-0.00180817,-0.00594374,-0.00706600,0.00177871,0.01671282,0.016
 80206,-0.00639962,0.01873805,-0.00006572,0.01262124,0.01523349,0.00243
 793,-0.00410282,-0.03422005,0.00376148,0.00165998,0.02202148,0.0091261
 9,0.00370893,0.00470545,0.02443543,-0.05733843,0.01849029,-0.00590975,
 0.01839762,-0.01586892,0.00434942,-0.00787307,-0.03344114,0.01229326,0
 .00878165,0.00774045,0.03779872,-0.00117944,0.00762569,-0.00142732,0.0
 0361450,0.00398706,-0.02272273,-0.00539189,0.01128598,0.02427151,0.008
 38313,-0.00809786,-0.03448621,-0.00861337,-0.00814736,0.02573336,0.020
 18935,-0.01554116,-0.00105397,-0.01957593,-0.01165144,0.00835559,0.008
 83739,0.03308630,0.00127755,-0.00826547,0.02096298,-0.00042077,-0.0011
 2653,-0.00255804,-0.01665333,0.02420787,-0.00300696,-0.02289260,-0.003
 35547,0.00353851,0.01654302,-0.00252916,0.00657780,0.00258680,-0.00376
 352,-0.00293859,-0.00350052,-0.00395875,-0.00389991,-0.01763563,0.0203
 9022,-0.00008007,-0.00187107,-0.02308714,-0.00095737,-0.00225418,0.018
 03376,0.00315312,0.00101935,-0.02171237,-0.00310319,-0.00387392,0.0200
 8446,0.00217066,0.00037246,-0.02008563,-0.00611369,-0.00410816,0.00285
 529,0.00566513,-0.01778417,-0.02095871,-0.00336047,-0.00220097,0.02149
 681,0.00138304,0.00400702,-0.01802607,-0.00249616,0.00233381,0.0221139
 3,0.00691209,0.00009986,-0.02024325,-0.00180144,-0.00325261,0.01760485
 ,0.00254412,-0.00378984\\\@


 AND THIS OUR LIFE, EXEMPT FROM PUBLIC HAUNT,
 FINDS TONGUES IN TREES, BOOKS IN THE RUNNING BROOKS,
 SERMONS IN STONES, AND GOOD IN EVERYTHING.
 I WOULD NOT CHANGE IT. -- W. SHAKESPEARE
 AS YOU LIKE IT, ACT II, SCENE 1.
 Job cpu time:  0 days 12 hours 54 minutes 51.1 seconds.
 File lengths (MBytes):  RWF=   1324 Int=      0 D2E=      0 Chk=     19 Scr=      1
 Normal termination of Gaussian 09 at Tue Mar  1 03:18:16 2016.
Gaussian '09 finished on node030 at Tue Mar  1 03:18:16 EST 2016.
