Gaussian '09 started on node011 at Thu Oct 22 15:18:00 EDT 2015.
 Entering Gaussian System, Link 0=/usr/local/gaussian/g09/g09
 Initial command:
 /usr/local/gaussian/g09/l1.exe /home/srmcgrat/data/gaussian/cellobiose/450/capped/10000ps/gaussian13616/Gau-13652.inp -scrdir=/home/srmcgrat/data/gaussian/cellobiose/450/capped/10000ps/gaussian13616/
 Entering Link 1 = /usr/local/gaussian/g09/l1.exe PID=     13654.
  
 Copyright (c) 1988,1990,1992,1993,1995,1998,2003,2009,2010,
            Gaussian, Inc.  All Rights Reserved.
  
 This is part of the Gaussian(R) 09 program.  It is based on
 the Gaussian(R) 03 system (copyright 2003, Gaussian, Inc.),
 the Gaussian(R) 98 system (copyright 1998, Gaussian, Inc.),
 the Gaussian(R) 94 system (copyright 1995, Gaussian, Inc.),
 the Gaussian 92(TM) system (copyright 1992, Gaussian, Inc.),
 the Gaussian 90(TM) system (copyright 1990, Gaussian, Inc.),
 the Gaussian 88(TM) system (copyright 1988, Gaussian, Inc.),
 the Gaussian 86(TM) system (copyright 1986, Carnegie Mellon
 University), and the Gaussian 82(TM) system (copyright 1983,
 Carnegie Mellon University). Gaussian is a federally registered
 trademark of Gaussian, Inc.
  
 This software contains proprietary and confidential information,
 including trade secrets, belonging to Gaussian, Inc.
  
 This software is provided under written license and may be
 used, copied, transmitted, or stored only in accord with that
 written license.
  
 The following legend is applicable only to US Government
 contracts under FAR:
  
                    RESTRICTED RIGHTS LEGEND
  
 Use, reproduction and disclosure by the US Government is
 subject to restrictions as set forth in subparagraphs (a)
 and (c) of the Commercial Computer Software - Restricted
 Rights clause in FAR 52.227-19.
  
 Gaussian, Inc.
 340 Quinnipiac St., Bldg. 40, Wallingford CT 06492
  
  
 ---------------------------------------------------------------
 Warning -- This program may not be used in any manner that
 competes with the business of Gaussian, Inc. or will provide
 assistance to any competitor of Gaussian, Inc.  The licensee
 of this program is prohibited from giving any competitor of
 Gaussian, Inc. access to this program.  By using this program,
 the user acknowledges that Gaussian, Inc. is engaged in the
 business of creating and licensing software in the field of
 computational chemistry and represents and warrants to the
 licensee that it is not a competitor of Gaussian, Inc. and that
 it will not use this program in any manner prohibited above.
 ---------------------------------------------------------------
  

 Cite this work as:
 Gaussian 09, Revision B.01,
 M. J. Frisch, G. W. Trucks, H. B. Schlegel, G. E. Scuseria, 
 M. A. Robb, J. R. Cheeseman, G. Scalmani, V. Barone, B. Mennucci, 
 G. A. Petersson, H. Nakatsuji, M. Caricato, X. Li, H. P. Hratchian, 
 A. F. Izmaylov, J. Bloino, G. Zheng, J. L. Sonnenberg, M. Hada, 
 M. Ehara, K. Toyota, R. Fukuda, J. Hasegawa, M. Ishida, T. Nakajima, 
 Y. Honda, O. Kitao, H. Nakai, T. Vreven, J. A. Montgomery, Jr., 
 J. E. Peralta, F. Ogliaro, M. Bearpark, J. J. Heyd, E. Brothers, 
 K. N. Kudin, V. N. Staroverov, T. Keith, R. Kobayashi, J. Normand, 
 K. Raghavachari, A. Rendell, J. C. Burant, S. S. Iyengar, J. Tomasi, 
 M. Cossi, N. Rega, J. M. Millam, M. Klene, J. E. Knox, J. B. Cross, 
 V. Bakken, C. Adamo, J. Jaramillo, R. Gomperts, R. E. Stratmann, 
 O. Yazyev, A. J. Austin, R. Cammi, C. Pomelli, J. W. Ochterski, 
 R. L. Martin, K. Morokuma, V. G. Zakrzewski, G. A. Voth, 
 P. Salvador, J. J. Dannenberg, S. Dapprich, A. D. Daniels, 
 O. Farkas, J. B. Foresman, J. V. Ortiz, J. Cioslowski, 
 and D. J. Fox, Gaussian, Inc., Wallingford CT, 2010.
 
 ******************************************
 Gaussian 09:  EM64L-G09RevB.01 12-Aug-2010
                22-Oct-2015 
 ******************************************
 ------------------------------------------------
 # freq=raman b3lyp/6-31+g(d,p) geom=connectivity
 ------------------------------------------------
 1/10=4,30=1,38=1,57=2/1,3;
 2/12=2,17=6,18=5,40=1/2;
 3/5=1,6=6,7=111,11=2,16=1,25=1,30=1,71=2,74=-5/1,2,3;
 4//1;
 5/5=2,38=5,98=1/2;
 8/6=4,10=90,11=11/1;
 10/13=10,15=4/2;
 11/6=3,8=1,9=11,15=111,16=1/1,2,10;
 10/6=1/2;
 6/7=2,8=2,9=2,10=2,18=1,28=1/1;
 7/8=1,10=1,25=1/1,2,3,16;
 1/10=4,30=1/3;
 99//99;
 ------------------------------
 450K 10000ps Cellobiose Unit 1
 ------------------------------
 Symbolic Z-matrix:
 Charge =  0 Multiplicity = 1
 O(PDBName=O1,ResName=GLC,ResNum=6)  10.497    7.94      32.167 
 C(PDBName=C4,ResName=GLC,ResNum=7)  11.332    7.742     33.317 
 C(PDBName=C3,ResName=GLC,ResNum=7)  11.905    9.131     33.542 
 O(PDBName=O3,ResName=GLC,ResNum=7)  13.068    9.306     32.72 
 H(PDBName=HO3,ResName=GLC,ResNum=7)  12.783    9.431     31.77 
 C(PDBName=C2,ResName=GLC,ResNum=7)  12.423    9.275     34.964 
 O(PDBName=O2,ResName=GLC,ResNum=7)  12.165    10.655    35.258 
 H(PDBName=HO2,ResName=GLC,ResNum=7)  12.765    11.308    34.795 
 C(PDBName=C6,ResName=GLC,ResNum=7)  10.202    5.833     34.237 
 O(PDBName=O6,ResName=GLC,ResNum=7)  9.705     4.904     35.211 
 H(PDBName=HO6,ResName=GLC,ResNum=7)  9.789     3.98      34.836 
 C(PDBName=C5,ResName=GLC,ResNum=7)  10.493    7.3       34.505 
 O(PDBName=O5,ResName=GLC,ResNum=7)  11.28     7.263     35.704 
 C(PDBName=C1,ResName=GLC,ResNum=7)  11.599    8.616     36.058 
 O(PDBName=O1,ResName=GLC,ResNum=7)  12.097    8.329     37.373 
 C(PDBName=C4,ResName=GLC,ResNum=8)  11.405    8.319     38.63 
 C(PDBName=C3,ResName=GLC,ResNum=8)  10.933    6.985     39.185 
 O(PDBName=O3,ResName=GLC,ResNum=8)  10.437    6.186     38.101 
 H(PDBName=HO3,ResName=GLC,ResNum=8)  10.917    6.46      37.268 
 C(PDBName=C2,ResName=GLC,ResNum=8)  10.06     7.179     40.414 
 O(PDBName=O2,ResName=GLC,ResNum=8)  9.077     6.219     40.827 
 H(PDBName=HO2,ResName=GLC,ResNum=8)  8.278     6.14      40.23 
 C(PDBName=C6,ResName=GLC,ResNum=8)  12.518    10.228    39.344 
 O(PDBName=O6,ResName=GLC,ResNum=8)  13.315    11.079    40.18 
 H(PDBName=HO6,ResName=GLC,ResNum=8)  14.223    10.757    40.45 
 C(PDBName=C5,ResName=GLC,ResNum=8)  12.305    8.783     39.764 
 O(PDBName=O5,ResName=GLC,ResNum=8)  11.681    8.829     41.055 
 C(PDBName=C1,ResName=GLC,ResNum=8)  11.027    7.63      41.497 
 O(PDBName=O1,ResName=GLC,ResNum=8)  10.46     7.954     42.774 
 H                     11.16487   8.11428   43.40572 
 H                     11.04685   8.07353   31.39148 
 H                     11.11456   5.41367   33.86781 
 H                     9.50294   5.81386   33.42715 
 H                     9.59949   7.87797   34.61674 
 H                     12.10876   7.03603   33.10924 
 H                     11.17412   9.88251   33.32766 
 H                     10.68537   9.16363   36.15939 
 H                     13.46411   9.04124   35.04363 
 H                     10.56584   8.97952   38.56355 
 H                     11.81155   6.48372   39.53397 
 H                     9.48108   8.05012   40.1884 
 H                     11.76485   6.86739   41.63451 
 H                     13.22763   8.24152   39.78527 
 H                     11.5532   10.6812   39.25091 
 H                     12.96856   10.21755   38.37354 
 
 Residue   4                        charge    0.00000000 ave dist*************
 Residue   2 PDB Number     7_0 GLC charge    0.00000000 ave dist*************
 Residue   3 PDB Number     8_0 GLC charge    0.00000000 ave dist*************
 Residue   1 PDB Number     6_0 GLC charge    0.00000000 ave dist*************

 GradGradGradGradGradGradGradGradGradGradGradGradGradGradGradGradGradGrad
 Berny optimization.
 Initialization pass.
 Trust Radius=3.00D-01 FncErr=1.00D-07 GrdErr=1.00D-07
 Number of steps in this run=      2 maximum allowed number of steps=      2.
 GradGradGradGradGradGradGradGradGradGradGradGradGradGradGradGradGradGrad

                          Input orientation:                          
 ---------------------------------------------------------------------
 Center     Atomic      Atomic             Coordinates (Angstroms)
 Number     Number       Type             X           Y           Z
 ---------------------------------------------------------------------
      1          8           0       10.497000    7.940000   32.167000
      2          6           0       11.332000    7.742000   33.317000
      3          6           0       11.905000    9.131000   33.542000
      4          8           0       13.068000    9.306000   32.720000
      5          1           0       12.783000    9.431000   31.770000
      6          6           0       12.423000    9.275000   34.964000
      7          8           0       12.165000   10.655000   35.258000
      8          1           0       12.765000   11.308000   34.795000
      9          6           0       10.202000    5.833000   34.237000
     10          8           0        9.705000    4.904000   35.211000
     11          1           0        9.789000    3.980000   34.836000
     12          6           0       10.493000    7.300000   34.505000
     13          8           0       11.280000    7.263000   35.704000
     14          6           0       11.599000    8.616000   36.058000
     15          8           0       12.097000    8.329000   37.373000
     16          6           0       11.405000    8.319000   38.630000
     17          6           0       10.933000    6.985000   39.185000
     18          8           0       10.437000    6.186000   38.101000
     19          1           0       10.917000    6.460000   37.268000
     20          6           0       10.060000    7.179000   40.414000
     21          8           0        9.077000    6.219000   40.827000
     22          1           0        8.278000    6.140000   40.230000
     23          6           0       12.518000   10.228000   39.344000
     24          8           0       13.315000   11.079000   40.180000
     25          1           0       14.223000   10.757000   40.450000
     26          6           0       12.305000    8.783000   39.764000
     27          8           0       11.681000    8.829000   41.055000
     28          6           0       11.027000    7.630000   41.497000
     29          8           0       10.460000    7.954000   42.774000
     30          1           0       11.164870    8.114279   43.405718
     31          1           0       11.046849    8.073525   31.391476
     32          1           0       11.114557    5.413671   33.867807
     33          1           0        9.502943    5.813858   33.427153
     34          1           0        9.599486    7.877968   34.616736
     35          1           0       12.108756    7.036035   33.109243
     36          1           0       11.174121    9.882514   33.327658
     37          1           0       10.685369    9.163629   36.159392
     38          1           0       13.464111    9.041235   35.043635
     39          1           0       10.565838    8.979523   38.563548
     40          1           0       11.811546    6.483724   39.533967
     41          1           0        9.481079    8.050124   40.188402
     42          1           0       11.764851    6.867394   41.634506
     43          1           0       13.227629    8.241518   39.785266
     44          1           0       11.553195   10.681195   39.250910
     45          1           0       12.968555   10.217550   38.373541
 ---------------------------------------------------------------------
                    Distance matrix (angstroms):
                    1          2          3          4          5
     1  O    0.000000
     2  C    1.434897   0.000000
     3  C    2.300341   1.519301   0.000000
     4  O    2.963411   2.411680   1.434879   0.000000
     5  H    2.757986   2.711334   2.000217   0.999675   0.000000
     6  C    3.648960   2.500596   1.520245   2.335064   3.218007
     7  O    4.439339   3.598186   2.309726   3.012749   3.747832
     8  H    4.836696   4.117563   2.654984   2.899213   3.560067
     9  C    2.968396   2.401579   3.776247   4.751523   5.068851
    10  O    4.371555   3.780028   5.049068   6.073916   6.465933
    11  H    4.827673   4.340605   5.717053   6.602694   6.933815
    12  C    2.424017   1.520075   2.504730   3.720334   4.155176
    13  O    3.685348   2.435141   2.924772   4.034235   4.736622
    14  C    4.100154   2.889333   2.586333   3.711645   4.522502
    15  O    5.460198   4.169044   3.918754   4.852605   5.751401
    16  C    6.537467   5.344738   5.176590   6.218347   7.084845
    17  C    7.096087   5.930065   6.115026   7.193156   8.024191
    18  O    6.188091   5.109679   5.622502   6.753645   7.491015
    19  H    5.327945   4.174464   4.689719   5.780209   6.522024
    20  C    8.293558   7.232037   7.378259   8.530523   9.338360
    21  O    8.942809   7.987782   8.339578   9.548879  10.299545
    22  H    8.554293   7.725470   8.174996   9.453452  10.133968
    23  C    7.799277   6.626577   5.936529   6.710437   7.620427
    24  O    9.055529   7.884708   7.060159   7.671775   8.586444
    25  H    9.509293   8.266063   7.465753   7.949360   8.897993
    26  C    7.854548   6.602592   6.244549   7.104480   8.034452
    27  O    9.010478   7.821765   7.522403   8.463068   9.369527
    28  C    9.350182   8.186450   8.142844   9.165718  10.046973
    29  O   10.607074   9.499483   9.418236  10.474373  11.343098
    30  H   11.259894  10.096968   9.943563  10.919097  11.821254
    31  H    0.960000   1.974554   2.545473   2.714595   2.236122
    32  H    3.107485   2.402455   3.814379   4.503735   4.829434
    33  H    2.663947   2.659946   4.097133   5.040313   5.156418
    34  H    2.609710   2.170117   2.835585   4.203270   4.544291
    35  H    2.074303   1.070000   2.148878   2.494875   2.825604
    36  H    2.361986   2.146355   1.070000   2.070844   2.284438
    37  H    4.179946   3.243202   2.887786   4.186481   4.872197
    38  H    4.276856   3.035651   2.166516   2.371979   3.366380
    39  H    6.480831   5.444698   5.199254   6.365097   7.160442
    40  H    7.623712   6.361125   6.551372   7.481582   8.361181
    41  H    8.086230   7.122992   7.156700   8.379753   9.147623
    42  H    9.612055   8.374557   8.404298   9.333457  10.242909
    43  H    8.098470   6.758801   6.443516   7.146788   8.115236
    44  H    7.668864   6.625638   5.926088   6.843872   7.683711
    45  H    7.058114   5.863043   5.065129   5.727420   6.652807
                    6          7          8          9         10
     6  C    0.000000
     7  O    1.434364   0.000000
     8  H    2.068481   1.000389   0.000000
     9  C    4.160377   5.305421   6.070911   0.000000
    10  O    5.153074   6.255223   7.109703   1.434826   0.000000
    11  H    5.915350   7.097823   7.909351   1.990723   1.000728
    12  C    2.799322   3.823430   4.616292   1.519406   2.619198
    13  O    2.429443   3.533809   4.403809   2.314967   2.878985
    14  C    1.519899   2.262273   3.193993   3.607317   4.252480
    15  O    2.608538   3.144539   3.995841   4.433457   4.703885
    16  C    3.922986   4.171916   5.048856   5.189013   5.122674
    17  C    5.028026   5.514350   6.427803   5.132657   4.650938
    18  O    4.829792   5.571409   6.525650   3.887201   3.245219
    19  H    3.937090   4.816184   5.747516   3.176683   2.849795
    20  C    6.299165   6.564902   7.479226   6.323544   5.689715
    21  O    7.410103   7.760644   8.711159   6.696471   5.801988
    22  H    7.398649   7.759818   8.739601   6.301752   5.362312
    23  C    4.483485   4.123389   4.681966   7.124699   7.303399
    24  O    5.590772   5.072313   5.417856   8.516486   8.709402
    25  H    5.960916   5.585932   5.865867   8.889071   9.061846
    26  C    4.826592   4.881395   5.592690   6.608543   6.521997
    27  O    6.152216   6.097027   6.819685   7.592666   7.311808
    28  C    6.880039   7.026435   7.839970   7.524456   6.978005
    29  O    8.160546   8.166559   8.956940   8.800317   8.189719
    30  H    8.613523   8.593069   9.322271   9.497197   8.921352
    31  H    4.012513   4.781661   4.999785   3.718969   5.141518
    32  H    4.221792   5.523369   6.190862   1.070000   2.012655
    33  H    4.782064   5.820241   6.534342   1.070000   2.012655
    34  H    3.169310   3.834709   4.670908   2.165437   3.034595
    35  H    2.924353   4.209184   4.639194   2.520882   3.839400
    36  H    2.146250   2.303214   2.591525   4.262685   5.521856
    37  H    2.112044   2.286045   3.284015   3.875865   4.472697
    38  H    1.070000   2.082758   2.385120   4.645944   5.592463
    39  H    4.061170   4.036235   4.945713   5.362089   5.347009
    40  H    5.389777   5.984010   6.829387   5.574221   5.061730
    41  H    6.119608   6.188512   7.105398   6.391757   5.892603
    42  H    7.122176   7.427376   8.215725   7.631224   7.025620
    43  H    4.996010   5.239295   5.875380   6.763035   6.668722
    44  H    4.594730   4.039594   4.660095   7.104225   7.287845
    45  H    3.579246   3.247100   3.746528   6.632427   6.991872
                   11         12         13         14         15
    11  H    0.000000
    12  C    3.409923   0.000000
    13  O    3.708719   1.434691   0.000000
    14  C    5.124635   2.316657   1.434464   0.000000
    15  O    5.538685   3.443411   2.142290   1.435130   0.000000
    16  C    5.986052   4.345772   3.113236   2.596349   1.434926
    17  C    5.408564   4.711181   3.509281   3.589129   2.538617
    18  O    3.993315   3.765016   2.759744   3.380679   2.806783
    19  H    3.652042   2.918826   1.795181   2.564675   2.212823
    20  C    6.435925   5.926079   4.866164   4.838205   3.836607
    21  O    6.435227   6.568204   5.673471   5.903343   5.050011
    22  H    6.003662   6.247195   5.545972   5.879218   5.247755
    23  C    8.173555   6.007473   4.855252   3.773712   2.769166
    24  O    9.559645   7.379034   6.223958   5.099207   4.114034
    25  H    9.854191   7.823476   6.587397   5.546073   4.459035
    26  C    7.326954   5.756710   4.454731   3.776342   2.442593
    27  O    8.109773   6.830204   5.589844   5.002210   3.739008
    28  C    7.695717   7.020123   5.810125   5.557167   4.317508
    29  O    8.902514   8.294888   7.150859   6.843992   5.656076
    30  H    9.613811   8.963105   7.749477   7.377612   6.108082
    31  H    5.495805   3.255629   4.394221   4.730285   6.078381
    32  H    2.179428   2.085806   2.611320   3.909801   4.663766
    33  H    2.330175   2.085806   3.231405   4.377992   5.350213
    34  H    3.908727   1.070000   2.093909   2.572934   3.746731
    35  H    4.207411   2.151391   2.733334   3.383978   4.455504
    36  H    6.247666   2.918808   3.538371   3.039630   4.430565
    37  H    5.424469   2.499427   2.042880   1.070000   2.040135
    38  H    6.258247   3.485617   2.892844   2.165272   2.793244
    39  H    6.284371   4.392939   3.410791   2.734473   2.045738
    40  H    5.694754   5.262640   3.944422   4.083396   2.855925
    41  H    6.731191   5.821317   4.895462   4.676113   3.853220
    42  H    7.645961   7.254972   5.963429   5.846585   4.517417
    43  H    7.381052   6.020453   4.626822   4.084750   2.665521
    44  H    8.216437   5.922850   4.933484   3.802868   3.058609
    45  H    7.844157   5.441147   4.325163   3.130875   2.308097
                   16         17         18         19         20
    16  C    0.000000
    17  C    1.519988   0.000000
    18  O    2.401365   1.435086   0.000000
    19  H    2.355646   1.987654   0.999682   0.000000
    20  C    2.508243   1.519936   2.545220   3.338971   0.000000
    21  O    3.828367   2.593773   3.046599   4.013747   1.434733
    22  H    4.133542   2.975748   3.032497   3.979970   2.070966
    23  C    2.322250   3.613109   4.713107   4.590294   4.059934
    24  O    3.697053   4.839916   6.045376   5.963666   5.085251
    25  H    4.146971   5.162587   6.383231   6.286411   5.489440
    26  C    1.520280   2.334615   3.605468   3.681425   2.834668
    27  O    2.493371   2.730703   4.154407   4.531802   2.400213
    28  C    2.972759   2.402125   3.737118   4.389242   1.520322
    29  O    4.266027   3.747481   4.996327   5.723366   2.515994
    30  H    4.786132   4.375329   5.691054   6.361577   3.323532
    31  H    7.251535   7.869998   6.996598   6.095397   9.120306
    32  H    5.586034   5.547484   4.356087   3.563025   6.861568
    33  H    6.079735   6.047267   4.780774   4.143569   7.140726
    34  H    4.422745   4.841971   3.962862   3.282632   5.857379
    35  H    5.711395   6.188685   5.332444   4.364328   7.587972
    36  H    5.532876   6.539280   6.082134   5.225515   7.665931
    37  H    2.708352   3.736583   3.563398   2.931258   4.736193
    38  H    4.198045   5.271198   5.163647   4.254216   6.625460
    39  H    1.070000   2.121116   2.834488   2.854778   2.630956
    40  H    2.085827   1.070000   2.007838   2.436264   2.079851
    41  H    2.490459   2.061402   2.957362   3.622032   1.070000
    42  H    3.356146   2.589573   3.835773   4.466676   2.119729
    43  H    2.159310   2.684116   3.853507   3.853497   3.399724
    44  H    2.446928   3.748446   4.772312   4.706927   3.980927
    45  H    2.472847   3.905296   4.768275   4.421570   4.675035
                   21         22         23         24         25
    21  O    0.000000
    22  H    1.000525   0.000000
    23  C    5.487427   5.956034   0.000000
    24  O    6.480652   7.054615   1.434680   0.000000
    25  H    6.871455   7.530479   2.100024   1.000524   0.000000
    26  C    4.257235   4.839353   1.519801   2.542592   2.836546
    27  O    3.693900   4.414947   2.363322   2.915147   3.247302
    28  C    2.498464   3.373780   3.688915   4.343390   4.592249
    29  O    2.951902   3.810991   4.601232   4.964422   5.236216
    30  H    3.821135   4.724086   4.774550   4.880357   5.007235
    31  H    9.815736   9.461741   8.369509   9.561148   9.967238
    32  H    7.295927   7.003649   7.425369   8.762516   9.029886
    33  H    7.423160   6.919941   7.973977   9.373070   9.799693
    34  H    6.449228   6.022922   6.032197   7.416303   7.980769
    35  H    8.332038   8.135278   7.016289   8.233845   8.497195
    36  H    8.605776   8.368767   6.174281   7.278017   7.796675
    37  H    5.748413   5.613164   3.825330   5.171933   5.784719
    38  H    7.788393   7.887414   4.560338   5.527836   5.722635
    39  H    3.867860   4.009259   2.445146   3.818195   4.482517
    40  H    3.036405   3.617811   3.815071   4.877940   4.991504
    41  H    1.980934   2.257809   3.831325   4.886012   5.466391
    42  H    2.880455   3.828820   4.136101   4.717646   4.751273
    43  H    4.733235   5.395646   2.155087   2.866139   2.785729
    44  H    5.341048   5.684010   1.070000   2.031111   2.927699
    45  H    6.095250   6.486460   1.070000   2.031111   2.485220
                   26         27         28         29         30
    26  C    0.000000
    27  O    1.434633   0.000000
    28  C    2.442536   1.435507   0.000000
    29  O    3.626481   2.282855   1.434292   0.000000
    30  H    3.874170   2.510596   1.974016   0.960000   0.000000
    31  H    8.496203   9.713732  10.115272  11.398269  12.014891
    32  H    6.894536   7.977535   7.945084   9.284502   9.913000
    33  H    7.538101   8.486405   8.410919   9.636375  10.374282
    34  H    5.884999   6.832891   7.031167   8.202878   8.930424
    35  H    6.883036   8.156761   8.478057   9.847263  10.395717
    36  H    6.626788   7.815282   8.475471   9.667601  10.232011
    37  H    3.970048   5.007018   5.564062   6.728078   7.337595
    38  H    4.867450   6.273838   7.041095   8.364527   8.721823
    39  H    2.122355   2.733784   3.261752   4.334836   4.955210
    40  H    2.362855   2.798375   2.404779   3.806074   4.250572
    41  H    2.948178   2.489436   2.068527   2.766377   3.631858
    42  H    2.731319   2.047134   1.070000   2.044944   2.247642
    43  H    1.070000   2.085527   2.854252   4.083500   4.168794
    44  H    2.105141   2.588765   3.825127   4.587465   4.899213
    45  H    2.105141   3.282696   4.496782   5.548022   5.744549
                   31         32         33         34         35
    31  H    0.000000
    32  H    3.634780   0.000000
    33  H    3.410824   1.718029   0.000000
    34  H    3.540538   2.988159   2.384320   0.000000
    35  H    2.270409   2.048394   2.895694   3.045952   0.000000
    36  H    2.652817   4.501763   4.399625   2.856467   3.003946
    37  H    4.904286   4.415626   4.481544   2.282949   3.981972
    38  H    4.485296   4.479085   5.359088   4.058419   3.098336
    39  H    7.245055   5.921687   6.126478   4.210057   5.992260
    40  H    8.331410   5.808285   6.562892   5.569227   6.455266
    41  H    8.935217   7.040530   7.121507   5.575582   7.618895
    42  H   10.338760   7.928292   8.578276   7.413445   8.533863
    43  H    8.674084   6.890436   7.758377   6.325290   6.875634
    44  H    8.296206   7.544336   7.861975   5.757658   7.163513
    45  H    7.552419   6.842237   7.474606   5.562181   6.210807
                   36         37         38         39         40
    36  H    0.000000
    37  H    2.962160   0.000000
    38  H    2.982680   2.996882   0.000000
    39  H    5.347892   2.414156   4.559999   0.000000
    40  H    7.104672   4.453979   5.425396   2.953391   0.000000
    41  H    7.300265   4.350073   6.581450   2.163478   2.883223
    42  H    8.856842   6.034472   7.145115   3.915292   2.135801
    43  H    6.972120   4.523310   4.814409   3.020328   2.271185
    44  H    5.988865   3.551564   4.903288   2.083994   4.214930
    45  H    5.365928   3.350544   3.566170   2.709588   4.077588
                   41         42         43         44         45
    41  H    0.000000
    42  H    2.950539   0.000000
    43  H    3.773035   2.729035   0.000000
    44  H    3.477801   4.502379   3.006874   0.000000
    45  H    4.489315   4.827665   2.442292   1.728579   0.000000
 Stoichiometry    C12H22O11
 Framework group  C1[X(C12H22O11)]
 Deg. of freedom   129
 Full point group                 C1      NOp   1
 Largest Abelian subgroup         C1      NOp   1
 Largest concise Abelian subgroup C1      NOp   1
                         Standard orientation:                         
 ---------------------------------------------------------------------
 Center     Atomic      Atomic             Coordinates (Angstroms)
 Number     Number       Type             X           Y           Z
 ---------------------------------------------------------------------
      1          8           0       -5.022738   -0.615413    0.796762
      2          6           0       -3.909118   -0.300135   -0.051400
      3          6           0       -3.687353    1.173829    0.242751
      4          8           0       -4.551656    1.961382   -0.588885
      5          1           0       -5.487959    1.895581   -0.244854
      6          6           0       -2.284814    1.597829   -0.162531
      7          8           0       -1.961759    2.599850    0.811630
      8          1           0       -2.438710    3.471994    0.699116
      9          6           0       -2.972346   -2.504920   -0.221587
     10          8           0       -1.992705   -3.542801   -0.369342
     11          1           0       -2.383538   -4.265243   -0.940992
     12          6           0       -2.695511   -1.123749    0.347908
     13          8           0       -1.528814   -0.701437   -0.372377
     14          6           0       -1.168736    0.601843    0.106677
     15          8           0        0.121672    0.656431   -0.518995
     16          6           0        1.404493    0.273759   -0.002328
     17          6           0        1.958876   -1.090027   -0.380632
     18          8           0        0.884061   -2.040920   -0.373763
     19          1           0        0.036838   -1.553803   -0.584224
     20          6           0        3.223637   -1.405287    0.401159
     21          8           0        3.661322   -2.746722    0.660854
     22          1           0        3.094960   -3.265639    1.301955
     23          6           0        2.100979    2.485927    0.116277
     24          8           0        2.916969    3.645843   -0.100660
     25          1           0        3.146766    3.890144   -1.043293
     26          6           0        2.508810    1.173765   -0.533107
     27          8           0        3.823725    0.875911   -0.042745
     28          6           0        4.274198   -0.479073   -0.190304
     29          8           0        5.576770   -0.514824    0.409047
     30          1           0        6.182632    0.019103   -0.110043
     31          1           0       -5.817222   -0.204991    0.447549
     32          1           0       -3.382725   -2.345321   -1.196788
     33          1           0       -3.754444   -2.920493    0.378848
     34          1           0       -2.540901   -1.143909    1.406487
     35          1           0       -4.156886   -0.452383   -1.081124
     36          1           0       -3.862478    1.385134    1.276957
     37          1           0       -1.024097    0.545177    1.165341
     38          1           0       -2.249191    1.987786   -1.158304
     39          1           0        1.380095    0.350584    1.064631
     40          1           0        2.266226   -1.009937   -1.402406
     41          1           0        3.032994   -1.009928    1.376990
     42          1           0        4.372127   -0.696460   -1.233401
     43          1           0        2.486458    1.241830   -1.600706
     44          1           0        2.051987    2.320358    1.172254
     45          1           0        1.113603    2.719456   -0.223505
 ---------------------------------------------------------------------
 Rotational constants (GHZ):      0.3988943      0.1449031      0.1101104
 Standard basis: 6-31+G(d,p) (6D, 7F)
 There are   547 symmetry adapted basis functions of A   symmetry.
 Integral buffers will be    131072 words long.
 Raffenetti 2 integral format.
 Two-electron integral symmetry is turned on.
   547 basis functions,   890 primitive gaussians,   547 cartesian basis functions
    91 alpha electrons       91 beta electrons
       nuclear repulsion energy      2274.7214334361 Hartrees.
 NAtoms=   45 NActive=   45 NUniq=   45 SFac= 1.00D+00 NAtFMM=   50 NAOKFM=F Big=F
 One-electron integrals computed using PRISM.
 NBasis=   547 RedAO= T  NBF=   547
 NBsUse=   547 1.00D-06 NBFU=   547
 Harris functional with IExCor=  402 diagonalized for initial guess.
 ExpMin= 4.38D-02 ExpMax= 5.48D+03 ExpMxC= 8.25D+02 IAcc=2 IRadAn=         0 AccDes= 0.00D+00
 HarFok:  IExCor=  402 AccDes= 0.00D+00 IRadAn=         0 IDoV= 1
 ScaDFX=  1.000000  1.000000  1.000000  1.000000
 FoFCou: FMM=F IPFlag=           0 FMFlag=      100000 FMFlg1=           0
         NFxFlg=           0 DoJE=T BraDBF=F KetDBF=T FulRan=T
         Omega=  0.000000  0.000000  1.000000  0.000000  0.000000 ICntrl=     500 IOpCl=  0
         NMat0=    1 NMatS0=    1 NMatT0=    0 NMatD0=    1 NMtDS0=    0 NMtDT0=    0
         I1Cent=           4 NGrid=           0.
 Petite list used in FoFCou.
 Initial guess orbital symmetries:
       Occupied  (A) (A) (A) (A) (A) (A) (A) (A) (A) (A) (A) (A)
                 (A) (A) (A) (A) (A) (A) (A) (A) (A) (A) (A) (A)
                 (A) (A) (A) (A) (A) (A) (A) (A) (A) (A) (A) (A)
                 (A) (A) (A) (A) (A) (A) (A) (A) (A) (A) (A) (A)
                 (A) (A) (A) (A) (A) (A) (A) (A) (A) (A) (A) (A)
                 (A) (A) (A) (A) (A) (A) (A) (A) (A) (A) (A) (A)
                 (A) (A) (A) (A) (A) (A) (A) (A) (A) (A) (A) (A)
                 (A) (A) (A) (A) (A) (A) (A)
       Virtual   (A) (A) (A) (A) (A) (A) (A) (A) (A) (A) (A) (A)
                 (A) (A) (A) (A) (A) (A) (A) (A) (A) (A) (A) (A)
                 (A) (A) (A) (A) (A) (A) (A) (A) (A) (A) (A) (A)
                 (A) (A) (A) (A) (A) (A) (A) (A) (A) (A) (A) (A)
                 (A) (A) (A) (A) (A) (A) (A) (A) (A) (A) (A) (A)
                 (A) (A) (A) (A) (A) (A) (A) (A) (A) (A) (A) (A)
                 (A) (A) (A) (A) (A) (A) (A) (A) (A) (A) (A) (A)
                 (A) (A) (A) (A) (A) (A) (A) (A) (A) (A) (A) (A)
                 (A) (A) (A) (A) (A) (A) (A) (A) (A) (A) (A) (A)
                 (A) (A) (A) (A) (A) (A) (A) (A) (A) (A) (A) (A)
                 (A) (A) (A) (A) (A) (A) (A) (A) (A) (A) (A) (A)
                 (A) (A) (A) (A) (A) (A) (A) (A) (A) (A) (A) (A)
                 (A) (A) (A) (A) (A) (A) (A) (A) (A) (A) (A) (A)
                 (A) (A) (A) (A) (A) (A) (A) (A) (A) (A) (A) (A)
                 (A) (A) (A) (A) (A) (A) (A) (A) (A) (A) (A) (A)
                 (A) (A) (A) (A) (A) (A) (A) (A) (A) (A) (A) (A)
                 (A) (A) (A) (A) (A) (A) (A) (A) (A) (A) (A) (A)
                 (A) (A) (A) (A) (A) (A) (A) (A) (A) (A) (A) (A)
                 (A) (A) (A) (A) (A) (A) (A) (A) (A) (A) (A) (A)
                 (A) (A) (A) (A) (A) (A) (A) (A) (A) (A) (A) (A)
                 (A) (A) (A) (A) (A) (A) (A) (A) (A) (A) (A) (A)
                 (A) (A) (A) (A) (A) (A) (A) (A) (A) (A) (A) (A)
                 (A) (A) (A) (A) (A) (A) (A) (A) (A) (A) (A) (A)
                 (A) (A) (A) (A) (A) (A) (A) (A) (A) (A) (A) (A)
                 (A) (A) (A) (A) (A) (A) (A) (A) (A) (A) (A) (A)
                 (A) (A) (A) (A) (A) (A) (A) (A) (A) (A) (A) (A)
                 (A) (A) (A) (A) (A) (A) (A) (A) (A) (A) (A) (A)
                 (A) (A) (A) (A) (A) (A) (A) (A) (A) (A) (A) (A)
                 (A) (A) (A) (A) (A) (A) (A) (A) (A) (A) (A) (A)
                 (A) (A) (A) (A) (A) (A) (A) (A) (A) (A) (A) (A)
                 (A) (A) (A) (A) (A) (A) (A) (A) (A) (A) (A) (A)
                 (A) (A) (A) (A) (A) (A) (A) (A) (A) (A) (A) (A)
                 (A) (A) (A) (A) (A) (A) (A) (A) (A) (A) (A) (A)
                 (A) (A) (A) (A) (A) (A) (A) (A) (A) (A) (A) (A)
                 (A) (A) (A) (A) (A) (A) (A) (A) (A) (A) (A) (A)
                 (A) (A) (A) (A) (A) (A) (A) (A) (A) (A) (A) (A)
                 (A) (A) (A) (A) (A) (A) (A) (A) (A) (A) (A) (A)
                 (A) (A) (A) (A) (A) (A) (A) (A) (A) (A) (A) (A)
 The electronic state of the initial guess is 1-A.
 Requested convergence on RMS density matrix=1.00D-08 within 128 cycles.
 Requested convergence on MAX density matrix=1.00D-06.
 Requested convergence on             energy=1.00D-06.
 No special actions if energy rises.
 SCF Done:  E(RB3LYP) =  -1297.86756573     A.U. after   13 cycles
             Convg  =    0.7967D-08             -V/T =  2.0086
 Range of M.O.s used for correlation:     1   547
 NBasis=   547 NAE=    91 NBE=    91 NFC=     0 NFV=     0
 NROrb=    547 NOA=    91 NOB=    91 NVA=   456 NVB=   456

 **** Warning!!: The largest alpha MO coefficient is  0.80147687D+02

          Differentiating once with respect to electric field.
                with respect to dipole field.
          Electric field/nuclear overlap derivatives assumed to be zero.
          There are     3 degrees of freedom in the 1st order CPHF.  IDoFFX=0.
      3 vectors produced by pass  0 Test12= 1.38D-12 3.33D-08 XBig12= 1.22D+02 1.04D+00.
 AX will form     3 AO Fock derivatives at one time.
      3 vectors produced by pass  1 Test12= 1.38D-12 3.33D-08 XBig12= 2.04D+01 3.67D-01.
      3 vectors produced by pass  2 Test12= 1.38D-12 3.33D-08 XBig12= 8.59D+00 2.58D-01.
      3 vectors produced by pass  3 Test12= 1.38D-12 3.33D-08 XBig12= 1.01D+00 8.64D-02.
      3 vectors produced by pass  4 Test12= 1.38D-12 3.33D-08 XBig12= 2.83D-01 4.14D-02.
      3 vectors produced by pass  5 Test12= 1.38D-12 3.33D-08 XBig12= 5.20D-02 1.65D-02.
      3 vectors produced by pass  6 Test12= 1.38D-12 3.33D-08 XBig12= 1.86D-02 1.48D-02.
      3 vectors produced by pass  7 Test12= 1.38D-12 3.33D-08 XBig12= 2.26D-03 6.09D-03.
      3 vectors produced by pass  8 Test12= 1.38D-12 3.33D-08 XBig12= 6.29D-04 2.73D-03.
      3 vectors produced by pass  9 Test12= 1.38D-12 3.33D-08 XBig12= 1.43D-04 1.55D-03.
      3 vectors produced by pass 10 Test12= 1.38D-12 3.33D-08 XBig12= 3.64D-05 6.30D-04.
      3 vectors produced by pass 11 Test12= 1.38D-12 3.33D-08 XBig12= 6.21D-06 3.12D-04.
      3 vectors produced by pass 12 Test12= 1.38D-12 3.33D-08 XBig12= 1.01D-06 1.09D-04.
      3 vectors produced by pass 13 Test12= 1.38D-12 3.33D-08 XBig12= 1.93D-07 3.51D-05.
      3 vectors produced by pass 14 Test12= 1.38D-12 3.33D-08 XBig12= 3.97D-08 1.67D-05.
      3 vectors produced by pass 15 Test12= 1.38D-12 3.33D-08 XBig12= 1.13D-08 1.05D-05.
      3 vectors produced by pass 16 Test12= 1.38D-12 3.33D-08 XBig12= 9.13D-10 3.37D-06.
      3 vectors produced by pass 17 Test12= 1.38D-12 3.33D-08 XBig12= 1.89D-10 9.36D-07.
      3 vectors produced by pass 18 Test12= 1.38D-12 3.33D-08 XBig12= 5.60D-11 5.11D-07.
      3 vectors produced by pass 19 Test12= 1.38D-12 3.33D-08 XBig12= 5.01D-11 6.80D-07.
      3 vectors produced by pass 20 Test12= 1.38D-12 3.33D-08 XBig12= 7.82D-12 2.15D-07.
      1 vectors produced by pass 21 Test12= 1.38D-12 3.33D-08 XBig12= 2.58D-12 9.79D-08.
 Inverted reduced A of dimension    64 with in-core refinement.
 End of Minotr Frequency-dependent properties file   721 does not exist.
 End of Minotr Frequency-dependent properties file   722 does not exist.
 Symmetrizing basis deriv contribution to polar:
 IMax=3 JMax=2 DiffMx= 0.00D+00
 G2DrvN: will do    23 centers at a time, making    2 passes doing MaxLOS=2.
 Calling FoFCou, ICntrl=  3107 FMM=F I1Cent=   0 AccDes= 0.00D+00.
 Calling FoFCou, ICntrl=  3107 FMM=F I1Cent=   0 AccDes= 0.00D+00.
 FoFDir/FoFCou used for L=0 through L=2.
 End of G2Drv Frequency-dependent properties file   721 does not exist.
 End of G2Drv Frequency-dependent properties file   722 does not exist.
          IDoAtm=111111111111111111111111111111111111111111111
          Differentiating once with respect to electric field.
                with respect to dipole field.
          Differentiating once with respect to nuclear coordinates.
          There are   138 degrees of freedom in the 1st order CPHF.  IDoFFX=5.
 Will reuse    3 saved solutions.
    135 vectors produced by pass  0 Test12= 4.15D-14 1.00D-09 XBig12= 2.63D-01 9.16D-02.
 AX will form    68 AO Fock derivatives at one time.
    135 vectors produced by pass  1 Test12= 4.15D-14 1.00D-09 XBig12= 3.36D-02 1.67D-02.
    132 vectors produced by pass  2 Test12= 4.15D-14 1.00D-09 XBig12= 1.88D-04 1.54D-03.
    132 vectors produced by pass  3 Test12= 4.15D-14 1.00D-09 XBig12= 5.89D-07 8.55D-05.
    132 vectors produced by pass  4 Test12= 4.15D-14 1.00D-09 XBig12= 9.45D-10 3.05D-06.
    131 vectors produced by pass  5 Test12= 4.15D-14 1.00D-09 XBig12= 3.10D-12 1.16D-07.
     77 vectors produced by pass  6 Test12= 4.15D-14 1.00D-09 XBig12= 9.85D-14 1.99D-08.
 Inverted reduced A of dimension   874 with in-core refinement.
 Isotropic polarizability for W=    0.000000      187.73 Bohr**3.
 End of Minotr Frequency-dependent properties file   721 does not exist.
 End of Minotr Frequency-dependent properties file   722 does not exist.

 **********************************************************************

            Population analysis using the SCF density.

 **********************************************************************

 Orbital symmetries:
       Occupied  (A) (A) (A) (A) (A) (A) (A) (A) (A) (A) (A) (A)
                 (A) (A) (A) (A) (A) (A) (A) (A) (A) (A) (A) (A)
                 (A) (A) (A) (A) (A) (A) (A) (A) (A) (A) (A) (A)
                 (A) (A) (A) (A) (A) (A) (A) (A) (A) (A) (A) (A)
                 (A) (A) (A) (A) (A) (A) (A) (A) (A) (A) (A) (A)
                 (A) (A) (A) (A) (A) (A) (A) (A) (A) (A) (A) (A)
                 (A) (A) (A) (A) (A) (A) (A) (A) (A) (A) (A) (A)
                 (A) (A) (A) (A) (A) (A) (A)
       Virtual   (A) (A) (A) (A) (A) (A) (A) (A) (A) (A) (A) (A)
                 (A) (A) (A) (A) (A) (A) (A) (A) (A) (A) (A) (A)
                 (A) (A) (A) (A) (A) (A) (A) (A) (A) (A) (A) (A)
                 (A) (A) (A) (A) (A) (A) (A) (A) (A) (A) (A) (A)
                 (A) (A) (A) (A) (A) (A) (A) (A) (A) (A) (A) (A)
                 (A) (A) (A) (A) (A) (A) (A) (A) (A) (A) (A) (A)
                 (A) (A) (A) (A) (A) (A) (A) (A) (A) (A) (A) (A)
                 (A) (A) (A) (A) (A) (A) (A) (A) (A) (A) (A) (A)
                 (A) (A) (A) (A) (A) (A) (A) (A) (A) (A) (A) (A)
                 (A) (A) (A) (A) (A) (A) (A) (A) (A) (A) (A) (A)
                 (A) (A) (A) (A) (A) (A) (A) (A) (A) (A) (A) (A)
                 (A) (A) (A) (A) (A) (A) (A) (A) (A) (A) (A) (A)
                 (A) (A) (A) (A) (A) (A) (A) (A) (A) (A) (A) (A)
                 (A) (A) (A) (A) (A) (A) (A) (A) (A) (A) (A) (A)
                 (A) (A) (A) (A) (A) (A) (A) (A) (A) (A) (A) (A)
                 (A) (A) (A) (A) (A) (A) (A) (A) (A) (A) (A) (A)
                 (A) (A) (A) (A) (A) (A) (A) (A) (A) (A) (A) (A)
                 (A) (A) (A) (A) (A) (A) (A) (A) (A) (A) (A) (A)
                 (A) (A) (A) (A) (A) (A) (A) (A) (A) (A) (A) (A)
                 (A) (A) (A) (A) (A) (A) (A) (A) (A) (A) (A) (A)
                 (A) (A) (A) (A) (A) (A) (A) (A) (A) (A) (A) (A)
                 (A) (A) (A) (A) (A) (A) (A) (A) (A) (A) (A) (A)
                 (A) (A) (A) (A) (A) (A) (A) (A) (A) (A) (A) (A)
                 (A) (A) (A) (A) (A) (A) (A) (A) (A) (A) (A) (A)
                 (A) (A) (A) (A) (A) (A) (A) (A) (A) (A) (A) (A)
                 (A) (A) (A) (A) (A) (A) (A) (A) (A) (A) (A) (A)
                 (A) (A) (A) (A) (A) (A) (A) (A) (A) (A) (A) (A)
                 (A) (A) (A) (A) (A) (A) (A) (A) (A) (A) (A) (A)
                 (A) (A) (A) (A) (A) (A) (A) (A) (A) (A) (A) (A)
                 (A) (A) (A) (A) (A) (A) (A) (A) (A) (A) (A) (A)
                 (A) (A) (A) (A) (A) (A) (A) (A) (A) (A) (A) (A)
                 (A) (A) (A) (A) (A) (A) (A) (A) (A) (A) (A) (A)
                 (A) (A) (A) (A) (A) (A) (A) (A) (A) (A) (A) (A)
                 (A) (A) (A) (A) (A) (A) (A) (A) (A) (A) (A) (A)
                 (A) (A) (A) (A) (A) (A) (A) (A) (A) (A) (A) (A)
                 (A) (A) (A) (A) (A) (A) (A) (A) (A) (A) (A) (A)
                 (A) (A) (A) (A) (A) (A) (A) (A) (A) (A) (A) (A)
                 (A) (A) (A) (A) (A) (A) (A) (A) (A) (A) (A) (A)
 The electronic state is 1-A.
 Alpha  occ. eigenvalues --  -19.20451 -19.19829 -19.19448 -19.18667 -19.18260
 Alpha  occ. eigenvalues --  -19.17314 -19.16376 -19.16244 -19.15810 -19.14732
 Alpha  occ. eigenvalues --  -19.13158 -10.32592 -10.29611 -10.27579 -10.27184
 Alpha  occ. eigenvalues --  -10.27150 -10.27126 -10.26033 -10.24743 -10.24677
 Alpha  occ. eigenvalues --  -10.24340 -10.23573 -10.22343  -1.11029  -1.08035
 Alpha  occ. eigenvalues --   -1.07349  -1.05900  -1.04195  -1.03943  -1.01979
 Alpha  occ. eigenvalues --   -1.01480  -1.00962  -0.99760  -0.99221  -0.83268
 Alpha  occ. eigenvalues --   -0.82076  -0.79647  -0.78652  -0.72363  -0.69594
 Alpha  occ. eigenvalues --   -0.68306  -0.65334  -0.62952  -0.62637  -0.61923
 Alpha  occ. eigenvalues --   -0.60690  -0.57974  -0.57223  -0.55207  -0.54775
 Alpha  occ. eigenvalues --   -0.53409  -0.53272  -0.53098  -0.52551  -0.50412
 Alpha  occ. eigenvalues --   -0.50299  -0.49570  -0.49258  -0.48569  -0.46734
 Alpha  occ. eigenvalues --   -0.46114  -0.45043  -0.44441  -0.44125  -0.43058
 Alpha  occ. eigenvalues --   -0.42869  -0.42526  -0.40796  -0.40382  -0.40181
 Alpha  occ. eigenvalues --   -0.39456  -0.37672  -0.37096  -0.36526  -0.35457
 Alpha  occ. eigenvalues --   -0.34468  -0.34101  -0.33819  -0.33287  -0.33103
 Alpha  occ. eigenvalues --   -0.32793  -0.31418  -0.30678  -0.30499  -0.29462
 Alpha  occ. eigenvalues --   -0.29051  -0.28200  -0.27930  -0.27560  -0.25767
 Alpha  occ. eigenvalues --   -0.24896
 Alpha virt. eigenvalues --   -0.04567  -0.01551  -0.00854  -0.00716   0.00208
 Alpha virt. eigenvalues --    0.00777   0.01216   0.01574   0.01984   0.02635
 Alpha virt. eigenvalues --    0.02838   0.04005   0.04698   0.05151   0.05373
 Alpha virt. eigenvalues --    0.06484   0.06562   0.06885   0.07405   0.07940
 Alpha virt. eigenvalues --    0.08317   0.08507   0.09256   0.09664   0.10200
 Alpha virt. eigenvalues --    0.10282   0.10807   0.10913   0.11462   0.11526
 Alpha virt. eigenvalues --    0.11836   0.11881   0.12794   0.13549   0.13838
 Alpha virt. eigenvalues --    0.14237   0.14404   0.14548   0.14861   0.15086
 Alpha virt. eigenvalues --    0.15323   0.15339   0.15904   0.16492   0.16753
 Alpha virt. eigenvalues --    0.17058   0.17399   0.18021   0.18365   0.18621
 Alpha virt. eigenvalues --    0.18788   0.19116   0.19265   0.19880   0.20118
 Alpha virt. eigenvalues --    0.20353   0.20677   0.21055   0.21287   0.21566
 Alpha virt. eigenvalues --    0.21848   0.22002   0.22729   0.22889   0.23003
 Alpha virt. eigenvalues --    0.23432   0.23859   0.23868   0.24413   0.24775
 Alpha virt. eigenvalues --    0.25037   0.25129   0.25474   0.25580   0.26270
 Alpha virt. eigenvalues --    0.26620   0.26830   0.27031   0.27229   0.27824
 Alpha virt. eigenvalues --    0.28167   0.28681   0.28873   0.29023   0.29242
 Alpha virt. eigenvalues --    0.29671   0.30021   0.30415   0.30865   0.31054
 Alpha virt. eigenvalues --    0.31567   0.31702   0.31994   0.32216   0.32724
 Alpha virt. eigenvalues --    0.32744   0.33278   0.33467   0.33958   0.34099
 Alpha virt. eigenvalues --    0.34559   0.34843   0.35059   0.35558   0.35891
 Alpha virt. eigenvalues --    0.36136   0.36424   0.36676   0.36893   0.37518
 Alpha virt. eigenvalues --    0.37922   0.37976   0.38435   0.38697   0.38803
 Alpha virt. eigenvalues --    0.39570   0.40164   0.40198   0.40483   0.41234
 Alpha virt. eigenvalues --    0.41488   0.41871   0.42616   0.43087   0.43896
 Alpha virt. eigenvalues --    0.44182   0.44550   0.45449   0.45734   0.46453
 Alpha virt. eigenvalues --    0.46795   0.47222   0.47998   0.49589   0.51434
 Alpha virt. eigenvalues --    0.52891   0.53876   0.55081   0.63076   0.64744
 Alpha virt. eigenvalues --    0.66162   0.66958   0.68964   0.70055   0.70367
 Alpha virt. eigenvalues --    0.71346   0.72167   0.73001   0.74598   0.74980
 Alpha virt. eigenvalues --    0.76241   0.76755   0.77277   0.77444   0.78923
 Alpha virt. eigenvalues --    0.80187   0.80519   0.81745   0.83374   0.83781
 Alpha virt. eigenvalues --    0.84753   0.86351   0.87622   0.88879   0.91298
 Alpha virt. eigenvalues --    0.92047   0.92866   0.93521   0.94721   0.95854
 Alpha virt. eigenvalues --    0.96907   0.98023   0.98433   0.99271   0.99661
 Alpha virt. eigenvalues --    0.99966   1.00793   1.01421   1.02973   1.03283
 Alpha virt. eigenvalues --    1.04396   1.04577   1.04923   1.05355   1.05945
 Alpha virt. eigenvalues --    1.06541   1.07099   1.07458   1.08693   1.10024
 Alpha virt. eigenvalues --    1.10763   1.11569   1.12049   1.13424   1.14054
 Alpha virt. eigenvalues --    1.15392   1.17388   1.18125   1.18878   1.20756
 Alpha virt. eigenvalues --    1.23269   1.23717   1.24858   1.25089   1.25588
 Alpha virt. eigenvalues --    1.26458   1.26906   1.27253   1.28542   1.28826
 Alpha virt. eigenvalues --    1.29584   1.29899   1.30195   1.30610   1.30785
 Alpha virt. eigenvalues --    1.31178   1.32235   1.32989   1.33123   1.33749
 Alpha virt. eigenvalues --    1.34617   1.35104   1.36112   1.37151   1.38176
 Alpha virt. eigenvalues --    1.38529   1.40101   1.41270   1.41527   1.42191
 Alpha virt. eigenvalues --    1.42583   1.44495   1.45219   1.46701   1.47794
 Alpha virt. eigenvalues --    1.48504   1.49336   1.50945   1.51900   1.53057
 Alpha virt. eigenvalues --    1.54362   1.54934   1.55656   1.56321   1.57355
 Alpha virt. eigenvalues --    1.57589   1.58545   1.60635   1.60749   1.61475
 Alpha virt. eigenvalues --    1.62158   1.62655   1.63017   1.64323   1.64876
 Alpha virt. eigenvalues --    1.65402   1.65706   1.66170   1.67685   1.67931
 Alpha virt. eigenvalues --    1.68380   1.70771   1.71948   1.73093   1.73410
 Alpha virt. eigenvalues --    1.74465   1.75380   1.76063   1.76481   1.78036
 Alpha virt. eigenvalues --    1.78387   1.80354   1.80731   1.81820   1.82970
 Alpha virt. eigenvalues --    1.83794   1.84751   1.85547   1.86813   1.87236
 Alpha virt. eigenvalues --    1.88174   1.88502   1.90079   1.90801   1.91898
 Alpha virt. eigenvalues --    1.92248   1.92544   1.92940   1.93959   1.95033
 Alpha virt. eigenvalues --    1.95939   1.96641   1.96870   1.97537   1.98550
 Alpha virt. eigenvalues --    1.98824   2.00256   2.01215   2.02004   2.03303
 Alpha virt. eigenvalues --    2.04146   2.04940   2.05692   2.06342   2.07274
 Alpha virt. eigenvalues --    2.08465   2.09605   2.10627   2.11122   2.11737
 Alpha virt. eigenvalues --    2.13286   2.14350   2.15169   2.16458   2.17287
 Alpha virt. eigenvalues --    2.17700   2.19561   2.20193   2.20669   2.23216
 Alpha virt. eigenvalues --    2.24016   2.24108   2.25262   2.27577   2.28459
 Alpha virt. eigenvalues --    2.29651   2.30536   2.31054   2.33297   2.33633
 Alpha virt. eigenvalues --    2.34123   2.35914   2.36402   2.37290   2.37876
 Alpha virt. eigenvalues --    2.39357   2.39513   2.41290   2.42573   2.43141
 Alpha virt. eigenvalues --    2.44470   2.45651   2.46490   2.48712   2.50343
 Alpha virt. eigenvalues --    2.50798   2.52079   2.52734   2.53736   2.54919
 Alpha virt. eigenvalues --    2.55437   2.55737   2.56735   2.58726   2.59641
 Alpha virt. eigenvalues --    2.60681   2.61185   2.61996   2.62999   2.65181
 Alpha virt. eigenvalues --    2.65358   2.66128   2.66656   2.67584   2.68706
 Alpha virt. eigenvalues --    2.70433   2.71547   2.72288   2.72565   2.76115
 Alpha virt. eigenvalues --    2.76598   2.77768   2.77835   2.78491   2.80427
 Alpha virt. eigenvalues --    2.81523   2.81967   2.83118   2.83991   2.84762
 Alpha virt. eigenvalues --    2.85396   2.86445   2.87220   2.88235   2.88907
 Alpha virt. eigenvalues --    2.90195   2.90950   2.91869   2.93240   2.93502
 Alpha virt. eigenvalues --    2.94827   2.98041   2.98675   2.99724   3.00532
 Alpha virt. eigenvalues --    3.01525   3.02974   3.03460   3.04831   3.05896
 Alpha virt. eigenvalues --    3.07064   3.08713   3.08899   3.11285   3.12271
 Alpha virt. eigenvalues --    3.15762   3.18188   3.18972   3.20499   3.28465
 Alpha virt. eigenvalues --    3.32069   3.38856   3.39592   3.42188   3.42673
 Alpha virt. eigenvalues --    3.42808   3.43514   3.44048   3.44541   3.46857
 Alpha virt. eigenvalues --    3.47849   3.48117   3.50681   3.51649   3.53156
 Alpha virt. eigenvalues --    3.53639   3.55789   3.56491   3.58200   3.60729
 Alpha virt. eigenvalues --    3.62748   3.64737   3.71765   4.29187   4.30067
 Alpha virt. eigenvalues --    4.31887   4.35513   4.36824   4.40644   4.45525
 Alpha virt. eigenvalues --    4.46662   4.47695   4.50411   4.51851   4.55952
 Alpha virt. eigenvalues --    4.57640   4.63087   4.66810   4.70340   4.75843
 Alpha virt. eigenvalues --    4.79359   4.81924   4.84495   4.89006   4.92090
 Alpha virt. eigenvalues --    4.95440
          Condensed to atoms (all electrons):
              1          2          3          4          5          6
     1  O    8.305318   0.144186  -0.000132  -0.011411   0.001510   0.024751
     2  C    0.144186   8.753868  -2.136804  -0.049975  -0.052340  -0.476985
     3  C   -0.000132  -2.136804   8.686121   0.041069   0.100463  -1.279969
     4  O   -0.011411  -0.049975   0.041069   8.266566   0.196152   0.250087
     5  H    0.001510  -0.052340   0.100463   0.196152   0.448325  -0.063549
     6  C    0.024751  -0.476985  -1.279969   0.250087  -0.063549  16.057590
     7  O   -0.004550   0.065001  -0.002728  -0.020657   0.001361  -0.551000
     8  H   -0.000011  -0.010460  -0.075818   0.003108  -0.000516   0.252310
     9  C   -0.021318   0.729718  -0.552326   0.005242  -0.001301   0.363210
    10  O    0.000249   0.012669   0.000974   0.000017  -0.000001   0.000973
    11  H    0.000022  -0.015053   0.002944   0.000000   0.000000   0.000930
    12  C   -0.134093  -1.924769   0.868315   0.027669  -0.006643   0.166584
    13  O    0.004225   0.055125  -0.071100  -0.001528  -0.000012   0.036873
    14  C    0.033666   0.063553   0.033081  -0.141759   0.038169  -6.854539
    15  O    0.000555   0.013828  -0.022274  -0.000441   0.000045   0.058284
    16  C    0.002547   0.137214   0.104984   0.001820   0.000568  -1.420364
    17  C    0.000725  -0.008022  -0.012719  -0.000276   0.000010   0.174391
    18  O   -0.000023   0.006771  -0.001175  -0.000011   0.000000   0.018385
    19  H   -0.000005  -0.004675   0.004581   0.000003   0.000000   0.016917
    20  C    0.000071   0.011733  -0.004037  -0.000042   0.000000   0.069069
    21  O    0.000000  -0.000129   0.000019   0.000000   0.000000  -0.000207
    22  H    0.000000  -0.000028   0.000009   0.000000   0.000000   0.000267
    23  C    0.000098   0.006001  -0.018467   0.000296  -0.000016  -0.226617
    24  O    0.000000  -0.000251  -0.001472  -0.000002   0.000000   0.001734
    25  H    0.000000  -0.000009  -0.000104   0.000000   0.000000   0.000197
    26  C    0.000143   0.007783  -0.026132   0.000088   0.000008  -0.429407
    27  O    0.000000   0.000037   0.000173   0.000001   0.000000  -0.003706
    28  C   -0.000004  -0.001990   0.000948  -0.000002   0.000000   0.014855
    29  O    0.000000  -0.000003   0.000014   0.000000   0.000000  -0.000091
    30  H    0.000000   0.000000   0.000000   0.000000   0.000000   0.000019
    31  H    0.210714   0.028299  -0.033188   0.003816   0.005250  -0.019804
    32  H    0.000869   0.061213  -0.000508  -0.000441   0.000001   0.000899
    33  H    0.001178   0.044195  -0.016844   0.000029  -0.000001   0.005486
    34  H    0.007295   0.011217  -0.018439  -0.000792   0.000002   0.015956
    35  H   -0.036547   0.314596   0.029970  -0.004327  -0.000358  -0.000760
    36  H   -0.011390   0.007521   0.396164  -0.039886  -0.007925  -0.156366
    37  H   -0.000503   0.009052   0.012118  -0.000354   0.000009  -0.191658
    38  H   -0.001103   0.035461   0.056410  -0.004165   0.000571   0.028123
    39  H   -0.000002  -0.000778   0.001808   0.000000   0.000000  -0.003112
    40  H    0.000000   0.000632  -0.000488   0.000000   0.000000  -0.001043
    41  H    0.000000   0.000111  -0.000050   0.000000   0.000000  -0.002018
    42  H    0.000000  -0.000005   0.000013   0.000000   0.000000  -0.000221
    43  H    0.000000  -0.000075  -0.000064   0.000000   0.000000  -0.000617
    44  H    0.000000  -0.000129  -0.001715  -0.000002   0.000000   0.007644
    45  H    0.000000   0.000747   0.006729   0.000020   0.000000  -0.010803
              7          8          9         10         11         12
     1  O   -0.004550  -0.000011  -0.021318   0.000249   0.000022  -0.134093
     2  C    0.065001  -0.010460   0.729718   0.012669  -0.015053  -1.924769
     3  C   -0.002728  -0.075818  -0.552326   0.000974   0.002944   0.868315
     4  O   -0.020657   0.003108   0.005242   0.000017   0.000000   0.027669
     5  H    0.001361  -0.000516  -0.001301  -0.000001   0.000000  -0.006643
     6  C   -0.551000   0.252310   0.363210   0.000973   0.000930   0.166584
     7  O    8.427184   0.189517  -0.003475   0.000001   0.000000   0.000060
     8  H    0.189517   0.406676   0.001099   0.000001   0.000000   0.014195
     9  C   -0.003475   0.001099   6.619352   0.297683  -0.076920  -1.752357
    10  O    0.000001   0.000001   0.297683   8.304807   0.209736  -0.163598
    11  H    0.000000   0.000000  -0.076920   0.209736   0.439901   0.105293
    12  C    0.000060   0.014195  -1.752357  -0.163598   0.105293  10.221108
    13  O    0.007812  -0.000432   0.023774   0.019353  -0.004037  -0.179706
    14  C    0.341073  -0.120534  -0.399345  -0.029657   0.002254  -0.628585
    15  O    0.004201  -0.001225   0.001500  -0.005489  -0.000049  -0.040138
    16  C    0.129984  -0.019563  -0.099530   0.012537  -0.000709  -0.123958
    17  C    0.003805  -0.000061  -0.024705  -0.005975  -0.000859  -0.151985
    18  O    0.000248  -0.000001  -0.013743  -0.016601   0.000579  -0.013267
    19  H    0.000078   0.000001   0.005197   0.002595  -0.000025   0.017940
    20  C    0.003548  -0.000090   0.016527   0.005656  -0.000254  -0.036166
    21  O   -0.000005   0.000000  -0.000776  -0.000101  -0.000001   0.000442
    22  H    0.000000   0.000000   0.000057   0.000012   0.000000  -0.000347
    23  C   -0.005905  -0.000701  -0.002745   0.000233   0.000007  -0.006056
    24  O    0.000274   0.000003   0.000039   0.000000   0.000000   0.000648
    25  H    0.000008   0.000000   0.000002   0.000000   0.000000   0.000067
    26  C    0.001985   0.000383   0.013176  -0.002335  -0.000151  -0.044140
    27  O   -0.000009  -0.000001  -0.000107   0.000003   0.000000  -0.000150
    28  C   -0.000015   0.000006  -0.002345   0.000861   0.000003   0.009528
    29  O   -0.000002   0.000000   0.000004  -0.000001   0.000000   0.000008
    30  H    0.000000   0.000000   0.000001   0.000000   0.000000  -0.000001
    31  H    0.000283  -0.000005  -0.004942  -0.000020  -0.000001   0.025248
    32  H   -0.000025   0.000000   0.565646  -0.058942  -0.009941  -0.312100
    33  H   -0.000008   0.000000   0.512796  -0.062363  -0.002710  -0.168076
    34  H   -0.000762   0.000007   0.041229   0.002015  -0.000121   0.170845
    35  H   -0.001331   0.000012   0.006998   0.000647  -0.000020  -0.115140
    36  H   -0.018502  -0.001156   0.001415   0.000018   0.000000  -0.033286
    37  H    0.000155   0.000140   0.006807  -0.000275  -0.000001   0.007542
    38  H   -0.026778  -0.007753   0.002083  -0.000023   0.000000   0.009692
    39  H   -0.000054   0.000003   0.000371  -0.000025   0.000000   0.005441
    40  H    0.000008   0.000000   0.000920  -0.000089   0.000000  -0.000471
    41  H    0.000000   0.000000   0.000045  -0.000010   0.000000   0.001033
    42  H    0.000000   0.000000  -0.000001  -0.000001   0.000000   0.000053
    43  H   -0.000046   0.000000   0.000074  -0.000001   0.000000   0.000633
    44  H   -0.000073   0.000005   0.000128   0.000000   0.000000   0.002055
    45  H    0.000939  -0.000047  -0.000235   0.000000   0.000000  -0.003708
             13         14         15         16         17         18
     1  O    0.004225   0.033666   0.000555   0.002547   0.000725  -0.000023
     2  C    0.055125   0.063553   0.013828   0.137214  -0.008022   0.006771
     3  C   -0.071100   0.033081  -0.022274   0.104984  -0.012719  -0.001175
     4  O   -0.001528  -0.141759  -0.000441   0.001820  -0.000276  -0.000011
     5  H   -0.000012   0.038169   0.000045   0.000568   0.000010   0.000000
     6  C    0.036873  -6.854539   0.058284  -1.420364   0.174391   0.018385
     7  O    0.007812   0.341073   0.004201   0.129984   0.003805   0.000248
     8  H   -0.000432  -0.120534  -0.001225  -0.019563  -0.000061  -0.000001
     9  C    0.023774  -0.399345   0.001500  -0.099530  -0.024705  -0.013743
    10  O    0.019353  -0.029657  -0.005489   0.012537  -0.005975  -0.016601
    11  H   -0.004037   0.002254  -0.000049  -0.000709  -0.000859   0.000579
    12  C   -0.179706  -0.628585  -0.040138  -0.123958  -0.151985  -0.013267
    13  O    8.539849   0.069225  -0.119419   0.143725  -0.061015   0.032777
    14  C    0.069225  13.397232   0.178440  -0.319925  -0.164492  -0.005506
    15  O   -0.119419   0.178440   8.471643  -0.213110   0.078547   0.000926
    16  C    0.143725  -0.319925  -0.213110  18.070767  -3.227458  -0.110815
    17  C   -0.061015  -0.164492   0.078547  -3.227458   9.243867   0.444123
    18  O    0.032777  -0.005506   0.000926  -0.110815   0.444123   8.231893
    19  H    0.008304  -0.014454   0.025259  -0.127276   0.007315   0.197104
    20  C   -0.025328  -0.307590   0.081826  -3.215556  -0.109656  -0.208026
    21  O   -0.000032   0.005494  -0.000968  -0.058393  -0.060938   0.003107
    22  H   -0.000021   0.003926  -0.000058  -0.002054  -0.022213   0.004213
    23  C    0.014214   0.038278  -0.064282   0.321774  -0.475034   0.002844
    24  O   -0.000003   0.017096  -0.005201  -0.035924   0.000004   0.000194
    25  H   -0.000001   0.003260  -0.000426   0.044768   0.003641  -0.000001
    26  C   -0.072742  -0.385636   0.098051  -6.527132   1.120645  -0.028884
    27  O    0.000471  -0.022514   0.006345  -0.103477  -0.055764   0.002206
    28  C    0.008002   0.115981  -0.013644   1.848213  -0.664683   0.029269
    29  O   -0.000014   0.000483   0.000148  -0.003633   0.006654  -0.000681
    30  H    0.000000   0.000407  -0.000001   0.008322   0.001448   0.000008
    31  H   -0.000372   0.021506   0.000015   0.000155  -0.000028   0.000000
    32  H    0.005837   0.017017   0.000395   0.000937   0.000762   0.001009
    33  H    0.004001  -0.010203  -0.000177  -0.000838   0.000336  -0.000714
    34  H   -0.037469   0.042743   0.001443   0.009015   0.006908   0.000574
    35  H    0.007891   0.045443  -0.000185   0.002863   0.000589   0.000043
    36  H    0.002074   0.103483  -0.000285   0.008291   0.000230   0.000004
    37  H   -0.063341   0.410928  -0.057097   0.053569   0.020716  -0.000480
    38  H    0.004753   0.123800  -0.001310   0.038214  -0.000780   0.000034
    39  H   -0.000345   0.001436  -0.064190   0.344323  -0.102151   0.003078
    40  H    0.001318  -0.002527  -0.006934  -0.035129   0.242549  -0.059504
    41  H    0.000248  -0.010845  -0.000567   0.143663  -0.229499   0.000718
    42  H    0.000001   0.001471   0.000272   0.069020  -0.036773  -0.001402
    43  H   -0.000436   0.034887   0.005609   0.031545  -0.044324  -0.000593
    44  H    0.000177   0.041601  -0.003293   0.156119  -0.014648   0.000096
    45  H   -0.000406  -0.065626   0.000434   0.096858   0.001420  -0.000152
             19         20         21         22         23         24
     1  O   -0.000005   0.000071   0.000000   0.000000   0.000098   0.000000
     2  C   -0.004675   0.011733  -0.000129  -0.000028   0.006001  -0.000251
     3  C    0.004581  -0.004037   0.000019   0.000009  -0.018467  -0.001472
     4  O    0.000003  -0.000042   0.000000   0.000000   0.000296  -0.000002
     5  H    0.000000   0.000000   0.000000   0.000000  -0.000016   0.000000
     6  C    0.016917   0.069069  -0.000207   0.000267  -0.226617   0.001734
     7  O    0.000078   0.003548  -0.000005   0.000000  -0.005905   0.000274
     8  H    0.000001  -0.000090   0.000000   0.000000  -0.000701   0.000003
     9  C    0.005197   0.016527  -0.000776   0.000057  -0.002745   0.000039
    10  O    0.002595   0.005656  -0.000101   0.000012   0.000233   0.000000
    11  H   -0.000025  -0.000254  -0.000001   0.000000   0.000007   0.000000
    12  C    0.017940  -0.036166   0.000442  -0.000347  -0.006056   0.000648
    13  O    0.008304  -0.025328  -0.000032  -0.000021   0.014214  -0.000003
    14  C   -0.014454  -0.307590   0.005494   0.003926   0.038278   0.017096
    15  O    0.025259   0.081826  -0.000968  -0.000058  -0.064282  -0.005201
    16  C   -0.127276  -3.215556  -0.058393  -0.002054   0.321774  -0.035924
    17  C    0.007315  -0.109656  -0.060938  -0.022213  -0.475034   0.000004
    18  O    0.197104  -0.208026   0.003107   0.004213   0.002844   0.000194
    19  H    0.353923   0.062450  -0.000794  -0.000044  -0.004898   0.000001
    20  C    0.062450   9.359051   0.452867  -0.003343   0.076154  -0.017370
    21  O   -0.000794   0.452867   8.184394   0.221226  -0.001129  -0.000002
    22  H   -0.000044  -0.003343   0.221226   0.404876  -0.000856   0.000001
    23  C   -0.004898   0.076154  -0.001129  -0.000856   6.423246   0.168028
    24  O    0.000001  -0.017370  -0.000002   0.000001   0.168028   8.251798
    25  H    0.000000  -0.003185   0.000001   0.000000  -0.019169   0.250238
    26  C    0.018345   1.382773   0.025426  -0.012610  -1.123071   0.024845
    27  O   -0.000018  -0.008487   0.004695  -0.000290  -0.020175  -0.003999
    28  C   -0.001521  -1.451946  -0.244006   0.050697  -0.052470  -0.000676
    29  O    0.000015  -0.115068   0.002223  -0.000487  -0.006019   0.000675
    30  H    0.000000   0.030777  -0.001070   0.000012  -0.003614  -0.000004
    31  H    0.000000  -0.000001   0.000000   0.000000   0.000006   0.000000
    32  H   -0.000162  -0.000170   0.000001   0.000000   0.000012   0.000000
    33  H    0.000052   0.000208   0.000000   0.000000   0.000001   0.000000
    34  H    0.000212   0.000270   0.000000   0.000000   0.000220   0.000000
    35  H   -0.000002  -0.000013   0.000000   0.000000   0.000091   0.000000
    36  H   -0.000001   0.000027   0.000000   0.000000   0.000297   0.000000
    37  H    0.000462   0.004172   0.000007   0.000000  -0.002440  -0.000027
    38  H   -0.000002   0.000196   0.000000   0.000000   0.003159  -0.000026
    39  H    0.000255   0.029243  -0.000315   0.000049  -0.009232   0.001673
    40  H   -0.002584  -0.098003   0.001385  -0.000043   0.009202   0.000064
    41  H   -0.000084   0.347608  -0.053964  -0.007581   0.028882  -0.000121
    42  H   -0.000008  -0.183705   0.008761  -0.000191   0.012716  -0.000187
    43  H    0.000052  -0.007960   0.000058   0.000000   0.005720  -0.002696
    44  H    0.000000  -0.016415   0.000040   0.000000   0.503140  -0.049255
    45  H    0.000007   0.002922  -0.000014   0.000000   0.429807  -0.059402
             25         26         27         28         29         30
     1  O    0.000000   0.000143   0.000000  -0.000004   0.000000   0.000000
     2  C   -0.000009   0.007783   0.000037  -0.001990  -0.000003   0.000000
     3  C   -0.000104  -0.026132   0.000173   0.000948   0.000014   0.000000
     4  O    0.000000   0.000088   0.000001  -0.000002   0.000000   0.000000
     5  H    0.000000   0.000008   0.000000   0.000000   0.000000   0.000000
     6  C    0.000197  -0.429407  -0.003706   0.014855  -0.000091   0.000019
     7  O    0.000008   0.001985  -0.000009  -0.000015  -0.000002   0.000000
     8  H    0.000000   0.000383  -0.000001   0.000006   0.000000   0.000000
     9  C    0.000002   0.013176  -0.000107  -0.002345   0.000004   0.000001
    10  O    0.000000  -0.002335   0.000003   0.000861  -0.000001   0.000000
    11  H    0.000000  -0.000151   0.000000   0.000003   0.000000   0.000000
    12  C    0.000067  -0.044140  -0.000150   0.009528   0.000008  -0.000001
    13  O   -0.000001  -0.072742   0.000471   0.008002  -0.000014   0.000000
    14  C    0.003260  -0.385636  -0.022514   0.115981   0.000483   0.000407
    15  O   -0.000426   0.098051   0.006345  -0.013644   0.000148  -0.000001
    16  C    0.044768  -6.527132  -0.103477   1.848213  -0.003633   0.008322
    17  C    0.003641   1.120645  -0.055764  -0.664683   0.006654   0.001448
    18  O   -0.000001  -0.028884   0.002206   0.029269  -0.000681   0.000008
    19  H    0.000000   0.018345  -0.000018  -0.001521   0.000015   0.000000
    20  C   -0.003185   1.382773  -0.008487  -1.451946  -0.115068   0.030777
    21  O    0.000001   0.025426   0.004695  -0.244006   0.002223  -0.001070
    22  H    0.000000  -0.012610  -0.000290   0.050697  -0.000487   0.000012
    23  C   -0.019169  -1.123071  -0.020175  -0.052470  -0.006019  -0.003614
    24  O    0.250238   0.024845  -0.003999  -0.000676   0.000675  -0.000004
    25  H    0.422475  -0.038873  -0.005385   0.001770  -0.000019   0.000001
    26  C   -0.038873  13.568719   0.242452  -1.418480  -0.002956  -0.014861
    27  O   -0.005385   0.242452   8.419935   0.026855  -0.059953  -0.004339
    28  C    0.001770  -1.418480   0.026855   6.531456   0.328279  -0.001514
    29  O   -0.000019  -0.002956  -0.059953   0.328279   8.158958   0.227776
    30  H    0.000001  -0.014861  -0.004339  -0.001514   0.227776   0.414596
    31  H    0.000000  -0.000005   0.000000   0.000000   0.000000   0.000000
    32  H    0.000000   0.000232   0.000000  -0.000026   0.000000   0.000000
    33  H    0.000000  -0.000078   0.000000   0.000008   0.000000   0.000000
    34  H    0.000000   0.000838   0.000000  -0.000158   0.000000   0.000000
    35  H    0.000000   0.000058   0.000000  -0.000004   0.000000   0.000000
    36  H    0.000000   0.000065   0.000000  -0.000003   0.000000   0.000000
    37  H    0.000000   0.020580   0.000169  -0.000417  -0.000002   0.000000
    38  H    0.000000  -0.001017   0.000008  -0.000029   0.000000   0.000000
    39  H   -0.000013  -0.007571   0.003834   0.012102  -0.000733   0.000004
    40  H   -0.000006   0.121334  -0.002362  -0.004745   0.000805  -0.000004
    41  H   -0.000001   0.017705  -0.002707  -0.037015   0.001531  -0.000084
    42  H   -0.000002  -0.002061  -0.067774   0.465325  -0.051394  -0.008761
    43  H    0.002204   0.236503  -0.047503   0.024462  -0.000863  -0.000007
    44  H    0.006175  -0.335077  -0.004757   0.018203  -0.000333   0.000002
    45  H   -0.003818  -0.091147   0.008452  -0.004387   0.000080   0.000000
             31         32         33         34         35         36
     1  O    0.210714   0.000869   0.001178   0.007295  -0.036547  -0.011390
     2  C    0.028299   0.061213   0.044195   0.011217   0.314596   0.007521
     3  C   -0.033188  -0.000508  -0.016844  -0.018439   0.029970   0.396164
     4  O    0.003816  -0.000441   0.000029  -0.000792  -0.004327  -0.039886
     5  H    0.005250   0.000001  -0.000001   0.000002  -0.000358  -0.007925
     6  C   -0.019804   0.000899   0.005486   0.015956  -0.000760  -0.156366
     7  O    0.000283  -0.000025  -0.000008  -0.000762  -0.001331  -0.018502
     8  H   -0.000005   0.000000   0.000000   0.000007   0.000012  -0.001156
     9  C   -0.004942   0.565646   0.512796   0.041229   0.006998   0.001415
    10  O   -0.000020  -0.058942  -0.062363   0.002015   0.000647   0.000018
    11  H   -0.000001  -0.009941  -0.002710  -0.000121  -0.000020   0.000000
    12  C    0.025248  -0.312100  -0.168076   0.170845  -0.115140  -0.033286
    13  O   -0.000372   0.005837   0.004001  -0.037469   0.007891   0.002074
    14  C    0.021506   0.017017  -0.010203   0.042743   0.045443   0.103483
    15  O    0.000015   0.000395  -0.000177   0.001443  -0.000185  -0.000285
    16  C    0.000155   0.000937  -0.000838   0.009015   0.002863   0.008291
    17  C   -0.000028   0.000762   0.000336   0.006908   0.000589   0.000230
    18  O    0.000000   0.001009  -0.000714   0.000574   0.000043   0.000004
    19  H    0.000000  -0.000162   0.000052   0.000212  -0.000002  -0.000001
    20  C   -0.000001  -0.000170   0.000208   0.000270  -0.000013   0.000027
    21  O    0.000000   0.000001   0.000000   0.000000   0.000000   0.000000
    22  H    0.000000   0.000000   0.000000   0.000000   0.000000   0.000000
    23  C    0.000006   0.000012   0.000001   0.000220   0.000091   0.000297
    24  O    0.000000   0.000000   0.000000   0.000000   0.000000   0.000000
    25  H    0.000000   0.000000   0.000000   0.000000   0.000000   0.000000
    26  C   -0.000005   0.000232  -0.000078   0.000838   0.000058   0.000065
    27  O    0.000000   0.000000   0.000000   0.000000   0.000000   0.000000
    28  C    0.000000  -0.000026   0.000008  -0.000158  -0.000004  -0.000003
    29  O    0.000000   0.000000   0.000000   0.000000   0.000000   0.000000
    30  H    0.000000   0.000000   0.000000   0.000000   0.000000   0.000000
    31  H    0.433011   0.000030  -0.000256  -0.000235  -0.008554  -0.001030
    32  H    0.000030   0.656408  -0.053984   0.006894   0.007748  -0.000017
    33  H   -0.000256  -0.053984   0.602558  -0.007046   0.000164   0.000006
    34  H   -0.000235   0.006894  -0.007046   0.583585   0.004824   0.000737
    35  H   -0.008554   0.007748   0.000164   0.004824   0.595230   0.004195
    36  H   -0.001030  -0.000017   0.000006   0.000737   0.004195   0.558223
    37  H   -0.000001  -0.000004   0.000013   0.006171  -0.000025   0.000831
    38  H    0.000019  -0.000017   0.000000  -0.000075  -0.000346   0.003578
    39  H    0.000000   0.000000   0.000000  -0.000033   0.000000   0.000000
    40  H    0.000000   0.000000   0.000000   0.000000   0.000000   0.000000
    41  H    0.000000   0.000000   0.000000   0.000000   0.000000   0.000000
    42  H    0.000000   0.000000   0.000000   0.000000   0.000000   0.000000
    43  H    0.000000   0.000000   0.000000   0.000000   0.000000   0.000000
    44  H    0.000000   0.000000   0.000000   0.000000   0.000000   0.000000
    45  H    0.000000   0.000000   0.000000   0.000000   0.000000   0.000001
             37         38         39         40         41         42
     1  O   -0.000503  -0.001103  -0.000002   0.000000   0.000000   0.000000
     2  C    0.009052   0.035461  -0.000778   0.000632   0.000111  -0.000005
     3  C    0.012118   0.056410   0.001808  -0.000488  -0.000050   0.000013
     4  O   -0.000354  -0.004165   0.000000   0.000000   0.000000   0.000000
     5  H    0.000009   0.000571   0.000000   0.000000   0.000000   0.000000
     6  C   -0.191658   0.028123  -0.003112  -0.001043  -0.002018  -0.000221
     7  O    0.000155  -0.026778  -0.000054   0.000008   0.000000   0.000000
     8  H    0.000140  -0.007753   0.000003   0.000000   0.000000   0.000000
     9  C    0.006807   0.002083   0.000371   0.000920   0.000045  -0.000001
    10  O   -0.000275  -0.000023  -0.000025  -0.000089  -0.000010  -0.000001
    11  H   -0.000001   0.000000   0.000000   0.000000   0.000000   0.000000
    12  C    0.007542   0.009692   0.005441  -0.000471   0.001033   0.000053
    13  O   -0.063341   0.004753  -0.000345   0.001318   0.000248   0.000001
    14  C    0.410928   0.123800   0.001436  -0.002527  -0.010845   0.001471
    15  O   -0.057097  -0.001310  -0.064190  -0.006934  -0.000567   0.000272
    16  C    0.053569   0.038214   0.344323  -0.035129   0.143663   0.069020
    17  C    0.020716  -0.000780  -0.102151   0.242549  -0.229499  -0.036773
    18  O   -0.000480   0.000034   0.003078  -0.059504   0.000718  -0.001402
    19  H    0.000462  -0.000002   0.000255  -0.002584  -0.000084  -0.000008
    20  C    0.004172   0.000196   0.029243  -0.098003   0.347608  -0.183705
    21  O    0.000007   0.000000  -0.000315   0.001385  -0.053964   0.008761
    22  H    0.000000   0.000000   0.000049  -0.000043  -0.007581  -0.000191
    23  C   -0.002440   0.003159  -0.009232   0.009202   0.028882   0.012716
    24  O   -0.000027  -0.000026   0.001673   0.000064  -0.000121  -0.000187
    25  H    0.000000   0.000000  -0.000013  -0.000006  -0.000001  -0.000002
    26  C    0.020580  -0.001017  -0.007571   0.121334   0.017705  -0.002061
    27  O    0.000169   0.000008   0.003834  -0.002362  -0.002707  -0.067774
    28  C   -0.000417  -0.000029   0.012102  -0.004745  -0.037015   0.465325
    29  O   -0.000002   0.000000  -0.000733   0.000805   0.001531  -0.051394
    30  H    0.000000   0.000000   0.000004  -0.000004  -0.000084  -0.008761
    31  H   -0.000001   0.000019   0.000000   0.000000   0.000000   0.000000
    32  H   -0.000004  -0.000017   0.000000   0.000000   0.000000   0.000000
    33  H    0.000013   0.000000   0.000000   0.000000   0.000000   0.000000
    34  H    0.006171  -0.000075  -0.000033   0.000000   0.000000   0.000000
    35  H   -0.000025  -0.000346   0.000000   0.000000   0.000000   0.000000
    36  H    0.000831   0.003578   0.000000   0.000000   0.000000   0.000000
    37  H    0.622234   0.005208   0.008415   0.000004   0.000000   0.000000
    38  H    0.005208   0.564055   0.000013   0.000000   0.000000   0.000000
    39  H    0.008415   0.000013   0.632751   0.007903   0.005332  -0.000005
    40  H    0.000004   0.000000   0.007903   0.698524   0.009862   0.009527
    41  H    0.000000   0.000000   0.005332   0.009862   0.652288   0.007259
    42  H    0.000000   0.000000  -0.000005   0.009527   0.007259   0.661177
    43  H   -0.000002  -0.000001   0.005401   0.003200  -0.000145   0.003969
    44  H   -0.000078  -0.000003   0.006671  -0.000016  -0.000368  -0.000012
    45  H    0.000294   0.000121  -0.001091  -0.000050   0.000015   0.000020
             43         44         45
     1  O    0.000000   0.000000   0.000000
     2  C   -0.000075  -0.000129   0.000747
     3  C   -0.000064  -0.001715   0.006729
     4  O    0.000000  -0.000002   0.000020
     5  H    0.000000   0.000000   0.000000
     6  C   -0.000617   0.007644  -0.010803
     7  O   -0.000046  -0.000073   0.000939
     8  H    0.000000   0.000005  -0.000047
     9  C    0.000074   0.000128  -0.000235
    10  O   -0.000001   0.000000   0.000000
    11  H    0.000000   0.000000   0.000000
    12  C    0.000633   0.002055  -0.003708
    13  O   -0.000436   0.000177  -0.000406
    14  C    0.034887   0.041601  -0.065626
    15  O    0.005609  -0.003293   0.000434
    16  C    0.031545   0.156119   0.096858
    17  C   -0.044324  -0.014648   0.001420
    18  O   -0.000593   0.000096  -0.000152
    19  H    0.000052   0.000000   0.000007
    20  C   -0.007960  -0.016415   0.002922
    21  O    0.000058   0.000040  -0.000014
    22  H    0.000000   0.000000   0.000000
    23  C    0.005720   0.503140   0.429807
    24  O   -0.002696  -0.049255  -0.059402
    25  H    0.002204   0.006175  -0.003818
    26  C    0.236503  -0.335077  -0.091147
    27  O   -0.047503  -0.004757   0.008452
    28  C    0.024462   0.018203  -0.004387
    29  O   -0.000863  -0.000333   0.000080
    30  H   -0.000007   0.000002   0.000000
    31  H    0.000000   0.000000   0.000000
    32  H    0.000000   0.000000   0.000000
    33  H    0.000000   0.000000   0.000000
    34  H    0.000000   0.000000   0.000000
    35  H    0.000000   0.000000   0.000000
    36  H    0.000000   0.000000   0.000001
    37  H   -0.000002  -0.000078   0.000294
    38  H   -0.000001  -0.000003   0.000121
    39  H    0.005401   0.006671  -0.001091
    40  H    0.003200  -0.000016  -0.000050
    41  H   -0.000145  -0.000368   0.000015
    42  H    0.003969  -0.000012   0.000020
    43  H    0.609206   0.006002  -0.004944
    44  H    0.006002   0.585039  -0.046613
    45  H   -0.004944  -0.046613   0.590857
 Mulliken atomic charges:
              1
     1  O   -0.517032
     2  C    0.161948
     3  C   -0.070355
     4  O   -0.519912
     5  H    0.340219
     6  C    0.127304
     7  O   -0.541600
     8  H    0.370910
     9  C   -0.258923
    10  O   -0.525531
    11  H    0.349183
    12  C    0.184343
    13  O   -0.352271
    14  C    0.297805
    15  O   -0.407002
    16  C   -0.136948
    17  C    0.115377
    18  O   -0.518625
    19  H    0.435485
    20  C   -0.124734
    21  O   -0.487301
    22  H    0.364821
    23  C   -0.001528
    24  O   -0.540696
    25  H    0.336206
    26  C   -0.337771
    27  O   -0.302160
    28  C    0.413259
    29  O   -0.485403
    30  H    0.350887
    31  H    0.340092
    32  H    0.110429
    33  H    0.152267
    34  H    0.152128
    35  H    0.146252
    36  H    0.182687
    37  H    0.127109
    38  H    0.167929
    39  H    0.119545
    40  H    0.106761
    41  H    0.128760
    42  H    0.112920
    43  H    0.140752
    44  H    0.139693
    45  H    0.152721
 Sum of Mulliken atomic charges =   0.00000
 Mulliken charges with hydrogens summed into heavy atoms:
              1
     1  O   -0.176939
     2  C    0.308199
     3  C    0.112332
     4  O   -0.179693
     6  C    0.295233
     7  O   -0.170690
     9  C    0.003773
    10  O   -0.176348
    12  C    0.336471
    13  O   -0.352271
    14  C    0.424914
    15  O   -0.407002
    16  C   -0.017402
    17  C    0.222138
    18  O   -0.083141
    20  C    0.004026
    21  O   -0.122480
    23  C    0.290886
    24  O   -0.204490
    26  C   -0.197019
    27  O   -0.302160
    28  C    0.526179
    29  O   -0.134516
 Sum of Mulliken charges with hydrogens summed into heavy atoms =   0.00000
 APT atomic charges:
              1
     1  O   -0.619662
     2  C    0.353759
     3  C    0.429824
     4  O   -0.609737
     5  H    0.231247
     6  C    0.315399
     7  O   -0.608423
     8  H    0.263815
     9  C    0.470847
    10  O   -0.602457
    11  H    0.248912
    12  C    0.400260
    13  O   -0.785576
    14  C    0.981277
    15  O   -0.986812
    16  C    0.519492
    17  C    0.317376
[...]
 ,-0.00002336,0.00001316,-0.00000416,0.00002283,-0.00001243,0.00002241,
 -0.00005588,0.00005737,-0.00001365,0.00018046,0.00000046,-0.00001283,-
 0.00000692,-0.00022600,0.00029880,-0.00172032,0.00082863,0.00247209,0.
 00077951,-0.00028466,0.00040639,0.00009699,-0.00003827,-0.00002416,-0.
 01710646,0.01996747,-0.00834482,0.00098566,-0.00121915,0.00085321,0.00
 018009,-0.00014216,0.00012389,-0.00008630,-0.00011075,0.00005500,0.000
 00085,-0.00001528,0.00001651,0.00000244,0.00001686,0.00001502,0.002140
 43,-0.00014056,-0.00207552,0.01317182,-0.02063557,0.00632525,-0.200632
 44,0.15260122,-0.03894309,-0.00982627,0.01272057,0.01079829,0.00053588
 ,-0.00085677,0.00031227,-0.00000140,0.00000237,-0.00000061,0.00000314,
 -0.00000222,-0.00000294,0.00000070,-0.00000039,0.00000512,0.00000438,-
 0.00000610,0.00000497,0.00000291,-0.00000087,-0.00000260,0.00000030,-0
 .00000101,0.00000164,0.00001214,-0.00001150,0.00000174,0.00000422,0.00
 000110,-0.00000516,-0.00013207,-0.00034637,0.00024617,0.00216392,-0.00
 061211,0.00010027,-0.00246408,-0.00133157,-0.00360577,0.21222202,0.000
 01299,0.00001955,0.00001537,-0.00000666,-0.00001275,-0.00000191,-0.000
 00814,-0.00001241,-0.00002729,-0.00000183,0.00001452,0.00002199,0.0000
 0080,-0.00000402,-0.00000006,0.00001751,-0.00003855,0.00000003,0.00002
 551,0.00005055,0.00006144,-0.00000742,0.00000181,-0.00002275,-0.000009
 01,-0.00004317,0.00003832,-0.00000143,0.00003458,-0.00003675,0.0000082
 2,-0.00000526,0.00000547,-0.00000472,0.00001176,-0.00000690,0.00007057
 ,0.00012871,0.00003074,-0.00010814,-0.00007731,-0.00016198,0.00022262,
 0.00010457,0.00043206,-0.00119069,-0.00034094,-0.00018613,-0.00051881,
 0.00076917,0.00016983,-0.00018291,-0.00016400,-0.00058014,-0.00006951,
 -0.00009826,0.00014673,-0.00565334,0.00856985,-0.00417565,0.00171228,0
 .00064904,0.00081733,0.00031210,0.00003201,-0.00002997,-0.00054777,0.0
 0019020,0.00078349,-0.00010770,-0.00004687,0.00002885,0.00006138,0.000
 00450,0.00002607,0.00298157,-0.00075874,-0.00342978,0.00770320,-0.0382
 0361,0.01413384,0.15164104,-0.18794624,0.02937802,0.00755947,-0.000411
 03,-0.00609129,0.00031642,-0.00024369,-0.00007700,-0.00000164,-0.00000
 722,-0.00000497,0.00000215,0.00000317,-0.00000213,0.00000105,0.0000087
 2,-0.00000417,-0.00000319,-0.00000177,0.00000402,-0.00000064,0.0000020
 4,0.00000169,-0.00000149,0.00000161,0.00000119,0.00000024,0.00000114,0
 .00001450,-0.00000044,0.00000013,-0.00000681,0.00019160,0.00009560,-0.
 00021670,-0.00065658,0.00044271,0.00009004,-0.00154086,-0.00024551,-0.
 00178429,-0.16082207,0.21722827,-0.00000479,-0.00000351,-0.00001823,0.
 ,0.00000254,0.00001276,-0.00000070,0.00000305,0.00001787,0.00001142,0.
 00000193,-0.00001806,-0.00000178,-0.00000156,0.00000081,-0.00001555,-0
 .00001048,-0.00000366,0.00000147,0.00000512,-0.00001507,0.00000081,-0.
 00000372,0.00000269,-0.00000172,0.00001075,-0.00000275,0.00000425,-0.0
 0001348,0.00000078,-0.00000243,0.00000364,-0.00000261,0.00000743,0.000
 00429,0.00002231,-0.00001153,-0.00003090,-0.00004511,0.00004127,0.0000
 3680,0.00010816,0.00010939,-0.00006808,-0.00027339,0.00002684,0.000179
 27,-0.00015494,-0.00403962,0.00123163,-0.00019630,0.00073238,-0.000178
 68,0.00020103,-0.00004013,0.00004105,-0.00000921,-0.01807272,0.0146178
 6,-0.00466802,-0.00038651,-0.00095265,0.00028073,0.00005145,-0.0002073
 5,0.00002896,0.00010786,0.00002701,-0.00002430,0.00002957,-0.00000469,
 -0.00001830,-0.00001602,0.00000401,0.00000140,-0.00103833,0.00018534,0
 .00209989,-0.00329663,0.01473990,0.00040130,-0.03858388,0.03076631,-0.
 04911769,0.03233792,-0.02807589,-0.01452001,0.00137119,0.00025202,0.00
 213614,0.00000084,0.00000295,0.00000324,0.00000266,-0.00000159,-0.0000
 0150,-0.00000220,-0.00000327,-0.00000028,0.00000132,-0.00000252,-0.000
 00003,0.00000057,-0.00000066,-0.00000225,0.00000075,-0.00000116,-0.000
 00080,-0.00000445,-0.00000620,0.00000265,0.00000133,0.00000217,0.00000
 019,0.00022090,-0.00022716,0.00008036,0.00066822,-0.00058688,-0.000825
 64,-0.00215356,-0.00098993,-0.00317116,0.03144676,-0.03040073,0.067815
 98,0.00000743,-0.00000564,-0.00000657,-0.00001023,0.00000287,0.0000084
 3,0.00000833,0.00000980,0.00001169,0.00001946,-0.00000105,-0.00002367,
 0.,0.00000027,-0.00000069,-0.00008162,-0.00002796,-0.00004916,0.000037
 12,-0.00000028,0.00000786,-0.00000960,0.00000225,-0.00001431,-0.000013
 29,0.00001856,-0.00000803,0.00002146,-0.00001575,0.00000733,-0.0000115
 0,0.00000252,-0.00000478,-0.00002183,0.00001091,0.00002229,0.00002538,
 -0.00007481,-0.00006432,0.00037975,-0.00014914,-0.00009969,0.00145830,
 -0.00045417,0.00005182,-0.01754559,0.01233247,-0.00145826,-0.00051838,
 0.00255530,-0.00115211,0.00084681,-0.00050690,0.00038865,-0.00012956,0
 .00013596,-0.00004991,0.00031019,-0.00018071,0.00040780,-0.00021979,-0
 .00025067,-0.00015429,-0.00003056,0.00000559,0.00003120,0.00642259,-0.
 00529088,-0.00082534,0.00164352,0.00108714,0.00072880,-0.00034062,0.00
 067222,-0.00000823,-0.27641278,0.13784597,-0.01708959,-0.01228981,0.00
 501254,0.01342347,0.00066660,0.00346793,-0.00129533,-0.00008693,-0.000
 75459,0.00058161,-0.00003531,0.00016039,-0.00015711,-0.00000198,0.0000
 0322,-0.00000026,0.00000493,-0.00000457,-0.00000667,-0.00000053,-0.000
 00476,0.00000098,0.00000847,-0.00000505,0.00000523,0.00000302,-0.00000
 308,-0.00000635,0.00000179,-0.00000179,0.00000186,0.00006465,-0.000041
 81,0.00025232,0.00001226,0.00000524,-0.00002049,-0.00146480,-0.0017077
 4,-0.00205830,0.00059922,-0.00131839,0.00054340,0.00038521,-0.00012440
 ,-0.00008863,-0.00027545,-0.00107086,0.00041398,0.29573863,-0.00000512
 ,0.00000572,-0.00001047,0.00000161,-0.00000525,0.00000937,0.00000700,0
 .00001675,0.00000827,-0.00000894,0.00001122,-0.00000295,0.00000131,-0.
 00000412,-0.00000178,0.00003473,-0.00011694,-0.00003398,-0.00002501,0.
 00009854,0.00006435,0.00001237,-0.00001192,-0.00000656,0.00000587,0.00
 000050,0.00000604,-0.00000805,-0.00000357,-0.00000567,0.00000457,0.000
 00142,-0.00000010,0.00002192,0.00001090,0.00002332,0.00001773,0.000042
 41,0.00000922,0.00011965,-0.00000415,0.00012996,0.00018257,0.00005900,
 0.00099215,-0.01255288,0.00560835,-0.00203519,-0.00119539,0.00092994,-
 0.00045673,0.00012385,-0.00048311,-0.00012661,-0.00001266,0.00002417,0
 .00005370,-0.00041398,0.00000338,-0.00065453,0.00001142,0.00002878,0.0
 0010468,0.00002045,-0.00000329,-0.00001733,0.02938412,-0.01585009,0.00
 371047,-0.00064778,0.00285699,-0.00030340,-0.00092397,-0.00066685,-0.0
 0065035,0.14037614,-0.12653516,0.00918004,-0.00057425,0.00350884,-0.00
 341650,-0.00098509,0.00110243,0.00000950,0.00018202,-0.00007719,0.0000
 7078,0.00001175,-0.00002702,0.00008865,0.00000170,-0.00000131,0.000000
 52,-0.00000127,0.00000145,0.00000132,-0.00000202,-0.00000065,-0.000002
 33,-0.00000344,-0.00000008,-0.00000358,-0.00000026,0.00000359,0.000001
 08,-0.00000478,-0.00000091,-0.00000892,-0.00000458,-0.00003097,-0.0000
 1628,-0.00001296,0.00001420,0.00002086,-0.00112049,-0.00119560,-0.0014
 1767,-0.00116883,-0.00017349,-0.00041926,0.00004150,-0.00022431,0.0002
 1098,0.00061218,0.00032847,-0.00025581,-0.15019952,0.13480722,-0.00000
 195,-0.00001089,-0.00001357,-0.00000093,0.00000437,0.00000364,-0.00000
 542,-0.00000432,0.00001725,0.00001635,-0.00000783,-0.00001879,-0.00000
 388,0.00000199,0.00000147,0.00001045,0.00004238,0.00000791,0.00002291,
 -0.00006234,-0.00005490,-0.00000156,0.00000323,0.00000246,0.00000627,0
 .00002218,0.00000520,0.00000375,-0.00002406,0.00000492,-0.00000240,0.0
 0000373,-0.00000419,-0.00000861,0.00004598,0.00004215,0.00009704,-0.00
 007550,0.00004366,0.00010811,0.00027687,-0.00002465,0.00081335,-0.0005
 3940,0.00201331,-0.02021080,0.01276205,0.00009138,0.00036860,0.0020236
 3,-0.00033299,0.00044198,-0.00066811,0.00005976,-0.00015906,0.00015908
 ,0.00001326,0.00006704,0.00047438,-0.00046364,0.00020029,0.00015212,0.
 00031657,0.00004924,0.00006455,-0.00003339,-0.00803662,0.00309672,-0.0
 0001722,0.00084328,-0.00006482,0.00024963,0.00012494,-0.00007554,0.000
 17276,-0.01505502,0.00780664,-0.04079412,0.03581378,-0.01450209,-0.013
 94568,-0.00086132,-0.00626247,0.00242683,0.00014601,0.00104413,-0.0012
 4743,0.00010600,-0.00010557,0.00016447,0.00000058,0.00000595,0.0000030
 2,0.00000309,-0.00000348,-0.00000299,-0.00000048,-0.00000146,0.0000013
 1,0.00001022,-0.00000265,0.00000650,0.00000238,-0.00000304,-0.00000427
 ,0.00000403,-0.00000164,0.00000503,0.00017801,-0.00009572,0.00012492,0
 .00001383,0.00000496,-0.00003497,-0.00236163,-0.00145291,-0.00295234,0
 .00028423,-0.00036208,0.00051322,0.00006820,0.00002462,-0.00018864,-0.
 00052343,0.00112169,-0.00013691,0.00775784,-0.00658697,0.05354105,-0.0
 0000926,-0.00001646,-0.00002244,0.00000688,0.00001452,-0.00000025,-0.0
 0001381,-0.00003529,0.00002125,0.00002673,-0.00001548,-0.00002578,-0.0
 0000565,0.00000384,0.00000456,-0.00005330,0.00016548,0.00001023,0.0001
 0869,-0.00017656,-0.00011982,-0.00002721,0.00001138,-0.00000417,0.0000
 0379,0.00001693,0.00000031,-0.00000183,-0.00001979,0.00000492,-0.00000
 185,0.00000431,-0.00000200,0.00000835,0.00003056,0.00003809,0.00006358
 ,-0.00009690,0.00002276,-0.00011892,0.00033719,-0.00014606,0.00028050,
 0.00035766,0.00045980,0.00016249,-0.00290060,-0.00046268,0.00093506,-0
 .00063663,0.00044317,0.00003500,0.00012267,-0.00006668,-0.00004519,0.0
 0002248,-0.00001994,0.00000119,0.00015052,-0.00014326,0.00000609,-0.00
 002704,0.00004733,0.00001321,0.00001254,-0.00000352,-0.30048731,0.1302
 3591,-0.01621904,-0.01947982,0.00018780,-0.00905827,0.00008019,-0.0021
 3981,-0.00011589,0.00093062,-0.00237742,0.00120095,0.00110092,-0.00022
 850,-0.00047320,0.00003074,-0.00038689,-0.00005536,0.00008264,0.000080
 75,-0.00007514,-0.00001853,-0.00000726,0.00001588,-0.00000021,0.000007
 31,0.00000521,0.00000209,-0.00000304,-0.00000079,-0.00000079,-0.000000
 88,0.00000086,0.00000579,0.00000127,0.00000023,0.00000015,-0.00000549,
 -0.00000368,0.00000919,0.00000152,0.00001212,0.00010369,-0.00002093,0.
 00006049,0.00002426,-0.00003281,-0.00003490,0.00091048,-0.00156864,-0.
 00019028,-0.00033578,-0.00044050,0.00006833,-0.00001187,-0.00006396,0.
 00000045,-0.00007403,-0.00004404,0.00002212,0.00059053,-0.00058415,0.0
 0015409,0.32681581,0.00000103,0.00000052,0.00000963,0.00000171,-0.0000
 0128,-0.00000843,-0.00000246,-0.00000754,-0.00001417,-0.00000686,-0.00
 000246,0.00001344,-0.00000021,0.00000118,0.00000088,0.00000297,0.00003
 677,-0.00001945,-0.00001184,-0.00006739,-0.00000855,-0.00001194,0.0000
 2611,0.00002579,-0.00000343,-0.00000897,0.00000321,-0.00000487,0.00000
 657,-0.00000559,0.00000425,-0.00000136,0.00000180,0.00000464,-0.000015
 88,-0.00003028,-0.00004631,0.00005776,-0.00000836,0.00005214,-0.000219
 32,-0.00011573,-0.00046452,0.00052749,-0.00009807,0.00314097,-0.002237
 10,0.00135352,0.00023515,-0.00020730,0.00027591,-0.00018631,-0.0000136
 1,-0.00021903,-0.00000119,-0.00004164,0.00003284,0.00002539,-0.0001224
 3,-0.00003569,0.00003041,0.00013578,-0.00001133,0.00000260,-0.00002803
 ,-0.00001192,0.13039403,-0.10284569,0.01116084,-0.02413417,0.00723582,
 -0.00614143,-0.00365709,-0.00183137,-0.00218110,0.02796734,-0.02087998
 ,0.00017322,-0.00017542,0.00300620,-0.00189498,-0.00013889,0.00008008,
 -0.00002399,-0.00006210,0.00000429,-0.00001590,0.00000572,-0.00002971,
 0.00000116,-0.00000001,0.00000007,-0.00000066,-0.00000162,0.00000194,0
 .00000124,0.00000151,0.00000211,-0.00000091,-0.00000382,0.00000085,0.0
 0000077,-0.00000045,0.00000027,0.00000125,0.00000088,0.00000286,-0.000
 00017,-0.00003294,0.00001955,-0.00005244,-0.00000408,-0.00001164,0.000
 00445,-0.00149220,-0.00081574,-0.00081793,-0.00048809,0.00018111,-0.00
 022729,-0.00017697,0.00004226,0.00002902,0.00005309,0.00027532,-0.0001
 1751,-0.00204897,-0.00506884,0.00192714,-0.12780896,0.12104967,0.00001
 327,0.00002032,0.00001385,-0.00001250,-0.00001533,0.00000568,0.0000018
 2,0.00003569,-0.00000888,-0.00001133,0.00002233,0.00001618,0.00000119,
 -0.00000503,-0.00000410,0.00003113,-0.00018993,-0.00003574,-0.00011514
 ,0.00017767,0.00014802,0.00001628,-0.00000813,0.00001396,-0.00001777,-
 0.00002275,0.00001109,0.00000719,0.00002437,-0.00001775,0.00000129,-0.
 00000338,0.00000212,0.00001105,-0.00003022,-0.00004315,-0.00004164,0.0
 0012023,-0.00008779,0.00025241,-0.00041281,0.00016395,-0.00069339,0.00
 033756,-0.00059918,0.00001049,-0.00299336,0.00028926,-0.00000616,-0.00
 007087,-0.00008044,0.00006241,-0.00007055,-0.00009883,-0.00001767,-0.0
 0001918,0.00006686,0.00003030,0.00011042,0.00001120,-0.00005743,-0.000
 10731,-0.00003900,-0.00000192,0.00001244,0.00002119,-0.01125516,0.0086
 2255,-0.04438607,-0.02636491,0.00602924,-0.00529695,-0.00308765,-0.002
 54920,-0.00207572,-0.01038101,0.00944077,-0.00082936,-0.00112159,-0.00
 118341,0.00138685,0.00011455,0.00038699,-0.00012645,-0.00002241,-0.000
 13828,0.00012387,-0.00002291,0.00004243,-0.00004133,-0.00000123,-0.000
 00704,-0.00000660,0.00000187,0.00000434,-0.00000129,-0.00000095,0.0000
 0016,-0.00000271,-0.00000830,-0.00000485,0.00000103,-0.00000033,0.0000
 0482,0.00000376,-0.00000876,-0.00000138,-0.00001821,-0.00013228,-0.000
 00373,-0.00003559,-0.00003423,0.00004088,0.00005601,-0.00019846,-0.001
 15782,0.00018917,0.00004479,-0.00008851,0.00006514,0.00006160,0.000021
 26,0.00002777,0.00003712,-0.00019763,0.00002507,0.00039076,0.00188629,
 0.00012496,0.02543320,-0.00372668,0.04705619,0.00005368,0.00003744,0.0
 0010064,-0.00001583,-0.00003312,-0.00002753,-0.00001495,0.00003138,-0.
 00010889,-0.00004838,0.00001833,0.00010483,0.00000701,0.00000029,-0.00
 000138,0.00012682,-0.00033735,-0.00013811,0.00005524,0.00015574,0.0006
 3599,0.00002362,0.00006075,0.00001757,-0.00002158,-0.00008682,0.000054
 72,0.00002898,0.00007642,-0.00003990,-0.00000019,-0.00001385,0.0000037
 0,-0.00009801,0.00000504,-0.00008614,0.00012357,0.00038425,0.00020555,
 -0.00030802,-0.00091681,-0.00120054,0.00137875,0.00102502,-0.00044548,
 -0.00161418,-0.00163143,0.00190921,0.00005583,0.00027581,0.00000478,0.
 00002046,-0.00003511,-0.00029963,-0.00012206,-0.00018860,0.00017547,-0
 .00000766,0.00019403,0.00012376,-0.00004768,-0.00010666,-0.00009544,-0
 .00001021,0.00000925,0.00002371,-0.11192675,0.00365812,0.12791632,0.00
 652254,-0.00956924,-0.02842330,0.00144338,0.00043005,-0.00139201,-0.00
 036520,0.00350392,0.00129949,0.00009204,-0.00177785,0.00104713,0.00113
 456,0.00037659,-0.00016829,-0.00013752,-0.00004595,0.00017811,-0.00000
 827,0.00002558,-0.00008323,-0.00000603,-0.00001871,-0.00001787,0.00000
 074,0.00000552,-0.00000543,0.00001028,0.00002437,0.00000134,-0.0000031
 2,-0.00001097,0.00001471,0.00000432,0.00000991,0.00000354,-0.00001675,
 0.00000607,-0.00000597,-0.00012059,-0.00000994,0.00001936,0.00000501,0
 .00005267,0.00004951,0.00002063,0.00003248,0.00003181,-0.00002761,0.00
 003823,-0.00002374,0.00004113,-0.00002233,0.00001545,-0.00012203,-0.00
 028085,0.00005987,0.00024450,-0.00071900,-0.00048278,-0.01165332,-0.00
 095811,0.02709240,0.11530283,0.00000532,-0.00001683,0.00005430,0.00001
 895,0.00000729,-0.00006293,-0.00001369,-0.00011572,-0.00009624,-0.0000
 2906,-0.00005232,0.00006744,-0.00000238,0.00001839,0.00000734,0.000037
 64,0.00051888,0.00005186,-0.00012082,-0.00045471,-0.00031017,0.0000497
 8,0.00003695,0.00019292,-0.00000579,-0.00004023,0.00003916,0.00001572,
 0.00003018,-0.00001099,-0.00000379,-0.00000779,0.00000145,-0.00009358,
 0.00003973,-0.00009233,0.00012663,0.00013443,0.00031340,-0.00053106,-0
 .00022702,-0.00164199,-0.00039991,-0.00192842,-0.00157452,-0.00173781,
 -0.00061823,0.00161225,0.00019225,0.00031623,0.00041340,0.00013167,0.0
 0011205,-0.00030623,-0.00011848,-0.00018289,0.00004677,0.00015599,0.00
 005631,0.00036740,-0.00012204,-0.00009654,-0.00018400,-0.00002565,-0.0
 0002077,0.00002319,0.00516681,-0.04438965,0.00480640,-0.00146918,-0.00
 637888,-0.02811861,0.00079875,0.00020816,-0.00005818,-0.01362147,0.002
 32694,0.02708405,-0.00364522,-0.00877843,0.00302810,0.00074149,0.00140
 663,0.00072445,-0.00071532,-0.00038546,0.00110125,-0.00005746,0.000002
 67,-0.00016762,-0.00000003,0.00000116,-0.00000106,-0.00000109,0.000000
 05,-0.00000611,0.00001293,0.00002185,0.00000570,0.00000692,-0.00000309
 ,0.00001931,-0.00000016,-0.00000655,-0.00000123,0.00001433,0.00000570,
 0.00003695,0.00014507,-0.00001195,0.00014401,0.00005633,-0.00003464,-0
 .00010022,0.00004769,-0.00006012,-0.00026425,-0.00004913,0.00003661,0.
 00000458,-0.00002746,0.00000491,-0.00002289,-0.00004484,-0.00030666,0.
 00002674,0.00091234,0.00102052,-0.00015551,0.00787340,0.00176270,-0.01
 433339,0.00632543,0.05604856,-0.00000760,0.00000514,-0.00004088,-0.000
 02189,-0.00001786,0.00004164,0.00001025,0.00000469,0.00002653,0.000008
 61,0.00000489,-0.00001833,-0.00000502,-0.00000208,-0.00000029,0.000066
 22,-0.00012694,-0.00010550,0.00005642,-0.00001917,-0.00001205,0.000036
 79,0.00005384,0.00001926,0.00000880,0.00004288,-0.00003761,-0.00001705
 ,-0.00003320,0.00001973,0.00000382,0.00000733,-0.00000098,0.00002385,-
 0.00002914,-0.00002000,-0.00018417,-0.00012506,-0.00029295,-0.00029767
 ,-0.00064555,0.00047461,-0.00305650,-0.00553851,-0.00230432,0.00046285
 ,0.00028327,-0.00124925,0.00002970,-0.00004847,-0.00006693,-0.00003149
 ,0.00002084,0.00024493,0.00008241,0.00012162,-0.00005123,-0.00010652,0
 .00000598,-0.00012892,0.00006258,0.00004064,0.00008286,0.00001081,0.00
 000655,-0.00001482,0.12927103,0.00897578,-0.29371974,-0.00584780,-0.01
 372795,-0.02335125,0.00069346,-0.00015888,-0.00100603,0.00775243,0.000
 84240,-0.00987331,0.00072869,0.00249441,-0.00008381,-0.00059330,-0.000
 71214,0.00000116,0.00017024,0.00011752,-0.00019886,-0.00000232,-0.0000
 5180,0.00005999,0.00000282,0.00000497,0.00000195,-0.00000036,-0.000003
 59,0.00000304,-0.00000720,-0.00001716,-0.00000163,-0.00000581,0.000002
 48,-0.00001147,0.00000068,0.00000261,-0.00000241,-0.00000291,0.0000003
 1,-0.00000365,-0.00003180,0.00000223,-0.00009722,0.00000007,0.00001641
 ,-0.00003309,-0.00007173,0.00017598,0.00018414,0.00000607,-0.00002766,
 0.00000267,0.00000973,-0.00002886,0.00000292,0.00001454,0.00012234,-0.
 00001609,-0.00039521,-0.00014856,0.00031409,-0.00078319,0.00077145,0.0
 0401198,-0.12804328,0.00733604,0.32725114\\0.01677226,0.01890552,0.002
 56118,0.01726810,-0.04268548,0.01394407,-0.03320919,0.04411173,-0.0146
 3732,0.00727742,-0.01011300,0.03289689,-0.00935148,0.00065600,-0.02807
 880,0.00519916,-0.04508683,-0.01928190,-0.02461223,-0.04085238,-0.0050
 4010,0.01348050,0.02711568,-0.01153182,0.01483553,0.02881231,0.0183630
 4,0.00023406,0.00623201,-0.00736182,0.00125215,-0.03245240,-0.00996496
 ,-0.00694043,0.05856677,-0.01358395,0.00553069,-0.02718906,0.03622478,
 0.02173754,0.05662599,-0.04397083,-0.04555129,-0.01097658,0.00165638,0
 .01399166,0.00773586,-0.01205242,-0.00829891,0.04255893,0.05512400,0.0
 1050321,-0.00544094,-0.00388153,0.01394329,0.00913157,-0.01868214,0.04
 917058,-0.02092488,0.00495288,-0.00399265,0.01680665,0.00714724,-0.033
 44644,-0.00960804,-0.01010273,-0.04070437,-0.00594348,-0.01967431,-0.0
 1560849,-0.00172471,-0.01725787,0.03213060,0.00059193,0.01618899,0.000
 50852,-0.06018399,0.00614339,0.00511658,0.01212667,0.01444675,0.001126
 52,-0.01242487,-0.03536038,0.01223763,0.01002238,0.03236088,-0.0075394
 5,-0.00082305,0.00033401,-0.00258507,0.00289759,0.00432436,-0.01791886
 ,0.00487708,0.00652498,0.01037068,-0.00267031,0.01903575,0.01362740,-0
 .01278130,-0.00448381,-0.01306332,0.01076264,-0.00004396,0.01279231,-0
 .00817220,-0.00123045,0.01677179,-0.01306256,-0.00111914,-0.01622149,0
 .00735149,0.00048761,0.01578116,-0.01181288,0.00308603,-0.01961828,0.0
 1380584,-0.00462351,0.01141795,-0.02112932,0.00094899,-0.01579210,0.01
 521856,-0.00434488,-0.01476269,0.01291550,-0.00095355,0.01103437,-0.01
 311941,-0.00571267,-0.00489493,0.00134896,0.01622266\\\@


 BE NOT THE FIRST BY WHOM THE NEW ARE TRIED,
 NOR YET THE THE LAST TO LAY THE OLD ASIDE.

                          -- ALEXANDER POPE
 Job cpu time:  0 days 12 hours 58 minutes  3.1 seconds.
 File lengths (MBytes):  RWF=   1323 Int=      0 D2E=      0 Chk=     19 Scr=      1
 Normal termination of Gaussian 09 at Fri Oct 23 04:16:17 2015.
Gaussian '09 finished on node011 at Fri Oct 23 04:16:17 EDT 2015.
