Gaussian '09 started on node011 at Thu Jan 21 05:03:08 EST 2016.
 Entering Gaussian System, Link 0=/usr/local/gaussian/g09/g09
 Initial command:
 /usr/local/gaussian/g09/l1.exe /home/srmcgrat/thesis/gaussian/cellobiose/450/6000/gaussian25117/Gau-25153.inp -scrdir=/home/srmcgrat/thesis/gaussian/cellobiose/450/6000/gaussian25117/
 Entering Link 1 = /usr/local/gaussian/g09/l1.exe PID=     25155.
  
 Copyright (c) 1988,1990,1992,1993,1995,1998,2003,2009,2010,
            Gaussian, Inc.  All Rights Reserved.
  
 This is part of the Gaussian(R) 09 program.  It is based on
 the Gaussian(R) 03 system (copyright 2003, Gaussian, Inc.),
 the Gaussian(R) 98 system (copyright 1998, Gaussian, Inc.),
 the Gaussian(R) 94 system (copyright 1995, Gaussian, Inc.),
 the Gaussian 92(TM) system (copyright 1992, Gaussian, Inc.),
 the Gaussian 90(TM) system (copyright 1990, Gaussian, Inc.),
 the Gaussian 88(TM) system (copyright 1988, Gaussian, Inc.),
 the Gaussian 86(TM) system (copyright 1986, Carnegie Mellon
 University), and the Gaussian 82(TM) system (copyright 1983,
 Carnegie Mellon University). Gaussian is a federally registered
 trademark of Gaussian, Inc.
  
 This software contains proprietary and confidential information,
 including trade secrets, belonging to Gaussian, Inc.
  
 This software is provided under written license and may be
 used, copied, transmitted, or stored only in accord with that
 written license.
  
 The following legend is applicable only to US Government
 contracts under FAR:
  
                    RESTRICTED RIGHTS LEGEND
  
 Use, reproduction and disclosure by the US Government is
 subject to restrictions as set forth in subparagraphs (a)
 and (c) of the Commercial Computer Software - Restricted
 Rights clause in FAR 52.227-19.
  
 Gaussian, Inc.
 340 Quinnipiac St., Bldg. 40, Wallingford CT 06492
  
  
 ---------------------------------------------------------------
 Warning -- This program may not be used in any manner that
 competes with the business of Gaussian, Inc. or will provide
 assistance to any competitor of Gaussian, Inc.  The licensee
 of this program is prohibited from giving any competitor of
 Gaussian, Inc. access to this program.  By using this program,
 the user acknowledges that Gaussian, Inc. is engaged in the
 business of creating and licensing software in the field of
 computational chemistry and represents and warrants to the
 licensee that it is not a competitor of Gaussian, Inc. and that
 it will not use this program in any manner prohibited above.
 ---------------------------------------------------------------
  

 Cite this work as:
 Gaussian 09, Revision B.01,
 M. J. Frisch, G. W. Trucks, H. B. Schlegel, G. E. Scuseria, 
 M. A. Robb, J. R. Cheeseman, G. Scalmani, V. Barone, B. Mennucci, 
 G. A. Petersson, H. Nakatsuji, M. Caricato, X. Li, H. P. Hratchian, 
 A. F. Izmaylov, J. Bloino, G. Zheng, J. L. Sonnenberg, M. Hada, 
 M. Ehara, K. Toyota, R. Fukuda, J. Hasegawa, M. Ishida, T. Nakajima, 
 Y. Honda, O. Kitao, H. Nakai, T. Vreven, J. A. Montgomery, Jr., 
 J. E. Peralta, F. Ogliaro, M. Bearpark, J. J. Heyd, E. Brothers, 
 K. N. Kudin, V. N. Staroverov, T. Keith, R. Kobayashi, J. Normand, 
 K. Raghavachari, A. Rendell, J. C. Burant, S. S. Iyengar, J. Tomasi, 
 M. Cossi, N. Rega, J. M. Millam, M. Klene, J. E. Knox, J. B. Cross, 
 V. Bakken, C. Adamo, J. Jaramillo, R. Gomperts, R. E. Stratmann, 
 O. Yazyev, A. J. Austin, R. Cammi, C. Pomelli, J. W. Ochterski, 
 R. L. Martin, K. Morokuma, V. G. Zakrzewski, G. A. Voth, 
 P. Salvador, J. J. Dannenberg, S. Dapprich, A. D. Daniels, 
 O. Farkas, J. B. Foresman, J. V. Ortiz, J. Cioslowski, 
 and D. J. Fox, Gaussian, Inc., Wallingford CT, 2010.
 
 ******************************************
 Gaussian 09:  EM64L-G09RevB.01 12-Aug-2010
                21-Jan-2016 
 ******************************************
 ------------------------------------------------
 # freq=raman b3lyp/6-31+g(d,p) geom=connectivity
 ------------------------------------------------
 1/10=4,30=1,38=1,57=2/1,3;
 2/12=2,17=6,18=5,40=1/2;
 3/5=1,6=6,7=111,11=2,16=1,25=1,30=1,71=2,74=-5/1,2,3;
 4//1;
 5/5=2,38=5,98=1/2;
 8/6=4,10=90,11=11/1;
 10/13=10,15=4/2;
 11/6=3,8=1,9=11,15=111,16=1/1,2,10;
 10/6=1/2;
 6/7=2,8=2,9=2,10=2,18=1,28=1/1;
 7/8=1,10=1,25=1/1,2,3,16;
 1/10=4,30=1/3;
 99//99;
 ------------
 450 6000.com
 ------------
 Symbolic Z-matrix:
 Charge =  0 Multiplicity = 1
 O                     10.357    7.849     11.52 
 C                     11.227    7.917     12.659 
 C                     11.596    9.291     13.193 
 O                     12.588    9.744     12.261 
 H                     12.252    9.737     11.319 
 C                     12.259    9.554     14.535 
 O                     12.333    10.879    15.082 
 H                     12.593    11.51     14.352 
 C                     10.031    5.901     13.743 
 O                     11.162    5.073     13.436 
 H                     10.777    4.178     13.212 
 C                     10.567    7.316     13.889 
 O                     11.494    7.384     14.983 
 C                     11.507    8.704     15.546 
 O                     12.116    8.463     16.822 
 C                     11.399    8.658     18.05 
 C                     10.815    7.29      18.363 
 O                     10.095    6.632     17.311 
 H                     10.583    6.864     16.47 
 C                     10.142    7.268     19.726 
 O                     9.179     6.284     20.13 
 H                     8.34      6.547     19.651 
 C                     12.935    10.197    19.011 
 O                     11.977    11.265    19.005 
 H                     12.269    12.014    18.411 
 C                     12.28     8.851     19.274 
 O                     11.757    8.749     20.606 
 C                     11.071    7.524     20.902 
 O                     10.49     8.024     22.115 
 H                     11.18801   8.27517   22.72434 
 H                     11.75224   6.71752   21.07637 
 H                     9.55089   8.15916   19.68962 
 H                     11.67835   6.6721    18.49617 
 H                     10.64085   9.4087    17.96909 
 H                     13.05355   8.11497   19.20481 
 H                     13.66164   10.38545   19.77348 
 H                     13.4268   10.16517   18.06125 
 H                     10.88272   7.80113   10.71817 
 H                     9.57991   5.58229   14.65943 
 H                     9.31727   5.85847   12.94696 
 H                     9.73579   7.94227   14.13756 
 H                     12.12388   7.37459   12.44386 
 H                     10.73721   9.92421   13.1128 
 H                     13.25921   9.1787    14.4747 
 H                     10.50729   9.06471   15.66999 
 

 GradGradGradGradGradGradGradGradGradGradGradGradGradGradGradGradGradGrad
 Berny optimization.
 Initialization pass.
 Trust Radius=3.00D-01 FncErr=1.00D-07 GrdErr=1.00D-07
 Number of steps in this run=      2 maximum allowed number of steps=      2.
 GradGradGradGradGradGradGradGradGradGradGradGradGradGradGradGradGradGrad

                          Input orientation:                          
 ---------------------------------------------------------------------
 Center     Atomic      Atomic             Coordinates (Angstroms)
 Number     Number       Type             X           Y           Z
 ---------------------------------------------------------------------
      1          8           0       10.357000    7.849000   11.520000
      2          6           0       11.227000    7.917000   12.659000
      3          6           0       11.596000    9.291000   13.193000
      4          8           0       12.588000    9.744000   12.261000
      5          1           0       12.252000    9.737000   11.319000
      6          6           0       12.259000    9.554000   14.535000
      7          8           0       12.333000   10.879000   15.082000
      8          1           0       12.593000   11.510000   14.352000
      9          6           0       10.031000    5.901000   13.743000
     10          8           0       11.162000    5.073000   13.436000
     11          1           0       10.777000    4.178000   13.212000
     12          6           0       10.567000    7.316000   13.889000
     13          8           0       11.494000    7.384000   14.983000
     14          6           0       11.507000    8.704000   15.546000
     15          8           0       12.116000    8.463000   16.822000
     16          6           0       11.399000    8.658000   18.050000
     17          6           0       10.815000    7.290000   18.363000
     18          8           0       10.095000    6.632000   17.311000
     19          1           0       10.583000    6.864000   16.470000
     20          6           0       10.142000    7.268000   19.726000
     21          8           0        9.179000    6.284000   20.130000
     22          1           0        8.340000    6.547000   19.651000
     23          6           0       12.935000   10.197000   19.011000
     24          8           0       11.977000   11.265000   19.005000
     25          1           0       12.269000   12.014000   18.411000
     26          6           0       12.280000    8.851000   19.274000
     27          8           0       11.757000    8.749000   20.606000
     28          6           0       11.071000    7.524000   20.902000
     29          8           0       10.490000    8.024000   22.115000
     30          1           0       11.188012    8.275170   22.724338
     31          1           0       11.752241    6.717523   21.076371
     32          1           0        9.550892    8.159161   19.689621
     33          1           0       11.678349    6.672104   18.496166
     34          1           0       10.640846    9.408704   17.969088
     35          1           0       13.053547    8.114971   19.204810
     36          1           0       13.661644   10.385447   19.773480
     37          1           0       13.426799   10.165170   18.061252
     38          1           0       10.882721    7.801130   10.718174
     39          1           0        9.579914    5.582286   14.659429
     40          1           0        9.317271    5.858468   12.946959
     41          1           0        9.735793    7.942269   14.137559
     42          1           0       12.123884    7.374586   12.443860
     43          1           0       10.737211    9.924205   13.112800
     44          1           0       13.259205    9.178696   14.474695
     45          1           0       10.507292    9.064706   15.669992
 ---------------------------------------------------------------------
                    Distance matrix (angstroms):
                    1          2          3          4          5
     1  O    0.000000
     2  C    1.434868   0.000000
     3  C    2.532472   1.519603   0.000000
     4  O    3.019514   2.312716   1.434537   0.000000
     5  H    2.682531   2.481658   2.034976   1.000154   0.000000
     6  C    3.951563   2.695212   1.519770   2.305519   3.221210
     7  O    5.076743   3.983417   2.575507   3.051441   3.933306
     8  H    5.140315   4.200221   2.694671   2.736980   3.529717
     9  C    2.973669   2.582582   3.774099   4.848012   5.052080
    10  O    3.467745   2.948947   4.247226   5.023180   5.236667
    11  H    4.063927   3.806367   5.178213   5.929964   6.054879
    12  C    2.437283   1.519770   2.333213   3.553872   3.912207
    13  O    3.674420   2.399240   2.617471   3.765066   4.419963
    14  C    4.273430   3.005418   2.426747   3.611286   4.414708
    15  O    5.619811   4.291737   3.758407   4.760931   5.650184
    16  C    6.661918   5.444405   4.902035   6.008797   6.870095
    17  C    6.881053   5.753129   5.598470   6.811758   7.594124
    18  O    5.923294   4.957192   5.126520   6.434446   7.085036
    19  H    5.052109   4.005904   4.201812   5.479973   6.129640
    20  C    8.229351   7.179200   6.991905   8.236487   9.012531
    21  O    8.830006   7.916870   7.937626   9.247380   9.949887
    22  H    8.478010   7.687635   7.735427   9.103758   9.741769
    23  C    8.262825   6.961578   6.038450   6.774077   7.735952
    24  O    8.385623   7.214106   6.149893   6.940338   7.841237
    25  H    8.275799   7.138395   5.924119   6.563319   7.448589
    26  C    8.051487   6.763090   6.135146   7.076333   8.004237
    27  O    9.237175   8.007992   7.434531   8.445094   9.352515
    28  C    9.414741   8.253838   7.926323   9.049672   9.905858
    29  O   10.597280   9.485281   9.079130  10.220632  11.072156
    30  H   11.243193  10.071784   9.593997  10.658277  11.547760
    31  H    9.723743   8.518613   8.294259   9.357822  10.226108
    32  H    8.215152   7.231709   6.904319   8.180474   8.936043
    33  H    7.197078   5.985481   5.915147   7.010086   7.825240
    34  H    6.641083   5.546692   4.872083   6.040373   6.850348
    35  H    8.148522   6.798757   6.296773   7.147515   8.090702
    36  H    9.245224   7.914326   6.983367   7.615873   8.595686
    37  H    7.587904   6.251217   5.274076   5.875704   6.857219
    38  H    0.960000   1.974528   2.975440   3.010487   2.446121
    39  H    3.949414   3.487908   4.468733   5.667531   5.963234
    40  H    2.660727   2.822683   4.127399   5.124995   5.128928
    41  H    2.691879   2.100113   2.484278   3.860414   4.182898
    42  H    2.049504   1.070000   2.124268   2.421356   2.619680
    43  H    2.643492   2.115349   1.070000   2.045350   2.355282
    44  H    4.349840   3.003079   2.102762   2.381288   3.359253
    45  H    4.327004   3.301709   2.715140   4.051174   4.735727
                    6          7          8          9         10
     6  C    0.000000
     7  O    1.435378   0.000000
     8  H    1.992732   0.999330   0.000000
     9  C    4.351512   5.645583   6.196419   0.000000
    10  O    4.742422   6.147373   6.657461   1.434920   0.000000
    11  H    5.731320   7.128916   7.639089   1.951206   0.999713
    12  C    2.879032   4.151743   4.680671   1.520144   2.364378
    13  O    2.344105   3.595657   4.316230   2.424306   2.800742
    14  C    1.519910   2.372382   3.237077   3.645023   4.213702
    15  O    2.537932   2.985255   3.951283   4.515674   4.885408
    16  C    3.727954   3.822855   4.820243   5.293649   5.847853
    17  C    4.675940   5.094134   6.087512   4.887574   5.413947
    18  O    4.574621   5.292834   6.228208   3.642675   4.310985
    19  H    3.713395   4.594482   5.487380   2.944249   3.570445
    20  C    6.054252   6.277463   7.271990   6.138184   6.739624
    21  O    7.175188   7.519577   8.505984   6.454949   7.085792
    22  H    7.111545   7.455604   8.414201   6.179099   6.983021
    23  C    4.572199   4.032936   4.852547   7.391932   7.776859
    24  O    4.794575   3.957987   4.699988   7.761962   8.367727
    25  H    4.590760   3.517750   4.102983   8.010470   8.611246
    26  C    4.790905   4.657087   5.603065   6.659764   7.043114
    27  O    6.144678   5.948382   6.887273   7.628299   8.079350
    28  C    6.787557   6.835281   7.817108   7.413974   7.858552
    29  O    7.932633   7.810939   8.765784   8.649173   9.191574
    30  H    8.357492   8.154524   9.084831   9.361613   9.824856
    31  H    7.147863   7.320359   8.300113   7.576788   7.837609
    32  H    5.987449   6.030574   6.998053   6.379036   7.157362
    33  H    4.932881   5.457387   6.435522   5.089297   5.331888
    34  H    3.799013   3.655193   4.616241   5.525913   6.294348
    35  H    4.950680   5.015636   5.940378   6.623355   6.790487
    36  H    5.486382   4.900906   5.639066   8.346169   8.639095
    37  H    3.764537   3.252982   4.032659   6.954272   7.242408
    38  H    4.419826   5.533496   5.466760   3.672260   3.860993
    39  H    4.792442   5.984416   6.656650   1.070000   2.063770
    40  H    4.983232   6.233680   6.681643   1.070000   2.063770
    41  H    3.020300   4.032598   4.575841   2.099906   3.280085
    42  H    3.023403   4.391404   4.578506   2.870433   2.684560
    43  H    2.115549   2.708491   2.737574   4.133046   4.880481
    44  H    1.070000   2.029214   2.427728   4.658323   4.725875
    45  H    2.143851   2.640191   3.473722   3.734861   4.620940
                   11         12         13         14         15
    11  H    0.000000
    12  C    3.217060   0.000000
    13  O    3.732153   1.435545   0.000000
    14  C    5.144427   2.357073   1.435109   0.000000
    15  O    5.760750   3.509629   2.221046   1.434273   0.000000
    16  C    6.622955   4.450518   3.322437   2.506750   1.435304
    17  C    6.018205   4.480944   3.448808   3.227034   2.333069
    18  O    4.825872   3.521466   2.818207   3.066293   2.770582
    19  H    4.226913   2.620328   1.819750   2.256801   2.242943
    20  C    7.237646   5.852649   4.933296   4.625767   3.709167
    21  O    7.405914   6.476237   5.749855   5.682345   4.931214
    22  H    7.280924   6.225073   5.695481   5.615475   5.092394
    23  C    8.632133   6.335808   5.119984   4.034161   2.910196
    24  O    9.231707   6.614844   5.609985   4.329469   3.554717
    25  H    9.521479   6.739176   5.812806   4.443531   3.893319
    26  C    7.800242   5.855666   4.602452   3.810134   2.487920
    27  O    8.747896   6.970486   5.792281   5.066372   3.811736
    28  C    8.391558   7.034163   5.935747   5.501748   4.315107
    29  O    9.702448   8.256771   7.230701   6.681950   5.554498
    30  H   10.365342   8.908920   7.798470   7.198207   5.977795
    31  H    8.321575   7.308986   6.135149   5.881432   4.612882
    32  H    7.701465   5.949000   5.150614   4.614413   3.859449
    33  H    5.912309   4.782852   3.589306   3.586285   2.490317
    34  H    7.071682   4.586064   3.707293   2.667993   2.094337
    35  H    7.523043   5.922762   4.559626   4.015676   2.584164
    36  H    9.481909   7.322939   6.054425   5.034019   3.846564
    37  H    8.147569   5.805507   4.576708   3.485275   2.480186
    38  H    4.399706   3.223224   4.328557   4.951041   6.262247
    39  H    2.345226   2.138613   2.648508   3.774224   4.405333
    40  H    2.241658   2.138613   3.348263   4.432492   5.443567
    41  H    4.013788   1.070000   2.029218   2.387701   3.625296
    42  H    3.552787   2.125029   2.616118   3.430912   4.511409
    43  H    5.747199   2.726572   3.243921   2.828770   4.218334
    44  H    5.723871   3.325754   2.568123   2.107902   2.707208
    45  H    5.476711   2.496692   2.066477   1.070000   2.068119
                   16         17         18         19         20
    16  C    0.000000
    17  C    1.520016   0.000000
    18  O    2.520161   1.434597   0.000000
    19  H    2.526003   1.954162   0.999624   0.000000
    20  C    2.514185   1.520257   2.497785   3.310473   0.000000
    21  O    3.858844   2.609755   2.984447   3.962728   1.434866
    22  H    4.046851   2.887320   2.926235   3.905163   1.942336
    23  C    2.377254   3.655811   4.864651   4.805983   4.109880
    24  O    2.835940   4.190827   5.279796   5.266713   4.456801
    25  H    3.485679   4.942934   5.907808   5.756090   5.364501
    26  C    1.520390   2.326557   3.681244   3.832805   2.698377
    27  O    2.582553   2.836740   4.254522   4.694465   2.361353
    28  C    3.086656   2.562579   3.826685   4.507368   1.520379
    29  O    4.213367   3.836911   5.017181   5.763703   2.529814
    30  H    4.694732   4.486755   5.761850   6.440045   3.331451
    31  H    3.612361   2.927206   4.114825   4.754707   2.172419
    32  H    2.520457   2.028136   2.878561   3.620587   1.070000
    33  H    2.054479   1.070000   1.978186   2.311268   2.056198
    34  H    1.070000   2.162036   2.905359   2.954002   2.813929
    35  H    2.089496   2.529884   3.812967   3.892007   3.076703
    36  H    3.327764   4.435609   5.733509   5.726397   4.701981
    37  H    2.526590   3.896043   4.913965   4.638642   4.685604
    38  H    7.399760   7.662193   6.741864   5.835371   9.053940
    39  H    4.925958   4.261239   2.897937   2.434572   5.369144
    40  H    6.181586   5.798791   4.499786   3.876207   6.972973
    41  H    4.311116   4.409591   3.452037   2.705680   5.643608
    42  H    5.796673   6.062718   5.325115   4.341063   7.547767
    43  H    5.139765   5.874495   5.373633   4.545265   7.151511
    44  H    4.063778   4.965906   4.954037   4.062158   6.398744
    45  H    2.573906   3.239840   2.963267   2.342830   4.451157
                   21         22         23         24         25
    21  O    0.000000
    22  H    1.001265   0.000000
    23  C    5.538164   5.903061   0.000000
    24  O    5.822782   5.992045   1.434721   0.000000
    25  H    6.733198   6.845636   2.026091   0.999550   0.000000
    26  C    4.115632   4.579754   1.519839   2.447768   3.278637
    27  O    3.598456   4.175730   2.455283   2.990294   3.967417
    28  C    2.390240   3.158780   3.767666   4.291215   5.272607
    29  O    2.947295   3.588220   4.509409   4.731527   5.727526
    30  H    3.838161   4.532455   4.531476   4.836844   5.809671
    31  H    2.775812   3.701912   4.215618   5.002064   5.951799
    32  H    1.961751   2.016634   4.008180   4.000118   4.887000
    33  H    3.011110   3.534666   3.777449   4.630637   5.375126
    34  H    4.070664   4.038820   2.640101   2.510828   3.103827
    35  H    4.384124   4.987498   2.094388   3.334900   4.055623
    36  H    6.086302   6.562665   1.070000   2.049927   2.539290
    37  H    6.114490   6.441582   1.070000   2.049927   2.209297
    38  H    9.684360   9.371961   8.872599   9.048057   8.879731
    39  H    5.529944   5.232957   7.175539   7.544750   7.916591
    40  H    7.196963   6.809795   8.287546   8.544274   8.744085
    41  H    6.242533   5.856026   6.250533   6.305199   6.423273
    42  H    8.302919   8.182026   7.193835   7.629250   7.559893
    43  H    8.057308   7.739522   6.300274   6.168697   5.897842
    44  H    7.550484   7.610423   4.660484   5.149794   4.951156
    45  H    5.421103   5.185019   4.282312   4.257184   4.394892
                   26         27         28         29         30
    26  C    0.000000
    27  O    1.434628   0.000000
    28  C    2.423426   1.434865   0.000000
    29  O    3.458224   2.099523   1.434897   0.000000
    30  H    3.664540   2.244018   1.974554   0.960000   0.000000
    31  H    2.842322   2.085227   1.070000   2.092578   2.336753
    32  H    2.845947   2.460604   2.045488   2.604353   3.450091
    33  H    2.390523   2.961602   2.623478   4.041752   4.548372
    34  H    2.168099   2.938420   3.512707   4.373642   4.919013
    35  H    1.070000   2.011556   2.675853   3.879336   3.986597
    36  H    2.124370   2.645509   4.021551   4.595484   4.390864
    37  H    2.124370   3.357009   4.538217   5.444471   5.507144
    38  H    8.732513   9.971556  10.189336  11.405768  12.019397
    39  H    6.266516   7.080218   6.705466   7.897832   8.653344
    40  H    7.600294   8.542152   8.314580   9.493040  10.243889
    41  H    5.803603   6.824721   6.907633   8.013431   8.715075
    42  H    6.989634   8.285176   8.524730   9.829662  10.362197
    43  H    6.441456   7.653047   8.157453   9.203885   9.762387
    44  H    4.909130   6.327255   6.988312   8.208293   8.553526
    45  H    4.022069   5.101531   5.483197   6.528514   7.130957
                   31         32         33         34         35
    31  H    0.000000
    32  H    2.974447   0.000000
    33  H    2.581663   2.856877   0.000000
    34  H    4.258269   2.389475   2.973752   0.000000
    35  H    2.673761   3.536324   2.115470   3.003644   0.000000
    36  H    4.335552   4.675646   4.399308   3.651723   2.418311
    37  H    4.876613   4.658145   3.930362   2.888298   2.377048
    38  H   10.450958   9.076829   7.899676   7.430919   8.765499
    39  H    6.869128   5.651899   4.506848   5.169225   6.256285
    40  H    8.529619   7.128202   6.085260   6.291090   7.629697
    41  H    7.328928   5.559373   4.938046   4.201210   6.059237
    42  H    8.665454   7.728965   6.109205   6.071671   6.864611
    43  H    8.644742   6.912113   6.359444   4.884523   6.763973
    44  H    7.204890   6.479698   4.995432   4.372584   4.852607
    45  H    6.023961   4.229910   3.883707   2.328522   4.458739
                   36         37         38         39         40
    36  H    0.000000
    37  H    1.742240   0.000000
    38  H    9.818334   8.122919   0.000000
    39  H    8.116920   6.882859   4.706811   0.000000
    40  H    9.271921   7.848051   3.345453   1.754370   0.000000
    41  H    7.290064   5.827537   3.609371   2.422017   2.436168
    42  H    8.071761   6.406250   2.168045   3.820062   3.229366
    43  H    7.289013   5.637298   3.203570   4.752227   4.309751
    44  H    5.449342   3.723521   4.653689   5.148347   5.375569
    45  H    5.341621   3.930988   5.124263   3.742796   4.371616
                   41         42         43         44         45
    41  H    0.000000
    42  H    2.982258   0.000000
    43  H    2.445617   2.978406   0.000000
    44  H    3.749246   2.944156   2.961587   0.000000
    45  H    2.050226   3.984696   2.707551   3.002458   0.000000
 Stoichiometry    C12H22O11
 Framework group  C1[X(C12H22O11)]
 Deg. of freedom   129
 Full point group                 C1      NOp   1
 Largest Abelian subgroup         C1      NOp   1
 Largest concise Abelian subgroup C1      NOp   1
                         Standard orientation:                         
 ---------------------------------------------------------------------
 Center     Atomic      Atomic             Coordinates (Angstroms)
 Number     Number       Type             X           Y           Z
 ---------------------------------------------------------------------
      1          8           0        5.041708   -0.674284   -0.853244
      2          6           0        3.928720   -0.218250   -0.070853
      3          6           0        3.358019    1.156470   -0.376856
      4          8           0        4.303844    2.042899    0.237601
      5          1           0        5.234551    1.891915   -0.096010
      6          6           0        2.028870    1.681832    0.139921
      7          8           0        1.437717    2.872592   -0.401317
      8          1           0        2.152597    3.563052   -0.505590
      9          6           0        2.880229   -2.578024   -0.113994
     10          8           0        3.251602   -2.761277    1.259867
     11          1           0        3.495133   -3.727750    1.337635
     12          6           0        2.700849   -1.081284   -0.310031
     13          8           0        1.634590   -0.597331    0.520433
     14          6           0        1.025729    0.559682   -0.071299
     15          8           0       -0.221274    0.617454    0.634949
     16          6           0       -1.477206    0.426797   -0.033169
     17          6           0       -1.759481   -1.059037    0.118705
     18          8           0       -0.707753   -1.963453   -0.247309
     19          1           0        0.139295   -1.513088    0.033635
     20          6           0       -3.141180   -1.421619   -0.401512
     21          8           0       -3.539825   -2.752226   -0.761243
     22          1           0       -3.096891   -2.913387   -1.644627
     23          6           0       -2.443868    2.496080    0.626353
     24          8           0       -2.505719    2.977870   -0.723639
     25          1           0       -1.929880    3.785065   -0.849919
     26          6           0       -2.679197    0.996537    0.703174
     27          8           0       -4.022406    0.635694    0.351410
     28          6           0       -4.295964   -0.772837    0.344886
     29          8           0       -5.543504   -0.630355   -0.349572
     30          1           0       -6.139299   -0.086709    0.171080
     31          1           0       -4.420225   -1.159540    1.334795
     32          1           0       -3.154952   -0.919768   -1.346423
     33          1           0       -1.843599   -1.192493    1.177012
     34          1           0       -1.446719    0.726277   -1.059952
     35          1           0       -2.559791    0.719749    1.729834
     36          1           0       -3.189511    2.995755    1.208798
     37          1           0       -1.478702    2.718182    1.031354
     38          1           0        5.860746   -0.452521   -0.404249
     39          1           0        1.962069   -3.088224   -0.317903
     40          1           0        3.654614   -2.942760   -0.756018
     41          1           0        2.404375   -0.931386   -1.327151
     42          1           0        4.190883   -0.263682    0.965538
     43          1           0        3.388829    1.304688   -1.436093
     44          1           0        2.133658    1.829999    1.194419
     45          1           0        0.857859    0.397882   -1.115588
 ---------------------------------------------------------------------
 Rotational constants (GHZ):      0.4291542      0.1444746      0.1137782
 Standard basis: 6-31+G(d,p) (6D, 7F)
 There are   547 symmetry adapted basis functions of A   symmetry.
 Integral buffers will be    131072 words long.
 Raffenetti 2 integral format.
 Two-electron integral symmetry is turned on.
   547 basis functions,   890 primitive gaussians,   547 cartesian basis functions
    91 alpha electrons       91 beta electrons
       nuclear repulsion energy      2294.5911720259 Hartrees.
 NAtoms=   45 NActive=   45 NUniq=   45 SFac= 1.00D+00 NAtFMM=   50 NAOKFM=F Big=F
 One-electron integrals computed using PRISM.
 NBasis=   547 RedAO= T  NBF=   547
 NBsUse=   547 1.00D-06 NBFU=   547
 Harris functional with IExCor=  402 diagonalized for initial guess.
 ExpMin= 4.38D-02 ExpMax= 5.48D+03 ExpMxC= 8.25D+02 IAcc=2 IRadAn=         0 AccDes= 0.00D+00
 HarFok:  IExCor=  402 AccDes= 0.00D+00 IRadAn=         0 IDoV= 1
 ScaDFX=  1.000000  1.000000  1.000000  1.000000
 FoFCou: FMM=F IPFlag=           0 FMFlag=      100000 FMFlg1=           0
         NFxFlg=           0 DoJE=T BraDBF=F KetDBF=T FulRan=T
         Omega=  0.000000  0.000000  1.000000  0.000000  0.000000 ICntrl=     500 IOpCl=  0
         NMat0=    1 NMatS0=    1 NMatT0=    0 NMatD0=    1 NMtDS0=    0 NMtDT0=    0
         I1Cent=           4 NGrid=           0.
 Petite list used in FoFCou.
 Initial guess orbital symmetries:
       Occupied  (A) (A) (A) (A) (A) (A) (A) (A) (A) (A) (A) (A)
                 (A) (A) (A) (A) (A) (A) (A) (A) (A) (A) (A) (A)
                 (A) (A) (A) (A) (A) (A) (A) (A) (A) (A) (A) (A)
                 (A) (A) (A) (A) (A) (A) (A) (A) (A) (A) (A) (A)
                 (A) (A) (A) (A) (A) (A) (A) (A) (A) (A) (A) (A)
                 (A) (A) (A) (A) (A) (A) (A) (A) (A) (A) (A) (A)
                 (A) (A) (A) (A) (A) (A) (A) (A) (A) (A) (A) (A)
                 (A) (A) (A) (A) (A) (A) (A)
       Virtual   (A) (A) (A) (A) (A) (A) (A) (A) (A) (A) (A) (A)
                 (A) (A) (A) (A) (A) (A) (A) (A) (A) (A) (A) (A)
                 (A) (A) (A) (A) (A) (A) (A) (A) (A) (A) (A) (A)
                 (A) (A) (A) (A) (A) (A) (A) (A) (A) (A) (A) (A)
                 (A) (A) (A) (A) (A) (A) (A) (A) (A) (A) (A) (A)
                 (A) (A) (A) (A) (A) (A) (A) (A) (A) (A) (A) (A)
                 (A) (A) (A) (A) (A) (A) (A) (A) (A) (A) (A) (A)
                 (A) (A) (A) (A) (A) (A) (A) (A) (A) (A) (A) (A)
                 (A) (A) (A) (A) (A) (A) (A) (A) (A) (A) (A) (A)
                 (A) (A) (A) (A) (A) (A) (A) (A) (A) (A) (A) (A)
                 (A) (A) (A) (A) (A) (A) (A) (A) (A) (A) (A) (A)
                 (A) (A) (A) (A) (A) (A) (A) (A) (A) (A) (A) (A)
                 (A) (A) (A) (A) (A) (A) (A) (A) (A) (A) (A) (A)
                 (A) (A) (A) (A) (A) (A) (A) (A) (A) (A) (A) (A)
                 (A) (A) (A) (A) (A) (A) (A) (A) (A) (A) (A) (A)
                 (A) (A) (A) (A) (A) (A) (A) (A) (A) (A) (A) (A)
                 (A) (A) (A) (A) (A) (A) (A) (A) (A) (A) (A) (A)
                 (A) (A) (A) (A) (A) (A) (A) (A) (A) (A) (A) (A)
                 (A) (A) (A) (A) (A) (A) (A) (A) (A) (A) (A) (A)
                 (A) (A) (A) (A) (A) (A) (A) (A) (A) (A) (A) (A)
                 (A) (A) (A) (A) (A) (A) (A) (A) (A) (A) (A) (A)
                 (A) (A) (A) (A) (A) (A) (A) (A) (A) (A) (A) (A)
                 (A) (A) (A) (A) (A) (A) (A) (A) (A) (A) (A) (A)
                 (A) (A) (A) (A) (A) (A) (A) (A) (A) (A) (A) (A)
                 (A) (A) (A) (A) (A) (A) (A) (A) (A) (A) (A) (A)
                 (A) (A) (A) (A) (A) (A) (A) (A) (A) (A) (A) (A)
                 (A) (A) (A) (A) (A) (A) (A) (A) (A) (A) (A) (A)
                 (A) (A) (A) (A) (A) (A) (A) (A) (A) (A) (A) (A)
                 (A) (A) (A) (A) (A) (A) (A) (A) (A) (A) (A) (A)
                 (A) (A) (A) (A) (A) (A) (A) (A) (A) (A) (A) (A)
                 (A) (A) (A) (A) (A) (A) (A) (A) (A) (A) (A) (A)
                 (A) (A) (A) (A) (A) (A) (A) (A) (A) (A) (A) (A)
                 (A) (A) (A) (A) (A) (A) (A) (A) (A) (A) (A) (A)
                 (A) (A) (A) (A) (A) (A) (A) (A) (A) (A) (A) (A)
                 (A) (A) (A) (A) (A) (A) (A) (A) (A) (A) (A) (A)
                 (A) (A) (A) (A) (A) (A) (A) (A) (A) (A) (A) (A)
                 (A) (A) (A) (A) (A) (A) (A) (A) (A) (A) (A) (A)
                 (A) (A) (A) (A) (A) (A) (A) (A) (A) (A) (A) (A)
 The electronic state of the initial guess is 1-A.
 Requested convergence on RMS density matrix=1.00D-08 within 128 cycles.
 Requested convergence on MAX density matrix=1.00D-06.
 Requested convergence on             energy=1.00D-06.
 No special actions if energy rises.
 SCF Done:  E(RB3LYP) =  -1297.88502533     A.U. after   14 cycles
             Convg  =    0.2236D-08             -V/T =  2.0086
 Range of M.O.s used for correlation:     1   547
 NBasis=   547 NAE=    91 NBE=    91 NFC=     0 NFV=     0
 NROrb=    547 NOA=    91 NOB=    91 NVA=   456 NVB=   456

 **** Warning!!: The largest alpha MO coefficient is  0.76211975D+02

          Differentiating once with respect to electric field.
                with respect to dipole field.
          Electric field/nuclear overlap derivatives assumed to be zero.
          There are     3 degrees of freedom in the 1st order CPHF.  IDoFFX=0.
      3 vectors produced by pass  0 Test12= 1.38D-12 3.33D-08 XBig12= 1.21D+02 1.06D+00.
 AX will form     3 AO Fock derivatives at one time.
      3 vectors produced by pass  1 Test12= 1.38D-12 3.33D-08 XBig12= 2.42D+01 3.57D-01.
      3 vectors produced by pass  2 Test12= 1.38D-12 3.33D-08 XBig12= 9.28D+00 2.07D-01.
      3 vectors produced by pass  3 Test12= 1.38D-12 3.33D-08 XBig12= 9.03D-01 9.33D-02.
      3 vectors produced by pass  4 Test12= 1.38D-12 3.33D-08 XBig12= 2.80D-01 3.27D-02.
      3 vectors produced by pass  5 Test12= 1.38D-12 3.33D-08 XBig12= 5.15D-02 1.77D-02.
      3 vectors produced by pass  6 Test12= 1.38D-12 3.33D-08 XBig12= 1.61D-02 1.10D-02.
      3 vectors produced by pass  7 Test12= 1.38D-12 3.33D-08 XBig12= 2.05D-03 5.27D-03.
      3 vectors produced by pass  8 Test12= 1.38D-12 3.33D-08 XBig12= 5.83D-04 1.92D-03.
      3 vectors produced by pass  9 Test12= 1.38D-12 3.33D-08 XBig12= 1.38D-04 1.14D-03.
      3 vectors produced by pass 10 Test12= 1.38D-12 3.33D-08 XBig12= 3.24D-05 4.03D-04.
      3 vectors produced by pass 11 Test12= 1.38D-12 3.33D-08 XBig12= 6.47D-06 2.26D-04.
      3 vectors produced by pass 12 Test12= 1.38D-12 3.33D-08 XBig12= 7.06D-07 8.41D-05.
      3 vectors produced by pass 13 Test12= 1.38D-12 3.33D-08 XBig12= 2.35D-07 4.36D-05.
      3 vectors produced by pass 14 Test12= 1.38D-12 3.33D-08 XBig12= 4.32D-08 2.15D-05.
      3 vectors produced by pass 15 Test12= 1.38D-12 3.33D-08 XBig12= 9.46D-09 1.11D-05.
      3 vectors produced by pass 16 Test12= 1.38D-12 3.33D-08 XBig12= 1.64D-09 5.70D-06.
      3 vectors produced by pass 17 Test12= 1.38D-12 3.33D-08 XBig12= 1.23D-10 1.45D-06.
      3 vectors produced by pass 18 Test12= 1.38D-12 3.33D-08 XBig12= 2.50D-11 5.49D-07.
      3 vectors produced by pass 19 Test12= 1.38D-12 3.33D-08 XBig12= 1.38D-11 2.62D-07.
      3 vectors produced by pass 20 Test12= 1.38D-12 3.33D-08 XBig12= 1.02D-11 2.16D-07.
      2 vectors produced by pass 21 Test12= 1.38D-12 3.33D-08 XBig12= 1.78D-12 8.73D-08.
 Inverted reduced A of dimension    65 with in-core refinement.
 End of Minotr Frequency-dependent properties file   721 does not exist.
 End of Minotr Frequency-dependent properties file   722 does not exist.
 Symmetrizing basis deriv contribution to polar:
 IMax=3 JMax=2 DiffMx= 0.00D+00
 G2DrvN: will do    23 centers at a time, making    2 passes doing MaxLOS=2.
 Calling FoFCou, ICntrl=  3107 FMM=F I1Cent=   0 AccDes= 0.00D+00.
 Calling FoFCou, ICntrl=  3107 FMM=F I1Cent=   0 AccDes= 0.00D+00.
 FoFDir/FoFCou used for L=0 through L=2.
 End of G2Drv Frequency-dependent properties file   721 does not exist.
 End of G2Drv Frequency-dependent properties file   722 does not exist.
          IDoAtm=111111111111111111111111111111111111111111111
          Differentiating once with respect to electric field.
                with respect to dipole field.
          Differentiating once with respect to nuclear coordinates.
          There are   138 degrees of freedom in the 1st order CPHF.  IDoFFX=5.
 Will reuse    3 saved solutions.
    135 vectors produced by pass  0 Test12= 4.15D-14 1.00D-09 XBig12= 2.22D-01 6.63D-02.
 AX will form    68 AO Fock derivatives at one time.
    135 vectors produced by pass  1 Test12= 4.15D-14 1.00D-09 XBig12= 2.86D-02 2.35D-02.
    132 vectors produced by pass  2 Test12= 4.15D-14 1.00D-09 XBig12= 1.89D-04 1.79D-03.
    132 vectors produced by pass  3 Test12= 4.15D-14 1.00D-09 XBig12= 6.69D-07 6.09D-05.
    132 vectors produced by pass  4 Test12= 4.15D-14 1.00D-09 XBig12= 9.78D-10 2.22D-06.
    130 vectors produced by pass  5 Test12= 4.15D-14 1.00D-09 XBig12= 4.88D-12 1.73D-07.
     78 vectors produced by pass  6 Test12= 4.15D-14 1.00D-09 XBig12= 1.50D-13 2.38D-08.
 Inverted reduced A of dimension   874 with in-core refinement.
 Isotropic polarizability for W=    0.000000      186.96 Bohr**3.
 End of Minotr Frequency-dependent properties file   721 does not exist.
 End of Minotr Frequency-dependent properties file   722 does not exist.

 **********************************************************************

            Population analysis using the SCF density.

 **********************************************************************

 Orbital symmetries:
       Occupied  (A) (A) (A) (A) (A) (A) (A) (A) (A) (A) (A) (A)
                 (A) (A) (A) (A) (A) (A) (A) (A) (A) (A) (A) (A)
                 (A) (A) (A) (A) (A) (A) (A) (A) (A) (A) (A) (A)
                 (A) (A) (A) (A) (A) (A) (A) (A) (A) (A) (A) (A)
                 (A) (A) (A) (A) (A) (A) (A) (A) (A) (A) (A) (A)
                 (A) (A) (A) (A) (A) (A) (A) (A) (A) (A) (A) (A)
                 (A) (A) (A) (A) (A) (A) (A) (A) (A) (A) (A) (A)
                 (A) (A) (A) (A) (A) (A) (A)
       Virtual   (A) (A) (A) (A) (A) (A) (A) (A) (A) (A) (A) (A)
                 (A) (A) (A) (A) (A) (A) (A) (A) (A) (A) (A) (A)
                 (A) (A) (A) (A) (A) (A) (A) (A) (A) (A) (A) (A)
                 (A) (A) (A) (A) (A) (A) (A) (A) (A) (A) (A) (A)
                 (A) (A) (A) (A) (A) (A) (A) (A) (A) (A) (A) (A)
                 (A) (A) (A) (A) (A) (A) (A) (A) (A) (A) (A) (A)
                 (A) (A) (A) (A) (A) (A) (A) (A) (A) (A) (A) (A)
                 (A) (A) (A) (A) (A) (A) (A) (A) (A) (A) (A) (A)
                 (A) (A) (A) (A) (A) (A) (A) (A) (A) (A) (A) (A)
                 (A) (A) (A) (A) (A) (A) (A) (A) (A) (A) (A) (A)
                 (A) (A) (A) (A) (A) (A) (A) (A) (A) (A) (A) (A)
                 (A) (A) (A) (A) (A) (A) (A) (A) (A) (A) (A) (A)
                 (A) (A) (A) (A) (A) (A) (A) (A) (A) (A) (A) (A)
                 (A) (A) (A) (A) (A) (A) (A) (A) (A) (A) (A) (A)
                 (A) (A) (A) (A) (A) (A) (A) (A) (A) (A) (A) (A)
                 (A) (A) (A) (A) (A) (A) (A) (A) (A) (A) (A) (A)
                 (A) (A) (A) (A) (A) (A) (A) (A) (A) (A) (A) (A)
                 (A) (A) (A) (A) (A) (A) (A) (A) (A) (A) (A) (A)
                 (A) (A) (A) (A) (A) (A) (A) (A) (A) (A) (A) (A)
                 (A) (A) (A) (A) (A) (A) (A) (A) (A) (A) (A) (A)
                 (A) (A) (A) (A) (A) (A) (A) (A) (A) (A) (A) (A)
                 (A) (A) (A) (A) (A) (A) (A) (A) (A) (A) (A) (A)
                 (A) (A) (A) (A) (A) (A) (A) (A) (A) (A) (A) (A)
                 (A) (A) (A) (A) (A) (A) (A) (A) (A) (A) (A) (A)
                 (A) (A) (A) (A) (A) (A) (A) (A) (A) (A) (A) (A)
                 (A) (A) (A) (A) (A) (A) (A) (A) (A) (A) (A) (A)
                 (A) (A) (A) (A) (A) (A) (A) (A) (A) (A) (A) (A)
                 (A) (A) (A) (A) (A) (A) (A) (A) (A) (A) (A) (A)
                 (A) (A) (A) (A) (A) (A) (A) (A) (A) (A) (A) (A)
                 (A) (A) (A) (A) (A) (A) (A) (A) (A) (A) (A) (A)
                 (A) (A) (A) (A) (A) (A) (A) (A) (A) (A) (A) (A)
                 (A) (A) (A) (A) (A) (A) (A) (A) (A) (A) (A) (A)
                 (A) (A) (A) (A) (A) (A) (A) (A) (A) (A) (A) (A)
                 (A) (A) (A) (A) (A) (A) (A) (A) (A) (A) (A) (A)
                 (A) (A) (A) (A) (A) (A) (A) (A) (A) (A) (A) (A)
                 (A) (A) (A) (A) (A) (A) (A) (A) (A) (A) (A) (A)
                 (A) (A) (A) (A) (A) (A) (A) (A) (A) (A) (A) (A)
                 (A) (A) (A) (A) (A) (A) (A) (A) (A) (A) (A) (A)
 The electronic state is 1-A.
 Alpha  occ. eigenvalues --  -19.20253 -19.19722 -19.19233 -19.18757 -19.18519
 Alpha  occ. eigenvalues --  -19.17198 -19.16898 -19.15898 -19.15589 -19.15343
 Alpha  occ. eigenvalues --  -19.14812 -10.32003 -10.29606 -10.26958 -10.26916
 Alpha  occ. eigenvalues --  -10.26794 -10.26365 -10.25333 -10.24589 -10.24560
 Alpha  occ. eigenvalues --  -10.24240 -10.23520 -10.22817  -1.10790  -1.07938
 Alpha  occ. eigenvalues --   -1.07265  -1.05474  -1.04550  -1.03811  -1.02852
 Alpha  occ. eigenvalues --   -1.02141  -1.01351  -1.00425  -0.99264  -0.82759
 Alpha  occ. eigenvalues --   -0.81742  -0.79263  -0.77770  -0.72310  -0.69944
 Alpha  occ. eigenvalues --   -0.67923  -0.64831  -0.63500  -0.62333  -0.60999
 Alpha  occ. eigenvalues --   -0.59923  -0.57244  -0.56361  -0.55378  -0.54351
 Alpha  occ. eigenvalues --   -0.53617  -0.53493  -0.52804  -0.52399  -0.50676
 Alpha  occ. eigenvalues --   -0.50161  -0.49914  -0.48888  -0.48213  -0.46571
 Alpha  occ. eigenvalues --   -0.46110  -0.45223  -0.44510  -0.43473  -0.43278
 Alpha  occ. eigenvalues --   -0.42483  -0.42266  -0.41173  -0.40001  -0.39323
 Alpha  occ. eigenvalues --   -0.38851  -0.37568  -0.37125  -0.36319  -0.35875
 Alpha  occ. eigenvalues --   -0.35292  -0.35162  -0.34376  -0.33890  -0.33539
 Alpha  occ. eigenvalues --   -0.32920  -0.31511  -0.31000  -0.30377  -0.29228
 Alpha  occ. eigenvalues --   -0.28865  -0.28521  -0.27563  -0.27484  -0.27024
 Alpha  occ. eigenvalues --   -0.25536
 Alpha virt. eigenvalues --   -0.03792  -0.01540  -0.00857  -0.00388   0.00711
 Alpha virt. eigenvalues --    0.01030   0.01226   0.02505   0.02745   0.03053
 Alpha virt. eigenvalues --    0.03571   0.04309   0.04470   0.04826   0.05794
 Alpha virt. eigenvalues --    0.06244   0.06466   0.06924   0.07508   0.07968
 Alpha virt. eigenvalues --    0.08152   0.08901   0.09566   0.09918   0.10327
 Alpha virt. eigenvalues --    0.10612   0.11085   0.11180   0.11457   0.11928
 Alpha virt. eigenvalues --    0.12098   0.12299   0.12717   0.13112   0.14025
 Alpha virt. eigenvalues --    0.14289   0.14561   0.14623   0.14707   0.15287
 Alpha virt. eigenvalues --    0.15660   0.16170   0.16464   0.16645   0.16952
 Alpha virt. eigenvalues --    0.17150   0.17614   0.18132   0.18200   0.18639
 Alpha virt. eigenvalues --    0.18944   0.19185   0.19923   0.19953   0.20168
 Alpha virt. eigenvalues --    0.20312   0.20682   0.20966   0.21640   0.21756
 Alpha virt. eigenvalues --    0.21919   0.22256   0.22534   0.22823   0.23303
 Alpha virt. eigenvalues --    0.23440   0.23517   0.23780   0.24414   0.24676
 Alpha virt. eigenvalues --    0.25022   0.25193   0.25361   0.25843   0.26024
 Alpha virt. eigenvalues --    0.26402   0.26705   0.27098   0.27478   0.27690
 Alpha virt. eigenvalues --    0.27813   0.28413   0.28507   0.29058   0.29236
 Alpha virt. eigenvalues --    0.29530   0.29739   0.30127   0.30550   0.30656
 Alpha virt. eigenvalues --    0.30929   0.31008   0.31869   0.32347   0.32588
 Alpha virt. eigenvalues --    0.32969   0.33106   0.33602   0.33836   0.34295
 Alpha virt. eigenvalues --    0.34812   0.34971   0.35350   0.35732   0.35841
 Alpha virt. eigenvalues --    0.36506   0.36769   0.37243   0.37475   0.37722
 Alpha virt. eigenvalues --    0.38108   0.38322   0.38981   0.39336   0.39807
 Alpha virt. eigenvalues --    0.40030   0.40408   0.41232   0.41544   0.41939
 Alpha virt. eigenvalues --    0.42348   0.42782   0.43300   0.43610   0.44116
 Alpha virt. eigenvalues --    0.44341   0.44767   0.45728   0.45939   0.46506
 Alpha virt. eigenvalues --    0.48210   0.48789   0.49762   0.49951   0.50944
 Alpha virt. eigenvalues --    0.53142   0.56782   0.58643   0.63741   0.64801
 Alpha virt. eigenvalues --    0.65397   0.67763   0.68213   0.68977   0.69919
 Alpha virt. eigenvalues --    0.71390   0.72079   0.73217   0.73753   0.74654
 Alpha virt. eigenvalues --    0.76015   0.76577   0.77206   0.77570   0.78743
 Alpha virt. eigenvalues --    0.79319   0.80404   0.80600   0.81580   0.82684
 Alpha virt. eigenvalues --    0.83963   0.86129   0.86827   0.88291   0.89515
 Alpha virt. eigenvalues --    0.91465   0.93484   0.93791   0.94155   0.96238
 Alpha virt. eigenvalues --    0.97460   0.98502   0.99014   1.00361   1.00609
 Alpha virt. eigenvalues --    1.01795   1.01891   1.02960   1.03314   1.03580
 Alpha virt. eigenvalues --    1.04735   1.04936   1.05485   1.05715   1.06612
 Alpha virt. eigenvalues --    1.06987   1.07209   1.08231   1.08940   1.10428
 Alpha virt. eigenvalues --    1.10512   1.10919   1.12069   1.13293   1.15791
 Alpha virt. eigenvalues --    1.16584   1.17382   1.18527   1.18985   1.20419
 Alpha virt. eigenvalues --    1.21082   1.22819   1.23421   1.24907   1.25158
 Alpha virt. eigenvalues --    1.25586   1.26393   1.27082   1.27819   1.28552
 Alpha virt. eigenvalues --    1.29054   1.29757   1.30611   1.30922   1.31771
 Alpha virt. eigenvalues --    1.32525   1.32715   1.32893   1.33975   1.35156
 Alpha virt. eigenvalues --    1.35695   1.36676   1.37149   1.38119   1.38667
 Alpha virt. eigenvalues --    1.39950   1.40714   1.41622   1.42053   1.43437
 Alpha virt. eigenvalues --    1.44759   1.44982   1.45317   1.46872   1.48573
 Alpha virt. eigenvalues --    1.49382   1.50917   1.51419   1.52037   1.53367
 Alpha virt. eigenvalues --    1.54002   1.54859   1.55640   1.57332   1.58065
 Alpha virt. eigenvalues --    1.58801   1.59197   1.60033   1.60577   1.61110
 Alpha virt. eigenvalues --    1.61965   1.62518   1.63159   1.63730   1.64289
 Alpha virt. eigenvalues --    1.65901   1.66172   1.67123   1.67974   1.68829
 Alpha virt. eigenvalues --    1.69262   1.70449   1.72063   1.72851   1.73804
 Alpha virt. eigenvalues --    1.74691   1.75436   1.76068   1.76918   1.78650
 Alpha virt. eigenvalues --    1.79080   1.79712   1.81300   1.82059   1.82468
 Alpha virt. eigenvalues --    1.83182   1.84067   1.84738   1.86004   1.86693
 Alpha virt. eigenvalues --    1.88830   1.90047   1.90573   1.91449   1.91680
 Alpha virt. eigenvalues --    1.92495   1.93318   1.94492   1.94706   1.95972
 Alpha virt. eigenvalues --    1.96755   1.97017   1.97849   1.98194   1.99427
 Alpha virt. eigenvalues --    2.00273   2.00902   2.01249   2.02793   2.03295
 Alpha virt. eigenvalues --    2.04314   2.05350   2.06109   2.06859   2.08008
 Alpha virt. eigenvalues --    2.08778   2.09446   2.10401   2.11165   2.12597
 Alpha virt. eigenvalues --    2.13499   2.14377   2.14537   2.15874   2.16469
 Alpha virt. eigenvalues --    2.17500   2.19083   2.20461   2.20876   2.21573
 Alpha virt. eigenvalues --    2.22568   2.24467   2.25751   2.27119   2.29941
 Alpha virt. eigenvalues --    2.30842   2.31702   2.32547   2.33303   2.34550
 Alpha virt. eigenvalues --    2.35581   2.36824   2.38433   2.38687   2.40986
 Alpha virt. eigenvalues --    2.41776   2.43048   2.43479   2.44490   2.44914
 Alpha virt. eigenvalues --    2.45906   2.46627   2.47873   2.48906   2.49560
 Alpha virt. eigenvalues --    2.50075   2.53364   2.53437   2.53950   2.55028
 Alpha virt. eigenvalues --    2.55570   2.57369   2.58149   2.59027   2.60237
 Alpha virt. eigenvalues --    2.60728   2.60909   2.61857   2.63053   2.63323
 Alpha virt. eigenvalues --    2.64566   2.65263   2.65635   2.65877   2.67861
 Alpha virt. eigenvalues --    2.68369   2.70163   2.71406   2.72667   2.75001
 Alpha virt. eigenvalues --    2.75780   2.76480   2.77013   2.77786   2.78631
 Alpha virt. eigenvalues --    2.79987   2.81154   2.81713   2.83132   2.85119
 Alpha virt. eigenvalues --    2.85864   2.86471   2.87459   2.88784   2.89934
 Alpha virt. eigenvalues --    2.90247   2.91447   2.94186   2.94765   2.95312
 Alpha virt. eigenvalues --    2.96204   2.96672   2.98176   2.99564   3.00386
 Alpha virt. eigenvalues --    3.00647   3.01542   3.03050   3.03796   3.05928
 Alpha virt. eigenvalues --    3.07194   3.09073   3.09729   3.11971   3.12941
 Alpha virt. eigenvalues --    3.15745   3.18971   3.20333   3.22892   3.31412
 Alpha virt. eigenvalues --    3.34673   3.37017   3.39056   3.40732   3.41105
 Alpha virt. eigenvalues --    3.41932   3.44778   3.45049   3.46526   3.48235
 Alpha virt. eigenvalues --    3.48744   3.50132   3.50741   3.52946   3.53530
 Alpha virt. eigenvalues --    3.53680   3.55308   3.58026   3.60815   3.60976
 Alpha virt. eigenvalues --    3.63226   3.66391   3.75532   4.29014   4.31670
 Alpha virt. eigenvalues --    4.34507   4.35063   4.38342   4.42506   4.44709
 Alpha virt. eigenvalues --    4.46371   4.50701   4.51576   4.53629   4.55255
 Alpha virt. eigenvalues --    4.60269   4.63510   4.64712   4.67282   4.72326
 Alpha virt. eigenvalues --    4.77614   4.82263   4.87364   4.89468   4.91027
 Alpha virt. eigenvalues --    4.94985
          Condensed to atoms (all electrons):
              1          2          3          4          5          6
     1  O    8.237412   0.442237  -0.113017  -0.006623   0.014366  -0.025406
     2  C    0.442237  11.147725  -2.477946  -0.036065  -0.053405  -1.839085
     3  C   -0.113017  -2.477946   8.669372  -0.026380   0.060272   0.107634
     4  O   -0.006623  -0.036065  -0.026380   8.346331   0.195112   0.225093
     5  H    0.014366  -0.053405   0.060272   0.195112   0.445430  -0.046939
     6  C   -0.025406  -1.839085   0.107634   0.225093  -0.046939  12.815983
     7  O   -0.000061   0.059089   0.040417  -0.025597   0.001629  -0.019526
     8  H   -0.000067   0.006203  -0.079044   0.008730  -0.000645   0.145336
     9  C   -0.005221   0.254581  -0.354577  -0.005575  -0.003653   0.532022
    10  O    0.008088   0.048153  -0.026032   0.000119   0.000004   0.025689
    11  H    0.000090   0.008435  -0.001910   0.000003   0.000000  -0.003630
    12  C   -0.258726  -3.986422   1.123397   0.000128   0.030438   1.287436
    13  O    0.003790   0.017084  -0.041839  -0.001208   0.000233   0.093907
    14  C    0.041892   1.346076  -1.020519  -0.076857   0.021541  -5.450222
    15  O    0.000747   0.042657  -0.006418  -0.000847   0.000084  -0.136498
    16  C    0.006454   0.564627  -0.196101  -0.006229   0.000530  -0.476258
    17  C   -0.000993  -0.123418   0.045789   0.002188   0.000114  -0.557154
    18  O    0.000099   0.002805  -0.005450  -0.000023   0.000000   0.037553
    19  H   -0.000015   0.010459   0.007140  -0.000013   0.000000   0.008987
    20  C    0.000196   0.048985  -0.018678  -0.000045   0.000002   0.002827
    21  O    0.000000   0.000030  -0.000045   0.000000   0.000000  -0.002025
    22  H    0.000000  -0.000015   0.000001   0.000000   0.000000   0.000317
    23  C    0.000035   0.001222  -0.058569  -0.000069  -0.000021   0.076587
    24  O   -0.000001  -0.002510  -0.010245  -0.000003   0.000000   0.014355
    25  H    0.000000  -0.000161  -0.001024  -0.000002   0.000000   0.001735
    26  C    0.000094   0.026258   0.072176   0.000441   0.000004  -0.396731
    27  O    0.000000   0.000199   0.000145   0.000000   0.000000  -0.002339
    28  C   -0.000010   0.000028   0.004129  -0.000003   0.000000   0.018617
    29  O    0.000000  -0.000015   0.000009   0.000000   0.000000   0.000428
    30  H    0.000000   0.000000   0.000000   0.000000   0.000000   0.000017
    31  H    0.000000  -0.000013   0.000007   0.000000   0.000000  -0.000074
    32  H    0.000000   0.000037   0.000005   0.000000   0.000000   0.000056
    33  H    0.000000  -0.000757   0.000397  -0.000001   0.000000   0.012956
    34  H   -0.000002  -0.001353   0.002407   0.000002   0.000000  -0.017426
    35  H    0.000000  -0.000288   0.000495   0.000000   0.000000  -0.004833
    36  H    0.000000  -0.000013  -0.000751   0.000000   0.000000  -0.000455
    37  H    0.000000   0.000919   0.004483   0.000013   0.000000  -0.025406
    38  H    0.226386   0.034386  -0.035165  -0.000321   0.000436  -0.006440
    39  H    0.000144  -0.014539   0.002856   0.000032   0.000000   0.005099
    40  H   -0.000301  -0.026098  -0.000619  -0.000025  -0.000001   0.006344
    41  H    0.008384   0.147293  -0.062199   0.000078  -0.000034  -0.111879
    42  H   -0.040984   0.547178  -0.134099  -0.002060  -0.002139  -0.027398
    43  H   -0.003865   0.121464   0.288838  -0.043402  -0.006486  -0.222736
    44  H   -0.000371   0.032284  -0.043386  -0.003309   0.000323   0.368365
    45  H    0.000184   0.042913  -0.006302  -0.000615   0.000008  -0.255230
              7          8          9         10         11         12
     1  O   -0.000061  -0.000067  -0.005221   0.008088   0.000090  -0.258726
     2  C    0.059089   0.006203   0.254581   0.048153   0.008435  -3.986422
     3  C    0.040417  -0.079044  -0.354577  -0.026032  -0.001910   1.123397
     4  O   -0.025597   0.008730  -0.005575   0.000119   0.000003   0.000128
     5  H    0.001629  -0.000645  -0.003653   0.000004   0.000000   0.030438
     6  C   -0.019526   0.145336   0.532022   0.025689  -0.003630   1.287436
     7  O    8.342076   0.172921  -0.001855  -0.000087   0.000000  -0.018830
     8  H    0.172921   0.422479   0.001241   0.000004   0.000000   0.001416
     9  C   -0.001855   0.001241   7.466951   0.414089  -0.074126  -2.053387
    10  O   -0.000087   0.000004   0.414089   8.365056   0.191454  -0.407346
    11  H    0.000000   0.000000  -0.074126   0.191454   0.440987   0.091466
    12  C   -0.018830   0.001416  -2.053387  -0.407346   0.091466  12.328104
    13  O    0.001010  -0.000411  -0.018393   0.012280   0.000311  -0.134312
    14  C   -0.007180  -0.043905  -0.689697   0.000922   0.005065  -1.459541
    15  O    0.009926  -0.000382  -0.011766  -0.004661   0.000064  -0.038725
    16  C    0.004745   0.000049  -0.020588  -0.009951   0.000839  -0.487224
    17  C   -0.005009  -0.000447  -0.138279   0.006378  -0.000505  -0.059271
    18  O    0.000803  -0.000003  -0.023945   0.001128   0.000096   0.023413
    19  H   -0.000110   0.000002  -0.005167  -0.000171  -0.000010  -0.006808
    20  C    0.004255  -0.000110   0.010376   0.001174  -0.000051  -0.108344
    21  O   -0.000008   0.000000  -0.000949   0.000009   0.000000   0.001441
    22  H    0.000000   0.000000   0.000392   0.000000   0.000000  -0.000725
    23  C    0.000727   0.000823   0.002895   0.000103  -0.000004   0.017988
    24  O    0.003170  -0.000009   0.000453   0.000000   0.000000   0.007082
    25  H   -0.000017   0.000007   0.000021   0.000000   0.000000   0.000620
    26  C   -0.004507   0.000252   0.000743  -0.001131  -0.000012  -0.109399
    27  O   -0.000015   0.000001  -0.000177   0.000001   0.000000  -0.000348
    28  C   -0.000274  -0.000003  -0.000784   0.000014   0.000006   0.011364
    29  O   -0.000002   0.000000   0.000034   0.000000   0.000000   0.000030
    30  H    0.000000   0.000000   0.000001   0.000000   0.000000  -0.000001
    31  H    0.000000   0.000000   0.000017   0.000000   0.000000   0.000042
    32  H    0.000006   0.000000   0.000144   0.000000   0.000000   0.001214
    33  H    0.000072   0.000000   0.002896  -0.000040   0.000000   0.002216
    34  H   -0.000560   0.000003   0.000081   0.000001   0.000000   0.009234
    35  H   -0.000120   0.000000   0.000181   0.000000   0.000000   0.002113
    36  H    0.000088   0.000000   0.000014   0.000000   0.000000   0.000210
    37  H    0.001173  -0.000067  -0.000244   0.000000   0.000000  -0.002887
    38  H   -0.000024   0.000000  -0.003452   0.000147  -0.000001   0.029592
    39  H    0.000003   0.000000   0.544344  -0.050718  -0.004688  -0.146817
    40  H   -0.000006   0.000000   0.476613  -0.047494  -0.007843  -0.086841
    41  H   -0.000231   0.000009  -0.022846   0.013830  -0.000327   0.087653
    42  H   -0.000534   0.000009  -0.006314   0.009093  -0.000233  -0.174676
    43  H    0.002619  -0.000807   0.008136   0.000018   0.000000  -0.081860
    44  H   -0.049620  -0.002347   0.009321  -0.000026   0.000000   0.011580
    45  H    0.010120  -0.000091   0.004441   0.000121   0.000001  -0.037650
             13         14         15         16         17         18
     1  O    0.003790   0.041892   0.000747   0.006454  -0.000993   0.000099
     2  C    0.017084   1.346076   0.042657   0.564627  -0.123418   0.002805
     3  C   -0.041839  -1.020519  -0.006418  -0.196101   0.045789  -0.005450
     4  O   -0.001208  -0.076857  -0.000847  -0.006229   0.002188  -0.000023
     5  H    0.000233   0.021541   0.000084   0.000530   0.000114   0.000000
     6  C    0.093907  -5.450222  -0.136498  -0.476258  -0.557154   0.037553
     7  O    0.001010  -0.007180   0.009926   0.004745  -0.005009   0.000803
     8  H   -0.000411  -0.043905  -0.000382   0.000049  -0.000447  -0.000003
     9  C   -0.018393  -0.689697  -0.011766  -0.020588  -0.138279  -0.023945
    10  O    0.012280   0.000922  -0.004661  -0.009951   0.006378   0.001128
    11  H    0.000311   0.005065   0.000064   0.000839  -0.000505   0.000096
    12  C   -0.134312  -1.459541  -0.038725  -0.487224  -0.059271   0.023413
    13  O    8.505448   0.228526  -0.080516  -0.110926   0.082307   0.014247
    14  C    0.228526  14.272223   0.218488  -1.356603   0.340366   0.014537
    15  O   -0.080516   0.218488   8.302879   0.288556  -0.157365  -0.009235
    16  C   -0.110926  -1.356603   0.288556  14.779351  -3.799617  -0.064797
    17  C    0.082307   0.340366  -0.157365  -3.799617  11.772723   0.328800
    18  O    0.014247   0.014537  -0.009235  -0.064797   0.328800   8.285650
    19  H    0.018917  -0.017902   0.026954  -0.063780  -0.013062   0.150423
    20  C   -0.020745  -0.745404   0.059781  -1.714664  -1.871002  -0.196310
    21  O    0.000537  -0.005487  -0.000214  -0.051782  -0.184342   0.014946
    22  H   -0.000032   0.003887  -0.000170  -0.007897  -0.002986   0.004309
    23  C    0.000918   0.153527  -0.070871   0.999599  -0.999325   0.006437
    24  O    0.000329   0.046216   0.000084   0.052426  -0.069983  -0.000088
    25  H    0.000030   0.017943   0.001029  -0.019770   0.006179  -0.000026
    26  C   -0.073029  -1.093987   0.036453  -4.867274   2.115081  -0.020871
    27  O    0.000195  -0.012827   0.001204  -0.146163  -0.064809   0.000755
    28  C    0.007086   0.164577  -0.003732   1.630915  -0.871615   0.041985
    29  O   -0.000008   0.007676  -0.000104   0.056850   0.030280   0.000127
    30  H    0.000000   0.000219   0.000009   0.001070  -0.006206   0.000013
    31  H    0.000017   0.003723   0.000281   0.049728   0.052403  -0.001013
    32  H    0.000168   0.006101   0.001255   0.163857  -0.192241   0.004456
    33  H    0.001215   0.074415  -0.010369   0.058172   0.320790  -0.053289
    34  H    0.001403   0.065212  -0.045143   0.401076  -0.111352  -0.000728
    35  H    0.000552   0.067862   0.012925  -0.001766  -0.048120  -0.001224
    36  H   -0.000003   0.003457  -0.001127   0.044072  -0.018262   0.000051
    37  H   -0.000687  -0.012230  -0.001576  -0.001787   0.006840   0.000065
    38  H   -0.000529  -0.002001   0.000007   0.000058   0.000000  -0.000002
    39  H   -0.005606  -0.019150   0.000197   0.000488   0.002790  -0.004168
    40  H    0.007407  -0.008479  -0.000129  -0.002417   0.000514   0.000079
    41  H   -0.066765   0.172058   0.003104   0.036120   0.010972  -0.000248
    42  H    0.002694   0.095614  -0.000846   0.001765   0.001312   0.000028
    43  H    0.003197   0.147016  -0.000705   0.011600   0.001893   0.000044
    44  H    0.005007  -0.101396  -0.005353   0.028192   0.004562   0.000010
    45  H   -0.064286   0.383477  -0.052681   0.112692   0.026169  -0.001744
             19         20         21         22         23         24
     1  O   -0.000015   0.000196   0.000000   0.000000   0.000035  -0.000001
     2  C    0.010459   0.048985   0.000030  -0.000015   0.001222  -0.002510
     3  C    0.007140  -0.018678  -0.000045   0.000001  -0.058569  -0.010245
     4  O   -0.000013  -0.000045   0.000000   0.000000  -0.000069  -0.000003
     5  H    0.000000   0.000002   0.000000   0.000000  -0.000021   0.000000
     6  C    0.008987   0.002827  -0.002025   0.000317   0.076587   0.014355
     7  O   -0.000110   0.004255  -0.000008   0.000000   0.000727   0.003170
     8  H    0.000002  -0.000110   0.000000   0.000000   0.000823  -0.000009
     9  C   -0.005167   0.010376  -0.000949   0.000392   0.002895   0.000453
    10  O   -0.000171   0.001174   0.000009   0.000000   0.000103   0.000000
    11  H   -0.000010  -0.000051   0.000000   0.000000  -0.000004   0.000000
    12  C   -0.006808  -0.108344   0.001441  -0.000725   0.017988   0.007082
    13  O    0.018917  -0.020745   0.000537  -0.000032   0.000918   0.000329
    14  C   -0.017902  -0.745404  -0.005487   0.003887   0.153527   0.046216
    15  O    0.026954   0.059781  -0.000214  -0.000170  -0.070871   0.000084
    16  C   -0.063780  -1.714664  -0.051782  -0.007897   0.999599   0.052426
    17  C   -0.013062  -1.871002  -0.184342  -0.002986  -0.999325  -0.069983
    18  O    0.150423  -0.196310   0.014946   0.004309   0.006437  -0.000088
    19  H    0.381745   0.063777  -0.000887  -0.000040  -0.003210  -0.000004
    20  C    0.063777  10.693559   0.613571  -0.019160   0.220546   0.036065
    21  O   -0.000887   0.613571   8.169017   0.223719  -0.002348  -0.000339
    22  H   -0.000040  -0.019160   0.223719   0.420162  -0.001080  -0.000007
    23  C   -0.003210   0.220546  -0.002348  -0.001080   7.981295   0.456648
    24  O   -0.000004   0.036065  -0.000339  -0.000007   0.456648   8.320843
    25  H    0.000000  -0.003120   0.000001   0.000000  -0.045351   0.220187
    26  C    0.025749   1.061753   0.042871  -0.009445  -3.418383  -0.466448
    27  O   -0.000074   0.035830   0.010152  -0.001259  -0.024792   0.012056
    28  C   -0.004714  -1.478895  -0.327351   0.051650  -0.144855  -0.001177
    29  O    0.000006  -0.161598  -0.000175   0.000767  -0.008936  -0.001058
    30  H    0.000000   0.020076  -0.001604   0.000018  -0.004520   0.000042
    31  H   -0.000006  -0.219958   0.008619  -0.000168   0.007502   0.000067
    32  H   -0.000328   0.269956  -0.056052  -0.012336   0.026603   0.000718
    33  H   -0.006375  -0.242606   0.000229  -0.000070   0.026281   0.000127
    34  H   -0.000133  -0.026261  -0.000613   0.000004   0.028639   0.008297
    35  H    0.000014  -0.056272  -0.000337   0.000001   0.050971   0.012313
    36  H    0.000000   0.012290  -0.000019   0.000000   0.610762  -0.058237
    37  H    0.000000  -0.001514   0.000004   0.000000   0.414406  -0.048416
    38  H    0.000001   0.000002   0.000000   0.000000  -0.000001   0.000000
    39  H    0.002828  -0.000989  -0.000013   0.000000  -0.000005   0.000000
    40  H   -0.000028   0.000167   0.000000   0.000000   0.000001   0.000000
    41  H    0.000241   0.002813   0.000003   0.000000  -0.000289  -0.000007
    42  H   -0.000020   0.000059   0.000000   0.000000   0.000070   0.000000
    43  H   -0.000019   0.000195   0.000000   0.000000   0.000280  -0.000006
    44  H   -0.000032   0.001127   0.000000   0.000000   0.001451  -0.000047
    45  H   -0.002268   0.011402   0.000055  -0.000001  -0.008168  -0.000411
             25         26         27         28         29         30
     1  O    0.000000   0.000094   0.000000  -0.000010   0.000000   0.000000
     2  C   -0.000161   0.026258   0.000199   0.000028  -0.000015   0.000000
     3  C   -0.001024   0.072176   0.000145   0.004129   0.000009   0.000000
     4  O   -0.000002   0.000441   0.000000  -0.000003   0.000000   0.000000
     5  H    0.000000   0.000004   0.000000   0.000000   0.000000   0.000000
     6  C    0.001735  -0.396731  -0.002339   0.018617   0.000428   0.000017
     7  O   -0.000017  -0.004507  -0.000015  -0.000274  -0.000002   0.000000
     8  H    0.000007   0.000252   0.000001  -0.000003   0.000000   0.000000
     9  C    0.000021   0.000743  -0.000177  -0.000784   0.000034   0.000001
    10  O    0.000000  -0.001131   0.000001   0.000014   0.000000   0.000000
    11  H    0.000000  -0.000012   0.000000   0.000006   0.000000   0.000000
    12  C    0.000620  -0.109399  -0.000348   0.011364   0.000030  -0.000001
    13  O    0.000030  -0.073029   0.000195   0.007086  -0.000008   0.000000
    14  C    0.017943  -1.093987  -0.012827   0.164577   0.007676   0.000219
    15  O    0.001029   0.036453   0.001204  -0.003732  -0.000104   0.000009
    16  C   -0.019770  -4.867274  -0.146163   1.630915   0.056850   0.001070
    17  C    0.006179   2.115081  -0.064809  -0.871615   0.030280  -0.006206
    18  O   -0.000026  -0.020871   0.000755   0.041985   0.000127   0.000013
    19  H    0.000000   0.025749  -0.000074  -0.004714   0.000006   0.000000
    20  C   -0.003120   1.061753   0.035830  -1.478895  -0.161598   0.020076
    21  O    0.000001   0.042871   0.010152  -0.327351  -0.000175  -0.001604
    22  H    0.000000  -0.009445  -0.001259   0.051650   0.000767   0.000018
    23  C   -0.045351  -3.418383  -0.024792  -0.144855  -0.008936  -0.004520
    24  O    0.220187  -0.466448   0.012056  -0.001177  -0.001058   0.000042
    25  H    0.426856   0.052459   0.000426   0.000320   0.000045   0.000000
    26  C    0.052459  14.437697   0.321731  -1.350282  -0.035485  -0.016075
    27  O    0.000426   0.321731   8.473895  -0.047960  -0.103392  -0.003437
    28  C    0.000320  -1.350282  -0.047960   6.836788   0.343138   0.030189
    29  O    0.000045  -0.035485  -0.103392   0.343138   8.186182   0.220982
    30  H    0.000000  -0.016075  -0.003437   0.030189   0.220982   0.414151
    31  H    0.000000  -0.020632  -0.053523   0.451987  -0.048608  -0.006854
    32  H    0.000005  -0.077012   0.005475   0.057238  -0.005767   0.000052
    33  H    0.000001  -0.056573   0.000435   0.052166   0.001151  -0.000005
    34  H   -0.000320  -0.091875   0.005847   0.027555  -0.000334   0.000002
    35  H   -0.000236   0.197252  -0.051680   0.043622  -0.000681  -0.000012
    36  H    0.000539  -0.265234  -0.009094  -0.012273  -0.000366   0.000005
    37  H   -0.012173  -0.024318   0.007373   0.005220  -0.000003   0.000001
    38  H    0.000000  -0.000003   0.000000   0.000000   0.000000   0.000000
    39  H    0.000000   0.000705   0.000000  -0.000095   0.000000   0.000000
    40  H    0.000000  -0.000054   0.000000   0.000000   0.000000   0.000000
    41  H    0.000000   0.004318   0.000001  -0.000244   0.000000   0.000000
    42  H    0.000000  -0.000035   0.000000  -0.000005   0.000000   0.000000
    43  H    0.000000  -0.000398   0.000000  -0.000011   0.000000   0.000000
    44  H    0.000000  -0.002120   0.000005  -0.000052   0.000000   0.000000
    45  H    0.000008   0.044178   0.000145  -0.000506  -0.000007   0.000000
             31         32         33         34         35         36
     1  O    0.000000   0.000000   0.000000  -0.000002   0.000000   0.000000
     2  C   -0.000013   0.000037  -0.000757  -0.001353  -0.000288  -0.000013
     3  C    0.000007   0.000005   0.000397   0.002407   0.000495  -0.000751
     4  O    0.000000   0.000000  -0.000001   0.000002   0.000000   0.000000
     5  H    0.000000   0.000000   0.000000   0.000000   0.000000   0.000000
     6  C   -0.000074   0.000056   0.012956  -0.017426  -0.004833  -0.000455
     7  O    0.000000   0.000006   0.000072  -0.000560  -0.000120   0.000088
     8  H    0.000000   0.000000   0.000000   0.000003   0.000000   0.000000
     9  C    0.000017   0.000144   0.002896   0.000081   0.000181   0.000014
    10  O    0.000000   0.000000  -0.000040   0.000001   0.000000   0.000000
    11  H    0.000000   0.000000   0.000000   0.000000   0.000000   0.000000
    12  C    0.000042   0.001214   0.002216   0.009234   0.002113   0.000210
    13  O    0.000017   0.000168   0.001215   0.001403   0.000552  -0.000003
    14  C    0.003723   0.006101   0.074415   0.065212   0.067862   0.003457
    15  O    0.000281   0.001255  -0.010369  -0.045143   0.012925  -0.001127
    16  C    0.049728   0.163857   0.058172   0.401076  -0.001766   0.044072
    17  C    0.052403  -0.192241   0.320790  -0.111352  -0.048120  -0.018262
    18  O   -0.001013   0.004456  -0.053289  -0.000728  -0.001224   0.000051
    19  H   -0.000006  -0.000328  -0.006375  -0.000133   0.000014   0.000000
    20  C   -0.219958   0.269956  -0.242606  -0.026261  -0.056272   0.012290
    21  O    0.008619  -0.056052   0.000229  -0.000613  -0.000337  -0.000019
    22  H   -0.000168  -0.012336  -0.000070   0.000004   0.000001   0.000000
    23  C    0.007502   0.026603   0.026281   0.028639   0.050971   0.610762
    24  O    0.000067   0.000718   0.000127   0.008297   0.012313  -0.058237
    25  H    0.000000   0.000005   0.000001  -0.000320  -0.000236   0.000539
    26  C   -0.020632  -0.077012  -0.056573  -0.091875   0.197252  -0.265234
    27  O   -0.053523   0.005475   0.000435   0.005847  -0.051680  -0.009094
    28  C    0.451987   0.057238   0.052166   0.027555   0.043622  -0.012273
    29  O   -0.048608  -0.005767   0.001151  -0.000334  -0.000681  -0.000366
    30  H   -0.006854   0.000052  -0.000005   0.000002  -0.000012   0.000005
    31  H    0.633097   0.006533   0.005123  -0.000009   0.005128  -0.000013
    32  H    0.006533   0.649880   0.010627   0.004660   0.000427   0.000001
    33  H    0.005123   0.010627   0.672427   0.006569   0.006478  -0.000012
    34  H   -0.000009   0.004660   0.006569   0.556275   0.005698   0.000203
    35  H    0.005128   0.000427   0.006478   0.005698   0.631160  -0.001191
    36  H   -0.000013   0.000001  -0.000012   0.000203  -0.001191   0.616337
    37  H    0.000001   0.000002  -0.000007  -0.000094  -0.002979  -0.048713
    38  H    0.000000   0.000000   0.000000   0.000000   0.000000   0.000000
    39  H    0.000000   0.000000   0.000001   0.000000   0.000000   0.000000
    40  H    0.000000   0.000000   0.000000   0.000000   0.000000   0.000000
    41  H    0.000000   0.000000  -0.000009  -0.000023   0.000000   0.000000
    42  H    0.000000   0.000000   0.000000   0.000000   0.000000   0.000000
    43  H    0.000000   0.000000   0.000000  -0.000001   0.000000   0.000000
    44  H    0.000000   0.000000  -0.000002   0.000015   0.000000   0.000000
    45  H    0.000000  -0.000029  -0.000097   0.005443  -0.000013   0.000000
             37         38         39         40         41         42
     1  O    0.000000   0.226386   0.000144  -0.000301   0.008384  -0.040984
     2  C    0.000919   0.034386  -0.014539  -0.026098   0.147293   0.547178
     3  C    0.004483  -0.035165   0.002856  -0.000619  -0.062199  -0.134099
     4  O    0.000013  -0.000321   0.000032  -0.000025   0.000078  -0.002060
     5  H    0.000000   0.000436   0.000000  -0.000001  -0.000034  -0.002139
     6  C   -0.025406  -0.006440   0.005099   0.006344  -0.111879  -0.027398
     7  O    0.001173  -0.000024   0.000003  -0.000006  -0.000231  -0.000534
     8  H   -0.000067   0.000000   0.000000   0.000000   0.000009   0.000009
     9  C   -0.000244  -0.003452   0.544344   0.476613  -0.022846  -0.006314
    10  O    0.000000   0.000147  -0.050718  -0.047494   0.013830   0.009093
    11  H    0.000000  -0.000001  -0.004688  -0.007843  -0.000327  -0.000233
    12  C   -0.002887   0.029592  -0.146817  -0.086841   0.087653  -0.174676
    13  O   -0.000687  -0.000529  -0.005606   0.007407  -0.066765   0.002694
    14  C   -0.012230  -0.002001  -0.019150  -0.008479   0.172058   0.095614
    15  O   -0.001576   0.000007   0.000197  -0.000129   0.003104  -0.000846
    16  C   -0.001787   0.000058   0.000488  -0.002417   0.036120   0.001765
    17  C    0.006840   0.000000   0.002790   0.000514   0.010972   0.001312
    18  O    0.000065  -0.000002  -0.004168   0.000079  -0.000248   0.000028
    19  H    0.000000   0.000001   0.002828  -0.000028   0.000241  -0.000020
    20  C   -0.001514   0.000002  -0.000989   0.000167   0.002813   0.000059
    21  O    0.000004   0.000000  -0.000013   0.000000   0.000003   0.000000
    22  H    0.000000   0.000000   0.000000   0.000000   0.000000   0.000000
    23  C    0.414406  -0.000001  -0.000005   0.000001  -0.000289   0.000070
    24  O   -0.048416   0.000000   0.000000   0.000000  -0.000007   0.000000
    25  H   -0.012173   0.000000   0.000000   0.000000   0.000000   0.000000
    26  C   -0.024318  -0.000003   0.000705  -0.000054   0.004318  -0.000035
    27  O    0.007373   0.000000   0.000000   0.000000   0.000001   0.000000
    28  C    0.005220   0.000000  -0.000095   0.000000  -0.000244  -0.000005
    29  O   -0.000003   0.000000   0.000000   0.000000   0.000000   0.000000
    30  H    0.000001   0.000000   0.000000   0.000000   0.000000   0.000000
    31  H    0.000001   0.000000   0.000000   0.000000   0.000000   0.000000
    32  H    0.000002   0.000000   0.000000   0.000000   0.000000   0.000000
    33  H   -0.000007   0.000000   0.000001   0.000000  -0.000009   0.000000
    34  H   -0.000094   0.000000   0.000000   0.000000  -0.000023   0.000000
    35  H   -0.002979   0.000000   0.000000   0.000000   0.000000   0.000000
    36  H   -0.048713   0.000000   0.000000   0.000000   0.000000   0.000000
    37  H    0.589221   0.000000   0.000000   0.000000   0.000000   0.000000
    38  H    0.000000   0.407975   0.000003  -0.000079  -0.000165  -0.010382
    39  H    0.000000   0.000003   0.589977  -0.050844  -0.002191   0.000061
    40  H    0.000000  -0.000079  -0.050844   0.594369  -0.000523   0.000276
    41  H    0.000000  -0.000165  -0.002191  -0.000523   0.638591   0.005906
    42  H    0.000000  -0.010382   0.000061   0.000276   0.005906   0.553565
    43  H    0.000000  -0.000025   0.000004   0.000008   0.002860   0.004996
    44  H    0.000008   0.000006   0.000003   0.000000  -0.000004   0.000918
    45  H    0.000040   0.000001   0.000113  -0.000039   0.011368  -0.000036
             43         44         45
     1  O   -0.003865  -0.000371   0.000184
     2  C    0.121464   0.032284   0.042913
     3  C    0.288838  -0.043386  -0.006302
     4  O   -0.043402  -0.003309  -0.000615
     5  H   -0.006486   0.000323   0.000008
     6  C   -0.222736   0.368365  -0.255230
     7  O    0.002619  -0.049620   0.010120
     8  H   -0.000807  -0.002347  -0.000091
     9  C    0.008136   0.009321   0.004441
    10  O    0.000018  -0.000026   0.000121
    11  H    0.000000   0.000000   0.000001
    12  C   -0.081860   0.011580  -0.037650
    13  O    0.003197   0.005007  -0.064286
    14  C    0.147016  -0.101396   0.383477
    15  O   -0.000705  -0.005353  -0.052681
    16  C    0.011600   0.028192   0.112692
    17  C    0.001893   0.004562   0.026169
    18  O    0.000044   0.000010  -0.001744
    19  H   -0.000019  -0.000032  -0.002268
    20  C    0.000195   0.001127   0.011402
    21  O    0.000000   0.000000   0.000055
    22  H    0.000000   0.000000  -0.000001
    23  C    0.000280   0.001451  -0.008168
    24  O   -0.000006  -0.000047  -0.000411
    25  H    0.000000   0.000000   0.000008
    26  C   -0.000398  -0.002120   0.044178
    27  O    0.000000   0.000005   0.000145
    28  C   -0.000011  -0.000052  -0.000506
    29  O    0.000000   0.000000  -0.000007
    30  H    0.000000   0.000000   0.000000
    31  H    0.000000   0.000000   0.000000
    32  H    0.000000   0.000000  -0.000029
    33  H    0.000000  -0.000002  -0.000097
    34  H   -0.000001   0.000015   0.005443
    35  H    0.000000   0.000000  -0.000013
    36  H    0.000000   0.000000   0.000000
    37  H    0.000000   0.000008   0.000040
    38  H   -0.000025   0.000006   0.000001
    39  H    0.000004   0.000003   0.000113
    40  H    0.000008   0.000000  -0.000039
    41  H    0.002860  -0.000004   0.011368
    42  H    0.004996   0.000918  -0.000036
    43  H    0.604621   0.005875   0.001918
    44  H    0.005875   0.571077   0.005439
    45  H    0.001918   0.005439   0.634196
 Mulliken atomic charges:
              1
     1  O   -0.534934
     2  C   -0.391225
     3  C    0.290343
     4  O   -0.543002
     5  H    0.342797
     6  C   -0.159656
     7  O   -0.520678
     8  H    0.368853
     9  C   -0.288994
    10  O   -0.550218
    11  H    0.354520
    12  C    0.591965
    13  O   -0.389519
    14  C    0.220771
    15  O   -0.367249
    16  C    0.111766
    17  C    0.136915
    18  O   -0.549692
    19  H    0.427934
    20  C   -0.285058
    21  O   -0.450617
    22  H    0.350165
    23  C   -0.295521
    24  O   -0.532483
    25  H    0.353788
    26  C   -0.038902
    27  O   -0.353981
    28  C    0.466248
    29  O   -0.481164
    30  H    0.351867
    31  H    0.126596
    32  H    0.134290
    33  H    0.115469
    34  H    0.167601
    35  H    0.132560
    36  H    0.127735
    37  H    0.153332
    38  H    0.359591
    39  H    0.150176
    40  H    0.146040
    41  H    0.122380
    42  H    0.176214
    43  H    0.154739
    44  H    0.162497
    45  H    0.135740
 Sum of Mulliken atomic charges =   0.00000
 Mulliken charges with hydrogens summed into heavy atoms:
              1
     1  O   -0.175343
     2  C   -0.215011
     3  C    0.445082
     4  O   -0.200204
     6  C    0.002841
     7  O   -0.151825
     9  C    0.007222
    10  O   -0.195698
    12  C    0.714346
    13  O   -0.389519
    14  C    0.356511
    15  O   -0.367249
    16  C    0.279367
    17  C    0.252384
    18  O   -0.121758
    20  C   -0.150768
    21  O   -0.100452
    23  C   -0.014454
    24  O   -0.178695
    26  C    0.093658
    27  O   -0.353981
    28  C    0.592845
    29  O   -0.129297
 Sum of Mulliken charges with hydrogens summed into heavy atoms =   0.00000
 APT atomic charges:
              1
     1  O   -0.626433
     2  C    0.434750
     3  C    0.329213
     4  O   -0.643111
     5  H    0.232296
     6  C    0.386698
     7  O   -0.588147
     8  H    0.257233
     9  C    0.407584
    10  O   -0.568144
    11  H    0.241548
    12  C    0.440170
    13  O   -0.841828
    14  C    0.957147
    15  O   -0.899490
    16  C    0.400043
    17  C    0.384648
    18  O   -0.733476
    19  H    0.399112
    20  C    0.399167
    21  O   -0.587331
    22  H    0.248092
    23  C    0.434286
    24  O   -0.600456
    25  H    0.256096
    26  C    0.412322
    27  O   -0.692093
    28  C    0.877797
    29  O   -0.677932
    30  H    0.290278
    31  H   -0.086299
    32  H   -0.054001
    33  H   -0.072745
    34  H   -0.010959
    35  H   -0.048166
    36  H   -0.072975
    37  H   -0.009714
    38  H    0.255919
    39  H   -0.035320
    40  H   -0.031947
    41  H   -0.038178
    42  H   -0.010706
    43  H   -0.052717
    44  H   -0.013323
    45  H   -0.048906
 Sum of APT charges=   0.00000
 APT Atomic charges with hydrogens summed into heavy atoms:
              1
     1  O   -0.370514
     2  C    0.424044
     3  C    0.276496
     4  O   -0.410815
[...]
 012513,-0.00001056,-0.00008215,-0.00004688,0.00001984,0.00000660,0.000
 00670,-0.00000092,-0.00000843,0.00005742,-0.00002065,-0.00005620,-0.00
 009127,0.00000786,0.00007608,-0.00001216,0.00000143,0.00000679,0.00001
 279,0.00000136,-0.00000818,-0.00000642,0.00000311,0.00000016,-0.000002
 55,0.00000596,0.00000525,0.00000184,-0.00000786,-0.00000936,-0.0000005
 9,0.00000575,0.00000806,0.00000705,-0.00000080,0.00000453,0.00000309,0
 .00000424,-0.00001532,-0.00000626,-0.00000345,0.00001143,0.00000464,-0
 .00000230,-0.00001240,-0.00000014,-0.00000010,0.00000303,0.00000146,0.
 00000008,-0.00000008,0.00000163,-0.00000288,-0.00000144,0.00000620,0.0
 0000097,0.00000590,0.00000203,-0.00000482,-0.00000103,0.00000148,-0.00
 000047,0.00000137,-0.00000011,-0.00000130,-0.00000294,0.00000482,-0.00
 000063,0.00000125,0.00058676,-0.00035096,0.00010262,0.00016651,-0.0000
 9389,-0.00005411,0.00013098,0.00000486,-0.00001675,-0.00052886,-0.0010
 8433,0.00172666,0.28913937,-0.00311306,0.00365260,-0.00021956,0.137619
 01,-0.12647513,-0.03447444,0.02460589,-0.02135989,-0.01021533,0.001150
 56,0.00509164,-0.00013708,0.00024909,-0.00106660,0.00040182,0.00126737
 ,-0.00021538,0.00119767,-0.00083649,-0.00014967,-0.00049083,0.00024886
 ,0.00003914,-0.00002676,-0.00049139,0.00081818,-0.00032349,0.00007508,
 -0.00090988,-0.00015001,0.00015229,0.00010542,-0.00007531,-0.01460381,
 0.01065066,0.00480088,0.00002032,0.00008739,-0.00143604,-0.00008365,-0
 .00039473,0.00001382,0.00007261,0.00000931,-0.00006725,-0.00001549,0.0
 0002646,-0.00000437,-0.00001911,-0.00002057,-0.00003391,0.00004972,-0.
 00002790,0.00003396,-0.00008242,0.00004832,-0.00004629,0.00000598,0.00
 000549,0.00000261,0.00000055,-0.00000290,-0.00000042,0.00000026,0.0000
 0228,-0.00000251,0.00001036,-0.00001075,0.00000804,-0.00001179,0.00000
 829,-0.00001311,0.00000579,0.00000507,0.00001374,0.00000548,0.00000123
 ,-0.00000187,-0.00000088,0.00000191,-0.00000205,-0.00000503,-0.0000015
 1,0.00000059,0.00000141,0.00000029,-0.00000006,0.,0.00000016,0.0000009
 5,0.00000119,0.00000034,0.00000041,-0.00000002,-0.00000138,-0.00000091
 ,0.00000935,0.00000366,0.00000738,-0.00000332,-0.00000546,0.00000398,0
 .00000030,0.00000266,-0.00000041,-0.00000143,0.00000214,-0.00000384,0.
 00000317,-0.00000391,0.00000321,0.00013751,0.00074704,0.00057657,0.000
 29925,0.00003610,-0.00011637,0.00007988,-0.00012062,-0.00008119,-0.001
 59983,-0.00086299,0.00299088,-0.14286458,0.13470351,-0.03895476,0.0132
 1483,-0.00838166,0.06315400,-0.03920772,-0.06137342,0.01034224,-0.0035
 3893,-0.00039029,-0.00067883,0.00203306,0.00082986,-0.00036611,0.00009
 919,0.00007662,0.00054214,0.00017099,0.00033854,-0.00026639,0.00007947
 ,-0.00004396,0.00007957,0.00001737,0.00002599,-0.00015700,-0.00117699,
 0.00037804,-0.00052882,0.00046880,0.00029168,-0.00034768,-0.00005860,0
 .00012916,0.02269740,-0.01358867,-0.00696867,-0.00058501,0.00031978,0.
 00227928,0.00025998,-0.00057484,-0.00012447,-0.00006572,0.00008811,-0.
 00012486,-0.00002462,-0.00001907,0.00002041,0.00004346,0.00002146,0.00
 006114,-0.00013004,0.00002498,-0.00003355,0.00020608,-0.00003021,-0.00
 004809,-0.00001266,-0.00000535,0.00001038,0.00000793,0.00001031,-0.000
 01549,-0.00000417,-0.00000358,0.00001107,0.00001063,-0.00000257,-0.000
 00259,-0.00001660,-0.00000203,-0.00001414,0.00000691,0.00000463,0.0000
 0772,0.00001744,-0.00000504,0.00001993,-0.00001022,0.00000791,-0.00001
 897,0.00001117,-0.00000893,0.00002409,-0.00000023,0.00000032,-0.000021
 04,0.00000092,-0.00000246,0.00000474,-0.00000296,0.00000158,-0.0000028
 8,-0.00000273,0.00000425,0.00000385,-0.00002287,-0.00000005,-0.0000232
 8,-0.00000299,0.00001087,0.00000732,-0.00000525,0.00000378,-0.00000302
 ,-0.00000466,-0.00000307,-0.00000533,0.00000351,0.00000012,0.00000291,
 -0.00159097,0.00102952,0.00322651,-0.00014489,0.00000036,0.00004249,0.
 00008083,0.00021950,-0.00003629,0.00177873,0.00228630,-0.00417135,-0.0
 5396322,0.03977423,0.07454297,0.00100495,0.00056813,0.00093847,0.00633
 279,-0.00582592,-0.00057691,-0.23370997,0.14947040,-0.02612433,-0.0287
 2576,0.00670915,0.01179113,0.00039703,-0.00029988,-0.00065457,-0.01134
 564,0.01021771,-0.00412607,0.00212242,-0.00086623,0.00151337,-0.000929
 83,-0.00028116,-0.00021390,0.00026433,0.00031932,-0.00027112,-0.000009
 62,-0.00025237,0.00000178,-0.00000486,-0.00004572,0.00004339,0.0002375
 3,0.00043212,-0.00032744,0.00045356,-0.00003759,0.00017619,-0.00135140
 ,-0.00062850,0.00059372,0.00039934,-0.00005627,-0.00049329,-0.00008431
 ,0.00014710,0.00003084,0.00000203,-0.00002939,-0.00008644,0.00003966,-
 0.00000755,0.00004466,-0.00004388,0.00001594,0.00000158,-0.00000638,0.
 00001938,0.00001031,0.00001569,0.00000370,-0.00000563,-0.00000346,0.00
 000352,-0.00000469,-0.00004774,0.00004921,0.00001069,0.00005556,-0.000
 04541,0.00002359,-0.00002773,0.00000229,-0.00002215,0.00000925,0.00000
 338,0.00000209,0.00001062,-0.00000043,-0.00001290,-0.00001332,-0.00000
 381,0.00000020,0.00000693,-0.00000187,-0.00000152,-0.00000156,0.000001
 62,0.00000009,0.00000295,-0.00000089,0.00000120,0.00000426,-0.00000444
 ,-0.00000206,0.00000805,-0.00000919,0.00000885,0.00001703,-0.00000792,
 -0.00002461,0.00000419,-0.00000935,0.00000658,0.00000972,-0.00000580,0
 .00000338,0.00000071,0.00000837,-0.00000448,-0.00003261,-0.00008365,-0
 .00014113,0.00002271,0.00003613,0.00000088,-0.00000924,-0.00000962,0.0
 0001568,0.00040666,-0.00018420,-0.00018096,-0.00031211,-0.00178950,-0.
 00083010,0.26462102,-0.00111940,0.00424078,0.00114045,0.02752267,-0.02
 330198,0.00245848,0.15213028,-0.16139044,0.01776959,-0.01640425,0.0112
 1556,0.00107675,0.00047473,0.00060576,-0.00087485,-0.00203461,0.001813
 01,-0.00241410,-0.00044763,0.00164693,0.00095519,-0.00025607,-0.000053
 40,0.00005287,-0.00026158,-0.00019379,0.00007911,-0.00023531,0.0000764
 2,0.00015907,-0.00010382,0.00001379,0.00009343,0.00246706,0.00078848,-
 0.00188785,-0.00079667,-0.00018762,0.00054274,0.00071130,-0.00035453,-
 0.00032085,-0.00013347,0.00004753,-0.00001033,0.00004553,-0.00001759,0
 .00001328,-0.00001057,-0.00002475,-0.00001562,-0.00005587,0.00003614,0
 .00007909,0.00009075,-0.00000964,-0.00012406,0.00001425,-0.00000321,-0
 .00000212,-0.00000770,0.00000177,0.00000368,0.00000601,-0.00000445,-0.
 00000003,0.00000447,-0.00000396,-0.00000490,-0.00000925,0.00000318,0.0
 0000307,0.00000518,-0.00000325,-0.00000992,0.00000737,0.00000849,0.000
 00356,-0.00000640,-0.00000238,0.00000277,0.00000418,-0.00000068,-0.000
 00214,-0.00000332,0.00000259,0.00000581,0.00000018,-0.00000052,-0.0000
 0102,-0.00000218,0.00000058,-0.00000102,-0.00000345,0.00000455,0.00000
 223,-0.00000454,0.00000309,-0.00000425,-0.00000246,0.00000858,0.000007
 04,-0.00000475,0.00000127,-0.00000408,-0.00000095,-0.00000029,0.000000
 37,-0.00000259,0.00000402,-0.00000024,0.00002633,0.00006733,0.00016375
 ,-0.00004139,-0.00012000,-0.00000573,-0.00003341,-0.00001863,-0.000015
 60,-0.00086669,0.00009743,0.00077807,-0.00195983,-0.00442858,-0.001674
 76,-0.15763329,0.16919217,0.00100665,0.00135979,0.00097890,0.00546844,
 -0.00892159,0.00220955,-0.03004968,0.01816993,-0.04595229,0.03106963,-
 0.00891878,-0.00613847,0.00086450,-0.00090637,0.00129734,-0.02929791,0
 .01959321,-0.00404236,0.00327343,-0.00011145,0.00294000,-0.00047673,-0
 .00057221,-0.00010672,-0.00004772,-0.00012217,0.00019358,-0.00005442,0
 .00000958,0.00005074,-0.00000371,0.00000113,0.00000571,-0.00056408,0.0
 0021598,-0.00067183,0.00052260,0.00054586,-0.00068052,-0.00191003,-0.0
 0050862,0.00205577,0.00045592,-0.00016540,-0.00056886,-0.00004532,0.00
 011832,0.00008876,0.00002712,-0.00002542,-0.00005299,0.00005824,0.0000
 0977,-0.00003498,-0.00008634,-0.00000963,0.00006643,-0.00002228,0.0000
 1766,0.00001503,0.00002508,0.00001369,-0.00001914,-0.00000718,0.000001
 71,0.00000115,-0.00004617,0.00005502,0.00002339,0.00004882,-0.00005562
 ,0.00000700,-0.00001788,0.00000342,-0.00001686,0.00001369,-0.00000232,
 0.00002949,0.00000732,0.00000813,-0.00003843,-0.00000896,-0.00001430,0
 .00002463,0.00000869,-0.00000197,-0.00002402,-0.00000025,-0.00000078,0
 .00000576,0.00000130,0.00000081,-0.00000083,0.00000437,-0.00000159,-0.
 00000053,0.00000120,-0.00000468,0.00000445,0.00002695,-0.00000143,-0.0
 0004582,0.00000204,-0.00000878,0.00000772,0.00000696,-0.00000941,-0.00
 000730,0.00000754,0.00002161,0.00000139,0.00020755,-0.00009033,-0.0000
 4766,-0.00002851,-0.00007111,-0.00000506,-0.00000513,0.00003327,0.0000
 0560,-0.00001120,0.00040524,0.00009511,-0.00000183,-0.00135558,-0.0004
 3785,0.02096540,-0.01785472,0.05451713,0.00015601,-0.00033402,-0.00024
 871,-0.00016730,0.00119894,0.00013192,-0.01644545,0.00421240,-0.000940
 62,0.00177869,-0.00065997,0.00233419,0.00061284,-0.00016022,0.00056980
 ,-0.32885931,0.09801436,0.01335058,0.00962219,0.00088008,0.00023844,0.
 00028132,0.00012819,0.00033842,0.00002257,0.00009670,0.00010541,0.0000
 5347,-0.00005678,-0.00001307,0.00001570,-0.00000864,0.00000318,-0.0004
 3380,0.00004661,-0.00043689,0.00242001,0.00013743,-0.00037744,-0.01839
 910,0.00496011,0.00209418,0.00160171,-0.00022525,-0.00096579,0.0000702
 9,0.00020228,0.00014719,0.00006544,0.00000734,-0.00016570,0.00011959,-
 0.00009366,-0.00010107,-0.00016093,0.00004340,0.00020788,-0.00000763,0
 .00003680,0.00002352,0.00002276,0.00000435,-0.00002189,-0.00000749,0.0
 0000560,-0.00000256,-0.00006505,0.00005577,0.00001042,0.00005231,-0.00
 005586,0.00002793,-0.00000736,-0.00000417,-0.00002823,-0.00000652,-0.0
 0001372,0.00003920,0.00000869,-0.00000583,-0.00001439,-0.00000487,0.00
 000453,0.00001103,0.00000424,-0.00000685,-0.00001158,-0.00000022,0.000
 00217,0.00000214,0.00000298,-0.00000141,0.00000077,0.00000591,-0.00000
 620,-0.00000222,0.00000582,-0.00002153,0.00002302,0.00007168,-0.000027
 65,-0.00015019,0.00000759,-0.00001189,0.00001545,0.00001092,-0.0000086
 8,-0.00000798,0.00002080,0.00003393,-0.00000338,-0.00006871,-0.0000503
 1,-0.00001890,-0.00000474,-0.00003259,-0.00001087,0.00001855,0.0000270
 2,0.00001374,0.00025860,0.00003935,0.00006215,0.00004341,-0.00051412,-
 0.00027301,-0.00038313,-0.00085654,-0.00199801,0.34796726,0.00016488,0
 .00011537,0.00013541,-0.00002701,-0.00036472,0.00053572,-0.00197807,0.
 00490483,0.00129786,0.00035738,-0.00013289,-0.00019495,-0.00027035,0.0
 0005134,-0.00017602,0.09633470,-0.07164871,-0.00017846,0.02909165,-0.0
 3468516,-0.01431328,0.00153154,-0.00017500,-0.00069552,-0.00004762,0.0
 0016162,0.00005190,0.00005626,-0.00008721,-0.00002749,0.00000711,-0.00
 000049,0.00000092,-0.00040135,-0.00006741,-0.00014665,0.00034904,0.001
 63519,0.00023520,-0.01991557,0.00594718,0.00088820,0.00125172,0.000319
 21,-0.00090275,0.00010401,0.00019779,-0.00008365,-0.00007674,-0.000048
 14,-0.00024916,0.00010348,-0.00017883,0.00016529,-0.00013217,0.0002440
 5,0.00006558,0.00001948,0.00001186,0.00000219,0.00000021,0.00000725,0.
 00001465,0.00000795,-0.00000195,-0.00001396,0.00015074,-0.00017870,0.0
 0000031,-0.00014557,0.00015557,-0.00013252,0.00008194,0.00003806,0.000
 16262,-0.00000820,-0.00003054,-0.00001729,0.00001085,0.00002606,0.0000
 2031,-0.00002004,-0.00001900,-0.00001830,0.00000330,0.00001330,0.00001
 943,-0.00000126,-0.00000397,-0.00000114,0.00000204,0.00000409,0.000002
 19,-0.00000045,-0.00000099,-0.00000398,0.00002736,-0.00000212,0.000026
 75,0.00002712,-0.00010439,-0.00000188,0.00000984,0.00002073,0.00000708
 ,-0.00002134,0.00003002,-0.00000758,0.00001847,-0.00003171,0.00000288,
 0.00004254,0.00004623,-0.00002325,0.00000110,-0.00001281,0.00000487,0.
 00000229,-0.00002318,-0.00000747,0.00021284,-0.00000993,0.00003766,-0.
 00003460,0.00006056,-0.00018788,-0.00006978,0.00026635,-0.00105727,-0.
 10533135,0.09604174,0.00018702,-0.00061122,-0.00066605,-0.00033645,0.0
 0151149,0.00064434,-0.03292563,0.00847628,-0.00323185,-0.00008809,-0.0
 0030692,0.00218209,0.00011336,-0.00006621,0.00071055,0.01510893,-0.000
 55403,-0.04225832,0.00863516,-0.01451291,-0.00018036,-0.00003902,0.000
 34826,-0.00041396,-0.00013668,0.00006125,0.00003316,0.00003413,-0.0000
 1479,-0.00001060,0.00000473,0.00000715,0.00000445,-0.00028010,-0.00020
 542,-0.00031317,-0.00193557,-0.00108179,0.00009038,0.02845184,-0.00582
 070,-0.00220007,-0.00155269,-0.00075255,0.00264425,0.00016217,-0.00046
 204,-0.00034282,0.00000705,0.00006312,0.00035041,-0.00014443,0.0001682
 3,-0.00011729,0.00015670,-0.00020566,-0.00005352,-0.00000183,-0.000050
 00,-0.00003571,-0.00004542,-0.00002413,0.00002611,0.00000496,-0.000004
 01,0.00000838,0.00016333,-0.00014698,-0.00011519,-0.00013868,0.0001245
 7,-0.00003201,0.00005077,-0.00001468,0.00005089,-0.00002622,0.00005702
 ,-0.00001977,-0.00004233,-0.00003492,0.00007368,0.00005056,0.00004693,
 -0.00003140,-0.00002634,-0.00000627,0.00003342,0.00000286,0.00000218,-
 0.00001202,-0.00000538,-0.00000429,-0.00000037,-0.00000724,0.00000404,
 0.00000447,-0.00002568,0.00003557,-0.00003096,-0.00016288,0.00010169,0
 .00009162,-0.00002445,0.00002860,-0.00004183,-0.00002574,0.00001085,0.
 00002060,-0.00002178,-0.00007327,-0.00008085,-0.00009023,-0.00011112,-
 0.00007312,-0.00000049,-0.00004553,0.00000867,0.00000613,-0.00000936,-
 0.00001823,-0.00000144,0.00003748,-0.00016913,0.00003109,-0.00055099,-
 0.00021203,-0.00175053,-0.00047446,-0.00528549,-0.01541538,0.01233612,
 0.05153377,0.00012739,0.00006577,0.00012615,-0.00003825,0.00001495,0.0
 0000879,-0.00066959,0.00005805,-0.00076113,0.00037969,-0.00024021,0.00
 015254,0.00005261,-0.00000932,0.00020653,-0.01620940,0.00733610,0.0039
 7887,0.00182085,-0.00007401,-0.00097591,0.00013867,-0.00008569,-0.0001
 2641,0.00093639,-0.00001182,0.00014830,-0.00005921,-0.00041720,-0.0001
 3495,0.00005500,-0.00009403,-0.00002593,0.00198354,-0.00259539,-0.0012
 0049,0.00366942,0.00238948,-0.00045885,-0.32535234,0.09206284,0.040219
 91,-0.01367888,0.00688358,-0.00903974,-0.00002612,-0.00005900,0.003449
 63,0.00003639,-0.00004197,-0.00070991,0.00045986,-0.00083898,0.0000996
 4,-0.00064879,0.00040257,0.00052388,0.00004774,0.00010711,0.00008087,0
 .00009639,0.00004961,-0.00006419,-0.00001378,0.00000765,-0.00002054,-0
 .00022962,0.00024746,0.00001940,0.00024910,-0.00018067,0.00014386,-0.0
 0009784,-0.00003493,-0.00007831,0.00019597,-0.00030132,-0.00004203,0.0
 0000985,0.00000634,-0.00014041,-0.00008684,-0.00007495,0.00005647,0.00
 004777,0.00000804,-0.00005361,-0.00000448,-0.00000153,0.00001884,0.000
 01264,0.00000640,0.00000055,0.00002122,-0.00000534,-0.00002057,-0.0000
 0580,-0.00016806,0.00015334,0.00094422,-0.00039777,-0.00105282,0.00012
 711,-0.00002510,0.00024605,0.00003243,-0.00003624,-0.00001148,0.000051
 59,0.00008770,-0.00001300,0.00000999,-0.00001162,-0.00000761,-0.000023
 01,-0.00002969,0.00000212,-0.00001929,0.00013547,0.00002482,0.00099858
 ,-0.00010496,0.00046043,-0.00004674,-0.00003538,-0.00025043,0.00059357
 ,-0.00021229,0.00060988,-0.00029970,-0.00148837,0.00207993,0.34441170,
 0.00009447,0.00024532,-0.00026715,-0.00065613,-0.00014285,0.00005636,-
 0.00028043,0.00051231,-0.00081320,0.00013954,-0.00005897,0.00027593,0.
 00015343,-0.00007135,0.00012464,-0.01982628,0.00814596,0.00386158,0.00
 152546,0.00221371,-0.00064290,0.00025348,0.00031000,-0.00007709,0.0000
 6174,-0.00007321,0.00011215,-0.00019139,0.00005186,-0.00006057,-0.0001
 2834,0.00002431,-0.00006422,0.00580018,-0.00037274,0.00388073,0.026831
 48,-0.02655244,-0.01504237,0.08533679,-0.07285013,-0.00914762,0.006099
 69,0.00214921,0.00315154,-0.00047947,0.00026098,-0.00082978,0.00032905
 ,0.00011356,0.00070556,-0.00067178,0.00058104,-0.00024520,0.00147898,-
 0.00167813,-0.00084332,-0.00004244,-0.00003574,0.00000550,-0.00000043,
 -0.00000773,-0.00003058,-0.00001728,-0.00000448,0.00003283,-0.00001714
 ,0.00005280,-0.00005443,0.00002064,-0.00001739,0.00004604,-0.00003481,
 -0.00001624,-0.00001919,-0.00003771,0.00004729,0.00006279,-0.00000978,
 -0.00001338,0.00000455,0.00005917,0.00003713,0.00003191,-0.00001674,-0
 .00001931,-0.00002809,0.00000330,0.00000192,-0.00000028,-0.00000768,-0
 .00000406,-0.00000506,0.00000208,0.00001030,0.00000507,-0.00008134,0.0
 0001173,-0.00010678,-0.00008796,0.00001090,0.00037961,-0.00002519,-0.0
 0001584,-0.00007043,-0.00000674,-0.00002308,0.00001633,-0.00002326,-0.
 00003295,0.00001806,-0.00003712,-0.00001868,-0.00005999,0.00000037,-0.
 00002922,0.00002562,-0.00003941,-0.00007291,-0.00001948,-0.00159504,0.
 00083643,-0.00062329,-0.00011484,-0.00005198,0.00019902,0.00018227,-0.
 00002610,0.00020738,-0.00165013,-0.00249057,0.00272344,-0.10229330,0.0
 8906272,-0.00007786,-0.00004830,-0.00016020,-0.00017207,0.00046211,-0.
 00019610,0.00099039,-0.00070841,0.00078788,-0.00036347,0.00008815,0.00
 013849,-0.00016059,-0.00001801,-0.00005387,0.02271310,-0.00531280,-0.0
 0060330,-0.00165092,-0.00010681,0.00054893,-0.00007361,-0.00000284,0.0
 0006494,-0.00002395,-0.00018167,-0.00012846,-0.00008668,-0.00001353,-0
 .00006912,-0.00005297,0.00001036,-0.00003876,0.00406646,-0.00306502,0.
 00162815,0.00698257,-0.01085270,-0.00374159,0.04353922,-0.01098537,-0.
 05054968,-0.03492257,0.01399930,-0.01331528,-0.00456441,0.00167109,0.0
 0485916,-0.00034931,0.00018474,-0.00065631,0.00025084,-0.00003386,0.00
 043417,-0.00011896,0.00051432,-0.00034463,0.00003379,0.00004927,0.0000
 5278,0.00009079,0.00003854,-0.00003019,0.00000250,0.00000868,-0.000021
 62,-0.00017079,0.00016041,0.00011094,0.00016171,-0.00011955,0.00002156
 ,-0.00001470,0.00000603,-0.00002597,0.00007724,-0.00026167,-0.00026208
 ,0.00010925,-0.00001750,-0.00021207,-0.00012390,-0.00011833,0.00007277
 ,0.00005644,0.00002655,-0.00006196,-0.00000438,-0.00000708,0.00002548,
 0.00001354,0.00001439,0.00000657,0.00003712,-0.00001968,-0.00005904,0.
 00014774,-0.00021618,0.00003905,0.00083727,-0.00083367,-0.00037186,0.0
 0028941,-0.00010578,0.00013413,0.00003602,-0.00001172,-0.00005453,0.00
 011314,0.00012416,-0.00004331,-0.00001288,0.00001808,-0.00000719,0.000
 02261,0.00003011,0.00000666,-0.00004311,-0.00006696,-0.00002444,-0.000
 97679,-0.00016205,-0.00053612,-0.00011281,-0.00000074,0.00011852,-0.00
 032927,0.00031223,-0.00044662,0.00145732,0.00242733,-0.00256513,-0.037
 62248,0.01312436,0.06552927\\0.00040307,-0.01654137,-0.01629014,0.0095
 1147,0.02099548,-0.03691374,-0.01923918,-0.03266324,0.05500906,-0.0081
 8098,-0.02450960,0.03608272,-0.00558513,-0.00197570,-0.03086090,-0.003
 10923,0.01693892,-0.03795586,0.00615280,-0.01556804,0.03978077,0.00521
 760,0.01782280,-0.01956346,-0.03200986,-0.00478673,0.00114874,0.018026
 33,0.03299845,0.00989759,-0.01731442,-0.02424422,-0.00676035,0.0105890
 2,0.02807042,0.00645588,0.01549549,0.00016924,0.00459403,-0.02300982,0
 .02416196,-0.02481880,-0.02018454,-0.03045333,0.01088947,0.04056575,0.
 05095844,-0.00571265,-0.00646665,0.04794748,0.00814209,0.00731047,-0.0
 2230345,0.00493682,0.00731517,0.01385908,-0.01878795,0.05542465,-0.023
 16663,-0.02690390,0.01388732,0.00445125,0.03120019,-0.02546877,0.01526
 527,-0.01548104,0.00332193,-0.01495263,-0.01823732,0.00029998,-0.01994
 916,0.01394795,0.00543094,0.02718981,-0.01779200,-0.03281931,-0.040458
 65,0.01370175,-0.01525286,-0.00708549,0.04798765,-0.00395639,-0.057489
 77,-0.01741659,0.03408387,0.04192517,0.01165989,-0.00852204,0.00052426
 ,0.00206343,-0.01321981,0.01549772,-0.00482217,0.01002176,-0.02339363,
 -0.00560264,-0.02269934,0.01274662,0.00220557,0.00861851,-0.01505181,0
 .00316569,-0.01791395,0.01178683,0.00602014,-0.01453933,-0.00491591,-0
 .01395223,-0.00864307,0.00610399,0.01384361,-0.00338489,0.00210328,0.0
 0347281,0.00897592,0.00402508,-0.01614318,0.01313661,-0.00352956,0.012
 55344,0.02026957,-0.00960789,-0.00343781,-0.01421084,0.00782422,0.0012
 7501,0.02022972,-0.01173865,0.00049716,-0.01688280,0.00881281,0.002198
 48,0.01832526,-0.00779315,-0.00527720\\\@


 IF YOU PERCEIVE THAT THERE ARE FOUR POSSIBLE WAYS IN
 WHICH A PROCEDURE CAN GO WRONG AND CIRCUMVENT THESE, 
 THEN A FIFTH WAY WILL DEVELOP.

                              -- MURPHY'S TWELFTH LAW
 Job cpu time:  0 days 13 hours 15 minutes 41.9 seconds.
 File lengths (MBytes):  RWF=   1324 Int=      0 D2E=      0 Chk=     19 Scr=      1
 Normal termination of Gaussian 09 at Thu Jan 21 18:19:15 2016.
Gaussian '09 finished on node011 at Thu Jan 21 18:19:15 EST 2016.
