Gaussian '09 started on node026 at Mon Feb  8 13:53:38 EST 2016.
 Entering Gaussian System, Link 0=/usr/local/gaussian/g09/g09
 Initial command:
 /usr/local/gaussian/g09/l1.exe /home/srmcgrat/thesis/gaussian/cellobiose/290/9000/1/2dfp/gaussian17169/Gau-17205.inp -scrdir=/home/srmcgrat/thesis/gaussian/cellobiose/290/9000/1/2dfp/gaussian17169/
 Entering Link 1 = /usr/local/gaussian/g09/l1.exe PID=     17207.
  
 Copyright (c) 1988,1990,1992,1993,1995,1998,2003,2009,2010,
            Gaussian, Inc.  All Rights Reserved.
  
 This is part of the Gaussian(R) 09 program.  It is based on
 the Gaussian(R) 03 system (copyright 2003, Gaussian, Inc.),
 the Gaussian(R) 98 system (copyright 1998, Gaussian, Inc.),
 the Gaussian(R) 94 system (copyright 1995, Gaussian, Inc.),
 the Gaussian 92(TM) system (copyright 1992, Gaussian, Inc.),
 the Gaussian 90(TM) system (copyright 1990, Gaussian, Inc.),
 the Gaussian 88(TM) system (copyright 1988, Gaussian, Inc.),
 the Gaussian 86(TM) system (copyright 1986, Carnegie Mellon
 University), and the Gaussian 82(TM) system (copyright 1983,
 Carnegie Mellon University). Gaussian is a federally registered
 trademark of Gaussian, Inc.
  
 This software contains proprietary and confidential information,
 including trade secrets, belonging to Gaussian, Inc.
  
 This software is provided under written license and may be
 used, copied, transmitted, or stored only in accord with that
 written license.
  
 The following legend is applicable only to US Government
 contracts under FAR:
  
                    RESTRICTED RIGHTS LEGEND
  
 Use, reproduction and disclosure by the US Government is
 subject to restrictions as set forth in subparagraphs (a)
 and (c) of the Commercial Computer Software - Restricted
 Rights clause in FAR 52.227-19.
  
 Gaussian, Inc.
 340 Quinnipiac St., Bldg. 40, Wallingford CT 06492
  
  
 ---------------------------------------------------------------
 Warning -- This program may not be used in any manner that
 competes with the business of Gaussian, Inc. or will provide
 assistance to any competitor of Gaussian, Inc.  The licensee
 of this program is prohibited from giving any competitor of
 Gaussian, Inc. access to this program.  By using this program,
 the user acknowledges that Gaussian, Inc. is engaged in the
 business of creating and licensing software in the field of
 computational chemistry and represents and warrants to the
 licensee that it is not a competitor of Gaussian, Inc. and that
 it will not use this program in any manner prohibited above.
 ---------------------------------------------------------------
  

 Cite this work as:
 Gaussian 09, Revision B.01,
 M. J. Frisch, G. W. Trucks, H. B. Schlegel, G. E. Scuseria, 
 M. A. Robb, J. R. Cheeseman, G. Scalmani, V. Barone, B. Mennucci, 
 G. A. Petersson, H. Nakatsuji, M. Caricato, X. Li, H. P. Hratchian, 
 A. F. Izmaylov, J. Bloino, G. Zheng, J. L. Sonnenberg, M. Hada, 
 M. Ehara, K. Toyota, R. Fukuda, J. Hasegawa, M. Ishida, T. Nakajima, 
 Y. Honda, O. Kitao, H. Nakai, T. Vreven, J. A. Montgomery, Jr., 
 J. E. Peralta, F. Ogliaro, M. Bearpark, J. J. Heyd, E. Brothers, 
 K. N. Kudin, V. N. Staroverov, T. Keith, R. Kobayashi, J. Normand, 
 K. Raghavachari, A. Rendell, J. C. Burant, S. S. Iyengar, J. Tomasi, 
 M. Cossi, N. Rega, J. M. Millam, M. Klene, J. E. Knox, J. B. Cross, 
 V. Bakken, C. Adamo, J. Jaramillo, R. Gomperts, R. E. Stratmann, 
 O. Yazyev, A. J. Austin, R. Cammi, C. Pomelli, J. W. Ochterski, 
 R. L. Martin, K. Morokuma, V. G. Zakrzewski, G. A. Voth, 
 P. Salvador, J. J. Dannenberg, S. Dapprich, A. D. Daniels, 
 O. Farkas, J. B. Foresman, J. V. Ortiz, J. Cioslowski, 
 and D. J. Fox, Gaussian, Inc., Wallingford CT, 2010.
 
 ******************************************
 Gaussian 09:  EM64L-G09RevB.01 12-Aug-2010
                 8-Feb-2016 
 ******************************************
 --------------------------------------------------
 # freq=raman b3lyp/6-31+g(2df,p) geom=connectivity
 --------------------------------------------------
 1/10=4,30=1,38=1,57=2/1,3;
 2/12=2,17=6,18=5,40=1/2;
 3/5=1,6=6,7=114,11=2,16=1,25=1,30=1,71=2,74=-5/1,2,3;
 4//1;
 5/5=2,38=5,98=1/2;
 8/6=4,10=90,11=11/1;
 10/13=10,15=4/2;
 11/6=3,8=1,9=11,15=111,16=1/1,2,10;
 10/6=1/2;
 6/7=2,8=2,9=2,10=2,18=1,28=1/1;
 7/8=1,10=1,25=1/1,2,3,16;
 1/10=4,30=1/3;
 99//99;
 ------------
 290 9000.com
 ------------
 Symbolic Z-matrix:
 Charge =  0 Multiplicity = 1
 O                     7.554     7.655     12.348 
 C                     8.065     8.002     13.644 
 C                     7.628     9.391     14.077 
 O                     7.741     10.438    13.102 
 H                     7.347     10.073    12.258 
 C                     8.244     9.753     15.419 
 O                     7.945     10.999    16.065 
 H                     8.246     11.125    17.01 
 C                     8.273     5.549     14.319 
 O                     7.775     4.937     13.121 
 H                     7.9       3.947     13.187 
 C                     7.708     6.921     14.652 
 O                     8.199     7.331     15.936 
 C                     7.894     8.652     16.406 
 O                     8.794     8.77      17.517 
 C                     8.354     8.394     18.83 
 C                     8.708     6.973     19.239 
 O                     8.307     5.974     18.291 
 H                     8.508     6.37      17.395 
 C                     8.255     6.608     20.643 
 O                     8.742     5.343     21.114 
 H                     8.29      5.216     21.996 
 C                     8.411     10.776    19.698 
 O                     8.836     11.5      18.535 
 H                     8.828     12.479    18.74 
 C                     8.82      9.331     19.932 
 O                     8.308     8.942     21.215 
 C                     8.745     7.644     21.641 
 O                     8.20556   7.35694   22.93387 
 H                     8.28593   7.49434   11.74794 
 H                     9.13208   8.01943   13.56702 
 H                     6.57831   9.30412   14.26544 
 H                     6.64198   6.84483   14.70404 
 H                     8.06174   4.89474   15.13889 
 H                     9.33528   5.64011   14.22871 
 H                     6.87559   8.72441   16.72616 
 H                     9.30509   9.72678   15.28369 
 H                     7.2855    8.44874   18.81566 
 H                     9.88842   9.28973   19.9729 
 H                     8.74476   11.33334   20.54822 
 H                     7.34126   10.79918   19.70281 
 H                     9.7772    6.93825   19.26135 
 H                     7.18531   6.59168   20.6631 
 H                     9.81386   7.62199   21.68529 
 H                     8.92308   7.21869   23.55649 
 

 GradGradGradGradGradGradGradGradGradGradGradGradGradGradGradGradGradGrad
 Berny optimization.
 Initialization pass.
 Trust Radius=3.00D-01 FncErr=1.00D-07 GrdErr=1.00D-07
 Number of steps in this run=      2 maximum allowed number of steps=      2.
 GradGradGradGradGradGradGradGradGradGradGradGradGradGradGradGradGradGrad

                          Input orientation:                          
 ---------------------------------------------------------------------
 Center     Atomic      Atomic             Coordinates (Angstroms)
 Number     Number       Type             X           Y           Z
 ---------------------------------------------------------------------
      1          8           0        7.554000    7.655000   12.348000
      2          6           0        8.065000    8.002000   13.644000
      3          6           0        7.628000    9.391000   14.077000
      4          8           0        7.741000   10.438000   13.102000
      5          1           0        7.347000   10.073000   12.258000
      6          6           0        8.244000    9.753000   15.419000
      7          8           0        7.945000   10.999000   16.065000
      8          1           0        8.246000   11.125000   17.010000
      9          6           0        8.273000    5.549000   14.319000
     10          8           0        7.775000    4.937000   13.121000
     11          1           0        7.900000    3.947000   13.187000
     12          6           0        7.708000    6.921000   14.652000
     13          8           0        8.199000    7.331000   15.936000
     14          6           0        7.894000    8.652000   16.406000
     15          8           0        8.794000    8.770000   17.517000
     16          6           0        8.354000    8.394000   18.830000
     17          6           0        8.708000    6.973000   19.239000
     18          8           0        8.307000    5.974000   18.291000
     19          1           0        8.508000    6.370000   17.395000
     20          6           0        8.255000    6.608000   20.643000
     21          8           0        8.742000    5.343000   21.114000
     22          1           0        8.290000    5.216000   21.996000
     23          6           0        8.411000   10.776000   19.698000
     24          8           0        8.836000   11.500000   18.535000
     25          1           0        8.828000   12.479000   18.740000
     26          6           0        8.820000    9.331000   19.932000
     27          8           0        8.308000    8.942000   21.215000
     28          6           0        8.745000    7.644000   21.641000
     29          8           0        8.205561    7.356937   22.933865
     30          1           0        8.285926    7.494336   11.747940
     31          1           0        9.132085    8.019428   13.567016
     32          1           0        6.578313    9.304125   14.265439
     33          1           0        6.641985    6.844825   14.704043
     34          1           0        8.061737    4.894744   15.138888
     35          1           0        9.335284    5.640110   14.228713
     36          1           0        6.875591    8.724409   16.726156
     37          1           0        9.305085    9.726780   15.283685
     38          1           0        7.285497    8.448741   18.815663
     39          1           0        9.888421    9.289735   19.972901
     40          1           0        8.744755   11.333339   20.548224
     41          1           0        7.341262   10.799183   19.702813
     42          1           0        9.777202    6.938253   19.261355
     43          1           0        7.185313    6.591676   20.663104
     44          1           0        9.813856    7.621993   21.685292
     45          1           0        8.923075    7.218691   23.556490
 ---------------------------------------------------------------------
                    Distance matrix (angstroms):
                    1          2          3          4          5
     1  O    0.000000
     2  C    1.435669   0.000000
     3  C    2.451247   1.519138   0.000000
     4  O    2.889390   2.516513   1.435132   0.000000
     5  H    2.428513   2.593369   1.962867   1.000398   0.000000
     6  C    3.782690   2.499733   1.520350   2.467939   3.301353
     7  O    5.015108   3.854562   2.576489   3.022533   3.963373
     8  H    5.852692   4.595198   3.462827   3.999932   4.949385
     9  C    2.972716   2.552665   3.903275   5.066205   5.056854
    10  O    2.834412   3.122796   4.557813   5.501138   5.225557
    11  H    3.817447   4.084005   5.522972   6.493503   6.220669
    12  C    2.422992   1.520551   2.537307   3.843550   3.974501
    13  O    3.659883   2.391958   2.832935   4.230221   4.666064
    14  C    4.192490   2.842602   2.457869   3.758939   4.418637
    15  O    5.431334   4.015146   3.684942   4.835624   5.607914
    16  C    6.572857   5.208818   4.910407   6.112584   6.857425
    17  C    7.020165   5.725060   5.801669   7.113655   7.758652
    18  O    6.221898   5.076018   5.467607   6.868287   7.356663
    19  H    5.294672   4.114569   4.572742   5.963788   6.438082
    20  C    8.390151   7.139001   7.158951   8.473475   9.118054
    21  O    9.143273   7.957984   8.194307   9.547417  10.136452
    22  H    9.978693   8.807288   8.976605  10.328307  10.922836
    23  C    8.031039   6.668261   5.841828   6.638551   7.548503
    24  O    7.396385   6.062370   5.077490   5.643081   6.607131
    25  H    8.108743   6.826047   5.720080   6.093791   7.070963
    26  C    7.869485   6.471106   5.975407   7.002756   7.849240
    27  O    8.991584   7.633000   7.184361   8.269237   9.079126
    28  C    9.369015   8.033839   7.843073   9.040408   9.792606
    29  O   10.610085   9.313295   9.105770  10.313794  11.049354
    30  H    0.960000   1.975240   3.074853   3.285663   2.791281
    31  H    2.027106   1.070000   2.098467   2.828577   3.019472
    32  H    2.710747   2.071703   1.070000   1.997775   2.282950
    33  H    2.653129   2.118423   2.801502   4.084762   4.111117
    34  H    3.958013   3.448151   4.640265   5.914345   5.968644
    35  H    3.281743   2.744820   4.123956   5.179862   5.242852
    36  H    4.557645   3.381753   2.833459   4.101199   4.690985
    37  H    3.997101   2.683514   2.093192   2.777039   3.620599
    38  H    6.521717   5.249124   4.843562   6.067173   6.756105
    39  H    8.140086   6.711045   6.315173   7.289665   8.160394
    40  H    9.065967   7.695986   6.848107   7.566730   8.501176
    41  H    8.001526   6.712469   5.806459   6.622762   7.480148
    42  H    7.297317   5.968071   6.124751   7.371024   8.048571
    43  H    8.390920   7.213230   7.170004   8.501370   9.098986
    44  H    9.606928   8.238038   8.111317   9.268200  10.048216
    45  H   11.300220   9.980347   9.811059  11.002618  11.759548
                    6          7          8          9         10
     6  C    0.000000
     7  O    1.435003   0.000000
     8  H    2.100873   0.999751   0.000000
     9  C    4.345625   5.732242   6.191445   0.000000
    10  O    5.356736   6.741208   7.323763   1.434487   0.000000
    11  H    6.229751   7.616798   8.139946   1.996737   1.000040
    12  C    2.982584   4.322363   4.850075   1.520690   2.506932
    13  O    2.476974   3.679046   3.943364   2.407424   3.719575
    14  C    1.519497   2.372191   2.569912   3.758699   4.960505
    15  O    2.381259   2.792409   2.470502   4.568751   5.920732
    16  C    3.673405   3.820802   3.283660   5.333827   6.699162
    17  C    4.747220   5.183157   4.735081   5.140370   6.515037
    18  O    4.746914   5.507880   5.308247   3.994817   5.299745
    19  H    3.926698   4.849073   4.777750   3.192341   4.567040
    20  C    6.097649   6.350989   5.796728   6.412081   7.720306
    21  O    7.220050   7.623513   7.107767   6.814281   8.061512
    22  H    7.990207   8.290891   7.731650   7.684238   8.894307
    23  C    4.402756   3.669547   2.715579   7.501614   8.817899
    24  O    3.621040   2.673160   1.677602   7.314781   8.573802
    25  H    4.336032   3.182093   2.272650   8.238821   9.463812
    26  C    4.569139   4.301341   3.476492   6.790324   8.172453
    27  O    5.852814   5.557474   4.738286   7.685603   9.046378
    28  C    6.588791   6.556508   5.814854   7.630432   8.992172
    29  O    7.887699   7.779063   7.020834   8.802788  10.116017
    30  H    4.310453   5.570988   6.393168   3.224104   2.947254
    31  H    2.687715   4.065334   4.720578   2.721492   3.397348
    32  H    2.075260   2.824687   3.691799   4.120169   4.670501
    33  H    3.396336   4.561493   5.119590   2.118403   2.725719
    34  H    4.869737   6.175213   6.507773   1.070000   2.038597
    35  H    4.418546   5.832885   6.245488   1.070000   2.038597
    36  H    2.153880   2.598947   2.778745   4.222603   5.305710
    37  H    1.070000   2.019611   2.461066   4.410177   5.473606
    38  H    3.762598   3.808532   3.368285   5.440923   6.708288
    39  H    4.863821   4.687234   3.852860   6.969167   8.388170
    40  H    5.390470   4.566256   3.579273   8.513775   9.849733
    41  H    4.501165   3.692981   2.859362   7.577467   8.824601
    42  H    5.003719   5.483002   4.994200   5.349721   6.761493
    43  H    6.214130   6.414374   5.917876   6.520575   7.743967
    44  H    6.802356   6.817953   6.048767   7.806010   9.203978
    45  H    8.550006   8.448064   7.653379   9.409659  10.743540
                   11         12         13         14         15
    11  H    0.000000
    12  C    3.320808   0.000000
    13  O    4.370110   1.434516   0.000000
    14  C    5.700791   2.471330   1.434910   0.000000
    15  O    6.542894   3.578606   2.219078   1.434658   0.000000
    16  C    7.198984   4.476911   3.086945   2.480714   1.434902
    17  C    6.814414   4.695026   3.361109   3.392274   2.490359
    18  O    5.506832   3.807615   2.720136   3.300830   2.941745
    19  H    4.893655   2.909923   1.774171   2.561765   2.420058
    20  C    7.924575   6.024057   4.762532   4.718096   3.838833
    21  O    8.092905   6.731767   5.573031   5.816687   4.968445
    22  H    8.908476   7.561751   6.419120   6.573508   5.739893
    23  C    9.449311   6.388846   5.105449   3.951700   2.987890
    24  O    9.301882   6.108790   4.953901   3.678466   2.913930
    25  H   10.222134   6.989815   5.895758   4.578847   3.905581
    26  C    8.679221   5.909572   4.511503   3.708260   2.479440
    27  O    9.463893   6.893287   5.520421   4.835491   3.733763
    28  C    9.265633   7.102409   5.739609   5.398656   4.275237
    29  O   10.330654   8.308243   6.997916   6.662378   5.628982
    30  H    3.847522   3.016003   4.192145   4.815736   5.930220
    31  H    4.271664   2.100417   2.637549   3.161144   4.034852
    32  H    5.622159   2.665503   3.051331   2.595823   3.970794
    33  H    3.504485   1.070000   2.044109   2.780302   4.031153
    34  H    2.175832   2.113742   2.567016   3.968713   4.605349
    35  H    2.451902   2.113742   2.658022   3.986146   4.571874
    36  H    6.033132   2.871814   2.077823   1.070000   2.075525
    37  H    6.306838   3.289698   2.718217   2.099025   2.482807
    38  H    7.233612   4.455176   3.221225   2.493605   2.016262
    39  H    8.862680   6.219094   4.794514   4.136086   2.738491
    40  H   10.462277   7.437006   6.131001   5.007133   3.970069
    41  H    9.472086   6.378520   5.191617   3.973020   3.317500
    42  H    7.026327   5.052529   3.701751   3.825759   2.713809
    43  H    7.962237   6.042767   4.890774   4.782270   4.151017
    44  H    9.454596   7.375176   5.978862   5.711189   4.442148
    45  H   10.921400   8.991939   7.655636   7.364976   6.236879
                   16         17         18         19         20
    16  C    0.000000
    17  C    1.520473   0.000000
    18  O    2.479744   1.434401   0.000000
    19  H    2.485863   1.950370   1.000016   0.000000
    20  C    2.546874   1.519753   2.436507   3.266521   0.000000
    21  O    3.830901   2.484689   2.925186   3.865287   1.435003
    22  H    4.486350   3.295880   3.781782   4.748520   1.941520
    23  C    2.535862   3.842096   5.004964   4.972530   4.276632
    24  O    3.156990   4.583201   5.556622   5.265366   5.358441
    25  H    4.113393   5.529868   6.541259   6.263490   6.198256
    26  C    1.519713   2.460276   3.771671   3.911679   2.870449
    27  O    2.447579   2.818073   4.166389   4.609510   2.403653
    28  C    2.935490   2.494236   3.768719   4.439342   1.519671
    29  O    4.235474   3.748584   4.845513   5.634229   2.410687
    30  H    7.139300   7.521032   6.717403   5.762181   8.939163
    31  H    5.333359   5.783274   5.213498   4.214683   7.268490
    32  H    4.981627   5.891181   5.503020   4.703927   7.124159
    33  H    4.728050   4.985046   4.049305   3.308885   6.158662
    34  H    5.094558   4.641952   3.340772   2.732320   5.767828
    35  H    5.451484   5.222362   4.203692   3.352986   6.576238
    36  H    2.592493   3.569249   3.473099   2.941998   4.660861
    37  H    3.906049   4.856370   4.911566   4.044869   6.289016
    38  H    1.070000   2.092974   2.728201   2.798922   2.769011
    39  H    2.112585   2.701716   4.040270   4.132311   3.210732
    40  H    3.427053   4.552798   5.831741   5.885032   4.751596
    41  H    2.751790   4.089349   5.119400   5.128834   4.391456
    42  H    2.081050   1.070000   2.008200   2.327459   2.082092
    43  H    2.823911   2.119447   2.695660   3.532583   1.070000
    44  H    3.298464   2.761966   4.062969   4.656109   2.131804
    45  H    4.903560   4.329820   5.445566   6.233500   3.050851
                   21         22         23         24         25
    21  O    0.000000
    22  H    0.999178   0.000000
    23  C    5.624243   6.017395   0.000000
    24  O    6.675981   7.194810   1.434354   0.000000
    25  H    7.521022   7.977603   1.997964   1.000265   0.000000
    26  C    4.160211   4.634029   1.519889   2.580005   3.366130
    27  O    3.626480   3.807015   2.382321   3.742265   4.348148
    28  C    2.360580   2.495643   3.700842   4.952197   5.639141
    29  O    2.766879   2.338874   4.712008   6.075561   6.649170
    30  H    9.620776  10.498265   8.601652   7.900134   8.604047
    31  H    8.017007   8.922784   6.760741   6.073130   6.836667
    32  H    8.202124   8.910904   5.919280   5.305485   5.929808
    33  H    6.910361   7.651252   6.597208   6.415652   7.267155
    34  H    6.030394   6.868427   7.449608   7.467427   8.430665
    35  H    6.917184   7.848773   7.559416   7.289150   8.208500
    36  H    5.845561   6.486967   3.924075   3.849549   4.686621
    37  H    7.316226   8.150626   4.624546   3.733015   4.443921
    38  H    4.129089   4.644802   2.731558   3.434095   4.316020
    39  H    4.265338   4.821120   2.113606   2.839088   3.579937
    40  H    6.016998   6.302753   1.070000   2.022170   2.142229
    41  H    5.807189   6.109889   1.070000   2.022170   2.441144
    42  H    2.654952   3.557557   4.097007   4.714127   5.645589
    43  H    2.045916   2.211205   4.465681   5.598682   6.407600
    44  H    2.582452   2.864870   3.983101   5.091117   5.765169
    45  H    3.084925   2.616617   5.273008   6.599435   7.132914
                   26         27         28         29         30
    26  C    0.000000
    27  O    1.435115   0.000000
    28  C    2.402556   1.434311   0.000000
    29  O    3.644949   2.340388   1.430000   0.000000
    30  H    8.404606   9.577131   9.904836  11.187058   0.000000
    31  H    6.506200   7.747381   8.091971   9.435846   2.073824
    32  H    6.093914   7.170728   7.864442   9.032225   3.539644
    33  H    6.185172   7.040335   7.292649   8.392676   3.444263
    34  H    6.574896   7.304797   7.092441   8.175864   4.278629
    35  H    6.812905   7.795255   7.701040   8.944465   3.270098
    36  H    3.798172   4.716870   5.368208   6.494186   5.318342
    37  H    4.690286   6.065522   6.713205   8.083957   4.303950
    38  H    2.092674   2.654361   3.280287   4.358686   7.201698
    39  H    1.070000   2.039966   2.607376   3.915997   8.569798
    40  H    2.096367   2.520684   3.847776   4.668381   9.612152
    41  H    2.096367   2.582716   3.960079   4.799559   8.665703
    42  H    2.662938   3.160741   2.688165   4.016551   7.680139
    43  H    3.272707   2.662525   2.120445   2.604397   9.028084
    44  H    2.642439   2.056987   1.070000   2.053242  10.054940
    45  H    4.196356   2.971647   1.970203   0.960000  11.828939
                   31         32         33         34         35
    31  H    0.000000
    32  H    2.942786   0.000000
    33  H    2.978778   2.498916   0.000000
    34  H    3.657879   4.733509   2.451042   0.000000
    35  H    2.477961   4.585548   2.988501   1.733756   0.000000
    36  H    3.945748   2.545500   2.770623   4.311925   4.669070
    37  H    2.427330   2.941216   3.966580   4.991539   4.220753
    38  H    5.580546   4.683624   4.460054   5.172245   5.755880
    39  H    6.574275   6.597890   6.654157   6.783834   6.827989
    40  H    7.737525   6.948710   7.663084   8.436998   8.526301
    41  H    6.970085   5.690547   6.411992   7.497393   7.781898
    42  H    5.831862   6.386659   5.532396   4.910548   5.216124
    43  H    7.495523   6.975381   5.989132   5.845054   6.850492
    44  H    8.156541   8.267558   7.707308   7.305013   7.730295
    45  H   10.023694   9.806659   9.149260   8.774888   9.469386
                   36         37         38         39         40
    36  H    0.000000
    37  H    2.997985   0.000000
    38  H    2.147104   4.264621   0.000000
    39  H    4.465209   4.745528   2.970132   0.000000
    40  H    4.990841   5.532664   3.667711   2.411490   0.000000
    41  H    3.658145   4.953316   2.512911   2.973113   1.723321
    42  H    4.246991   4.880639   2.947678   2.459296   4.694546
    43  H    4.488211   6.577269   2.621405   3.881069   4.992837
    44  H    5.868709   6.757924   3.912912   2.391486   4.026163
    45  H    7.287855   8.653077   5.164312   4.250085   5.100175
                   41         42         43         44         45
    41  H    0.000000
    42  H    4.586444   0.000000
    43  H    4.318518   2.966969   0.000000
    44  H    4.487592   2.518792   3.002609   0.000000
    45  H    5.492985   4.388207   3.432877   2.111285   0.000000
 Stoichiometry    C12H22O11
 Framework group  C1[X(C12H22O11)]
 Deg. of freedom   129
 Full point group                 C1      NOp   1
 Largest Abelian subgroup         C1      NOp   1
 Largest concise Abelian subgroup C1      NOp   1
                         Standard orientation:                         
 ---------------------------------------------------------------------
 Center     Atomic      Atomic             Coordinates (Angstroms)
 Number     Number       Type             X           Y           Z
 ---------------------------------------------------------------------
      1          8           0        5.016031   -0.496233   -0.225145
      2          6           0        3.679839   -0.141005    0.161573
      3          6           0        3.293427    1.244739   -0.326462
      4          8           0        4.257516    2.290345   -0.134513
      5          1           0        5.132829    1.919394   -0.445995
      6          6           0        1.901858    1.616109    0.160450
      7          8           0        1.290211    2.860743   -0.208340
      8          1           0        0.322036    2.992050    0.003550
      9          6           0        2.980296   -2.590153    0.330122
     10          8           0        4.216809   -3.209995   -0.050117
     11          1           0        4.136272   -4.198557    0.077709
     12          6           0        2.705135   -1.222910   -0.276040
     13          8           0        1.382940   -0.804911    0.091265
     14          6           0        0.947356    0.514220   -0.268078
     15          8           0       -0.241042    0.643798    0.525121
     16          6           0       -1.509462    0.266810   -0.029799
     17          6           0       -1.954003   -1.149631    0.298705
     18          8           0       -0.976640   -2.154878   -0.004187
     19          1           0       -0.101492   -1.759181    0.274333
     20          6           0       -3.311811   -1.515518   -0.277607
     21          8           0       -3.829750   -2.774512    0.176165
     22          1           0       -4.667041   -2.903711   -0.353560
     23          6           0       -2.370943    2.651424   -0.075253
     24          8           0       -1.249335    3.376624    0.447673
     25          1           0       -1.449416    4.356010    0.411610
     26          6           0       -2.646344    1.211083    0.324288
     27          8           0       -3.878336    0.820316   -0.299452
     28          6           0       -4.346995   -0.472277    0.108972
     29          8           0       -5.585949   -0.761356   -0.543964
     30          1           0        5.545939   -0.651240    0.560201
     31          1           0        3.658765   -0.113340    1.231008
     32          1           0        3.201685    1.148080   -1.388131
     33          1           0        2.750747   -1.309371   -1.341565
     34          1           0        2.181003   -3.244384    0.050815
     35          1           0        2.973159   -2.488891    1.395296
     36          1           0        0.722126    0.577473   -1.312190
     37          1           0        1.939271    1.599923    1.229673
     38          1           0       -1.397077    0.311068   -1.092960
     39          1           0       -2.785128    1.180366    1.384805
     40          1           0       -3.246279    3.214130    0.173842
     41          1           0       -2.277621    2.664161   -1.141099
     42          1           0       -2.074369   -1.173868    1.361637
     43          1           0       -3.233855   -1.542247   -1.344429
     44          1           0       -4.489130   -0.483724    1.169427
     45          1           0       -6.272176   -0.891018    0.114732
 ---------------------------------------------------------------------
 Rotational constants (GHZ):      0.4027038      0.1457089      0.1091048
 Standard basis: 6-31+G(2df,p) (6D, 7F)
 There are   846 symmetry adapted basis functions of A   symmetry.
 Integral buffers will be    131072 words long.
 Raffenetti 2 integral format.
 Two-electron integral symmetry is turned on.
   846 basis functions,  1258 primitive gaussians,   915 cartesian basis functions
    91 alpha electrons       91 beta electrons
       nuclear repulsion energy      2282.4387191763 Hartrees.
 NAtoms=   45 NActive=   45 NUniq=   45 SFac= 1.00D+00 NAtFMM=   50 NAOKFM=F Big=F
 One-electron integrals computed using PRISM.
 NBasis=   846 RedAO= T  NBF=   846
 NBsUse=   846 1.00D-06 NBFU=   846
 Harris functional with IExCor=  402 diagonalized for initial guess.
 ExpMin= 4.38D-02 ExpMax= 5.48D+03 ExpMxC= 8.25D+02 IAcc=2 IRadAn=         0 AccDes= 0.00D+00
 HarFok:  IExCor=  402 AccDes= 0.00D+00 IRadAn=         0 IDoV= 1
 ScaDFX=  1.000000  1.000000  1.000000  1.000000
 FoFCou: FMM=F IPFlag=           0 FMFlag=      100000 FMFlg1=           0
         NFxFlg=           0 DoJE=T BraDBF=F KetDBF=T FulRan=T
         Omega=  0.000000  0.000000  1.000000  0.000000  0.000000 ICntrl=     500 IOpCl=  0
         NMat0=    1 NMatS0=    1 NMatT0=    0 NMatD0=    1 NMtDS0=    0 NMtDT0=    0
         I1Cent=           4 NGrid=           0.
 Petite list used in FoFCou.
 Initial guess orbital symmetries:
       Occupied  (A) (A) (A) (A) (A) (A) (A) (A) (A) (A) (A) (A)
                 (A) (A) (A) (A) (A) (A) (A) (A) (A) (A) (A) (A)
                 (A) (A) (A) (A) (A) (A) (A) (A) (A) (A) (A) (A)
                 (A) (A) (A) (A) (A) (A) (A) (A) (A) (A) (A) (A)
                 (A) (A) (A) (A) (A) (A) (A) (A) (A) (A) (A) (A)
                 (A) (A) (A) (A) (A) (A) (A) (A) (A) (A) (A) (A)
                 (A) (A) (A) (A) (A) (A) (A) (A) (A) (A) (A) (A)
                 (A) (A) (A) (A) (A) (A) (A)
       Virtual   (A) (A) (A) (A) (A) (A) (A) (A) (A) (A) (A) (A)
                 (A) (A) (A) (A) (A) (A) (A) (A) (A) (A) (A) (A)
                 (A) (A) (A) (A) (A) (A) (A) (A) (A) (A) (A) (A)
                 (A) (A) (A) (A) (A) (A) (A) (A) (A) (A) (A) (A)
                 (A) (A) (A) (A) (A) (A) (A) (A) (A) (A) (A) (A)
                 (A) (A) (A) (A) (A) (A) (A) (A) (A) (A) (A) (A)
                 (A) (A) (A) (A) (A) (A) (A) (A) (A) (A) (A) (A)
                 (A) (A) (A) (A) (A) (A) (A) (A) (A) (A) (A) (A)
                 (A) (A) (A) (A) (A) (A) (A) (A) (A) (A) (A) (A)
                 (A) (A) (A) (A) (A) (A) (A) (A) (A) (A) (A) (A)
                 (A) (A) (A) (A) (A) (A) (A) (A) (A) (A) (A) (A)
                 (A) (A) (A) (A) (A) (A) (A) (A) (A) (A) (A) (A)
                 (A) (A) (A) (A) (A) (A) (A) (A) (A) (A) (A) (A)
                 (A) (A) (A) (A) (A) (A) (A) (A) (A) (A) (A) (A)
                 (A) (A) (A) (A) (A) (A) (A) (A) (A) (A) (A) (A)
                 (A) (A) (A) (A) (A) (A) (A) (A) (A) (A) (A) (A)
                 (A) (A) (A) (A) (A) (A) (A) (A) (A) (A) (A) (A)
                 (A) (A) (A) (A) (A) (A) (A) (A) (A) (A) (A) (A)
                 (A) (A) (A) (A) (A) (A) (A) (A) (A) (A) (A) (A)
                 (A) (A) (A) (A) (A) (A) (A) (A) (A) (A) (A) (A)
                 (A) (A) (A) (A) (A) (A) (A) (A) (A) (A) (A) (A)
                 (A) (A) (A) (A) (A) (A) (A) (A) (A) (A) (A) (A)
                 (A) (A) (A) (A) (A) (A) (A) (A) (A) (A) (A) (A)
                 (A) (A) (A) (A) (A) (A) (A) (A) (A) (A) (A) (A)
                 (A) (A) (A) (A) (A) (A) (A) (A) (A) (A) (A) (A)
                 (A) (A) (A) (A) (A) (A) (A) (A) (A) (A) (A) (A)
                 (A) (A) (A) (A) (A) (A) (A) (A) (A) (A) (A) (A)
                 (A) (A) (A) (A) (A) (A) (A) (A) (A) (A) (A) (A)
                 (A) (A) (A) (A) (A) (A) (A) (A) (A) (A) (A) (A)
                 (A) (A) (A) (A) (A) (A) (A) (A) (A) (A) (A) (A)
                 (A) (A) (A) (A) (A) (A) (A) (A) (A) (A) (A) (A)
                 (A) (A) (A) (A) (A) (A) (A) (A) (A) (A) (A) (A)
                 (A) (A) (A) (A) (A) (A) (A) (A) (A) (A) (A) (A)
                 (A) (A) (A) (A) (A) (A) (A) (A) (A) (A) (A) (A)
                 (A) (A) (A) (A) (A) (A) (A) (A) (A) (A) (A) (A)
                 (A) (A) (A) (A) (A) (A) (A) (A) (A) (A) (A) (A)
                 (A) (A) (A) (A) (A) (A) (A) (A) (A) (A) (A) (A)
                 (A) (A) (A) (A) (A) (A) (A) (A) (A) (A) (A) (A)
                 (A) (A) (A) (A) (A) (A) (A) (A) (A) (A) (A) (A)
                 (A) (A) (A) (A) (A) (A) (A) (A) (A) (A) (A) (A)
                 (A) (A) (A) (A) (A) (A) (A) (A) (A) (A) (A) (A)
                 (A) (A) (A) (A) (A) (A) (A) (A) (A) (A) (A) (A)
                 (A) (A) (A) (A) (A) (A) (A) (A) (A) (A) (A) (A)
                 (A) (A) (A) (A) (A) (A) (A) (A) (A) (A) (A) (A)
                 (A) (A) (A) (A) (A) (A) (A) (A) (A) (A) (A) (A)
                 (A) (A) (A) (A) (A) (A) (A) (A) (A) (A) (A) (A)
                 (A) (A) (A) (A) (A) (A) (A) (A) (A) (A) (A) (A)
                 (A) (A) (A) (A) (A) (A) (A) (A) (A) (A) (A) (A)
                 (A) (A) (A) (A) (A) (A) (A) (A) (A) (A) (A) (A)
                 (A) (A) (A) (A) (A) (A) (A) (A) (A) (A) (A) (A)
                 (A) (A) (A) (A) (A) (A) (A) (A) (A) (A) (A) (A)
                 (A) (A) (A) (A) (A) (A) (A) (A) (A) (A) (A) (A)
                 (A) (A) (A) (A) (A) (A) (A) (A) (A) (A) (A) (A)
                 (A) (A) (A) (A) (A) (A) (A) (A) (A) (A) (A) (A)
                 (A) (A) (A) (A) (A) (A) (A) (A) (A) (A) (A) (A)
                 (A) (A) (A) (A) (A) (A) (A) (A) (A) (A) (A) (A)
                 (A) (A) (A) (A) (A) (A) (A) (A) (A) (A) (A) (A)
                 (A) (A) (A) (A) (A) (A) (A) (A) (A) (A) (A) (A)
                 (A) (A) (A) (A) (A) (A) (A) (A) (A) (A) (A) (A)
                 (A) (A) (A) (A) (A) (A) (A) (A) (A) (A) (A) (A)
                 (A) (A) (A) (A) (A) (A) (A) (A) (A) (A) (A) (A)
                 (A) (A) (A) (A) (A) (A) (A) (A) (A) (A) (A) (A)
                 (A) (A) (A) (A) (A) (A) (A) (A) (A) (A) (A)
 The electronic state of the initial guess is 1-A.
 Requested convergence on RMS density matrix=1.00D-08 within 128 cycles.
 Requested convergence on MAX density matrix=1.00D-06.
 Requested convergence on             energy=1.00D-06.
 No special actions if energy rises.
 SCF Done:  E(RB3LYP) =  -1298.01848414     A.U. after   13 cycles
             Convg  =    0.3747D-08             -V/T =  2.0067
 Range of M.O.s used for correlation:     1   846
 NBasis=   846 NAE=    91 NBE=    91 NFC=     0 NFV=     0
 NROrb=    846 NOA=    91 NOB=    91 NVA=   755 NVB=   755

 **** Warning!!: The largest alpha MO coefficient is  0.72072385D+02

          Differentiating once with respect to electric field.
                with respect to dipole field.
          Electric field/nuclear overlap derivatives assumed to be zero.
          There are     3 degrees of freedom in the 1st order CPHF.  IDoFFX=0.
      3 vectors produced by pass  0 Test12= 2.29D-12 3.33D-08 XBig12= 1.23D+02 1.26D+00.
 AX will form     3 AO Fock derivatives at one time.
      3 vectors produced by pass  1 Test12= 2.29D-12 3.33D-08 XBig12= 2.19D+01 3.80D-01.
      3 vectors produced by pass  2 Test12= 2.29D-12 3.33D-08 XBig12= 9.38D+00 1.99D-01.
      3 vectors produced by pass  3 Test12= 2.29D-12 3.33D-08 XBig12= 1.01D+00 9.28D-02.
      3 vectors produced by pass  4 Test12= 2.29D-12 3.33D-08 XBig12= 2.56D-01 4.26D-02.
      3 vectors produced by pass  5 Test12= 2.29D-12 3.33D-08 XBig12= 6.00D-02 1.91D-02.
      3 vectors produced by pass  6 Test12= 2.29D-12 3.33D-08 XBig12= 1.85D-02 1.44D-02.
      3 vectors produced by pass  7 Test12= 2.29D-12 3.33D-08 XBig12= 2.76D-03 7.45D-03.
      3 vectors produced by pass  8 Test12= 2.29D-12 3.33D-08 XBig12= 5.05D-04 2.05D-03.
      3 vectors produced by pass  9 Test12= 2.29D-12 3.33D-08 XBig12= 1.66D-04 1.11D-03.
      3 vectors produced by pass 10 Test12= 2.29D-12 3.33D-08 XBig12= 3.51D-05 3.15D-04.
      3 vectors produced by pass 11 Test12= 2.29D-12 3.33D-08 XBig12= 8.10D-06 2.55D-04.
      3 vectors produced by pass 12 Test12= 2.29D-12 3.33D-08 XBig12= 9.06D-07 8.24D-05.
      3 vectors produced by pass 13 Test12= 2.29D-12 3.33D-08 XBig12= 2.55D-07 3.56D-05.
      3 vectors produced by pass 14 Test12= 2.29D-12 3.33D-08 XBig12= 4.61D-08 1.85D-05.
      3 vectors produced by pass 15 Test12= 2.29D-12 3.33D-08 XBig12= 1.80D-08 1.29D-05.
      3 vectors produced by pass 16 Test12= 2.29D-12 3.33D-08 XBig12= 2.00D-09 3.28D-06.
      3 vectors produced by pass 17 Test12= 2.29D-12 3.33D-08 XBig12= 2.57D-10 1.35D-06.
      3 vectors produced by pass 18 Test12= 2.29D-12 3.33D-08 XBig12= 2.27D-11 2.67D-07.
      2 vectors produced by pass 19 Test12= 2.29D-12 3.33D-08 XBig12= 9.74D-12 2.08D-07.
      2 vectors produced by pass 20 Test12= 2.29D-12 3.33D-08 XBig12= 4.99D-12 1.74D-07.
      2 vectors produced by pass 21 Test12= 2.29D-12 3.33D-08 XBig12= 2.30D-12 1.02D-07.
      2 vectors produced by pass 22 Test12= 2.29D-12 3.33D-08 XBig12= 5.02D-13 5.58D-08.
 Inverted reduced A of dimension    65 with in-core refinement.
 End of Minotr Frequency-dependent properties file   721 does not exist.
 End of Minotr Frequency-dependent properties file   722 does not exist.
 Symmetrizing basis deriv contribution to polar:
 IMax=3 JMax=2 DiffMx= 0.00D+00
 G2DrvN: will do     8 centers at a time, making    6 passes doing MaxLOS=3.
 Calling FoFCou, ICntrl=  3107 FMM=F I1Cent=   0 AccDes= 0.00D+00.
 Calling FoFCou, ICntrl=  3107 FMM=F I1Cent=   0 AccDes= 0.00D+00.
 Calling FoFCou, ICntrl=  3107 FMM=F I1Cent=   0 AccDes= 0.00D+00.
 Calling FoFCou, ICntrl=  3107 FMM=F I1Cent=   0 AccDes= 0.00D+00.
 Calling FoFCou, ICntrl=  3107 FMM=F I1Cent=   0 AccDes= 0.00D+00.
 Calling FoFCou, ICntrl=  3107 FMM=F I1Cent=   0 AccDes= 0.00D+00.
 FoFDir/FoFCou used for L=0 through L=3.
 End of G2Drv Frequency-dependent properties file   721 does not exist.
 End of G2Drv Frequency-dependent properties file   722 does not exist.
          IDoAtm=111111111111111111111111111111111111111111111
          Differentiating once with respect to electric field.
                with respect to dipole field.
          Differentiating once with respect to nuclear coordinates.
          There are   138 degrees of freedom in the 1st order CPHF.  IDoFFX=5.
 Will reuse    3 saved solutions.
    135 vectors produced by pass  0 Test12= 6.87D-14 1.00D-09 XBig12= 1.57D-01 5.91D-02.
 AX will form    27 AO Fock derivatives at one time.
    135 vectors produced by pass  1 Test12= 6.87D-14 1.00D-09 XBig12= 2.17D-02 1.62D-02.
    132 vectors produced by pass  2 Test12= 6.87D-14 1.00D-09 XBig12= 1.39D-04 1.16D-03.
    132 vectors produced by pass  3 Test12= 6.87D-14 1.00D-09 XBig12= 7.56D-07 8.32D-05.
    132 vectors produced by pass  4 Test12= 6.87D-14 1.00D-09 XBig12= 1.97D-09 3.91D-06.
    132 vectors produced by pass  5 Test12= 6.87D-14 1.00D-09 XBig12= 5.08D-12 1.29D-07.
     92 vectors produced by pass  6 Test12= 6.87D-14 1.00D-09 XBig12= 1.82D-13 2.78D-08.
 Inverted reduced A of dimension   890 with in-core refinement.
 Isotropic polarizability for W=    0.000000      192.77 Bohr**3.
 End of Minotr Frequency-dependent properties file   721 does not exist.
 End of Minotr Frequency-dependent properties file   722 does not exist.

 **********************************************************************

            Population analysis using the SCF density.

 **********************************************************************

 Orbital symmetries:
       Occupied  (A) (A) (A) (A) (A) (A) (A) (A) (A) (A) (A) (A)
                 (A) (A) (A) (A) (A) (A) (A) (A) (A) (A) (A) (A)
                 (A) (A) (A) (A) (A) (A) (A) (A) (A) (A) (A) (A)
                 (A) (A) (A) (A) (A) (A) (A) (A) (A) (A) (A) (A)
                 (A) (A) (A) (A) (A) (A) (A) (A) (A) (A) (A) (A)
                 (A) (A) (A) (A) (A) (A) (A) (A) (A) (A) (A) (A)
                 (A) (A) (A) (A) (A) (A) (A) (A) (A) (A) (A) (A)
                 (A) (A) (A) (A) (A) (A) (A)
       Virtual   (A) (A) (A) (A) (A) (A) (A) (A) (A) (A) (A) (A)
                 (A) (A) (A) (A) (A) (A) (A) (A) (A) (A) (A) (A)
                 (A) (A) (A) (A) (A) (A) (A) (A) (A) (A) (A) (A)
                 (A) (A) (A) (A) (A) (A) (A) (A) (A) (A) (A) (A)
                 (A) (A) (A) (A) (A) (A) (A) (A) (A) (A) (A) (A)
                 (A) (A) (A) (A) (A) (A) (A) (A) (A) (A) (A) (A)
                 (A) (A) (A) (A) (A) (A) (A) (A) (A) (A) (A) (A)
                 (A) (A) (A) (A) (A) (A) (A) (A) (A) (A) (A) (A)
                 (A) (A) (A) (A) (A) (A) (A) (A) (A) (A) (A) (A)
                 (A) (A) (A) (A) (A) (A) (A) (A) (A) (A) (A) (A)
                 (A) (A) (A) (A) (A) (A) (A) (A) (A) (A) (A) (A)
                 (A) (A) (A) (A) (A) (A) (A) (A) (A) (A) (A) (A)
                 (A) (A) (A) (A) (A) (A) (A) (A) (A) (A) (A) (A)
                 (A) (A) (A) (A) (A) (A) (A) (A) (A) (A) (A) (A)
                 (A) (A) (A) (A) (A) (A) (A) (A) (A) (A) (A) (A)
                 (A) (A) (A) (A) (A) (A) (A) (A) (A) (A) (A) (A)
                 (A) (A) (A) (A) (A) (A) (A) (A) (A) (A) (A) (A)
                 (A) (A) (A) (A) (A) (A) (A) (A) (A) (A) (A) (A)
                 (A) (A) (A) (A) (A) (A) (A) (A) (A) (A) (A) (A)
                 (A) (A) (A) (A) (A) (A) (A) (A) (A) (A) (A) (A)
                 (A) (A) (A) (A) (A) (A) (A) (A) (A) (A) (A) (A)
                 (A) (A) (A) (A) (A) (A) (A) (A) (A) (A) (A) (A)
                 (A) (A) (A) (A) (A) (A) (A) (A) (A) (A) (A) (A)
                 (A) (A) (A) (A) (A) (A) (A) (A) (A) (A) (A) (A)
                 (A) (A) (A) (A) (A) (A) (A) (A) (A) (A) (A) (A)
                 (A) (A) (A) (A) (A) (A) (A) (A) (A) (A) (A) (A)
                 (A) (A) (A) (A) (A) (A) (A) (A) (A) (A) (A) (A)
                 (A) (A) (A) (A) (A) (A) (A) (A) (A) (A) (A) (A)
                 (A) (A) (A) (A) (A) (A) (A) (A) (A) (A) (A) (A)
                 (A) (A) (A) (A) (A) (A) (A) (A) (A) (A) (A) (A)
                 (A) (A) (A) (A) (A) (A) (A) (A) (A) (A) (A) (A)
                 (A) (A) (A) (A) (A) (A) (A) (A) (A) (A) (A) (A)
                 (A) (A) (A) (A) (A) (A) (A) (A) (A) (A) (A) (A)
                 (A) (A) (A) (A) (A) (A) (A) (A) (A) (A) (A) (A)
                 (A) (A) (A) (A) (A) (A) (A) (A) (A) (A) (A) (A)
                 (A) (A) (A) (A) (A) (A) (A) (A) (A) (A) (A) (A)
                 (A) (A) (A) (A) (A) (A) (A) (A) (A) (A) (A) (A)
                 (A) (A) (A) (A) (A) (A) (A) (A) (A) (A) (A) (A)
                 (A) (A) (A) (A) (A) (A) (A) (A) (A) (A) (A) (A)
                 (A) (A) (A) (A) (A) (A) (A) (A) (A) (A) (A) (A)
                 (A) (A) (A) (A) (A) (A) (A) (A) (A) (A) (A) (A)
                 (A) (A) (A) (A) (A) (A) (A) (A) (A) (A) (A) (A)
                 (A) (A) (A) (A) (A) (A) (A) (A) (A) (A) (A) (A)
                 (A) (A) (A) (A) (A) (A) (A) (A) (A) (A) (A) (A)
                 (A) (A) (A) (A) (A) (A) (A) (A) (A) (A) (A) (A)
                 (A) (A) (A) (A) (A) (A) (A) (A) (A) (A) (A) (A)
                 (A) (A) (A) (A) (A) (A) (A) (A) (A) (A) (A) (A)
                 (A) (A) (A) (A) (A) (A) (A) (A) (A) (A) (A) (A)
                 (A) (A) (A) (A) (A) (A) (A) (A) (A) (A) (A) (A)
                 (A) (A) (A) (A) (A) (A) (A) (A) (A) (A) (A) (A)
                 (A) (A) (A) (A) (A) (A) (A) (A) (A) (A) (A) (A)
                 (A) (A) (A) (A) (A) (A) (A) (A) (A) (A) (A) (A)
                 (A) (A) (A) (A) (A) (A) (A) (A) (A) (A) (A) (A)
                 (A) (A) (A) (A) (A) (A) (A) (A) (A) (A) (A) (A)
                 (A) (A) (A) (A) (A) (A) (A) (A) (A) (A) (A) (A)
                 (A) (A) (A) (A) (A) (A) (A) (A) (A) (A) (A) (A)
                 (A) (A) (A) (A) (A) (A) (A) (A) (A) (A) (A) (A)
                 (A) (A) (A) (A) (A) (A) (A) (A) (A) (A) (A) (A)
                 (A) (A) (A) (A) (A) (A) (A) (A) (A) (A) (A) (A)
                 (A) (A) (A) (A) (A) (A) (A) (A) (A) (A) (A) (A)
                 (A) (A) (A) (A) (A) (A) (A) (A) (A) (A) (A) (A)
                 (A) (A) (A) (A) (A) (A) (A) (A) (A) (A) (A) (A)
                 (A) (A) (A) (A) (A) (A) (A) (A) (A) (A) (A)
 The electronic state is 1-A.
 Alpha  occ. eigenvalues --  -19.19344 -19.18684 -19.18277 -19.18206 -19.17951
 Alpha  occ. eigenvalues --  -19.16670 -19.16412 -19.15816 -19.15459 -19.13525
 Alpha  occ. eigenvalues --  -19.12732 -10.30624 -10.30586 -10.26591 -10.25727
 Alpha  occ. eigenvalues --  -10.25582 -10.25568 -10.25191 -10.24505 -10.24495
 Alpha  occ. eigenvalues --  -10.24433 -10.24428 -10.24071  -1.09885  -1.09164
 Alpha  occ. eigenvalues --   -1.05905  -1.04976  -1.04120  -1.03477  -1.02723
 Alpha  occ. eigenvalues --   -1.02536  -1.01731  -1.00396  -0.99361  -0.82348
 Alpha  occ. eigenvalues --   -0.80572  -0.79418  -0.78589  -0.72035  -0.70079
 Alpha  occ. eigenvalues --   -0.67284  -0.64625  -0.63058  -0.62936  -0.61188
 Alpha  occ. eigenvalues --   -0.60131  -0.56368  -0.56182  -0.55384  -0.54712
 Alpha  occ. eigenvalues --   -0.54144  -0.53361  -0.52888  -0.51751  -0.51072
 Alpha  occ. eigenvalues --   -0.50607  -0.49904  -0.49813  -0.48823  -0.46818
 Alpha  occ. eigenvalues --   -0.46209  -0.45358  -0.44701  -0.43864  -0.43426
 Alpha  occ. eigenvalues --   -0.42609  -0.41661  -0.41403  -0.40155  -0.39217
 Alpha  occ. eigenvalues --   -0.38674  -0.37962  -0.37647  -0.36379  -0.35644
 Alpha  occ. eigenvalues --   -0.34958  -0.34882  -0.34701  -0.33752  -0.33250
 Alpha  occ. eigenvalues --   -0.32462  -0.31580  -0.30954  -0.30260  -0.29936
 Alpha  occ. eigenvalues --   -0.29210  -0.28972  -0.27891  -0.27316  -0.26615
 Alpha  occ. eigenvalues --   -0.26318
 Alpha virt. eigenvalues --   -0.02242  -0.01790  -0.01755  -0.00010   0.00377
 Alpha virt. eigenvalues --    0.01139   0.01937   0.02057   0.03126   0.03300
 Alpha virt. eigenvalues --    0.03740   0.04409   0.04771   0.05408   0.05579
 Alpha virt. eigenvalues --    0.06349   0.06572   0.07184   0.07681   0.08171
 Alpha virt. eigenvalues --    0.08623   0.08793   0.09058   0.09832   0.09988
 Alpha virt. eigenvalues --    0.10539   0.10941   0.11186   0.11712   0.12161
 Alpha virt. eigenvalues --    0.12630   0.12738   0.13172   0.13384   0.13719
 Alpha virt. eigenvalues --    0.13930   0.14238   0.14719   0.14804   0.15222
 Alpha virt. eigenvalues --    0.15440   0.16466   0.16734   0.16977   0.17289
 Alpha virt. eigenvalues --    0.17423   0.17577   0.17671   0.18301   0.18627
 Alpha virt. eigenvalues --    0.18838   0.18983   0.19446   0.19787   0.20030
 Alpha virt. eigenvalues --    0.20413   0.20787   0.21186   0.21486   0.21709
 Alpha virt. eigenvalues --    0.22071   0.22534   0.22692   0.22907   0.23306
 Alpha virt. eigenvalues --    0.23592   0.23948   0.24008   0.24304   0.24781
 Alpha virt. eigenvalues --    0.25110   0.25180   0.25737   0.25830   0.25935
 Alpha virt. eigenvalues --    0.26204   0.26560   0.26868   0.26990   0.27382
 Alpha virt. eigenvalues --    0.27541   0.27795   0.27925   0.28648   0.28741
 Alpha virt. eigenvalues --    0.28898   0.29283   0.29761   0.30151   0.30504
 Alpha virt. eigenvalues --    0.30892   0.31365   0.31642   0.31908   0.32284
 Alpha virt. eigenvalues --    0.32553   0.32807   0.33102   0.33406   0.33607
 Alpha virt. eigenvalues --    0.33801   0.34189   0.34532   0.34871   0.35485
 Alpha virt. eigenvalues --    0.35750   0.36263   0.36576   0.37054   0.37619
 Alpha virt. eigenvalues --    0.37809   0.37986   0.38065   0.38957   0.39317
 Alpha virt. eigenvalues --    0.39708   0.40235   0.40405   0.40886   0.41299
 Alpha virt. eigenvalues --    0.41597   0.42320   0.42816   0.43085   0.43691
 Alpha virt. eigenvalues --    0.44170   0.45177   0.45882   0.46066   0.46549
 Alpha virt. eigenvalues --    0.47384   0.47752   0.47980   0.49238   0.49702
 Alpha virt. eigenvalues --    0.50359   0.50513   0.53906   0.57196   0.58549
 Alpha virt. eigenvalues --    0.58855   0.59314   0.59923   0.60903   0.62239
 Alpha virt. eigenvalues --    0.62423   0.63118   0.63348   0.64292   0.65542
 Alpha virt. eigenvalues --    0.65933   0.66295   0.67581   0.68074   0.69289
 Alpha virt. eigenvalues --    0.70094   0.71128   0.71579   0.72781   0.73084
 Alpha virt. eigenvalues --    0.73577   0.74674   0.75526   0.75869   0.76378
 Alpha virt. eigenvalues --    0.77311   0.77759   0.78782   0.79528   0.81390
 Alpha virt. eigenvalues --    0.81772   0.82212   0.82934   0.83790   0.83957
 Alpha virt. eigenvalues --    0.86131   0.86731   0.87086   0.87982   0.88612
 Alpha virt. eigenvalues --    0.89273   0.90294   0.90736   0.91085   0.91914
 Alpha virt. eigenvalues --    0.92113   0.92504   0.93069   0.93481   0.93805
 Alpha virt. eigenvalues --    0.94211   0.94387   0.94619   0.95153   0.95413
 Alpha virt. eigenvalues --    0.96260   0.96949   0.97218   0.97775   0.98651
 Alpha virt. eigenvalues --    0.99206   0.99537   1.00076   1.00979   1.01356
 Alpha virt. eigenvalues --    1.02567   1.03146   1.04166   1.04818   1.05057
 Alpha virt. eigenvalues --    1.05545   1.05674   1.06859   1.07357   1.08124
 Alpha virt. eigenvalues --    1.08483   1.08751   1.09821   1.10315   1.10673
 Alpha virt. eigenvalues --    1.11281   1.11864   1.12252   1.13705   1.13940
 Alpha virt. eigenvalues --    1.14913   1.15118   1.15615   1.15970   1.16705
 Alpha virt. eigenvalues --    1.16887   1.17453   1.18282   1.19214   1.19516
 Alpha virt. eigenvalues --    1.19636   1.20460   1.20864   1.21282   1.22055
 Alpha virt. eigenvalues --    1.22321   1.23034   1.23572   1.24022   1.24854
 Alpha virt. eigenvalues --    1.25293   1.25368   1.26369   1.26747   1.27415
 Alpha virt. eigenvalues --    1.27930   1.28515   1.29256   1.30004   1.30691
 Alpha virt. eigenvalues --    1.31444   1.32451   1.33170   1.33257   1.34193
 Alpha virt. eigenvalues --    1.34497   1.35311   1.36042   1.36164   1.36643
 Alpha virt. eigenvalues --    1.37088   1.37852   1.38201   1.38947   1.39802
 Alpha virt. eigenvalues --    1.40667   1.40828   1.41401   1.42138   1.42766
 Alpha virt. eigenvalues --    1.43201   1.44168   1.44357   1.45571   1.46577
 Alpha virt. eigenvalues --    1.47506   1.47956   1.48233   1.48804   1.50067
 Alpha virt. eigenvalues --    1.51320   1.52089   1.53509   1.54422   1.54580
 Alpha virt. eigenvalues --    1.56001   1.56088   1.57318   1.57469   1.58460
 Alpha virt. eigenvalues --    1.59898   1.60446   1.61484   1.61957   1.62383
 Alpha virt. eigenvalues --    1.63273   1.64854   1.65196   1.65801   1.65880
 Alpha virt. eigenvalues --    1.67097   1.68003   1.68972   1.70723   1.71055
 Alpha virt. eigenvalues --    1.71547   1.72660   1.74171   1.74988   1.76121
 Alpha virt. eigenvalues --    1.76903   1.77065   1.79021   1.79383   1.80434
 Alpha virt. eigenvalues --    1.81718   1.82659   1.83335   1.84693   1.85737
 Alpha virt. eigenvalues --    1.86550   1.87764   1.88966   1.89749   1.90288
 Alpha virt. eigenvalues --    1.91207   1.91515   1.92968   1.94763   1.95241
 Alpha virt. eigenvalues --    1.95749   1.96559   1.97526   2.00124   2.00821
 Alpha virt. eigenvalues --    2.02046   2.02943   2.03180   2.03787   2.05605
 Alpha virt. eigenvalues --    2.05929   2.07415   2.09958   2.11805   2.14480
 Alpha virt. eigenvalues --    2.15428   2.16246   2.17323   2.18887   2.19956
 Alpha virt. eigenvalues --    2.21085   2.21316   2.23589   2.24801   2.25161
 Alpha virt. eigenvalues --    2.26014   2.28998   2.29547   2.29937   2.31277
 Alpha virt. eigenvalues --    2.32300   2.34751   2.37380   2.39466   2.42198
 Alpha virt. eigenvalues --    2.44063   2.45445   2.46290   2.47486   2.48843
 Alpha virt. eigenvalues --    2.51207   2.51713   2.52377   2.54495   2.55392
 Alpha virt. eigenvalues --    2.56035   2.56939   2.57635   2.59199   2.59540
 Alpha virt. eigenvalues --    2.61874   2.62257   2.62303   2.64236   2.65007
 Alpha virt. eigenvalues --    2.66052   2.67710   2.68370   2.71262   2.72753
 Alpha virt. eigenvalues --    2.73495   2.74719   2.75701   2.76789   2.79067
 Alpha virt. eigenvalues --    2.79671   2.80562   2.81061   2.82615   2.83387
 Alpha virt. eigenvalues --    2.84207   2.84704   2.86238   2.87727   2.88316
 Alpha virt. eigenvalues --    2.89202   2.89808   2.90618   2.91679   2.92232
 Alpha virt. eigenvalues --    2.93317   2.94196   2.95177   2.96046   2.97162
 Alpha virt. eigenvalues --    2.97766   2.99291   3.00186   3.02249   3.02704
 Alpha virt. eigenvalues --    3.03704   3.03995   3.04415   3.05411   3.06522
 Alpha virt. eigenvalues --    3.07917   3.09259   3.09791   3.09859   3.11124
 Alpha virt. eigenvalues --    3.12841   3.13581   3.14562   3.15523   3.16990
 Alpha virt. eigenvalues --    3.18224   3.19969   3.21196   3.22450   3.24202
 Alpha virt. eigenvalues --    3.25094   3.25169   3.25883   3.26792   3.28160
 Alpha virt. eigenvalues --    3.29508   3.30320   3.30942   3.32677   3.34140
 Alpha virt. eigenvalues --    3.35252   3.35821   3.37450   3.38723   3.38966
 Alpha virt. eigenvalues --    3.39554   3.41033   3.41180   3.42780   3.44308
 Alpha virt. eigenvalues --    3.45950   3.48055   3.48217   3.50329   3.52417
 Alpha virt. eigenvalues --    3.52950   3.54536   3.56892   3.57675   3.59936
 Alpha virt. eigenvalues --    3.60375   3.62973   3.63658   3.64689   3.67834
 Alpha virt. eigenvalues --    3.68692   3.69231   3.70701   3.72235   3.74925
 Alpha virt. eigenvalues --    3.76214   3.76949   3.78189   3.80084   3.80939
 Alpha virt. eigenvalues --    3.82153   3.83101   3.83435   3.84688   3.85439
 Alpha virt. eigenvalues --    3.87182   3.88237   3.89496   3.89744   3.92133
 Alpha virt. eigenvalues --    3.92976   3.94322   3.98441   3.99120   4.03040
 Alpha virt. eigenvalues --    4.05547   4.06795   4.07809   4.10540   4.14789
 Alpha virt. eigenvalues --    4.15147   4.16549   4.16931   4.18626   4.19713
 Alpha virt. eigenvalues --    4.20939   4.21305   4.23348   4.23485   4.24216
 Alpha virt. eigenvalues --    4.26682   4.27586   4.28397   4.30506   4.30814
 Alpha virt. eigenvalues --    4.31017   4.31746   4.32624   4.33381   4.34994
 Alpha virt. eigenvalues --    4.35614   4.36112   4.36920   4.38654   4.39011
 Alpha virt. eigenvalues --    4.40944   4.41114   4.41692   4.42549   4.43916
 Alpha virt. eigenvalues --    4.44445   4.45286   4.46173   4.47222   4.48480
 Alpha virt. eigenvalues --    4.49289   4.49852   4.50060   4.50629   4.51724
 Alpha virt. eigenvalues --    4.52577   4.53165   4.53411   4.53756   4.54822
 Alpha virt. eigenvalues --    4.55484   4.55934   4.56655   4.57267   4.58216
 Alpha virt. eigenvalues --    4.58934   4.59382   4.59543   4.60597   4.61033
 Alpha virt. eigenvalues --    4.62509   4.62776   4.63454   4.64641   4.65211
 Alpha virt. eigenvalues --    4.65475   4.66079   4.67032   4.67961   4.68127
 Alpha virt. eigenvalues --    4.69141   4.69445   4.70980   4.71023   4.71952
 Alpha virt. eigenvalues --    4.72168   4.72773   4.73386   4.73825   4.75004
 Alpha virt. eigenvalues --    4.75560   4.76590   4.77929   4.78491   4.78914
 Alpha virt. eigenvalues --    4.79235   4.80078   4.81282   4.81837   4.82736
 Alpha virt. eigenvalues --    4.83039   4.84284   4.84471   4.84557   4.86007
 Alpha virt. eigenvalues --    4.86811   4.87856   4.88981   4.89149   4.90333
 Alpha virt. eigenvalues --    4.91664   4.92628   4.92972   4.93893   4.95729
 Alpha virt. eigenvalues --    4.97104   4.97896   4.98915   5.00494   5.01169
 Alpha virt. eigenvalues --    5.02386   5.04945   5.05713   5.07043   5.07577
 Alpha virt. eigenvalues --    5.10574   5.13685   5.14761   5.15108   5.17454
 Alpha virt. eigenvalues --    5.19063   5.19616   5.20517   5.21760   5.22668
 Alpha virt. eigenvalues --    5.24578   5.26340   5.27105   5.28815   5.29342
 Alpha virt. eigenvalues --    5.31004   5.31417   5.32562   5.34015   5.34542
 Alpha virt. eigenvalues --    5.35762   5.36555   5.38668   5.38716   5.39581
 Alpha virt. eigenvalues --    5.40719   5.40912   5.41642   5.42260   5.43976
 Alpha virt. eigenvalues --    5.44289   5.45650   5.46379   5.46911   5.47584
 Alpha virt. eigenvalues --    5.48598   5.49212   5.49780   5.51305   5.52318
 Alpha virt. eigenvalues --    5.53256   5.53845   5.55272   5.55441   5.58304
 Alpha virt. eigenvalues --    5.58434   5.60850   5.61242   5.62339   5.65042
 Alpha virt. eigenvalues --    5.66032   5.68845   5.70165   5.71100   5.73295
 Alpha virt. eigenvalues --    5.74555   5.78274   5.78657   5.81145   5.82561
 Alpha virt. eigenvalues --    5.83903   5.85267   5.88155   5.89340   5.89947
 Alpha virt. eigenvalues --    5.91104   5.92123   5.92621   5.93494   5.94850
 Alpha virt. eigenvalues --    5.95556   5.97229   5.97530   6.00167   6.00369
 Alpha virt. eigenvalues --    6.01359   6.02232   6.03786   6.04205   6.05724
 Alpha virt. eigenvalues --    6.06953   6.08958   6.09155   6.10635   6.12511
 Alpha virt. eigenvalues --    6.14054   6.16763   6.18254   6.20288   6.21839
 Alpha virt. eigenvalues --    6.22888   6.25428   6.27438   6.33469   6.36458
 Alpha virt. eigenvalues --    6.53477   6.63658   6.99347   7.04768   7.10103
 Alpha virt. eigenvalues --    7.14591   7.17167   7.22612   7.25026   7.27200
 Alpha virt. eigenvalues --    7.31962   7.35523   7.49746   7.54967   7.68093
 Alpha virt. eigenvalues --    7.81380   8.00388  12.01622  12.14773  12.21720
 Alpha virt. eigenvalues --   12.28828  12.46245  12.56248  12.81428  12.94117
 Alpha virt. eigenvalues --   12.98816  13.09185  13.26469  13.35669  13.42436
 Alpha virt. eigenvalues --   13.47121  13.49647  13.51269  13.58550  13.60211
 Alpha virt. eigenvalues --   13.62993  13.81896  13.85072  14.07725  14.28577
          Condensed to atoms (all electrons):
              1          2          3          4          5          6
     1  O    8.063002   0.342595  -0.100965  -0.008610   0.016970   0.012660
     2  C    0.342595   6.914434  -0.296633  -0.001287  -0.066964  -0.950870
     3  C   -0.100965  -0.296633   6.808351   0.265387   0.006566   0.423736
     4  O   -0.008610  -0.001287   0.265387   8.070859   0.243631  -0.151527
     5  H    0.016970  -0.066964   0.006566   0.243631   0.413416   0.033123
     6  C    0.012660  -0.950870   0.423736  -0.151527   0.033123   7.145829
     7  O   -0.000382   0.016294  -0.128048   0.010926  -0.000625   0.307982
     8  H    0.000010  -0.001287   0.010589  -0.000291   0.000008  -0.015104
     9  C   -0.002243   0.033915  -0.186843   0.007481  -0.002589   0.079329
    10  O   -0.020951   0.020499   0.010279  -0.000087  -0.000006  -0.002729
    11  H    0.002081  -0.010543  -0.000645   0.000000   0.000000   0.000075
    12  C   -0.140647  -0.705066  -0.296213   0.024169   0.005306   0.134091
    13  O    0.000246  -0.110128   0.004742  -0.000822  -0.000098   0.022519
    14  C    0.009306   0.435447  -0.237492   0.006032   0.005838  -1.222859
    15  O   -0.000479   0.000924   0.007032   0.000409  -0.000014  -0.036131
    16  C    0.000582   0.081221  -0.164151  -0.002704   0.000621  -0.084167
    17  C    0.000549  -0.050181   0.000973   0.000125   0.000026   0.072127
    18  O    0.000024   0.010324  -0.002105  -0.000006   0.000000  -0.001384
    19  H   -0.000022  -0.003647   0.002809   0.000005   0.000000   0.001572
    20  C    0.000042   0.004249  -0.002348  -0.000057   0.000001   0.062982
    21  O    0.000000  -0.000010   0.000005   0.000000   0.000000  -0.000099
    22  H    0.000000  -0.000001   0.000001   0.000000   0.000000  -0.000018
    23  C    0.000034   0.006328  -0.007263  -0.000277   0.000008  -0.026370
    24  O   -0.000002   0.000038   0.000084  -0.000049  -0.000002  -0.005883
    25  H    0.000000   0.000082   0.000648   0.000003   0.000000   0.001122
    26  C   -0.000057   0.002467  -0.040856   0.000574   0.000002   0.017767
    27  O    0.000000  -0.000146   0.000226   0.000001   0.000000   0.001071
    28  C    0.000000  -0.001023   0.000478   0.000013   0.000000  -0.016937
    29  O    0.000000   0.000006   0.000004   0.000000   0.000000  -0.000204
    30  H    0.277418   0.014332  -0.019822   0.000281  -0.001387   0.001590
    31  H   -0.008922   0.302906  -0.049169   0.001929   0.000098  -0.000351
    32  H    0.002797  -0.033137   0.217469  -0.022344  -0.003530  -0.102550
    33  H    0.005026   0.075724  -0.055657   0.000277   0.000018  -0.012573
    34  H   -0.000397  -0.009482   0.000522   0.000007   0.000000  -0.001537
    35  H    0.002279   0.021865  -0.004415   0.000014   0.000000   0.005646
    36  H   -0.000041  -0.013249  -0.026625   0.000073   0.000006   0.028875
    37  H   -0.000243   0.005222  -0.111844   0.002305  -0.000175   0.319241
    38  H   -0.000001  -0.001652   0.003223   0.000005   0.000000   0.018451
    39  H    0.000000  -0.000133   0.000919   0.000000   0.000000  -0.002836
    40  H    0.000000  -0.000019   0.000133   0.000000   0.000000   0.001626
    41  H    0.000000   0.000038  -0.000216   0.000000   0.000000  -0.005181
    42  H    0.000000   0.000590   0.000310   0.000000   0.000000   0.008579
    43  H    0.000000   0.000137  -0.000057   0.000000   0.000000   0.000514
    44  H    0.000000   0.000008   0.000002   0.000000   0.000000  -0.000118
    45  H    0.000000   0.000000   0.000000   0.000000   0.000000   0.000005
              7          8          9         10         11         12
     1  O   -0.000382   0.000010  -0.002243  -0.020951   0.002081  -0.140647
     2  C    0.016294  -0.001287   0.033915   0.020499  -0.010543  -0.705066
     3  C   -0.128048   0.010589  -0.186843   0.010279  -0.000645  -0.296213
     4  O    0.010926  -0.000291   0.007481  -0.000087   0.000000   0.024169
     5  H   -0.000625   0.000008  -0.002589  -0.000006   0.000000   0.005306
     6  C    0.307982  -0.015104   0.079329  -0.002729   0.000075   0.134091
     7  O    8.154507   0.260052  -0.000017   0.000001   0.000000   0.007585
     8  H    0.260052   0.307840  -0.000177   0.000000   0.000000  -0.002461
     9  C   -0.000017  -0.000177   6.521108   0.124717  -0.021166  -0.943457
    10  O    0.000001   0.000000   0.124717   8.146786   0.233182  -0.007417
    11  H    0.000000   0.000000  -0.021166   0.233182   0.428866   0.031389
    12  C    0.007585  -0.002461  -0.943457  -0.007417   0.031389   8.583495
    13  O    0.001604   0.000175  -0.008282   0.001895  -0.000686   0.061323
    14  C   -0.049717  -0.040796  -0.286724   0.008683  -0.001929  -0.629746
    15  O    0.003768   0.008681  -0.011765   0.000038  -0.000001  -0.002476
    16  C    0.025218   0.026247  -0.058543  -0.000682  -0.000109   0.085684
    17  C   -0.000414   0.001878   0.000024   0.000181   0.000028  -0.091339
    18  O   -0.000033  -0.000019  -0.001098  -0.000137  -0.000005  -0.017952
    19  H   -0.000082  -0.000003   0.006510   0.000029  -0.000003  -0.008614
    20  C    0.001186   0.000865   0.002970   0.000020   0.000008  -0.016781
    21  O   -0.000002   0.000000   0.000097   0.000000   0.000000   0.000082
    22  H    0.000000   0.000000   0.000004   0.000000   0.000000  -0.000006
    23  C    0.021794   0.016519  -0.001956  -0.000003   0.000000  -0.007195
    24  O   -0.038045  -0.011567   0.000203   0.000000   0.000000   0.002285
    25  H    0.002760  -0.001779  -0.000009   0.000000   0.000000  -0.000185
    26  C   -0.023751  -0.027956   0.015957   0.000004  -0.000001   0.013990
    27  O   -0.000001  -0.000047   0.000065   0.000000   0.000000   0.000183
    28  C   -0.000399  -0.000249   0.000299  -0.000001   0.000000   0.003186
    29  O    0.000000   0.000000  -0.000004   0.000000   0.000000   0.000009
    30  H   -0.000008   0.000000   0.004131  -0.000235  -0.000067  -0.009761
    31  H    0.000772  -0.000001  -0.025041  -0.001461  -0.000019  -0.049137
    32  H    0.004532  -0.000108   0.012054  -0.000172   0.000000   0.088766
    33  H    0.000135   0.000001   0.061854   0.001836  -0.000251   0.096075
    34  H   -0.000008   0.000000   0.398568  -0.016062  -0.011107  -0.025991
    35  H    0.000004   0.000000   0.564704  -0.050136   0.000022  -0.236257
    36  H   -0.002483   0.000204   0.012715   0.000038   0.000000   0.055773
    37  H   -0.033251  -0.001156   0.014470   0.000024   0.000000   0.074018
    38  H   -0.001532  -0.000122  -0.000592   0.000001   0.000000  -0.002047
    39  H   -0.000182  -0.000014   0.000017   0.000000   0.000000   0.000277
    40  H   -0.000593   0.000304  -0.000001   0.000000   0.000000   0.000043
    41  H    0.000975  -0.000203  -0.000012   0.000000   0.000000  -0.000201
    42  H   -0.000006  -0.000002  -0.001079   0.000000   0.000000  -0.001150
    43  H    0.000003   0.000000  -0.000079   0.000000   0.000000   0.000304
    44  H    0.000000   0.000000   0.000006   0.000000   0.000000   0.000042
    45  H    0.000000   0.000000   0.000000   0.000000   0.000000   0.000000
             13         14         15         16         17         18
     1  O    0.000246   0.009306  -0.000479   0.000582   0.000549   0.000024
     2  C   -0.110128   0.435447   0.000924   0.081221  -0.050181   0.010324
     3  C    0.004742  -0.237492   0.007032  -0.164151   0.000973  -0.002105
     4  O   -0.000822   0.006032   0.000409  -0.002704   0.000125  -0.000006
     5  H   -0.000098   0.005838  -0.000014   0.000621   0.000026   0.000000
     6  C    0.022519  -1.222859  -0.036131  -0.084167   0.072127  -0.001384
     7  O    0.001604  -0.049717   0.003768   0.025218  -0.000414  -0.000033
     8  H    0.000175  -0.040796   0.008681   0.026247   0.001878  -0.000019
     9  C   -0.008282  -0.286724  -0.011765  -0.058543   0.000024  -0.001098
    10  O    0.001895   0.008683   0.000038  -0.000682   0.000181  -0.000137
    11  H   -0.000686  -0.001929  -0.000001  -0.000109   0.000028  -0.000005
    12  C    0.061323  -0.629746  -0.002476   0.085684  -0.091339  -0.017952
    13  O    7.932398   0.221661  -0.017975  -0.039041   0.036560  -0.021601
    14  C    0.221661   8.365212   0.241872  -0.755334  -0.087194   0.005504
    15  O   -0.017975   0.241872   7.792362   0.247307  -0.036991  -0.006553
    16  C   -0.039041  -0.755334   0.247307  10.858128  -2.122743   0.018029
    17  C    0.036560  -0.087194  -0.036991  -2.122743   8.121559   0.244249
    18  O   -0.021601   0.005504  -0.006553   0.018029   0.244249   8.103155
    19  H    0.029509  -0.006214   0.012603  -0.080237   0.042463   0.231314
    20  C   -0.015727  -0.157723   0.006466  -1.075608   0.016552  -0.087084
    21  O   -0.000227   0.002368   0.000344   0.058280  -0.143765   0.007340
    22  H    0.000000  -0.000185  -0.000006  -0.012389   0.034989  -0.000423
    23  C    0.001466  -0.082264  -0.021390   0.232744  -0.219910   0.010497
    24  O   -0.001198   0.073430  -0.015945  -0.008013  -0.003260   0.000030
    25  H   -0.000012  -0.009643   0.002241  -0.010552  -0.000824  -0.000001
    26  C   -0.014840  -0.387456  -0.082302  -2.350504   0.132169  -0.000954
    27  O    0.000269   0.017159   0.003008   0.101814   0.006396  -0.001395
    28  C    0.000696   0.035214   0.007696   0.764050  -0.007515  -0.006447
    29  O    0.000026  -0.001376  -0.000037  -0.025577   0.000659   0.000265
    30  H   -0.000423  -0.000600  -0.000002   0.000093  -0.000053  -0.000001
    31  H    0.004944   0.072392   0.000591  -0.005306   0.002453   0.000042
    32  H    0.004670   0.041228   0.001998  -0.005163   0.000839   0.000072
    33  H   -0.024931   0.101807  -0.001957  -0.008185   0.007936  -0.000400
    34  H   -0.002658  -0.004421  -0.000198   0.003527  -0.000339  -0.000096
    35  H   -0.004034   0.002262  -0.000666  -0.005231   0.004022  -0.000151
    36  H   -0.037127   0.238825  -0.025596  -0.001938   0.005034  -0.001690
    37  H    0.008887  -0.011148  -0.010598  -0.024785  -0.001295   0.000118
    38  H   -0.004570  -0.062933  -0.026598   0.107184   0.040231  -0.003388
    39  H   -0.000321   0.024232  -0.002122   0.028168  -0.064800   0.000241
    40  H    0.000018   0.008073   0.000719   0.029187   0.005249   0.000010
    41  H    0.000011  -0.003040   0.001447   0.071220  -0.006051   0.000064
    42  H   -0.000931  -0.014816  -0.006563  -0.096814   0.290098  -0.026457
    43  H    0.000086  -0.009702   0.000417   0.067588  -0.164560   0.006701
    44  H    0.000015   0.000424   0.000495   0.036712  -0.028260   0.000691
    45  H    0.000000   0.000077  -0.000001   0.001064   0.006334  -0.000014
             19         20         21         22         23         24
     1  O   -0.000022   0.000042   0.000000   0.000000   0.000034  -0.000002
     2  C   -0.003647   0.004249  -0.000010  -0.000001   0.006328   0.000038
     3  C    0.002809  -0.002348   0.000005   0.000001  -0.007263   0.000084
     4  O    0.000005  -0.000057   0.000000   0.000000  -0.000277  -0.000049
     5  H    0.000000   0.000001   0.000000   0.000000   0.000008  -0.000002
     6  C    0.001572   0.062982  -0.000099  -0.000018  -0.026370  -0.005883
     7  O   -0.000082   0.001186  -0.000002   0.000000   0.021794  -0.038045
     8  H   -0.000003   0.000865   0.000000   0.000000   0.016519  -0.011567
     9  C    0.006510   0.002970   0.000097   0.000004  -0.001956   0.000203
    10  O    0.000029   0.000020   0.000000   0.000000  -0.000003   0.000000
    11  H   -0.000003   0.000008   0.000000   0.000000   0.000000   0.000000
    12  C   -0.008614  -0.016781   0.000082  -0.000006  -0.007195   0.002285
    13  O    0.029509  -0.015727  -0.000227   0.000000   0.001466  -0.001198
    14  C   -0.006214  -0.157723   0.002368  -0.000185  -0.082264   0.073430
    15  O    0.012603   0.006466   0.000344  -0.000006  -0.021390  -0.015945
    16  C   -0.080237  -1.075608   0.058280  -0.012389   0.232744  -0.008013
    17  C    0.042463   0.016552  -0.143765   0.034989  -0.219910  -0.003260
    18  O    0.231314  -0.087084   0.007340  -0.000423   0.010497   0.000030
    19  H    0.358842   0.009358  -0.000232   0.000012  -0.003964   0.000007
    20  C    0.009358   7.133746   0.214620  -0.020656   0.112064  -0.004567
    21  O   -0.000232   0.214620   8.076318   0.249765  -0.000875   0.000008
    22  H    0.000012  -0.020656   0.249765   0.415524  -0.000071   0.000000
    23  C   -0.003964   0.112064  -0.000875  -0.000071   6.453230   0.039157
    24  O    0.000007  -0.004567   0.000008   0.000000   0.039157   8.241637
    25  H    0.000000   0.000704   0.000000   0.000000  -0.021125   0.250783
    26  C    0.005013   0.671039  -0.022416   0.004281  -0.948548   0.043701
    27  O    0.000131  -0.136553   0.001751  -0.000437  -0.100530   0.003118
    28  C    0.003625  -0.839737   0.018441  -0.022266  -0.136413   0.004356
    29  O   -0.000003  -0.079629  -0.003618   0.012126   0.010267   0.000008
    30  H    0.000000   0.000000   0.000000   0.000000   0.000001   0.000000
    31  H   -0.000016   0.000016   0.000000   0.000000   0.000010   0.000010
    32  H    0.000001  -0.000039   0.000000   0.000000   0.000189   0.000050
    33  H    0.000138   0.000475   0.000000   0.000000   0.000040  -0.000001
    34  H    0.000956  -0.000787   0.000001   0.000000   0.000003   0.000000
    35  H    0.000118   0.000293   0.000000   0.000000  -0.000019   0.000000
    36  H    0.000299   0.010242  -0.000001   0.000000   0.001776  -0.000106
    37  H   -0.000005   0.000212   0.000000   0.000000   0.000890  -0.000227
    38  H    0.000416   0.058225  -0.000458   0.000008  -0.015864  -0.000019
    39  H    0.000028  -0.018965   0.000218   0.000002   0.079670   0.000858
    40  H    0.000000  -0.003129  -0.000004   0.000000   0.371811  -0.017322
    41  H    0.000000   0.001169   0.000001   0.000000   0.613184  -0.059657
    42  H   -0.003201   0.017595  -0.002563  -0.000158   0.013490  -0.000021
    43  H   -0.000101   0.322109  -0.020389  -0.006581   0.007344   0.000015
    44  H    0.000001  -0.100268   0.001773   0.000149   0.000204   0.000043
    45  H    0.000000  -0.009824  -0.002303  -0.001815  -0.000553  -0.000001
             25         26         27         28         29         30
     1  O    0.000000  -0.000057   0.000000   0.000000   0.000000   0.277418
     2  C    0.000082   0.002467  -0.000146  -0.001023   0.000006   0.014332
     3  C    0.000648  -0.040856   0.000226   0.000478   0.000004  -0.019822
     4  O    0.000003   0.000574   0.000001   0.000013   0.000000   0.000281
     5  H    0.000000   0.000002   0.000000   0.000000   0.000000  -0.001387
     6  C    0.001122   0.017767   0.001071  -0.016937  -0.000204   0.001590
     7  O    0.002760  -0.023751  -0.000001  -0.000399   0.000000  -0.000008
     8  H   -0.001779  -0.027956  -0.000047  -0.000249   0.000000   0.000000
     9  C   -0.000009   0.015957   0.000065   0.000299  -0.000004   0.004131
    10  O    0.000000   0.000004   0.000000  -0.000001   0.000000  -0.000235
    11  H    0.000000  -0.000001   0.000000   0.000000   0.000000  -0.000067
    12  C   -0.000185   0.013990   0.000183   0.003186   0.000009  -0.009761
    13  O   -0.000012  -0.014840   0.000269   0.000696   0.000026  -0.000423
    14  C   -0.009643  -0.387456   0.017159   0.035214  -0.001376  -0.000600
    15  O    0.002241  -0.082302   0.003008   0.007696  -0.000037  -0.000002
    16  C   -0.010552  -2.350504   0.101814   0.764050  -0.025577   0.000093
    17  C   -0.000824   0.132169   0.006396  -0.007515   0.000659  -0.000053
    18  O   -0.000001  -0.000954  -0.001395  -0.006447   0.000265  -0.000001
    19  H    0.000000   0.005013   0.000131   0.003625  -0.000003   0.000000
    20  C    0.000704   0.671039  -0.136553  -0.839737  -0.079629   0.000000
    21  O    0.000000  -0.022416   0.001751   0.018441  -0.003618   0.000000
    22  H    0.000000   0.004281  -0.000437  -0.022266   0.012126   0.000000
    23  C   -0.021125  -0.948548  -0.100530  -0.136413   0.010267   0.000001
    24  O    0.250783   0.043701   0.003118   0.004356   0.000008   0.000000
    25  H    0.399479   0.027171  -0.000644  -0.001053  -0.000001   0.000000
    26  C    0.027171   9.935992   0.100629  -0.898739  -0.010311  -0.000001
    27  O   -0.000644   0.100629   7.881514   0.265310  -0.015454   0.000000
    28  C   -0.001053  -0.898739   0.265310   6.046435   0.314613   0.000000
    29  O   -0.000001  -0.010311  -0.015454   0.314613   8.041059   0.000000
    30  H    0.000000  -0.000001   0.000000   0.000000   0.000000   0.394387
    31  H    0.000000  -0.000432   0.000000  -0.000001   0.000000  -0.013697
    32  H    0.000000  -0.000487   0.000000   0.000003   0.000000  -0.000135
    33  H    0.000000  -0.000228   0.000000  -0.000035   0.000000  -0.000209
    34  H    0.000000   0.000299   0.000000   0.000025   0.000000   0.000019
    35  H    0.000000   0.000094   0.000000  -0.000015   0.000000  -0.000253
    36  H    0.000008   0.018364   0.000143  -0.000895  -0.000002   0.000002
    37  H   -0.000005  -0.000675  -0.000003   0.000020   0.000000   0.000034
    38  H   -0.000019   0.129588   0.001683  -0.005739  -0.000359   0.000000
    39  H   -0.000158   0.177601  -0.030147   0.048138  -0.000365   0.000000
    40  H   -0.011509  -0.061157  -0.002191   0.004737  -0.000055   0.000000
    41  H    0.000119  -0.316493   0.001970   0.002277  -0.000089   0.000000
    42  H    0.000000   0.082213   0.000437  -0.038317   0.000466   0.000000
    43  H    0.000000   0.017478  -0.000171   0.026813   0.002222   0.000000
    44  H    0.000000  -0.001684  -0.042179   0.421057  -0.019217   0.000000
    45  H    0.000000   0.001275   0.001350  -0.013515   0.270147   0.000000
             31         32         33         34         35         36
     1  O   -0.008922   0.002797   0.005026  -0.000397   0.002279  -0.000041
     2  C    0.302906  -0.033137   0.075724  -0.009482   0.021865  -0.013249
     3  C   -0.049169   0.217469  -0.055657   0.000522  -0.004415  -0.026625
     4  O    0.001929  -0.022344   0.000277   0.000007   0.000014   0.000073
     5  H    0.000098  -0.003530   0.000018   0.000000   0.000000   0.000006
     6  C   -0.000351  -0.102550  -0.012573  -0.001537   0.005646   0.028875
     7  O    0.000772   0.004532   0.000135  -0.000008   0.000004  -0.002483
     8  H   -0.000001  -0.000108   0.000001   0.000000   0.000000   0.000204
     9  C   -0.025041   0.012054   0.061854   0.398568   0.564704   0.012715
    10  O   -0.001461  -0.000172   0.001836  -0.016062  -0.050136   0.000038
    11  H   -0.000019   0.000000  -0.000251  -0.011107   0.000022   0.000000
    12  C   -0.049137   0.088766   0.096075  -0.025991  -0.236257   0.055773
    13  O    0.004944   0.004670  -0.024931  -0.002658  -0.004034  -0.037127
    14  C    0.072392   0.041228   0.101807  -0.004421   0.002262   0.238825
    15  O    0.000591   0.001998  -0.001957  -0.000198  -0.000666  -0.025596
    16  C   -0.005306  -0.005163  -0.008185   0.003527  -0.005231  -0.001938
    17  C    0.002453   0.000839   0.007936  -0.000339   0.004022   0.005034
    18  O    0.000042   0.000072  -0.000400  -0.000096  -0.000151  -0.001690
    19  H   -0.000016   0.000001   0.000138   0.000956   0.000118   0.000299
    20  C    0.000016  -0.000039   0.000475  -0.000787   0.000293   0.010242
    21  O    0.000000   0.000000   0.000000   0.000001   0.000000  -0.000001
    22  H    0.000000   0.000000   0.000000   0.000000   0.000000   0.000000
    23  C    0.000010   0.000189   0.000040   0.000003  -0.000019   0.001776
    24  O    0.000010   0.000050  -0.000001   0.000000   0.000000  -0.000106
    25  H    0.000000   0.000000   0.000000   0.000000   0.000000   0.000008
    26  C   -0.000432  -0.000487  -0.000228   0.000299   0.000094   0.018364
    27  O    0.000000   0.000000   0.000000   0.000000   0.000000   0.000143
    28  C   -0.000001   0.000003  -0.000035   0.000025  -0.000015  -0.000895
    29  O    0.000000   0.000000   0.000000   0.000000   0.000000  -0.000002
    30  H   -0.013697  -0.000135  -0.000209   0.000019  -0.000253   0.000002
    31  H    0.626007   0.007679   0.006584   0.000056   0.003876  -0.000028
    32  H    0.007679   0.659839   0.002423   0.000005  -0.000006   0.002787
    33  H    0.006584   0.002423   0.618137  -0.004801   0.006287   0.001734
    34  H    0.000056   0.000005  -0.004801   0.563497  -0.046838  -0.000018
    35  H    0.003876  -0.000006   0.006287  -0.046838   0.589913  -0.000009
    36  H   -0.000028   0.002787   0.001734  -0.000018  -0.000009   0.586004
    37  H    0.004093   0.007924  -0.000096   0.000001  -0.000044   0.005145
    38  H    0.000000  -0.000005  -0.000001  -0.000001   0.000000   0.007783
    39  H    0.000000   0.000000   0.000000   0.000000   0.000000  -0.000006
    40  H    0.000000   0.000000   0.000000   0.000000   0.000000   0.000000
    41  H    0.000000   0.000000   0.000000   0.000000   0.000000   0.000031
    42  H    0.000000   0.000000   0.000000   0.000000   0.000000  -0.000008
    43  H    0.000000   0.000000   0.000000   0.000000   0.000000  -0.000003
    44  H    0.000000   0.000000   0.000000   0.000000   0.000000   0.000000
    45  H    0.000000   0.000000   0.000000   0.000000   0.000000   0.000000
             37         38         39         40         41         42
     1  O   -0.000243  -0.000001   0.000000   0.000000   0.000000   0.000000
[...]
 890,0.00001546,0.00002626,0.00003006,0.00008959,0.00016879,-0.00001711
 ,0.00052017,-0.00045125,0.00007076,-0.00045385,-0.00025019,0.00172535,
 -0.00026255,-0.00046142,-0.01426398,0.00369648,0.00106608,-0.34237547,
 0.02063347,0.00443228,-0.00927173,-0.01196855,-0.01361871,-0.00022980,
 -0.00109748,0.00098560,-0.01627200,0.00206675,0.00342267,0.00177152,-0
 .00037788,-0.00034314,0.00024759,0.00005160,-0.00019741,0.00065556,0.0
 0029359,0.00013407,0.00003761,-0.00003309,0.00008747,-0.00001001,0.000
 00988,-0.00000251,-0.00080901,-0.00097265,-0.00065887,0.00052768,0.000
 36800,0.00020060,-0.00156229,-0.00095016,-0.00124043,0.00079080,0.0000
 0982,0.00001675,-0.00001228,-0.00000359,0.00001041,0.00001332,0.000002
 66,-0.00001319,0.00001692,-0.00000080,0.00000287,0.00000961,-0.0000144
 4,0.00001105,0.00000787,0.00006639,0.00000261,0.00002169,0.00000780,-0
 .00002377,0.00007752,-0.00001014,0.00023236,0.00000935,0.00002103,-0.0
 0003795,0.00041508,0.00170587,-0.00029275,0.00106327,0.00058967,0.0006
 5989,-0.00000809,0.00014905,0.00000858,0.00010663,-0.00036587,-0.00002
 296,0.37602031,-0.00000171,0.00002904,-0.00005827,-0.00001858,-0.00005
 250,0.00002516,0.00001123,-0.00000894,-0.00001790,-0.00000792,0.000033
 79,-0.00001333,0.00000641,-0.00001028,0.00000211,-0.00014383,-0.000026
 86,-0.00002873,-0.00004589,0.00008367,0.00008230,0.00004981,0.00000218
 ,-0.00008744,-0.00002264,-0.00002770,0.00011175,0.00001019,-0.00002289
 ,-0.00008297,-0.00001414,0.00001266,0.00001647,0.00003685,0.00010296,0
 .00012591,0.00003023,0.00057268,-0.00036108,0.00015777,-0.00019522,-0.
 00016134,-0.00192467,0.00225661,-0.00129687,0.03681621,-0.00886967,0.0
 0066124,0.01961737,-0.03759468,0.00558272,-0.03220367,-0.01014266,-0.0
 1603555,-0.00030023,-0.00029224,0.00131778,-0.01018691,0.00201803,0.00
 235569,0.00009638,0.00074377,-0.00116330,0.00010243,0.00009340,-0.0001
 8638,0.00005294,-0.00003391,0.00004248,-0.00004761,-0.00000404,0.00006
 076,0.00000347,0.00001696,-0.00000482,0.00192721,0.00208736,0.00119289
 ,-0.00039331,-0.00015446,-0.00034405,0.00046752,-0.00017571,-0.0004645
 0,0.00010835,-0.00014951,0.00011275,-0.00000520,-0.00000097,0.00000560
 ,0.00000050,0.00000299,-0.00000376,-0.00000145,-0.00000014,-0.00000096
 ,-0.00000022,-0.00002247,0.00000456,-0.00001137,0.00005474,0.00000663,
 0.00001438,0.00001540,-0.00002350,-0.00024109,-0.00000208,-0.00010424,
 -0.00001367,-0.00002196,0.00004323,0.00170189,-0.00593882,0.00182434,-
 0.00065263,-0.00048267,-0.00042822,-0.00012344,-0.00004403,0.00000593,
 -0.00027902,0.00009977,-0.00001854,-0.01403616,0.05592405,0.00000869,0
 .00001746,-0.00004349,-0.00003587,-0.00003064,0.00001855,0.00000635,-0
 .00003940,0.00001611,0.00000496,0.00002784,-0.00001055,-0.00000019,-0.
 00000705,0.00000525,-0.00001015,0.00000246,0.00004195,0.00004294,0.000
 03486,0.00000905,-0.00003619,0.00000573,0.00000332,-0.00005872,-0.0000
 4072,0.00009231,0.00003178,-0.00000491,-0.00005521,-0.00001570,0.00000
 587,0.00001637,-0.00000437,0.00007526,0.00007866,0.00013540,0.00039439
 ,-0.00040835,-0.00032599,-0.00039675,-0.00047959,0.00037493,-0.0014897
 1,0.00148980,-0.01216399,0.00444869,0.00173293,0.00374824,0.00629104,-
 0.03969951,-0.03095973,-0.01498065,-0.01096113,-0.00120710,-0.00047436
 ,0.00109659,0.03653448,-0.00134489,-0.00522491,-0.00206487,-0.00076988
 ,0.00240224,-0.00004798,-0.00049631,0.00039895,0.00010255,0.00011088,0
 .00004322,0.00000610,-0.00001517,0.00000279,0.00000108,-0.00000962,-0.
 00000316,0.00053383,-0.00069165,-0.00033060,-0.00030706,-0.00036035,-0
 .00024635,0.00204565,0.00078730,0.00138500,-0.00055775,0.00007770,0.00
 003361,-0.00000725,-0.00000114,0.00000166,0.00001154,0.00000374,-0.000
 01249,0.00000987,-0.00000069,0.00000484,0.00001920,-0.00001400,0.00001
 638,-0.00001194,0.00004618,0.00000639,0.00003067,0.00001201,-0.0000357
 0,0.00015964,0.00000887,0.00002007,0.00001777,0.00002177,-0.00002755,-
 0.00078831,0.00194142,-0.00016799,0.00034387,-0.00011567,0.00016958,0.
 00004145,0.00007431,0.00000135,0.00004044,-0.00008478,-0.00002945,0.00
 330485,0.00574611,0.05491702,0.00000516,-0.00000571,-0.00000644,-0.000
 00231,0.00000436,0.00000582,-0.00001373,-0.00001069,0.00001177,0.00000
 989,0.00000161,-0.00000789,-0.00000428,0.00000110,0.00000299,0.0000136
 0,0.00000455,0.00002186,0.00002310,-0.00000857,-0.00001664,-0.00001486
 ,0.00000211,0.00001388,-0.00001646,0.00000497,-0.00000295,0.00001712,-
 0.00000229,0.00000298,-0.00000803,0.00000018,-0.00000016,-0.00002193,0
 .00000174,0.00000961,0.00003687,-0.00003177,-0.00001699,-0.00014715,-0
 .00000925,0.00004810,0.00047117,-0.00010387,0.00006025,-0.00061286,0.0
 0103255,-0.00023565,-0.01290538,-0.00308686,0.00121531,0.00178044,0.00
 067105,-0.00016801,0.00014712,0.00006148,-0.00010598,-0.35244087,-0.01
 541206,0.00938804,-0.00967491,0.01092552,-0.00534184,0.00050166,0.0009
 4974,0.00032698,-0.00005207,-0.00002773,-0.00000809,0.00004676,0.00002
 860,-0.00003846,-0.00001309,-0.00000475,-0.00000172,-0.00001995,-0.000
 08654,0.00003890,0.00219284,-0.00051091,0.00048348,-0.01445798,-0.0006
 7859,0.00076409,0.00169194,0.00005151,0.00022788,-0.00000265,0.0000019
 1,0.00000120,0.00000566,0.00000119,-0.00000386,0.00000818,0.00000049,-
 0.00000033,0.00001027,-0.00000207,0.00000609,-0.00000917,-0.00000086,0
 .00000024,0.00000985,0.00000196,-0.00000710,0.00003055,-0.00001912,0.0
 0001666,0.00000855,0.00000562,-0.00000971,0.00062855,-0.00068834,0.000
 19269,0.00010131,0.00018396,-0.00003774,0.00000674,-0.00001589,0.00001
 241,0.00004203,-0.00004753,0.00001108,0.00025602,-0.00073022,0.0018020
 3,0.38185269,0.00000188,-0.00000264,0.00001666,0.00000072,0.00000476,-
 0.00000969,-0.00000516,0.00000780,-0.00000775,0.00000327,-0.00000991,0
 .00000892,-0.00000147,0.00000246,-0.00000182,0.00000132,0.00000819,-0.
 00000224,0.00001050,-0.00001378,-0.00000160,-0.00001095,0.00000222,-0.
 00000416,0.00000037,-0.00000035,-0.00001986,-0.00000142,0.00000863,0.0
 0001986,0.00000420,-0.00000363,-0.00000428,-0.00000363,-0.00001213,-0.
 00002549,0.00002170,-0.00004546,0.00005089,-0.00003090,0.00006750,-0.0
 0000360,0.00020295,-0.00004169,-0.00004091,-0.00089112,0.00049444,-0.0
 0025368,-0.00794284,0.00098681,0.00044994,0.00089563,0.00039128,0.0002
 3286,-0.00005905,-0.00004480,-0.00011833,-0.01769114,-0.03884516,-0.00
 188709,0.04115562,-0.01675871,0.00801277,0.00080612,0.00106231,-0.0014
 1532,-0.00006576,0.00003404,-0.00002690,0.00002419,-0.00001605,-0.0000
 1660,-0.00000395,0.00000302,0.00000355,-0.00031121,-0.00025699,0.00021
 262,0.00117293,0.00234023,0.00024812,-0.02664014,-0.00210340,0.0000311
 6,0.00193333,0.00128420,0.00141368,0.00000122,-0.00000019,-0.00000305,
 0.00000071,-0.00000089,0.00000013,0.00000046,0.00000037,0.00000073,0.0
 0000089,0.00000397,0.00000143,0.00000296,-0.00000804,0.,-0.00000087,-0
 .00000266,0.00000241,0.00001677,-0.00000098,0.00001459,0.00000228,0.00
 000108,-0.00000459,0.00021285,-0.00010977,0.00022505,0.00019845,0.0000
 6990,-0.00003399,0.00000320,-0.00001870,-0.00000353,0.00003417,-0.0000
 5558,0.00001938,-0.00024767,-0.00006898,0.00164016,0.00825304,0.054658
 70,-0.00000401,-0.00000825,-0.00000420,0.00000296,0.00000998,0.0000039
 6,0.00001519,0.00001771,0.00000475,-0.00000609,-0.00000506,-0.00001170
 ,0.00000161,0.00000283,-0.00000172,-0.00001828,-0.00001564,-0.00002273
 ,-0.00001659,-0.00000010,-0.00001286,0.00001119,-0.00001179,0.00000724
 ,0.00001357,0.00001715,-0.00001487,-0.00001308,-0.00001078,0.00000471,
 0.00000623,0.00000043,-0.00000601,0.00002319,-0.00000491,0.00001161,-0
 .00000244,-0.00014717,0.00004495,0.00013708,0.00017942,0.00014928,-0.0
 0070797,0.00002552,-0.00036685,0.00121956,-0.00182014,0.00137263,0.035
 35253,0.00401181,-0.00374133,-0.00207587,-0.00006344,0.00327262,-0.000
 14963,0.00029131,0.00019035,0.01130522,-0.00256562,-0.04425455,-0.0120
 8775,0.00832305,0.00013961,-0.00153683,0.00031757,0.00076473,0.0000617
 1,0.00000988,0.00008204,-0.00000987,0.00000034,-0.00000343,-0.00000514
 ,-0.00000227,0.00000245,0.00030966,0.00020735,-0.00038015,0.00152680,0
 .00124211,0.00054662,-0.02629821,-0.00463590,-0.00088031,0.00128621,0.
 00085584,0.00250723,0.00000084,0.00000185,0.00000047,-0.00000426,-0.00
 000135,0.00000407,-0.00000521,0.00000088,-0.00000133,-0.00001140,0.000
 00259,-0.00001155,0.00000300,-0.00000834,0.00000134,-0.00000763,-0.000
 00181,0.00000772,-0.00003990,0.00000929,-0.00004700,-0.00000399,-0.000
 00683,0.00001064,-0.00071876,0.00054117,-0.00013907,-0.00011677,-0.000
 00106,-0.00014781,-0.00000966,0.00003383,0.00000704,-0.00000996,0.0000
 1897,0.00000255,0.00206934,0.00164565,-0.00578038,-0.00797070,-0.00612
 770,0.04892702,0.00000333,-0.00000870,-0.00002090,-0.00000951,0.000009
 00,0.00001257,0.00000303,-0.00000321,0.00001915,0.00000425,0.00000370,
 -0.00002361,-0.00000274,0.00000182,0.00000304,-0.00002705,0.00001238,0
 .00000740,0.00001023,-0.00002175,-0.00006720,0.00000726,0.00000987,0.0
 0007696,-0.00001519,0.00001134,0.00000246,0.00000949,-0.00001135,-0.00
 000689,-0.00000501,0.00000130,0.00000021,0.00000344,0.00000463,0.00002
 889,0.00001412,-0.00006443,-0.00006111,0.00003296,0.00007435,0.0001023
 7,0.00000277,-0.00002365,-0.00031025,0.00011917,0.00030725,0.00007970,
 -0.00089902,-0.00016966,0.00093560,0.00060007,0.00006139,0.00010294,-0
 .00000799,0.00000365,-0.00007351,-0.01368787,0.00114038,-0.00226145,0.
 00266175,0.00011820,0.00131904,-0.00028493,0.00010718,0.00002851,0.000
 59263,-0.00019078,-0.00014254,0.00000365,0.00024874,-0.00013487,-0.000
 01706,-0.00001025,-0.00003442,0.00025318,-0.00060887,0.00117891,-0.008
 01072,0.01174934,-0.00463321,-0.35385518,-0.00540621,-0.01642878,-0.01
 015579,-0.00294144,0.00700426,-0.00000394,0.00000209,0.00000290,0.0000
 0413,0.00000015,-0.00000229,0.00000491,0.00000080,0.00000015,0.0000022
 4,-0.00000158,-0.00000158,-0.00000388,-0.00000031,0.00000029,0.0000061
 1,0.00000125,-0.00000414,0.00000769,-0.00000730,-0.00000452,0.00000730
 ,-0.00000252,-0.00000400,0.00007133,-0.00015082,0.00024307,0.00055008,
 0.00061897,-0.00138808,-0.00002044,-0.00002581,0.00000289,0.00007403,-
 0.00026966,0.00011207,0.00107751,0.00017017,-0.00067135,0.00015931,-0.
 00113368,-0.00154167,0.37968572,0.00000142,0.00001383,0.00001310,0.000
 00205,-0.00001710,-0.00000674,-0.00001101,0.00000147,-0.00001381,0.000
 00119,0.00000380,0.00001654,0.00000011,-0.00000243,-0.00000186,0.00001
 957,-0.00004340,-0.00001488,0.00001076,0.00006147,0.00010504,-0.000034
 67,-0.00003575,-0.00014496,-0.00000004,-0.00001678,0.00001032,0.000004
 46,0.00001150,-0.00000259,-0.00000378,-0.00000054,0.00000367,-0.000010
 44,0.00000902,-0.00000714,-0.00000481,0.00013699,0.00001891,-0.0001047
 3,-0.00008623,-0.00011342,0.00008383,0.00028205,0.00033449,-0.00037674
 ,-0.00064675,0.00018321,-0.00088720,0.00012630,0.00136523,0.00042150,0
 .00000212,-0.00037767,0.00011196,-0.00011374,0.00006632,-0.02332126,0.
 00032711,-0.00423505,0.00089468,0.00291421,0.00038853,-0.00032046,0.00
 009100,0.00006321,0.00005833,0.00013047,-0.00007247,-0.00018199,-0.000
 26992,0.00022847,0.00000128,0.00003541,0.00003359,0.00420683,0.0018625
 8,-0.00464375,0.03806771,-0.01787956,0.01199343,-0.00506348,-0.0409716
 9,-0.00266456,-0.00683860,0.00359392,0.00458006,0.00000096,-0.00000244
 ,-0.00000187,0.00000046,0.00000070,-0.00000069,0.00000162,-0.00000080,
 0.00000072,0.00000393,-0.00000158,0.00000385,0.00000068,0.00000743,-0.
 00000015,0.00000123,0.00000158,-0.00000101,0.00000492,0.00000007,0.000
 00154,-0.00000379,0.00000571,-0.00000059,-0.00005814,-0.00015361,-0.00
 005916,-0.00160438,0.00025147,0.00024598,0.00004192,0.00000668,-0.0000
 1271,-0.00025258,0.00011460,0.00000889,0.00054075,0.00012271,-0.000319
 81,-0.00096603,-0.00293943,-0.00257739,-0.00360410,0.05271849,-0.00000
 042,-0.00000216,-0.00002104,-0.00000482,0.00000212,0.00001337,0.000004
 14,-0.00000413,0.00001723,-0.00000174,0.00000878,-0.00001967,0.0000003
 4,-0.00000055,0.00000235,-0.00001377,-0.00001042,-0.00000320,0.0000052
 7,0.00000705,-0.00002193,-0.00000148,-0.00000373,0.00002276,-0.0000059
 8,0.00000791,0.00001270,0.00000143,-0.00001140,-0.00001522,-0.00000177
 ,0.00000266,0.00000251,0.00000851,0.00001104,0.00003110,-0.00000371,-0
 .00001322,-0.00006148,0.00004516,0.00002610,0.00006999,0.00002867,0.00
 005834,-0.00025072,0.00001899,-0.00021992,-0.00021256,-0.00168387,0.00
 026351,0.00155052,0.00060195,-0.00001025,-0.00012739,0.00003614,-0.000
 00433,0.00004360,-0.02498220,-0.00181944,-0.00033858,0.00196034,0.0013
 3221,0.00104135,0.00011318,-0.00023196,-0.00028634,-0.00001136,0.00006
 686,0.00003053,0.00006556,0.00008481,-0.00008672,-0.00000699,-0.000011
 42,-0.00000500,-0.00235110,-0.00007734,0.00266810,-0.00912128,0.007522
 68,-0.00019992,-0.02387659,-0.00456486,-0.04624825,0.03992275,0.005252
 78,-0.01698863,-0.00000215,0.00000077,0.00000315,0.00000137,0.00000016
 ,-0.00000144,0.00000240,0.00000017,0.00000003,0.,-0.00000141,-0.000001
 60,-0.00000087,0.00000364,-0.00000033,0.00000204,0.00000032,-0.0000024
 4,0.00000262,-0.00000659,0.00000349,0.00000237,-0.00000009,-0.00000223
 ,0.00019295,-0.00000816,0.00009366,0.00079210,-0.00015207,0.00003356,0
 .00000240,-0.00002267,-0.00000878,0.00013162,-0.00004691,-0.00003797,0
 .00060995,-0.00013833,-0.00040854,-0.00104063,-0.00299306,-0.00276494,
 0.01566923,-0.00400025,0.05941413,-0.00000063,0.00000366,0.00002867,0.
 00000898,-0.00000323,-0.00001600,-0.00000776,0.00000559,-0.00002035,-0
 .00000036,-0.00001024,0.00002476,0.00000104,0.00000064,-0.00000293,0.0
 0001955,0.00000420,-0.00000251,-0.00000243,-0.00000235,0.00004176,-0.0
 0000690,0.00000129,-0.00004808,0.00000789,-0.00000989,-0.00001598,-0.0
 0000196,0.00001532,0.00002015,0.00000316,-0.00000293,-0.00000278,-0.00
 001540,-0.00001783,-0.00004270,0.00000878,0.00001263,0.00009397,-0.000
 06010,-0.00002192,-0.00008494,0.00003689,-0.00001549,0.00020603,-0.000
 11634,0.00001127,-0.00015019,0.00071499,0.00049772,0.00014406,-0.00012
 068,0.00000664,0.00048195,0.00001789,0.00009333,-0.00001608,-0.0013819
 8,-0.00149691,0.00214390,-0.00021793,0.00063812,-0.00011112,-0.0000624
 3,-0.00031447,-0.00030198,-0.00013668,0.00014964,0.00017721,-0.0000185
 9,-0.00018114,0.00007417,0.00001848,0.00000120,0.00003073,0.00077041,-
 0.00062115,0.00015983,-0.00085525,-0.00114160,0.00235371,0.00929038,-0
 .00250603,0.02065626,-0.32837216,0.05554596,-0.26634411,0.00000363,-0.
 00000112,-0.00000398,-0.00000180,0.00000012,0.00000114,-0.00000200,-0.
 00000028,0.00000027,0.00000239,0.00000183,0.00000443,-0.00000023,-0.00
 000480,0.00000036,-0.00000245,-0.00000077,0.00000175,0.00000162,0.0000
 0321,0.00000210,-0.00000233,0.00000161,0.00000096,-0.00000639,-0.00001
 535,0.00001073,-0.00006130,0.00003562,-0.00005552,0.00000358,-0.000013
 76,-0.00000495,-0.00000271,0.00000581,-0.00000603,-0.00003165,0.000024
 28,-0.00008379,0.00036029,0.00007922,0.00002575,0.00103465,-0.00083396
 ,0.00288925,0.31918383,0.00000031,-0.00001146,-0.00000701,-0.00000153,
 0.00000527,0.00000062,0.00000103,0.00000158,0.00000158,0.00000160,-0.0
 0000968,-0.00000053,-0.00000146,0.00000350,0.00000060,-0.00000051,0.00
 002471,0.00001559,-0.00000355,-0.00003248,-0.00003282,0.00001003,0.000
 01728,0.00003543,0.00000002,0.00001122,0.00000105,-0.00000210,-0.00001
 164,-0.00000154,0.00000072,0.00000325,-0.00000452,0.00000723,0.0000161
 1,0.00001360,0.00000012,-0.00001708,-0.00001991,-0.00002391,0.00003103
 ,0.00000507,0.00000634,-0.00001135,0.00004989,-0.00009521,-0.00012670,
 0.00000934,0.00003317,-0.00085090,0.00012297,0.00008033,-0.00009090,-0
 .00049348,-0.00000564,-0.00009331,-0.00003890,-0.00021693,0.00241549,-
 0.00422786,0.00114826,-0.00031655,0.00143333,-0.00184607,-0.00071442,-
 0.00140121,-0.00022383,0.00022634,0.00035807,0.00000127,-0.00018567,-0
 .00006202,0.00001855,-0.00001902,0.00006709,0.00032062,-0.00105773,0.0
 0010585,-0.00095841,-0.00353798,0.00515490,0.00849823,-0.00264167,-0.0
 0036171,0.04303868,-0.00755521,0.05683026,-0.00000060,0.00000479,-0.00
 000030,0.00000026,0.00000027,0.00000006,-0.00000072,-0.00000003,0.0000
 0024,-0.00000097,-0.00000035,-0.00000140,-0.00000196,-0.00000064,0.000
 00201,0.00000073,0.00000046,-0.00000119,0.00000310,-0.00000023,0.00000
 014,0.00000286,-0.00000109,-0.00000081,-0.00000300,0.00000768,0.000001
 25,-0.00012699,-0.00002486,0.00015082,-0.00003118,-0.00006929,-0.00001
 080,0.00000631,0.00000607,0.00000297,0.00002994,0.00007063,-0.00008590
 ,0.00026039,-0.00007192,0.00024904,-0.00000188,0.00034904,-0.00029725,
 -0.04992367,0.01425744,0.00000895,0.00000895,0.00008113,0.00000539,-0.
 00001417,-0.00005091,-0.00002093,0.00002259,-0.00005897,0.00000911,-0.
 00003551,0.00006999,-0.00000372,0.00000536,-0.00001019,0.00001747,0.00
 001795,0.00000075,0.00001179,-0.00001552,0.00009246,-0.00002547,0.0000
 0997,-0.00010577,-0.00000464,-0.00003280,-0.00004890,0.00001354,0.0000
 4533,0.00006239,-0.00000149,-0.00001075,-0.00001150,-0.00003944,-0.000
 03367,-0.00010015,0.00001629,0.00007311,0.00018113,-0.00012545,-0.0000
 6949,-0.00024587,0.00009369,-0.00004800,0.00037516,-0.00001709,0.00001
 526,-0.00009769,-0.00053765,-0.00118109,-0.00013904,0.00020658,0.00015
 221,-0.00012357,-0.00002610,-0.00007046,-0.00015828,0.00253502,0.00201
 230,-0.00561768,0.00049096,0.00052707,0.00146998,-0.00079020,-0.001341
 61,-0.00029379,0.00013788,0.00019860,-0.00014073,-0.00004048,-0.000174
 44,0.00018417,0.00000783,0.00004102,0.00000984,-0.00023337,0.00029937,
 -0.00043388,0.00184943,-0.00147120,-0.00091402,-0.03087310,0.00406439,
 -0.02526557,-0.21191633,0.05445178,-0.23120810,0.00000469,-0.00000143,
 -0.00001535,0.00000127,0.00000063,0.00000130,-0.00000111,-0.00000127,0
 .00000247,0.00000921,0.00000215,0.00000831,-0.00000329,-0.00001013,0.0
 0000319,0.00000359,0.00000182,0.00000017,0.00000593,0.00001036,0.00000
 911,0.00000043,0.00000153,-0.00000310,0.00000271,0.00000749,0.00000747
 ,0.00005869,0.00006790,-0.00001201,-0.00001873,0.00001137,0.00000904,0
 .00000148,-0.00003417,0.00001546,0.00020623,0.00005203,-0.00007904,0.0
 0035658,0.00040034,0.00052716,0.00088373,-0.00039258,0.00306079,0.2377
 4012,-0.05756260,0.25896263\\0.00918187,-0.01279110,-0.00661366,-0.015
 87656,0.00460101,0.02004138,0.03342302,-0.02685489,0.00020259,-0.00372
 989,0.02352167,0.01860751,-0.01205869,-0.00967573,-0.02575828,-0.01726
 845,-0.01066392,-0.02831096,0.02058514,-0.00107861,0.02212674,-0.00406
 824,0.01653163,0.01917059,-0.00233580,0.01005288,0.00491770,0.00316351
 ,0.02003309,-0.00153461,0.00325095,-0.03442647,-0.00113426,0.00812658,
 -0.01473414,0.00523767,-0.00205828,0.00836087,0.01057281,-0.03982140,0
 .01960990,-0.01546155,0.00065461,-0.00529811,-0.00583674,0.02465753,0.
 00946058,0.00122113,-0.01542084,0.02925858,0.01748158,0.00066650,-0.02
 029926,0.00681896,0.00806214,0.01268520,-0.01837476,-0.00336721,0.0062
 7297,-0.01169114,0.01213405,0.00052942,-0.01156762,-0.01409075,-0.0026
 5434,0.02699250,0.01280555,-0.01661342,-0.01141895,-0.01263104,-0.0170
 2941,-0.00277398,0.00031229,0.03426176,0.00484423,-0.01261906,-0.00518
 933,0.01493919,0.00445056,-0.00527701,0.00005388,0.02124328,-0.0082043
 4,-0.00117288,-0.00013992,-0.00694934,0.01994639,0.00013643,0.00174186
 ,-0.00100507,-0.02189240,0.00051648,0.00001823,0.02609913,0.00210748,-
 0.00331236,0.02163646,0.00213422,0.00047816,0.00247517,0.00742917,-0.0
 1746363,-0.02112560,-0.00225734,-0.00104937,0.01871160,0.00022349,-0.0
 0596588,-0.02205247,0.00306861,0.00172495,0.02264781,-0.00233572,-0.00
 113131,-0.02285159,0.00110433,-0.00031944,-0.00439982,-0.00631094,-0.0
 1673861,0.02067432,0.00047233,-0.00271508,-0.02563853,0.00030056,-0.00
 135125,0.02052030,-0.00129285,-0.00091710,-0.02008347,-0.00054880,-0.0
 0123238,-0.00208877,-0.00379299,-0.00054529\\\@


 WAR ES EIN GOTT DER DIESE ZEICHEN SCHRIEB?
          - LUDWIG BOLTZMANN, QUOTING GOETHE, ABOUT MAXWELL'S EQUATIONS.
 Job cpu time:  3 days 21 hours 45 minutes 15.9 seconds.
 File lengths (MBytes):  RWF=   2351 Int=      0 D2E=      0 Chk=     43 Scr=      1
 Normal termination of Gaussian 09 at Fri Feb 12 11:41:09 2016.
Gaussian '09 finished on node026 at Fri Feb 12 11:41:09 EST 2016.
