Gaussian '09 started on node007 at Mon Feb  8 13:54:05 EST 2016.
 Entering Gaussian System, Link 0=/usr/local/gaussian/g09/g09
 Initial command:
 /usr/local/gaussian/g09/l1.exe /home/srmcgrat/thesis/gaussian/cellobiose/350/10000/1/2dfp/gaussian22051/Gau-22131.inp -scrdir=/home/srmcgrat/thesis/gaussian/cellobiose/350/10000/1/2dfp/gaussian22051/
 Entering Link 1 = /usr/local/gaussian/g09/l1.exe PID=     22133.
  
 Copyright (c) 1988,1990,1992,1993,1995,1998,2003,2009,2010,
            Gaussian, Inc.  All Rights Reserved.
  
 This is part of the Gaussian(R) 09 program.  It is based on
 the Gaussian(R) 03 system (copyright 2003, Gaussian, Inc.),
 the Gaussian(R) 98 system (copyright 1998, Gaussian, Inc.),
 the Gaussian(R) 94 system (copyright 1995, Gaussian, Inc.),
 the Gaussian 92(TM) system (copyright 1992, Gaussian, Inc.),
 the Gaussian 90(TM) system (copyright 1990, Gaussian, Inc.),
 the Gaussian 88(TM) system (copyright 1988, Gaussian, Inc.),
 the Gaussian 86(TM) system (copyright 1986, Carnegie Mellon
 University), and the Gaussian 82(TM) system (copyright 1983,
 Carnegie Mellon University). Gaussian is a federally registered
 trademark of Gaussian, Inc.
  
 This software contains proprietary and confidential information,
 including trade secrets, belonging to Gaussian, Inc.
  
 This software is provided under written license and may be
 used, copied, transmitted, or stored only in accord with that
 written license.
  
 The following legend is applicable only to US Government
 contracts under FAR:
  
                    RESTRICTED RIGHTS LEGEND
  
 Use, reproduction and disclosure by the US Government is
 subject to restrictions as set forth in subparagraphs (a)
 and (c) of the Commercial Computer Software - Restricted
 Rights clause in FAR 52.227-19.
  
 Gaussian, Inc.
 340 Quinnipiac St., Bldg. 40, Wallingford CT 06492
  
  
 ---------------------------------------------------------------
 Warning -- This program may not be used in any manner that
 competes with the business of Gaussian, Inc. or will provide
 assistance to any competitor of Gaussian, Inc.  The licensee
 of this program is prohibited from giving any competitor of
 Gaussian, Inc. access to this program.  By using this program,
 the user acknowledges that Gaussian, Inc. is engaged in the
 business of creating and licensing software in the field of
 computational chemistry and represents and warrants to the
 licensee that it is not a competitor of Gaussian, Inc. and that
 it will not use this program in any manner prohibited above.
 ---------------------------------------------------------------
  

 Cite this work as:
 Gaussian 09, Revision B.01,
 M. J. Frisch, G. W. Trucks, H. B. Schlegel, G. E. Scuseria, 
 M. A. Robb, J. R. Cheeseman, G. Scalmani, V. Barone, B. Mennucci, 
 G. A. Petersson, H. Nakatsuji, M. Caricato, X. Li, H. P. Hratchian, 
 A. F. Izmaylov, J. Bloino, G. Zheng, J. L. Sonnenberg, M. Hada, 
 M. Ehara, K. Toyota, R. Fukuda, J. Hasegawa, M. Ishida, T. Nakajima, 
 Y. Honda, O. Kitao, H. Nakai, T. Vreven, J. A. Montgomery, Jr., 
 J. E. Peralta, F. Ogliaro, M. Bearpark, J. J. Heyd, E. Brothers, 
 K. N. Kudin, V. N. Staroverov, T. Keith, R. Kobayashi, J. Normand, 
 K. Raghavachari, A. Rendell, J. C. Burant, S. S. Iyengar, J. Tomasi, 
 M. Cossi, N. Rega, J. M. Millam, M. Klene, J. E. Knox, J. B. Cross, 
 V. Bakken, C. Adamo, J. Jaramillo, R. Gomperts, R. E. Stratmann, 
 O. Yazyev, A. J. Austin, R. Cammi, C. Pomelli, J. W. Ochterski, 
 R. L. Martin, K. Morokuma, V. G. Zakrzewski, G. A. Voth, 
 P. Salvador, J. J. Dannenberg, S. Dapprich, A. D. Daniels, 
 O. Farkas, J. B. Foresman, J. V. Ortiz, J. Cioslowski, 
 and D. J. Fox, Gaussian, Inc., Wallingford CT, 2010.
 
 ******************************************
 Gaussian 09:  EM64L-G09RevB.01 12-Aug-2010
                 8-Feb-2016 
 ******************************************
 --------------------------------------------------
 # freq=raman b3lyp/6-31+g(2df,p) geom=connectivity
 --------------------------------------------------
 1/10=4,30=1,38=1,57=2/1,3;
 2/12=2,17=6,18=5,40=1/2;
 3/5=1,6=6,7=114,11=2,16=1,25=1,30=1,71=2,74=-5/1,2,3;
 4//1;
 5/5=2,38=5,98=1/2;
 8/6=4,10=90,11=11/1;
 10/13=10,15=4/2;
 11/6=3,8=1,9=11,15=111,16=1/1,2,10;
 10/6=1/2;
 6/7=2,8=2,9=2,10=2,18=1,28=1/1;
 7/8=1,10=1,25=1/1,2,3,16;
 1/10=4,30=1/3;
 99//99;
 -------------
 350 10000.com
 -------------
 Symbolic Z-matrix:
 Charge =  0 Multiplicity = 1
 O                     7.575     7.504     12.301 
 C                     8.142     7.929     13.548 
 C                     7.729     9.317     14.011 
 O                     8.213     10.245    13.029 
 H                     7.748     9.982     12.183 
 C                     8.138     9.62      15.443 
 O                     7.456     10.781    15.94 
 H                     7.754     10.898    16.888 
 C                     7.88      5.478     14.287 
 O                     9.01      5.098     13.489 
 H                     9.196     4.152     13.752 
 C                     7.712     6.95      14.628 
 O                     8.464     7.269     15.808 
 C                     7.85      8.443     16.36 
 O                     8.616     8.68      17.55 
 C                     8.106     8.315     18.841 
 C                     8.648     6.985     19.339 
 O                     8.384     5.906     18.43 
 H                     8.234     6.217     17.491 
 C                     8.221     6.732     20.775 
 O                     8.57      5.457     21.334 
 H                     8.428     5.439     22.324 
 C                     8.284     10.75     19.688 
 O                     8.418     11.313    18.375 
 H                     8.33      12.309    18.386 
 C                     8.682     9.292     19.853 
 O                     8.255     9.01      21.193 
 C                     8.749     7.78      21.742 
 O                     7.907     7.727     22.904 
 H                     8.45254   7.69101   23.69311 
 H                     9.80167   7.75525   21.93218 
 H                     7.15321   6.79799   20.7944 
 H                     9.7124    7.09135   19.36425 
 H                     7.0362    8.32899   18.85653 
 H                     9.74929   9.22578   19.81539 
 H                     8.88133   11.33212   20.35826 
 H                     7.2607    10.84749   19.98506 
 H                     8.27987   7.29375   11.6841 
 H                     6.99736   5.16127   13.77171 
 H                     7.93559   4.93569   15.20771 
 H                     6.67704   7.12324   14.83717 
 H                     9.20838   7.90047   13.46487 
 H                     6.66016   9.3547    13.9785 
 H                     9.19038   9.8126    15.4602 
 H                     6.80666   8.31293   16.55854 
 

 GradGradGradGradGradGradGradGradGradGradGradGradGradGradGradGradGradGrad
 Berny optimization.
 Initialization pass.
 Trust Radius=3.00D-01 FncErr=1.00D-07 GrdErr=1.00D-07
 Number of steps in this run=      2 maximum allowed number of steps=      2.
 GradGradGradGradGradGradGradGradGradGradGradGradGradGradGradGradGradGrad

                          Input orientation:                          
 ---------------------------------------------------------------------
 Center     Atomic      Atomic             Coordinates (Angstroms)
 Number     Number       Type             X           Y           Z
 ---------------------------------------------------------------------
      1          8           0        7.575000    7.504000   12.301000
      2          6           0        8.142000    7.929000   13.548000
      3          6           0        7.729000    9.317000   14.011000
      4          8           0        8.213000   10.245000   13.029000
      5          1           0        7.748000    9.982000   12.183000
      6          6           0        8.138000    9.620000   15.443000
      7          8           0        7.456000   10.781000   15.940000
      8          1           0        7.754000   10.898000   16.888000
      9          6           0        7.880000    5.478000   14.287000
     10          8           0        9.010000    5.098000   13.489000
     11          1           0        9.196000    4.152000   13.752000
     12          6           0        7.712000    6.950000   14.628000
     13          8           0        8.464000    7.269000   15.808000
     14          6           0        7.850000    8.443000   16.360000
     15          8           0        8.616000    8.680000   17.550000
     16          6           0        8.106000    8.315000   18.841000
     17          6           0        8.648000    6.985000   19.339000
     18          8           0        8.384000    5.906000   18.430000
     19          1           0        8.234000    6.217000   17.491000
     20          6           0        8.221000    6.732000   20.775000
     21          8           0        8.570000    5.457000   21.334000
     22          1           0        8.428000    5.439000   22.324000
     23          6           0        8.284000   10.750000   19.688000
     24          8           0        8.418000   11.313000   18.375000
     25          1           0        8.330000   12.309000   18.386000
     26          6           0        8.682000    9.292000   19.853000
     27          8           0        8.255000    9.010000   21.193000
     28          6           0        8.749000    7.780000   21.742000
     29          8           0        7.907000    7.727000   22.904000
     30          1           0        8.452537    7.691008   23.693110
     31          1           0        9.801672    7.755246   21.932181
     32          1           0        7.153213    6.797987   20.794403
     33          1           0        9.712402    7.091348   19.364247
     34          1           0        7.036204    8.328994   18.856527
     35          1           0        9.749286    9.225779   19.815390
     36          1           0        8.881325   11.332116   20.358257
     37          1           0        7.260695   10.847487   19.985058
     38          1           0        8.279866    7.293751   11.684105
     39          1           0        6.997355    5.161271   13.771713
     40          1           0        7.935592    4.935692   15.207712
     41          1           0        6.677044    7.123243   14.837172
     42          1           0        9.208384    7.900472   13.464871
     43          1           0        6.660158    9.354699   13.978498
     44          1           0        9.190382    9.812604   15.460200
     45          1           0        6.806658    8.312929   16.558542
 ---------------------------------------------------------------------
                    Distance matrix (angstroms):
                    1          2          3          4          5
     1  O    0.000000
     2  C    1.434267   0.000000
     3  C    2.496955   1.520356   0.000000
     4  O    2.906907   2.374502   1.435188   0.000000
     5  H    2.486833   2.496652   1.945294   1.000555   0.000000
     6  C    3.829698   2.539788   1.519774   2.494724   3.303142
     7  O    4.898491   3.784992   2.436979   3.055203   3.852105
     8  H    5.708927   4.485655   3.282882   3.940682   4.793341
     9  C    2.853401   2.573357   3.851869   4.941431   4.972952
    10  O    3.042927   2.961666   4.439978   5.228615   5.210733
    11  H    3.996116   3.926609   5.375537   6.213990   6.208652
    12  C    2.395958   1.519783   2.446154   3.696597   3.895169
    13  O    3.625548   2.376317   2.822010   4.079512   4.584065
    14  C    4.175264   2.873466   2.509247   3.804541   4.452668
    15  O    5.478929   4.099351   3.703655   4.801154   5.590467
    16  C    6.611451   5.307178   4.947225   6.125006   6.872846
    17  C    7.138216   5.889215   5.888155   7.115682   7.810272
    18  O    6.385352   5.290087   5.620632   6.930149   7.486206
    19  H    5.387648   4.299611   4.687795   6.011212   6.525817
    20  C    8.533579   7.325884   7.257822   8.505395   9.198298
    21  O    9.315327   8.180206   8.320650   9.592988  10.241685
    22  H   10.269000   9.126887   9.199644  10.466178  11.132885
    23  C    8.099813   6.758536   5.881313   6.678499   7.563210
    24  O    7.218906   5.901488   4.848013   5.455489   6.368777
    25  H    7.790075   6.528858   5.334219   5.742058   6.650629
    26  C    7.839330   6.473206   5.919273   6.906167   7.757407
    27  O    9.044230   7.721875   7.207777   8.256990   9.076449
    28  C    9.517717   8.217803   7.948027   9.070826   9.860288
    29  O   10.610540   9.361131   9.035775  10.195567  10.956740
    30  H   11.427388  10.152651   9.844318  10.968295  11.757025
    31  H    9.888420   8.548637   8.335476   9.380266  10.208944
    32  H    8.533127   7.400490   7.258892   8.561924   9.200434
    33  H    7.391091   6.082479   6.127370   7.233885   7.986555
    34  H    6.629167   5.437209   4.993521   6.246279   6.911950
    35  H    8.009875   6.598877   6.146611   7.032359   7.926563
    36  H    9.015561   7.649013   6.758418   7.439522   8.363137
    37  H    8.385847   7.122498   6.184744   7.046745   7.865026
    38  H    0.960000   1.973994   3.132320   3.243931   2.785401
    39  H    2.825783   3.003429   4.226423   5.279557   5.130975
    40  H    3.895537   3.428869   4.546500   5.745650   5.886366
    41  H    2.717254   2.111233   2.569386   3.920971   4.045253
    42  H    2.044439   1.070000   2.119761   2.584103   2.847573
    43  H    2.660079   2.100905   1.070000   2.026203   2.191054
    44  H    4.233161   2.881593   2.116941   2.655744   3.584578
    45  H    4.401293   3.315706   2.889437   4.262437   4.776745
                    6          7          8          9         10
     6  C    0.000000
     7  O    1.435289   0.000000
     8  H    1.966918   1.000598   0.000000
     9  C    4.308023   5.570816   6.013109   0.000000
    10  O    5.002698   6.381129   6.838913   1.434609   0.000000
    11  H    5.820470   7.194344   7.577755   1.943285   0.999340
    12  C    2.823934   4.057517   4.549293   1.520292   2.532198
    13  O    2.401396   3.656177   3.852290   2.421194   3.223215
    14  C    1.519593   2.407879   2.512971   3.617935   4.558209
    15  O    2.356169   2.889966   2.469982   4.630515   5.429335
    16  C    3.640117   3.862571   3.257300   5.370155   6.309533
    17  C    4.730977   5.232942   4.703000   5.327624   6.157460
    18  O    4.772471   5.552199   5.262578   4.195432   5.045614
    19  H    3.972899   4.882723   4.744025   3.307122   4.227333
    20  C    6.064459   6.352704   5.716854   6.616868   7.508547
    21  O    7.226415   7.660366   7.073702   7.080731   7.865526
    22  H    8.056862   8.380764   7.733373   8.055755   8.860713
    23  C    4.395252   3.838496   2.853560   7.558307   8.420201
    24  O    3.397245   2.671646   1.680562   7.144817   7.927779
    25  H    3.991094   3.013565   2.136984   7.979152   8.743085
    26  C    4.455516   4.362541   3.497377   6.794862   7.628743
    27  O    5.783450   5.600790   4.727427   7.765854   8.673257
    28  C    6.590624   6.658908   5.854337   7.850566   8.681777
    29  O    7.700866   7.617586   6.802272   8.905696   9.837199
    30  H    8.478458   8.405465   7.555281   9.679881  10.543164
    31  H    6.953746   7.110809   6.285987   8.205332   8.886789
    32  H    6.129525   6.286597   5.694826   6.679587   7.727000
    33  H    4.924328   5.516371   4.945477   5.633740   6.243824
    34  H    3.812193   3.833366   3.315135   5.451673   6.568526
    35  H    4.676478   4.764087   3.917538   6.935645   7.590014
    36  H    5.257720   4.675069   3.674507   8.493143   9.277254
    37  H    4.786092   4.050316   3.136506   7.853839   8.849601
    38  H    4.422766   5.563480   6.351982   3.198735   2.934632
    39  H    4.896380   6.040959   6.572201   1.070000   2.033388
    40  H    4.694579   5.910489   6.197214   1.070000   2.033388
    41  H    2.955540   3.898999   4.428829   2.111070   3.370736
    42  H    2.831165   4.182650   4.776843   2.882511   2.809588
    43  H    2.097419   2.552487   3.470370   4.075780   4.886804
    44  H    1.070000   2.043546   2.297802   4.677851   5.113282
    45  H    2.173785   2.625950   2.772831   3.787980   4.961106
                   11         12         13         14         15
    11  H    0.000000
    12  C    3.286097   0.000000
    13  O    3.805082   1.435153   0.000000
    14  C    5.198660   2.290833   1.435262   0.000000
    15  O    5.938349   3.514001   2.246907   1.434930   0.000000
    16  C    6.664577   4.446103   3.228215   2.497455   1.435272
    17  C    6.288145   4.803212   3.547178   3.411306   2.464664
    18  O    5.061575   3.999590   2.956189   3.317593   2.919469
    19  H    4.378332   3.001090   1.998022   2.526201   2.493145
    20  C    7.545168   6.171889   5.001850   4.749462   3.788318
    21  O    7.718913   6.923558   5.816464   5.845962   4.970765
    22  H    8.702033   7.875544   6.768194   6.702790   5.773257
    23  C    8.921964   6.353801   5.215761   4.072615   2.994356
    24  O    8.559050   5.794326   4.790150   3.552429   2.766318
    25  H    9.421282   6.574448   5.662653   4.391017   3.735014
    26  C    7.994123   5.807451   4.527922   3.689725   2.383843
    27  O    8.936114   6.902005   5.663302   4.882971   3.675686
    28  C    8.786484   7.236938   5.962776   5.496698   4.289587
    29  O    9.909654   8.314682   7.132547   6.583300   5.484178
    30  H   10.578420   9.125443   7.896403   7.396150   6.224357
    31  H    8.959106   7.639779   6.287400   5.944008   4.632980
    32  H    7.795490   6.193535   5.177281   4.780744   4.025900
    33  H    6.356395   5.143309   3.773190   3.784311   2.649039
    34  H    6.940331   4.498752   3.529264   2.628290   2.079897
    35  H    7.925532   6.019861   4.641133   4.019919   2.591178
    36  H    9.761952   7.307948   6.114565   5.039512   3.871746
    37  H    9.350185   6.640192   5.630393   4.389747   3.530490
    38  H    3.871188   3.017806   4.128078   4.834207   6.036837
    39  H    2.419309   2.107961   3.277199   4.265675   5.410815
    40  H    2.078918   2.107961   2.466554   3.692737   4.468681
    41  H    4.043639   1.070000   2.038864   2.331650   3.680011
    42  H    3.759473   2.120244   2.538330   3.243658   4.200817
    43  H    5.792225   2.703850   3.309239   2.813978   4.127489
    44  H    5.912733   3.327562   2.668055   2.117092   2.445398
    45  H    5.558684   2.530655   2.097590   1.070000   2.095578
                   16         17         18         19         20
    16  C    0.000000
    17  C    1.520088   0.000000
    18  O    2.459570   1.435346   0.000000
    19  H    2.498097   2.043606   1.000471   0.000000
    20  C    2.501893   1.519353   2.491560   3.324162   0.000000
    21  O    3.820800   2.514139   2.944387   3.931812   1.435238
    22  H    4.528394   3.368789   3.922150   4.899062   2.028324
    23  C    2.584244   3.798621   5.005687   5.037598   4.162915
    24  O    3.050001   4.440020   5.407387   5.175377   5.175362
    25  H    4.026070   5.417962   6.403379   6.158141   6.068124
    26  C    1.520016   2.363811   3.684933   3.903252   2.759747
    27  O    2.457057   2.773516   4.157599   4.637466   2.316282
    28  C    3.019184   2.533108   3.822884   4.558420   1.520584
    29  O    4.110148   3.716029   4.853890   5.629174   2.370920
    30  H    4.904327   4.415306   5.557992   6.378607   3.080368
    31  H    3.569878   2.940889   4.206516   4.954583   2.210119
    32  H    2.650456   2.094651   2.810850   3.523935   1.070000
    33  H    2.086059   1.070000   2.010602   2.541498   2.084139
    34  H    1.070000   2.153366   2.805241   2.785659   2.763090
    35  H    2.116446   2.541824   3.847628   4.092876   3.078221
    36  H    3.464994   4.471100   5.779986   5.899542   4.665915
    37  H    2.904634   4.154613   5.300784   5.348743   4.299236
    38  H    7.231482   7.669959   6.887946   5.906059   9.108425
    39  H    6.072296   6.086485   4.917016   4.059181   7.280833
    40  H    4.964831   4.666340   3.394953   2.635185   5.856865
    41  H    4.415070   4.916324   4.159783   3.207521   6.147738
    42  H    5.503622   5.971391   5.413874   4.471378   7.468484
    43  H    5.178355   6.188859   5.889060   4.965864   7.450317
    44  H    3.853377   4.830591   4.973079   4.238771   6.219077
    45  H    2.626387   3.589552   3.432735   2.701796   4.719980
                   21         22         23         24         25
    21  O    0.000000
    22  H    1.000294   0.000000
    23  C    5.550402   5.930932   0.000000
    24  O    6.562890   7.078035   1.434885   0.000000
    25  H    7.463123   7.919239   2.031699   0.999940   0.000000
    26  C    4.112558   4.584317   1.520327   2.517662   3.373171
    27  O    3.569722   3.749817   2.300753   3.643007   4.332237
    28  C    2.365340   2.433525   3.640885   4.891660   5.652445
    29  O    2.838551   2.417185   4.429821   5.799341   6.448719
    30  H    3.251152   2.635641   5.042494   6.434463   7.036070
    31  H    2.675214   2.721303   4.038345   5.217825   5.956332
    32  H    2.024029   2.410725   4.256902   5.276225   6.128336
    33  H    2.802874   3.624925   3.940924   4.525089   5.485608
    34  H    4.091302   4.723614   2.847738   3.323480   4.211384
    35  H    4.230909   4.730604   2.118146   2.864182   3.682904
    36  H    5.963722   6.228841   1.070000   2.036748   2.268934
    37  H    5.708877   6.007078   1.070000   2.036748   2.415868
    38  H    9.827427  10.801362   8.718258   7.806505   8.370821
    39  H    7.729738   8.675569   8.239648   7.813594   8.611482
    40  H    6.181071   7.151037   7.348506   7.136840   8.038827
    41  H    6.969105   7.871158   6.266276   5.753367   6.497579
    42  H    8.264459   9.227785   6.906637   6.031536   6.665148
    43  H    8.540666   9.386446   6.097716   5.123884   5.562584
    44  H    7.338780   8.174435   4.424312   3.368059   3.941137
    45  H    5.837011   6.642945   4.232654   3.859581   4.650673
                   26         27         28         29         30
    26  C    0.000000
    27  O    1.434382   0.000000
    28  C    2.420528   1.434691   0.000000
    29  O    3.515459   2.166729   1.435972   0.000000
    30  H    4.166806   2.833604   1.975510   0.960000   0.000000
    31  H    2.817494   2.124380   1.070000   2.129557   2.219270
    32  H    3.073033   2.503162   2.099721   2.425213   3.299732
    33  H    2.478604   3.024828   2.656331   4.024100   4.548176
    34  H    2.151507   2.721826   3.400150   4.183625   5.079917
    35  H    1.070000   2.043835   2.608194   3.896135   4.367355
    36  H    2.111181   2.545840   3.814417   4.519621   4.956084
    37  H    2.111181   2.413322   3.835541   4.321501   5.013332
    38  H    8.419356   9.662568  10.080565  11.234446  12.016815
    39  H    7.542082   8.453987   8.570384   9.529380  10.341723
    40  H    6.411961   7.247460   7.172771   8.186884   8.936496
    41  H    5.820816   6.815156   7.238853   8.182361   9.049993
    42  H    6.559087   7.865366   8.290743   9.529998  10.258268
    43  H    6.213015   7.396714   8.192369   9.157981  10.017693
    44  H    4.452659   5.863797   6.617198   7.836260   8.533838
    45  H    3.915219   4.905283   5.561020   6.466753   7.348316
                   31         32         33         34         35
    31  H    0.000000
    32  H    3.037305   0.000000
    33  H    2.653868   2.946330   0.000000
    34  H    4.175721   2.472456   2.991920   0.000000
    35  H    2.577987   3.686766   2.181900   3.014043   0.000000
    36  H    4.014757   4.871850   4.434282   3.831240   2.341947
    37  H    4.450821   4.130986   4.528228   2.768896   2.975199
    38  H   10.370726   9.193077   7.815224   7.352691   8.485855
    39  H    9.010336   7.212580   6.509464   5.990936   7.785845
    40  H    7.526661   5.940654   5.008063   5.063324   6.551720
    41  H    7.778296   5.985076   5.450581   4.211657   6.216268
    42  H    8.489313   7.691635   5.975898   5.828547   6.509847
    43  H    8.699911   7.296331   6.591301   4.998865   6.605198
    44  H    6.818573   6.456911   4.787413   4.286796   4.429946
    45  H    6.177145   4.511947   4.219904   2.309477   4.483237
                   36         37         38         39         40
    36  H    0.000000
    37  H    1.732220   0.000000
    38  H    9.587025   9.087000   0.000000
    39  H    9.220153   8.426628   3.248140   0.000000
    40  H    8.266605   7.630717   4.253796   1.730107   0.000000
    41  H    7.283945   6.380547   3.541178   2.255468   2.550808
    42  H    7.707264   7.415607   2.097948   3.533557   3.667072
    43  H    7.038827   6.218346   3.483561   4.212043   4.760812
    44  H    5.137645   5.026829   4.629531   5.412509   5.042075
    45  H    5.278026   4.286157   5.193189   4.211382   3.808539
                   41         42         43         44         45
    41  H    0.000000
    42  H    2.982445   0.000000
    43  H    2.391026   2.978598   0.000000
    44  H    3.733322   2.763677   2.967684   0.000000
    45  H    2.096490   3.938174   2.786284   3.022833   0.000000
 Stoichiometry    C12H22O11
 Framework group  C1[X(C12H22O11)]
 Deg. of freedom   129
 Full point group                 C1      NOp   1
 Largest Abelian subgroup         C1      NOp   1
 Largest concise Abelian subgroup C1      NOp   1
                         Standard orientation:                         
 ---------------------------------------------------------------------
 Center     Atomic      Atomic             Coordinates (Angstroms)
 Number     Number       Type             X           Y           Z
 ---------------------------------------------------------------------
      1          8           0       -5.062222   -0.529919    0.439654
      2          6           0       -3.786393   -0.147736   -0.092626
      3          6           0       -3.329891    1.259244    0.258791
      4          8           0       -4.279669    2.163358   -0.324531
      5          1           0       -5.148700    1.934139    0.115188
      6          6           0       -1.877722    1.527806   -0.100089
      7          8           0       -1.401833    2.723965    0.534567
      8          1           0       -0.440012    2.816696    0.274764
      9          6           0       -3.083465   -2.583699    0.347988
     10          8           0       -3.831941   -3.024891   -0.793606
     11          1           0       -3.569569   -3.982015   -0.910889
     12          6           0       -2.736711   -1.106625    0.444440
     13          8           0       -1.520259   -0.840807   -0.269178
     14          6           0       -0.986165    0.363916    0.299471
     15          8           0        0.240148    0.546981   -0.422794
     16          6           0        1.502696    0.204339    0.167610
     17          6           0        2.012633   -1.158840   -0.270996
     18          8           0        1.082257   -2.214129    0.013578
     19          1           0        0.140306   -1.888490    0.100927
     20          6           0        3.424912   -1.395588    0.236796
     21          8           0        3.987381   -2.692795   -0.009760
     22          1           0        4.969547   -2.708933    0.179127
     23          6           0        2.379968    2.618728   -0.114241
     24          8           0        1.079938    3.181524   -0.342442
     25          1           0        1.096262    4.180899   -0.313041
     26          6           0        2.549413    1.138568   -0.417240
     27          8           0        3.865525    0.873513    0.087783
     28          6           0        4.425132   -0.387331   -0.306487
     29          8           0        5.546425   -0.397925    0.590511
     30          1           0        6.359528   -0.471571    0.085498
     31          1           0        4.663517   -0.475918   -1.345826
     32          1           0        3.395569   -1.266344    1.298556
     33          1           0        2.088048   -1.116155   -1.337481
     34          1           0        1.468897    0.281829    1.234265
     35          1           0        2.560544    1.009241   -1.479337
     36          1           0        3.082580    3.159795   -0.712975
     37          1           0        2.630324    2.774915    0.914267
     38          1           0       -5.647840   -0.777589   -0.279589
     39          1           0       -3.641960   -2.843923    1.222784
     40          1           0       -2.166328   -3.134495    0.367596
     41          1           0       -2.573967   -0.873538    1.475985
     42          1           0       -3.820417   -0.239080   -1.158176
     43          1           0       -3.411398    1.360662    1.320851
     44          1           0       -1.810088    1.657360   -1.160061
     45          1           0       -0.837290    0.294803    1.356807
 ---------------------------------------------------------------------
 Rotational constants (GHZ):      0.4277707      0.1439176      0.1107027
 Standard basis: 6-31+G(2df,p) (6D, 7F)
 There are   846 symmetry adapted basis functions of A   symmetry.
 Integral buffers will be    131072 words long.
 Raffenetti 2 integral format.
 Two-electron integral symmetry is turned on.
   846 basis functions,  1258 primitive gaussians,   915 cartesian basis functions
    91 alpha electrons       91 beta electrons
       nuclear repulsion energy      2292.9634243159 Hartrees.
 NAtoms=   45 NActive=   45 NUniq=   45 SFac= 1.00D+00 NAtFMM=   50 NAOKFM=F Big=F
 One-electron integrals computed using PRISM.
 NBasis=   846 RedAO= T  NBF=   846
 NBsUse=   846 1.00D-06 NBFU=   846
 Harris functional with IExCor=  402 diagonalized for initial guess.
 ExpMin= 4.38D-02 ExpMax= 5.48D+03 ExpMxC= 8.25D+02 IAcc=2 IRadAn=         0 AccDes= 0.00D+00
 HarFok:  IExCor=  402 AccDes= 0.00D+00 IRadAn=         0 IDoV= 1
 ScaDFX=  1.000000  1.000000  1.000000  1.000000
 FoFCou: FMM=F IPFlag=           0 FMFlag=      100000 FMFlg1=           0
         NFxFlg=           0 DoJE=T BraDBF=F KetDBF=T FulRan=T
         Omega=  0.000000  0.000000  1.000000  0.000000  0.000000 ICntrl=     500 IOpCl=  0
         NMat0=    1 NMatS0=    1 NMatT0=    0 NMatD0=    1 NMtDS0=    0 NMtDT0=    0
         I1Cent=           4 NGrid=           0.
 Petite list used in FoFCou.
 Initial guess orbital symmetries:
       Occupied  (A) (A) (A) (A) (A) (A) (A) (A) (A) (A) (A) (A)
                 (A) (A) (A) (A) (A) (A) (A) (A) (A) (A) (A) (A)
                 (A) (A) (A) (A) (A) (A) (A) (A) (A) (A) (A) (A)
                 (A) (A) (A) (A) (A) (A) (A) (A) (A) (A) (A) (A)
                 (A) (A) (A) (A) (A) (A) (A) (A) (A) (A) (A) (A)
                 (A) (A) (A) (A) (A) (A) (A) (A) (A) (A) (A) (A)
                 (A) (A) (A) (A) (A) (A) (A) (A) (A) (A) (A) (A)
                 (A) (A) (A) (A) (A) (A) (A)
       Virtual   (A) (A) (A) (A) (A) (A) (A) (A) (A) (A) (A) (A)
                 (A) (A) (A) (A) (A) (A) (A) (A) (A) (A) (A) (A)
                 (A) (A) (A) (A) (A) (A) (A) (A) (A) (A) (A) (A)
                 (A) (A) (A) (A) (A) (A) (A) (A) (A) (A) (A) (A)
                 (A) (A) (A) (A) (A) (A) (A) (A) (A) (A) (A) (A)
                 (A) (A) (A) (A) (A) (A) (A) (A) (A) (A) (A) (A)
                 (A) (A) (A) (A) (A) (A) (A) (A) (A) (A) (A) (A)
                 (A) (A) (A) (A) (A) (A) (A) (A) (A) (A) (A) (A)
                 (A) (A) (A) (A) (A) (A) (A) (A) (A) (A) (A) (A)
                 (A) (A) (A) (A) (A) (A) (A) (A) (A) (A) (A) (A)
                 (A) (A) (A) (A) (A) (A) (A) (A) (A) (A) (A) (A)
                 (A) (A) (A) (A) (A) (A) (A) (A) (A) (A) (A) (A)
                 (A) (A) (A) (A) (A) (A) (A) (A) (A) (A) (A) (A)
                 (A) (A) (A) (A) (A) (A) (A) (A) (A) (A) (A) (A)
                 (A) (A) (A) (A) (A) (A) (A) (A) (A) (A) (A) (A)
                 (A) (A) (A) (A) (A) (A) (A) (A) (A) (A) (A) (A)
                 (A) (A) (A) (A) (A) (A) (A) (A) (A) (A) (A) (A)
                 (A) (A) (A) (A) (A) (A) (A) (A) (A) (A) (A) (A)
                 (A) (A) (A) (A) (A) (A) (A) (A) (A) (A) (A) (A)
                 (A) (A) (A) (A) (A) (A) (A) (A) (A) (A) (A) (A)
                 (A) (A) (A) (A) (A) (A) (A) (A) (A) (A) (A) (A)
                 (A) (A) (A) (A) (A) (A) (A) (A) (A) (A) (A) (A)
                 (A) (A) (A) (A) (A) (A) (A) (A) (A) (A) (A) (A)
                 (A) (A) (A) (A) (A) (A) (A) (A) (A) (A) (A) (A)
                 (A) (A) (A) (A) (A) (A) (A) (A) (A) (A) (A) (A)
                 (A) (A) (A) (A) (A) (A) (A) (A) (A) (A) (A) (A)
                 (A) (A) (A) (A) (A) (A) (A) (A) (A) (A) (A) (A)
                 (A) (A) (A) (A) (A) (A) (A) (A) (A) (A) (A) (A)
                 (A) (A) (A) (A) (A) (A) (A) (A) (A) (A) (A) (A)
                 (A) (A) (A) (A) (A) (A) (A) (A) (A) (A) (A) (A)
                 (A) (A) (A) (A) (A) (A) (A) (A) (A) (A) (A) (A)
                 (A) (A) (A) (A) (A) (A) (A) (A) (A) (A) (A) (A)
                 (A) (A) (A) (A) (A) (A) (A) (A) (A) (A) (A) (A)
                 (A) (A) (A) (A) (A) (A) (A) (A) (A) (A) (A) (A)
                 (A) (A) (A) (A) (A) (A) (A) (A) (A) (A) (A) (A)
                 (A) (A) (A) (A) (A) (A) (A) (A) (A) (A) (A) (A)
                 (A) (A) (A) (A) (A) (A) (A) (A) (A) (A) (A) (A)
                 (A) (A) (A) (A) (A) (A) (A) (A) (A) (A) (A) (A)
                 (A) (A) (A) (A) (A) (A) (A) (A) (A) (A) (A) (A)
                 (A) (A) (A) (A) (A) (A) (A) (A) (A) (A) (A) (A)
                 (A) (A) (A) (A) (A) (A) (A) (A) (A) (A) (A) (A)
                 (A) (A) (A) (A) (A) (A) (A) (A) (A) (A) (A) (A)
                 (A) (A) (A) (A) (A) (A) (A) (A) (A) (A) (A) (A)
                 (A) (A) (A) (A) (A) (A) (A) (A) (A) (A) (A) (A)
                 (A) (A) (A) (A) (A) (A) (A) (A) (A) (A) (A) (A)
                 (A) (A) (A) (A) (A) (A) (A) (A) (A) (A) (A) (A)
                 (A) (A) (A) (A) (A) (A) (A) (A) (A) (A) (A) (A)
                 (A) (A) (A) (A) (A) (A) (A) (A) (A) (A) (A) (A)
                 (A) (A) (A) (A) (A) (A) (A) (A) (A) (A) (A) (A)
                 (A) (A) (A) (A) (A) (A) (A) (A) (A) (A) (A) (A)
                 (A) (A) (A) (A) (A) (A) (A) (A) (A) (A) (A) (A)
                 (A) (A) (A) (A) (A) (A) (A) (A) (A) (A) (A) (A)
                 (A) (A) (A) (A) (A) (A) (A) (A) (A) (A) (A) (A)
                 (A) (A) (A) (A) (A) (A) (A) (A) (A) (A) (A) (A)
                 (A) (A) (A) (A) (A) (A) (A) (A) (A) (A) (A) (A)
                 (A) (A) (A) (A) (A) (A) (A) (A) (A) (A) (A) (A)
                 (A) (A) (A) (A) (A) (A) (A) (A) (A) (A) (A) (A)
                 (A) (A) (A) (A) (A) (A) (A) (A) (A) (A) (A) (A)
                 (A) (A) (A) (A) (A) (A) (A) (A) (A) (A) (A) (A)
                 (A) (A) (A) (A) (A) (A) (A) (A) (A) (A) (A) (A)
                 (A) (A) (A) (A) (A) (A) (A) (A) (A) (A) (A) (A)
                 (A) (A) (A) (A) (A) (A) (A) (A) (A) (A) (A) (A)
                 (A) (A) (A) (A) (A) (A) (A) (A) (A) (A) (A)
 The electronic state of the initial guess is 1-A.
 Requested convergence on RMS density matrix=1.00D-08 within 128 cycles.
 Requested convergence on MAX density matrix=1.00D-06.
 Requested convergence on             energy=1.00D-06.
 No special actions if energy rises.
 SCF Done:  E(RB3LYP) =  -1298.01553384     A.U. after   13 cycles
             Convg  =    0.4776D-08             -V/T =  2.0065
 Range of M.O.s used for correlation:     1   846
 NBasis=   846 NAE=    91 NBE=    91 NFC=     0 NFV=     0
 NROrb=    846 NOA=    91 NOB=    91 NVA=   755 NVB=   755

 **** Warning!!: The largest alpha MO coefficient is  0.81279702D+02

          Differentiating once with respect to electric field.
                with respect to dipole field.
          Electric field/nuclear overlap derivatives assumed to be zero.
          There are     3 degrees of freedom in the 1st order CPHF.  IDoFFX=0.
      3 vectors produced by pass  0 Test12= 2.29D-12 3.33D-08 XBig12= 1.24D+02 1.09D+00.
 AX will form     3 AO Fock derivatives at one time.
      3 vectors produced by pass  1 Test12= 2.29D-12 3.33D-08 XBig12= 2.54D+01 3.64D-01.
      3 vectors produced by pass  2 Test12= 2.29D-12 3.33D-08 XBig12= 1.02D+01 2.21D-01.
      3 vectors produced by pass  3 Test12= 2.29D-12 3.33D-08 XBig12= 1.11D+00 9.60D-02.
      3 vectors produced by pass  4 Test12= 2.29D-12 3.33D-08 XBig12= 3.50D-01 3.77D-02.
      3 vectors produced by pass  5 Test12= 2.29D-12 3.33D-08 XBig12= 5.53D-02 1.91D-02.
      3 vectors produced by pass  6 Test12= 2.29D-12 3.33D-08 XBig12= 2.18D-02 1.72D-02.
      3 vectors produced by pass  7 Test12= 2.29D-12 3.33D-08 XBig12= 2.74D-03 6.15D-03.
      3 vectors produced by pass  8 Test12= 2.29D-12 3.33D-08 XBig12= 6.39D-04 2.36D-03.
      3 vectors produced by pass  9 Test12= 2.29D-12 3.33D-08 XBig12= 1.29D-04 1.13D-03.
      3 vectors produced by pass 10 Test12= 2.29D-12 3.33D-08 XBig12= 4.49D-05 5.57D-04.
      3 vectors produced by pass 11 Test12= 2.29D-12 3.33D-08 XBig12= 7.07D-06 3.26D-04.
      3 vectors produced by pass 12 Test12= 2.29D-12 3.33D-08 XBig12= 1.48D-06 1.46D-04.
      3 vectors produced by pass 13 Test12= 2.29D-12 3.33D-08 XBig12= 4.17D-07 5.13D-05.
      3 vectors produced by pass 14 Test12= 2.29D-12 3.33D-08 XBig12= 5.66D-08 2.72D-05.
      3 vectors produced by pass 15 Test12= 2.29D-12 3.33D-08 XBig12= 1.46D-08 7.56D-06.
      3 vectors produced by pass 16 Test12= 2.29D-12 3.33D-08 XBig12= 1.86D-09 3.53D-06.
      3 vectors produced by pass 17 Test12= 2.29D-12 3.33D-08 XBig12= 1.32D-10 9.67D-07.
      3 vectors produced by pass 18 Test12= 2.29D-12 3.33D-08 XBig12= 2.22D-11 2.66D-07.
      3 vectors produced by pass 19 Test12= 2.29D-12 3.33D-08 XBig12= 9.17D-12 2.63D-07.
      3 vectors produced by pass 20 Test12= 2.29D-12 3.33D-08 XBig12= 4.47D-12 1.26D-07.
      2 vectors produced by pass 21 Test12= 2.29D-12 3.33D-08 XBig12= 1.20D-12 6.49D-08.
      1 vectors produced by pass 22 Test12= 2.29D-12 3.33D-08 XBig12= 4.06D-13 3.61D-08.
 Inverted reduced A of dimension    66 with in-core refinement.
 End of Minotr Frequency-dependent properties file   721 does not exist.
 End of Minotr Frequency-dependent properties file   722 does not exist.
 Symmetrizing basis deriv contribution to polar:
 IMax=3 JMax=2 DiffMx= 0.00D+00
 G2DrvN: will do     8 centers at a time, making    6 passes doing MaxLOS=3.
 Calling FoFCou, ICntrl=  3107 FMM=F I1Cent=   0 AccDes= 0.00D+00.
 Calling FoFCou, ICntrl=  3107 FMM=F I1Cent=   0 AccDes= 0.00D+00.
 Calling FoFCou, ICntrl=  3107 FMM=F I1Cent=   0 AccDes= 0.00D+00.
 Calling FoFCou, ICntrl=  3107 FMM=F I1Cent=   0 AccDes= 0.00D+00.
 Calling FoFCou, ICntrl=  3107 FMM=F I1Cent=   0 AccDes= 0.00D+00.
 Calling FoFCou, ICntrl=  3107 FMM=F I1Cent=   0 AccDes= 0.00D+00.
 FoFDir/FoFCou used for L=0 through L=3.
 End of G2Drv Frequency-dependent properties file   721 does not exist.
 End of G2Drv Frequency-dependent properties file   722 does not exist.
          IDoAtm=111111111111111111111111111111111111111111111
          Differentiating once with respect to electric field.
                with respect to dipole field.
          Differentiating once with respect to nuclear coordinates.
          There are   138 degrees of freedom in the 1st order CPHF.  IDoFFX=5.
 Will reuse    3 saved solutions.
    135 vectors produced by pass  0 Test12= 6.87D-14 1.00D-09 XBig12= 1.62D-01 5.18D-02.
 AX will form    27 AO Fock derivatives at one time.
    135 vectors produced by pass  1 Test12= 6.87D-14 1.00D-09 XBig12= 2.45D-02 1.07D-02.
    132 vectors produced by pass  2 Test12= 6.87D-14 1.00D-09 XBig12= 1.51D-04 1.25D-03.
    132 vectors produced by pass  3 Test12= 6.87D-14 1.00D-09 XBig12= 8.54D-07 6.54D-05.
    132 vectors produced by pass  4 Test12= 6.87D-14 1.00D-09 XBig12= 2.18D-09 3.08D-06.
    132 vectors produced by pass  5 Test12= 6.87D-14 1.00D-09 XBig12= 5.39D-12 1.30D-07.
     96 vectors produced by pass  6 Test12= 6.87D-14 1.00D-09 XBig12= 2.58D-13 3.00D-08.
      2 vectors produced by pass  7 Test12= 6.87D-14 1.00D-09 XBig12= 6.09D-16 1.29D-09.
 Inverted reduced A of dimension   896 with in-core refinement.
 Isotropic polarizability for W=    0.000000      191.72 Bohr**3.
 End of Minotr Frequency-dependent properties file   721 does not exist.
 End of Minotr Frequency-dependent properties file   722 does not exist.

 **********************************************************************

            Population analysis using the SCF density.

 **********************************************************************

 Orbital symmetries:
       Occupied  (A) (A) (A) (A) (A) (A) (A) (A) (A) (A) (A) (A)
                 (A) (A) (A) (A) (A) (A) (A) (A) (A) (A) (A) (A)
                 (A) (A) (A) (A) (A) (A) (A) (A) (A) (A) (A) (A)
                 (A) (A) (A) (A) (A) (A) (A) (A) (A) (A) (A) (A)
                 (A) (A) (A) (A) (A) (A) (A) (A) (A) (A) (A) (A)
                 (A) (A) (A) (A) (A) (A) (A) (A) (A) (A) (A) (A)
                 (A) (A) (A) (A) (A) (A) (A) (A) (A) (A) (A) (A)
                 (A) (A) (A) (A) (A) (A) (A)
       Virtual   (A) (A) (A) (A) (A) (A) (A) (A) (A) (A) (A) (A)
                 (A) (A) (A) (A) (A) (A) (A) (A) (A) (A) (A) (A)
                 (A) (A) (A) (A) (A) (A) (A) (A) (A) (A) (A) (A)
                 (A) (A) (A) (A) (A) (A) (A) (A) (A) (A) (A) (A)
                 (A) (A) (A) (A) (A) (A) (A) (A) (A) (A) (A) (A)
                 (A) (A) (A) (A) (A) (A) (A) (A) (A) (A) (A) (A)
                 (A) (A) (A) (A) (A) (A) (A) (A) (A) (A) (A) (A)
                 (A) (A) (A) (A) (A) (A) (A) (A) (A) (A) (A) (A)
                 (A) (A) (A) (A) (A) (A) (A) (A) (A) (A) (A) (A)
                 (A) (A) (A) (A) (A) (A) (A) (A) (A) (A) (A) (A)
                 (A) (A) (A) (A) (A) (A) (A) (A) (A) (A) (A) (A)
                 (A) (A) (A) (A) (A) (A) (A) (A) (A) (A) (A) (A)
                 (A) (A) (A) (A) (A) (A) (A) (A) (A) (A) (A) (A)
                 (A) (A) (A) (A) (A) (A) (A) (A) (A) (A) (A) (A)
                 (A) (A) (A) (A) (A) (A) (A) (A) (A) (A) (A) (A)
                 (A) (A) (A) (A) (A) (A) (A) (A) (A) (A) (A) (A)
                 (A) (A) (A) (A) (A) (A) (A) (A) (A) (A) (A) (A)
                 (A) (A) (A) (A) (A) (A) (A) (A) (A) (A) (A) (A)
                 (A) (A) (A) (A) (A) (A) (A) (A) (A) (A) (A) (A)
                 (A) (A) (A) (A) (A) (A) (A) (A) (A) (A) (A) (A)
                 (A) (A) (A) (A) (A) (A) (A) (A) (A) (A) (A) (A)
                 (A) (A) (A) (A) (A) (A) (A) (A) (A) (A) (A) (A)
                 (A) (A) (A) (A) (A) (A) (A) (A) (A) (A) (A) (A)
                 (A) (A) (A) (A) (A) (A) (A) (A) (A) (A) (A) (A)
                 (A) (A) (A) (A) (A) (A) (A) (A) (A) (A) (A) (A)
                 (A) (A) (A) (A) (A) (A) (A) (A) (A) (A) (A) (A)
                 (A) (A) (A) (A) (A) (A) (A) (A) (A) (A) (A) (A)
                 (A) (A) (A) (A) (A) (A) (A) (A) (A) (A) (A) (A)
                 (A) (A) (A) (A) (A) (A) (A) (A) (A) (A) (A) (A)
                 (A) (A) (A) (A) (A) (A) (A) (A) (A) (A) (A) (A)
                 (A) (A) (A) (A) (A) (A) (A) (A) (A) (A) (A) (A)
                 (A) (A) (A) (A) (A) (A) (A) (A) (A) (A) (A) (A)
                 (A) (A) (A) (A) (A) (A) (A) (A) (A) (A) (A) (A)
                 (A) (A) (A) (A) (A) (A) (A) (A) (A) (A) (A) (A)
                 (A) (A) (A) (A) (A) (A) (A) (A) (A) (A) (A) (A)
                 (A) (A) (A) (A) (A) (A) (A) (A) (A) (A) (A) (A)
                 (A) (A) (A) (A) (A) (A) (A) (A) (A) (A) (A) (A)
                 (A) (A) (A) (A) (A) (A) (A) (A) (A) (A) (A) (A)
                 (A) (A) (A) (A) (A) (A) (A) (A) (A) (A) (A) (A)
                 (A) (A) (A) (A) (A) (A) (A) (A) (A) (A) (A) (A)
                 (A) (A) (A) (A) (A) (A) (A) (A) (A) (A) (A) (A)
                 (A) (A) (A) (A) (A) (A) (A) (A) (A) (A) (A) (A)
                 (A) (A) (A) (A) (A) (A) (A) (A) (A) (A) (A) (A)
                 (A) (A) (A) (A) (A) (A) (A) (A) (A) (A) (A) (A)
                 (A) (A) (A) (A) (A) (A) (A) (A) (A) (A) (A) (A)
                 (A) (A) (A) (A) (A) (A) (A) (A) (A) (A) (A) (A)
                 (A) (A) (A) (A) (A) (A) (A) (A) (A) (A) (A) (A)
                 (A) (A) (A) (A) (A) (A) (A) (A) (A) (A) (A) (A)
                 (A) (A) (A) (A) (A) (A) (A) (A) (A) (A) (A) (A)
                 (A) (A) (A) (A) (A) (A) (A) (A) (A) (A) (A) (A)
                 (A) (A) (A) (A) (A) (A) (A) (A) (A) (A) (A) (A)
                 (A) (A) (A) (A) (A) (A) (A) (A) (A) (A) (A) (A)
                 (A) (A) (A) (A) (A) (A) (A) (A) (A) (A) (A) (A)
                 (A) (A) (A) (A) (A) (A) (A) (A) (A) (A) (A) (A)
                 (A) (A) (A) (A) (A) (A) (A) (A) (A) (A) (A) (A)
                 (A) (A) (A) (A) (A) (A) (A) (A) (A) (A) (A) (A)
                 (A) (A) (A) (A) (A) (A) (A) (A) (A) (A) (A) (A)
                 (A) (A) (A) (A) (A) (A) (A) (A) (A) (A) (A) (A)
                 (A) (A) (A) (A) (A) (A) (A) (A) (A) (A) (A) (A)
                 (A) (A) (A) (A) (A) (A) (A) (A) (A) (A) (A) (A)
                 (A) (A) (A) (A) (A) (A) (A) (A) (A) (A) (A) (A)
                 (A) (A) (A) (A) (A) (A) (A) (A) (A) (A) (A) (A)
                 (A) (A) (A) (A) (A) (A) (A) (A) (A) (A) (A)
 The electronic state is 1-A.
 Alpha  occ. eigenvalues --  -19.18500 -19.18476 -19.17864 -19.17650 -19.17469
 Alpha  occ. eigenvalues --  -19.16566 -19.16237 -19.15480 -19.14971 -19.14150
 Alpha  occ. eigenvalues --  -19.13078 -10.30931 -10.30289 -10.25830 -10.25803
 Alpha  occ. eigenvalues --  -10.25060 -10.24884 -10.24626 -10.24511 -10.24223
 Alpha  occ. eigenvalues --  -10.23913 -10.23885 -10.23769  -1.09909  -1.09456
 Alpha  occ. eigenvalues --   -1.05310  -1.04764  -1.03638  -1.03089  -1.02608
 Alpha  occ. eigenvalues --   -1.02153  -1.01713  -1.00420  -0.99858  -0.82301
 Alpha  occ. eigenvalues --   -0.79847  -0.79418  -0.77662  -0.71858  -0.70025
 Alpha  occ. eigenvalues --   -0.67289  -0.64642  -0.62917  -0.61890  -0.61629
 Alpha  occ. eigenvalues --   -0.60289  -0.56900  -0.55394  -0.55014  -0.54238
 Alpha  occ. eigenvalues --   -0.53749  -0.52892  -0.52781  -0.52363  -0.51349
 Alpha  occ. eigenvalues --   -0.50257  -0.49824  -0.48898  -0.46697  -0.46531
 Alpha  occ. eigenvalues --   -0.45821  -0.44950  -0.44887  -0.44275  -0.42914
 Alpha  occ. eigenvalues --   -0.42189  -0.41639  -0.41007  -0.40664  -0.39276
 Alpha  occ. eigenvalues --   -0.39061  -0.38260  -0.37416  -0.36106  -0.35579
 Alpha  occ. eigenvalues --   -0.34661  -0.34390  -0.34239  -0.33991  -0.33718
 Alpha  occ. eigenvalues --   -0.33399  -0.31587  -0.30826  -0.30012  -0.29945
 Alpha  occ. eigenvalues --   -0.29311  -0.28563  -0.27539  -0.27403  -0.26702
 Alpha  occ. eigenvalues --   -0.25966
 Alpha virt. eigenvalues --   -0.02113  -0.01759  -0.01143  -0.00394   0.00182
 Alpha virt. eigenvalues --    0.00876   0.01715   0.02693   0.03179   0.03483
 Alpha virt. eigenvalues --    0.03866   0.04195   0.04422   0.05148   0.05510
 Alpha virt. eigenvalues --    0.06220   0.06361   0.07645   0.07875   0.08058
 Alpha virt. eigenvalues --    0.08444   0.08973   0.09067   0.09673   0.09944
 Alpha virt. eigenvalues --    0.10614   0.11113   0.11352   0.11816   0.12112
 Alpha virt. eigenvalues --    0.12599   0.12695   0.13251   0.13409   0.13704
 Alpha virt. eigenvalues --    0.14099   0.14276   0.14714   0.15072   0.15300
 Alpha virt. eigenvalues --    0.15831   0.16295   0.16701   0.16970   0.17589
 Alpha virt. eigenvalues --    0.17746   0.17798   0.18027   0.18245   0.18753
 Alpha virt. eigenvalues --    0.18872   0.19078   0.19330   0.19678   0.19819
 Alpha virt. eigenvalues --    0.20137   0.20404   0.20625   0.21141   0.21749
 Alpha virt. eigenvalues --    0.21953   0.22610   0.22681   0.22909   0.23137
 Alpha virt. eigenvalues --    0.23408   0.23777   0.24132   0.24380   0.24845
 Alpha virt. eigenvalues --    0.25135   0.25182   0.25392   0.25440   0.25726
 Alpha virt. eigenvalues --    0.26398   0.26578   0.26893   0.27121   0.27569
 Alpha virt. eigenvalues --    0.27666   0.28026   0.28423   0.28805   0.29061
 Alpha virt. eigenvalues --    0.29365   0.29622   0.30079   0.30463   0.30671
 Alpha virt. eigenvalues --    0.30929   0.31436   0.31587   0.31866   0.32230
 Alpha virt. eigenvalues --    0.32452   0.33077   0.33207   0.33392   0.33584
 Alpha virt. eigenvalues --    0.34202   0.34508   0.34725   0.35165   0.35819
 Alpha virt. eigenvalues --    0.35968   0.36286   0.36800   0.37082   0.37294
 Alpha virt. eigenvalues --    0.37852   0.38292   0.38433   0.38794   0.39580
 Alpha virt. eigenvalues --    0.40193   0.40539   0.40646   0.40818   0.41731
 Alpha virt. eigenvalues --    0.41835   0.42861   0.43274   0.43739   0.44364
 Alpha virt. eigenvalues --    0.45042   0.45235   0.45648   0.46006   0.46232
 Alpha virt. eigenvalues --    0.47116   0.48126   0.48258   0.49310   0.50170
 Alpha virt. eigenvalues --    0.50623   0.51388   0.53697   0.56295   0.57100
 Alpha virt. eigenvalues --    0.58727   0.59411   0.59717   0.60936   0.61784
 Alpha virt. eigenvalues --    0.62069   0.64062   0.64681   0.65098   0.65939
 Alpha virt. eigenvalues --    0.66435   0.67541   0.68383   0.68448   0.69525
 Alpha virt. eigenvalues --    0.69948   0.70677   0.71863   0.72700   0.73022
 Alpha virt. eigenvalues --    0.73508   0.73900   0.74575   0.75816   0.76047
 Alpha virt. eigenvalues --    0.77294   0.78258   0.79501   0.79912   0.80360
 Alpha virt. eigenvalues --    0.81841   0.82243   0.83553   0.84213   0.84474
 Alpha virt. eigenvalues --    0.85968   0.86670   0.87725   0.87964   0.88839
 Alpha virt. eigenvalues --    0.89172   0.89751   0.90366   0.90830   0.91664
 Alpha virt. eigenvalues --    0.91783   0.92695   0.93051   0.93429   0.94097
 Alpha virt. eigenvalues --    0.94418   0.94687   0.94788   0.95346   0.96088
 Alpha virt. eigenvalues --    0.96360   0.97372   0.97484   0.98200   0.98505
 Alpha virt. eigenvalues --    0.98716   0.99302   1.00089   1.01433   1.01669
 Alpha virt. eigenvalues --    1.01869   1.03410   1.03775   1.04608   1.04649
 Alpha virt. eigenvalues --    1.05814   1.06538   1.06918   1.07099   1.07752
 Alpha virt. eigenvalues --    1.08394   1.09823   1.10172   1.10470   1.11103
 Alpha virt. eigenvalues --    1.11904   1.12514   1.13109   1.13188   1.13300
 Alpha virt. eigenvalues --    1.14602   1.15139   1.15892   1.16496   1.16825
 Alpha virt. eigenvalues --    1.17152   1.17998   1.18371   1.18611   1.19110
 Alpha virt. eigenvalues --    1.19702   1.20157   1.21059   1.21485   1.22014
 Alpha virt. eigenvalues --    1.22394   1.22625   1.23085   1.23997   1.24435
 Alpha virt. eigenvalues --    1.25441   1.25653   1.26684   1.27286   1.27822
 Alpha virt. eigenvalues --    1.28402   1.28862   1.29095   1.30062   1.30265
 Alpha virt. eigenvalues --    1.30954   1.32302   1.32500   1.33559   1.33672
 Alpha virt. eigenvalues --    1.35204   1.35414   1.35743   1.35835   1.36215
 Alpha virt. eigenvalues --    1.37112   1.38427   1.38490   1.39276   1.40242
 Alpha virt. eigenvalues --    1.40525   1.41117   1.42418   1.42576   1.43315
 Alpha virt. eigenvalues --    1.44438   1.44732   1.45402   1.45870   1.47501
 Alpha virt. eigenvalues --    1.48872   1.49711   1.49834   1.50266   1.51803
 Alpha virt. eigenvalues --    1.52320   1.52956   1.54307   1.55434   1.55988
 Alpha virt. eigenvalues --    1.57126   1.57892   1.58965   1.59749   1.60204
 Alpha virt. eigenvalues --    1.60550   1.61754   1.62658   1.63086   1.63389
 Alpha virt. eigenvalues --    1.64961   1.66036   1.66296   1.67245   1.68024
 Alpha virt. eigenvalues --    1.68266   1.69060   1.70493   1.70959   1.71396
 Alpha virt. eigenvalues --    1.71978   1.73456   1.74310   1.74951   1.75939
 Alpha virt. eigenvalues --    1.76379   1.77648   1.78342   1.80123   1.80452
 Alpha virt. eigenvalues --    1.81410   1.82227   1.84347   1.84672   1.85216
 Alpha virt. eigenvalues --    1.87533   1.88761   1.89659   1.90118   1.90693
 Alpha virt. eigenvalues --    1.91577   1.92701   1.93719   1.94436   1.95539
 Alpha virt. eigenvalues --    1.96362   1.97686   1.98311   1.99408   2.00361
 Alpha virt. eigenvalues --    2.00934   2.02115   2.03431   2.04789   2.06422
 Alpha virt. eigenvalues --    2.07731   2.08264   2.09141   2.09941   2.11514
 Alpha virt. eigenvalues --    2.12620   2.14843   2.18330   2.19363   2.19914
 Alpha virt. eigenvalues --    2.20565   2.21700   2.24541   2.24754   2.25817
 Alpha virt. eigenvalues --    2.27037   2.28551   2.28672   2.30158   2.30680
 Alpha virt. eigenvalues --    2.32048   2.34436   2.39031   2.42296   2.43030
 Alpha virt. eigenvalues --    2.44844   2.46319   2.46623   2.48907   2.50026
 Alpha virt. eigenvalues --    2.51009   2.52327   2.52889   2.54134   2.55230
 Alpha virt. eigenvalues --    2.55330   2.56449   2.58595   2.58907   2.60559
 Alpha virt. eigenvalues --    2.61844   2.62169   2.63977   2.64519   2.64590
 Alpha virt. eigenvalues --    2.65753   2.66483   2.68099   2.68971   2.71100
 Alpha virt. eigenvalues --    2.72703   2.74865   2.75807   2.78211   2.79068
 Alpha virt. eigenvalues --    2.79777   2.80190   2.81684   2.82038   2.83195
 Alpha virt. eigenvalues --    2.84530   2.85776   2.86635   2.87509   2.90041
 Alpha virt. eigenvalues --    2.91108   2.91187   2.91736   2.92991   2.93500
 Alpha virt. eigenvalues --    2.94339   2.95567   2.95782   2.96496   2.96853
 Alpha virt. eigenvalues --    2.99921   3.01139   3.01329   3.02441   3.02862
 Alpha virt. eigenvalues --    3.04054   3.04319   3.05616   3.06087   3.06914
 Alpha virt. eigenvalues --    3.07188   3.08691   3.09644   3.11637   3.12567
 Alpha virt. eigenvalues --    3.13848   3.14012   3.14774   3.16909   3.18140
 Alpha virt. eigenvalues --    3.19824   3.20897   3.21543   3.22380   3.24011
 Alpha virt. eigenvalues --    3.24189   3.25507   3.25791   3.27064   3.27619
 Alpha virt. eigenvalues --    3.28870   3.29775   3.30788   3.32091   3.32626
 Alpha virt. eigenvalues --    3.34486   3.36197   3.37781   3.39074   3.39949
 Alpha virt. eigenvalues --    3.40520   3.40962   3.41540   3.44393   3.45339
 Alpha virt. eigenvalues --    3.46021   3.47476   3.49908   3.50545   3.51539
 Alpha virt. eigenvalues --    3.55933   3.57519   3.58000   3.59258   3.60663
 Alpha virt. eigenvalues --    3.61508   3.63079   3.64214   3.64462   3.67499
 Alpha virt. eigenvalues --    3.68038   3.68748   3.71535   3.73826   3.74996
 Alpha virt. eigenvalues --    3.76083   3.76862   3.77116   3.78365   3.79448
 Alpha virt. eigenvalues --    3.80577   3.82217   3.83811   3.85440   3.86224
 Alpha virt. eigenvalues --    3.87601   3.88504   3.90423   3.91765   3.92389
 Alpha virt. eigenvalues --    3.93867   3.98272   3.99797   4.02445   4.04833
 Alpha virt. eigenvalues --    4.05989   4.07233   4.08869   4.10355   4.14220
 Alpha virt. eigenvalues --    4.15471   4.15908   4.18006   4.18807   4.20341
 Alpha virt. eigenvalues --    4.20710   4.22287   4.22402   4.24032   4.24957
 Alpha virt. eigenvalues --    4.26796   4.28710   4.29022   4.30191   4.30826
 Alpha virt. eigenvalues --    4.30980   4.33265   4.33591   4.34453   4.35224
 Alpha virt. eigenvalues --    4.36409   4.37056   4.37921   4.38427   4.39023
 Alpha virt. eigenvalues --    4.40271   4.40767   4.41559   4.42331   4.43167
 Alpha virt. eigenvalues --    4.43529   4.45050   4.46049   4.46432   4.47948
 Alpha virt. eigenvalues --    4.48287   4.49155   4.49746   4.50963   4.51566
 Alpha virt. eigenvalues --    4.52292   4.53073   4.53729   4.54199   4.55138
 Alpha virt. eigenvalues --    4.55424   4.56055   4.57293   4.57855   4.58340
 Alpha virt. eigenvalues --    4.58884   4.60553   4.60678   4.61305   4.61588
 Alpha virt. eigenvalues --    4.62992   4.64023   4.64376   4.65509   4.66090
 Alpha virt. eigenvalues --    4.66415   4.67287   4.67772   4.68246   4.69476
 Alpha virt. eigenvalues --    4.69488   4.70804   4.71227   4.71963   4.72288
 Alpha virt. eigenvalues --    4.73337   4.74164   4.74616   4.75052   4.76067
 Alpha virt. eigenvalues --    4.76919   4.77238   4.78012   4.79183   4.79872
 Alpha virt. eigenvalues --    4.80625   4.80815   4.81909   4.82485   4.83161
 Alpha virt. eigenvalues --    4.83456   4.84138   4.85288   4.86013   4.87275
 Alpha virt. eigenvalues --    4.87696   4.88007   4.88457   4.89847   4.92026
 Alpha virt. eigenvalues --    4.92355   4.92712   4.93282   4.94384   4.95210
 Alpha virt. eigenvalues --    4.96617   4.98878   4.99540   5.00797   5.01964
 Alpha virt. eigenvalues --    5.04177   5.06880   5.08484   5.11053   5.11502
 Alpha virt. eigenvalues --    5.12222   5.14397   5.15839   5.16997   5.18508
 Alpha virt. eigenvalues --    5.19049   5.19343   5.20228   5.21170   5.23051
 Alpha virt. eigenvalues --    5.24120   5.24390   5.25400   5.28320   5.29092
 Alpha virt. eigenvalues --    5.30463   5.31430   5.32305   5.33317   5.35031
 Alpha virt. eigenvalues --    5.36700   5.36970   5.38594   5.39735   5.39985
 Alpha virt. eigenvalues --    5.40072   5.42067   5.42158   5.43005   5.43508
 Alpha virt. eigenvalues --    5.44176   5.45564   5.45704   5.46152   5.47788
 Alpha virt. eigenvalues --    5.48879   5.49574   5.50342   5.51228   5.53106
 Alpha virt. eigenvalues --    5.54262   5.55404   5.55902   5.57267   5.58632
 Alpha virt. eigenvalues --    5.60273   5.61619   5.64230   5.65264   5.67469
 Alpha virt. eigenvalues --    5.67715   5.68454   5.70371   5.71934   5.75290
 Alpha virt. eigenvalues --    5.76862   5.78495   5.79430   5.84073   5.84790
 Alpha virt. eigenvalues --    5.86225   5.87185   5.87882   5.90559   5.90739
 Alpha virt. eigenvalues --    5.91269   5.91719   5.92807   5.93943   5.95747
 Alpha virt. eigenvalues --    5.97088   5.97557   5.98473   5.99213   6.01677
 Alpha virt. eigenvalues --    6.02793   6.03271   6.04900   6.05675   6.07116
 Alpha virt. eigenvalues --    6.08622   6.10178   6.10732   6.12517   6.13670
 Alpha virt. eigenvalues --    6.13767   6.17857   6.20159   6.20953   6.23232
 Alpha virt. eigenvalues --    6.25469   6.27596   6.30084   6.31193   6.38061
 Alpha virt. eigenvalues --    6.49047   6.72796   6.97021   7.07061   7.09916
 Alpha virt. eigenvalues --    7.14974   7.17694   7.26269   7.28193   7.33877
 Alpha virt. eigenvalues --    7.36657   7.42824   7.52565   7.57183   7.77430
 Alpha virt. eigenvalues --    7.98042   8.17397  12.06904  12.13428  12.22706
 Alpha virt. eigenvalues --   12.27704  12.47435  12.54394  12.84012  12.92913
 Alpha virt. eigenvalues --   12.98522  13.10864  13.25913  13.35720  13.39693
 Alpha virt. eigenvalues --   13.46800  13.53627  13.61241  13.62483  13.67613
 Alpha virt. eigenvalues --   13.70276  13.83305  14.07540  14.14315  14.31127
          Condensed to atoms (all electrons):
              1          2          3          4          5          6
     1  O    8.100498   0.349109  -0.102001  -0.007340   0.015414   0.003019
     2  C    0.349109   6.560495  -0.112156  -0.043760  -0.070197  -0.698561
     3  C   -0.102001  -0.112156   6.505511   0.225846   0.009470  -0.304085
     4  O   -0.007340  -0.043760   0.225846   8.082817   0.246594  -0.058098
     5  H    0.015414  -0.070197   0.009470   0.246594   0.417928   0.033366
     6  C    0.003019  -0.698561  -0.304085  -0.058098   0.033366   7.894945
     7  O    0.000172   0.015512  -0.099642   0.002367  -0.000517   0.285694
     8  H    0.000009  -0.002103   0.004241  -0.000238   0.000012  -0.007509
     9  C   -0.027484  -0.326191  -0.293969   0.004022  -0.002425   0.419253
    10  O    0.006511   0.041698   0.012863   0.000246  -0.000021   0.005131
    11  H    0.000849   0.004595  -0.000234   0.000000   0.000000  -0.000139
    12  C   -0.135825  -0.636108  -0.169872   0.023234   0.011115   0.746497
    13  O    0.006314  -0.014307  -0.019929  -0.003986   0.000145  -0.085600
    14  C    0.012619   0.538304   0.305327   0.002780  -0.000320  -2.215444
    15  O   -0.000223  -0.005681   0.001649   0.000708  -0.000019  -0.049455
    16  C    0.001143   0.114133  -0.059071  -0.002132   0.000306  -0.039136
    17  C   -0.000251  -0.044471   0.018488   0.000325   0.000013  -0.045548
    18  O    0.000084   0.009282  -0.001407  -0.000012   0.000000  -0.001257
    19  H   -0.000088  -0.007602   0.007062   0.000002   0.000000   0.002790
    20  C    0.000050   0.010290  -0.012684  -0.000016   0.000001   0.048111
    21  O    0.000000   0.000051  -0.000026   0.000000   0.000000  -0.000196
    22  H    0.000000   0.000000   0.000001   0.000000   0.000000  -0.000027
    23  C    0.000015   0.005052  -0.001292  -0.000043  -0.000009  -0.057007
    24  O    0.000005  -0.000700  -0.005501  -0.000007  -0.000003  -0.022541
    25  H    0.000000   0.000144   0.002149   0.000004   0.000000   0.003684
    26  C    0.000083  -0.019043  -0.009711   0.000394   0.000008  -0.040920
    27  O    0.000000  -0.000031   0.000166   0.000000   0.000000   0.003581
    28  C   -0.000001   0.001666  -0.000508  -0.000001   0.000000   0.004825
    29  O    0.000000  -0.000004   0.000019   0.000000   0.000000  -0.000351
    30  H    0.000000   0.000000   0.000000   0.000000   0.000000   0.000006
    31  H    0.000000   0.000001   0.000006   0.000000   0.000000  -0.000010
    32  H    0.000000   0.000098   0.000073   0.000000   0.000000   0.001299
    33  H    0.000000  -0.000479   0.001413   0.000000   0.000000   0.005285
    34  H    0.000001  -0.002724   0.004268   0.000003   0.000000   0.007061
    35  H    0.000000  -0.000218   0.000827   0.000000   0.000000   0.000355
    36  H    0.000000  -0.000027  -0.000149   0.000000   0.000000   0.000400
    37  H    0.000000   0.000085   0.000215   0.000000   0.000000  -0.004556
    38  H    0.269941   0.001670   0.002457  -0.000577  -0.001307   0.000762
    39  H    0.002402  -0.063077  -0.004348  -0.000023  -0.000001   0.008236
    40  H   -0.000907   0.003380   0.003768   0.000015   0.000000   0.005683
    41  H    0.005530   0.064690  -0.000064   0.000898  -0.000009  -0.094583
    42  H   -0.015259   0.389086  -0.036777   0.000940  -0.000148  -0.056862
    43  H   -0.000298  -0.002430   0.284703  -0.018330  -0.006331  -0.124814
    44  H   -0.000242   0.004216  -0.086453   0.000166  -0.000099   0.395701
    45  H    0.000278  -0.011362  -0.061845  -0.000104   0.000006   0.102280
              7          8          9         10         11         12
     1  O    0.000172   0.000009  -0.027484   0.006511   0.000849  -0.135825
     2  C    0.015512  -0.002103  -0.326191   0.041698   0.004595  -0.636108
     3  C   -0.099642   0.004241  -0.293969   0.012863  -0.000234  -0.169872
     4  O    0.002367  -0.000238   0.004022   0.000246   0.000000   0.023234
     5  H   -0.000517   0.000012  -0.002425  -0.000021   0.000000   0.011115
     6  C    0.285694  -0.007509   0.419253   0.005131  -0.000139   0.746497
     7  O    8.137161   0.257268  -0.001028  -0.000004   0.000000  -0.008884
     8  H    0.257268   0.327113   0.000110   0.000000   0.000000   0.002449
     9  C   -0.001028   0.000110   7.707211   0.260436  -0.065015  -1.049336
    10  O   -0.000004   0.000000   0.260436   8.141540   0.248078  -0.215495
    11  H    0.000000   0.000000  -0.065015   0.248078   0.424104   0.051356
    12  C   -0.008884   0.002449  -1.049336  -0.215495   0.051356   8.620295
    13  O    0.002343   0.000537  -0.047656   0.009648  -0.000202   0.093933
    14  C   -0.020075  -0.027810  -0.906878   0.011727   0.002721  -1.504761
    15  O    0.001130   0.008083  -0.000072  -0.000481  -0.000023   0.010123
    16  C    0.001570   0.009138  -0.122011  -0.002004   0.000134  -0.030895
    17  C   -0.002859   0.000164  -0.009079   0.000275  -0.000080  -0.055781
    18  O    0.000100  -0.000014  -0.005697  -0.000333   0.000026  -0.008612
    19  H   -0.000058  -0.000007   0.001904  -0.000182  -0.000006  -0.003829
    20  C    0.001292   0.000639   0.005945   0.000145   0.000001  -0.027573
    21  O   -0.000003   0.000000   0.000103  -0.000002   0.000000   0.000060
    22  H    0.000000   0.000000  -0.000004   0.000000   0.000000   0.000022
    23  C    0.004311   0.005836  -0.000757   0.000054   0.000000  -0.006015
    24  O   -0.038799  -0.004835  -0.000160  -0.000001   0.000000  -0.000506
    25  H    0.003871  -0.002678  -0.000020   0.000000   0.000000  -0.000552
    26  C    0.001676  -0.013701   0.000262   0.000094   0.000003  -0.011013
    27  O   -0.000076  -0.000085   0.000045   0.000000   0.000000   0.000319
    28  C   -0.000179  -0.000016  -0.000308  -0.000009   0.000001   0.003650
    29  O   -0.000002  -0.000001  -0.000010   0.000000   0.000000   0.000069
    30  H    0.000000   0.000000   0.000000   0.000000   0.000000  -0.000002
    31  H    0.000000   0.000000   0.000003   0.000000   0.000000   0.000068
    32  H    0.000001   0.000000  -0.000068   0.000000   0.000000   0.000258
    33  H    0.000013  -0.000003  -0.000734   0.000002   0.000000  -0.002234
    34  H   -0.001148  -0.000296   0.000115   0.000001   0.000000  -0.002058
    35  H   -0.000161  -0.000036   0.000145   0.000000   0.000000   0.000771
    36  H   -0.000528   0.000204   0.000002   0.000000   0.000000   0.000149
    37  H    0.000364  -0.000064  -0.000012   0.000000   0.000000  -0.000301
    38  H   -0.000011   0.000000   0.013865   0.000080  -0.000052  -0.019206
    39  H    0.000004   0.000000   0.557597  -0.053562   0.000934  -0.112606
    40  H   -0.000002   0.000000   0.518607  -0.019920  -0.011212  -0.151486
    41  H    0.000053   0.000009  -0.071696   0.006610  -0.000181   0.125990
    42  H    0.000331   0.000001  -0.078099   0.004216  -0.000065  -0.071070
    43  H    0.003047  -0.000092   0.009117   0.000073   0.000000   0.025434
    44  H   -0.032219  -0.002670   0.016605  -0.000007   0.000000   0.060464
    45  H   -0.000363  -0.000011   0.038786  -0.000060   0.000000   0.068737
             13         14         15         16         17         18
     1  O    0.006314   0.012619  -0.000223   0.001143  -0.000251   0.000084
     2  C   -0.014307   0.538304  -0.005681   0.114133  -0.044471   0.009282
     3  C   -0.019929   0.305327   0.001649  -0.059071   0.018488  -0.001407
     4  O   -0.003986   0.002780   0.000708  -0.002132   0.000325  -0.000012
     5  H    0.000145  -0.000320  -0.000019   0.000306   0.000013   0.000000
     6  C   -0.085600  -2.215444  -0.049455  -0.039136  -0.045548  -0.001257
     7  O    0.002343  -0.020075   0.001130   0.001570  -0.002859   0.000100
     8  H    0.000537  -0.027810   0.008083   0.009138   0.000164  -0.000014
     9  C   -0.047656  -0.906878  -0.000072  -0.122011  -0.009079  -0.005697
    10  O    0.009648   0.011727  -0.000481  -0.002004   0.000275  -0.000333
    11  H   -0.000202   0.002721  -0.000023   0.000134  -0.000080   0.000026
    12  C    0.093933  -1.504761   0.010123  -0.030895  -0.055781  -0.008612
    13  O    7.886966   0.293992  -0.010225  -0.021037   0.050923  -0.029875
    14  C    0.293992   9.845239   0.274010  -0.709625   0.197074   0.037574
    15  O   -0.010225   0.274010   7.788274   0.183800  -0.020507  -0.000376
    16  C   -0.021037  -0.709625   0.183800  11.797135  -2.136589  -0.001147
    17  C    0.050923   0.197074  -0.020507  -2.136589   7.967400   0.278968
    18  O   -0.029875   0.037574  -0.000376  -0.001147   0.278968   8.115601
    19  H    0.027981   0.010585   0.009640  -0.054707   0.012450   0.234114
    20  C   -0.001362  -0.281811  -0.002275  -1.460883  -0.083568  -0.123180
    21  O    0.000017   0.002795  -0.000028   0.090826  -0.197766   0.013863
    22  H    0.000001  -0.000252   0.000004  -0.007061   0.023672  -0.000435
    23  C    0.002519   0.114282  -0.033880   0.194276  -0.299261   0.015754
    24  O   -0.000938   0.062704  -0.031240  -0.005834   0.003811   0.000056
    25  H   -0.000006  -0.011323   0.002963  -0.004969  -0.000841  -0.000002
    26  C   -0.022991  -0.355226  -0.079061  -3.364975   0.603682  -0.020004
    27  O    0.000162   0.020829   0.003772   0.199886  -0.031905  -0.000661
    28  C    0.000931   0.024870   0.004701   1.372378  -0.410732  -0.000916
    29  O    0.000006   0.001173  -0.000077  -0.052068  -0.014491  -0.000083
    30  H    0.000000  -0.000050  -0.000002   0.001408   0.008754   0.000002
    31  H    0.000008   0.001967   0.000296   0.051936  -0.006927   0.000124
    32  H    0.000034  -0.002909   0.001283   0.116909  -0.214182   0.007710
    33  H   -0.002716  -0.005746  -0.001237  -0.143711   0.266334  -0.024251
    34  H   -0.003460  -0.013277  -0.011195   0.076635   0.031912   0.000102
    35  H   -0.000466   0.036702  -0.000458   0.029407  -0.029496   0.001342
    36  H    0.000009   0.008663   0.000707   0.013990   0.004760   0.000014
    37  H    0.000026  -0.002607   0.001534   0.061928  -0.009082   0.000050
    38  H   -0.000673  -0.006721   0.000007   0.000011  -0.000015  -0.000001
    39  H    0.002034  -0.016681  -0.000021  -0.002182   0.000373  -0.000082
    40  H   -0.006589  -0.021739   0.000308  -0.004829   0.002854  -0.000433
    41  H   -0.028200   0.227684   0.000331   0.004441   0.004267   0.000184
    42  H    0.002859   0.136602  -0.001201  -0.001998   0.001158   0.000034
    43  H    0.003420   0.066443  -0.000015  -0.004156   0.000847   0.000018
    44  H    0.007388  -0.062230  -0.014192  -0.028248   0.000519   0.000081
    45  H   -0.028509   0.183761  -0.025631  -0.010909  -0.004947   0.000317
             19         20         21         22         23         24
     1  O   -0.000088   0.000050   0.000000   0.000000   0.000015   0.000005
     2  C   -0.007602   0.010290   0.000051   0.000000   0.005052  -0.000700
     3  C    0.007062  -0.012684  -0.000026   0.000001  -0.001292  -0.005501
     4  O    0.000002  -0.000016   0.000000   0.000000  -0.000043  -0.000007
     5  H    0.000000   0.000001   0.000000   0.000000  -0.000009  -0.000003
     6  C    0.002790   0.048111  -0.000196  -0.000027  -0.057007  -0.022541
     7  O   -0.000058   0.001292  -0.000003   0.000000   0.004311  -0.038799
     8  H   -0.000007   0.000639   0.000000   0.000000   0.005836  -0.004835
     9  C    0.001904   0.005945   0.000103  -0.000004  -0.000757  -0.000160
    10  O   -0.000182   0.000145  -0.000002   0.000000   0.000054  -0.000001
    11  H   -0.000006   0.000001   0.000000   0.000000   0.000000   0.000000
    12  C   -0.003829  -0.027573   0.000060   0.000022  -0.006015  -0.000506
    13  O    0.027981  -0.001362   0.000017   0.000001   0.002519  -0.000938
    14  C    0.010585  -0.281811   0.002795  -0.000252   0.114282   0.062704
    15  O    0.009640  -0.002275  -0.000028   0.000004  -0.033880  -0.031240
    16  C   -0.054707  -1.460883   0.090826  -0.007061   0.194276  -0.005834
    17  C    0.012450  -0.083568  -0.197766   0.023672  -0.299261   0.003811
    18  O    0.234114  -0.123180   0.013863  -0.000435   0.015754   0.000056
    19  H    0.365758  -0.004838  -0.000657   0.000007  -0.002537  -0.000001
    20  C   -0.004838   7.921303   0.231388  -0.045557   0.074663  -0.003212
    21  O   -0.000657   0.231388   8.113790   0.242603  -0.000300   0.000016
    22  H    0.000007  -0.045557   0.242603   0.420405  -0.000477   0.000000
    23  C   -0.002537   0.074663  -0.000300  -0.000477   6.618002   0.085382
    24  O   -0.000001  -0.003212   0.000016   0.000000   0.085382   8.261411
    25  H    0.000000   0.000443   0.000000   0.000000  -0.061305   0.252700
    26  C    0.012707   1.072812  -0.046249   0.003780  -1.167393   0.021090
    27  O   -0.000053  -0.236964   0.004077   0.000155  -0.120333   0.004802
    28  C   -0.000963  -1.307325   0.052450   0.006699  -0.140376   0.002501
    29  O    0.000012   0.052234  -0.016467   0.015057   0.022006  -0.000038
    30  H    0.000000  -0.031525   0.000357  -0.002315   0.000278   0.000000
    31  H    0.000000  -0.133800   0.005335   0.000151   0.000401   0.000003
    32  H   -0.000163   0.284479  -0.020913  -0.002759   0.011503   0.000011
    33  H    0.001548   0.003981   0.000477  -0.000250   0.024603  -0.000061
    34  H    0.000396   0.032512  -0.000300   0.000004  -0.016531   0.001451
    35  H    0.000004  -0.057396   0.000318   0.000003   0.071104   0.002573
    36  H    0.000000  -0.003341  -0.000001   0.000000   0.393160  -0.025063
    37  H    0.000000  -0.001479  -0.000001   0.000000   0.610347  -0.053505
    38  H    0.000000   0.000000   0.000000   0.000000   0.000000   0.000000
    39  H    0.000059   0.000028   0.000000   0.000000  -0.000003   0.000000
    40  H    0.001247  -0.000262   0.000001   0.000000  -0.000034   0.000000
    41  H   -0.000394   0.000592   0.000000   0.000000   0.000126  -0.000004
    42  H   -0.000021  -0.000028   0.000000   0.000000   0.000083   0.000007
    43  H   -0.000003  -0.000045   0.000000   0.000000   0.000296   0.000057
    44  H   -0.000012   0.000069   0.000000   0.000000   0.001003  -0.000211
    45  H   -0.001833   0.008123   0.000010   0.000000  -0.001147  -0.000216
             25         26         27         28         29         30
     1  O    0.000000   0.000083   0.000000  -0.000001   0.000000   0.000000
     2  C    0.000144  -0.019043  -0.000031   0.001666  -0.000004   0.000000
     3  C    0.002149  -0.009711   0.000166  -0.000508   0.000019   0.000000
     4  O    0.000004   0.000394   0.000000  -0.000001   0.000000   0.000000
     5  H    0.000000   0.000008   0.000000   0.000000   0.000000   0.000000
     6  C    0.003684  -0.040920   0.003581   0.004825  -0.000351   0.000006
     7  O    0.003871   0.001676  -0.000076  -0.000179  -0.000002   0.000000
     8  H   -0.002678  -0.013701  -0.000085  -0.000016  -0.000001   0.000000
     9  C   -0.000020   0.000262   0.000045  -0.000308  -0.000010   0.000000
    10  O    0.000000   0.000094   0.000000  -0.000009   0.000000   0.000000
    11  H    0.000000   0.000003   0.000000   0.000001   0.000000   0.000000
    12  C   -0.000552  -0.011013   0.000319   0.003650   0.000069  -0.000002
    13  O   -0.000006  -0.022991   0.000162   0.000931   0.000006   0.000000
    14  C   -0.011323  -0.355226   0.020829   0.024870   0.001173  -0.000050
    15  O    0.002963  -0.079061   0.003772   0.004701  -0.000077  -0.000002
    16  C   -0.004969  -3.364975   0.199886   1.372378  -0.052068   0.001408
    17  C   -0.000841   0.603682  -0.031905  -0.410732  -0.014491   0.008754
    18  O   -0.000002  -0.020004  -0.000661  -0.000916  -0.000083   0.000002
    19  H    0.000000   0.012707  -0.000053  -0.000963   0.000012   0.000000
    20  C    0.000443   1.072812  -0.236964  -1.307325   0.052234  -0.031525
    21  O    0.000000  -0.046249   0.004077   0.052450  -0.016467   0.000357
    22  H    0.000000   0.003780   0.000155   0.006699   0.015057  -0.002315
    23  C   -0.061305  -1.167393  -0.120333  -0.140376   0.022006   0.000278
    24  O    0.252700   0.021090   0.004802   0.002501  -0.000038   0.000000
    25  H    0.396503   0.054410  -0.000873  -0.000559  -0.000003   0.000000
    26  C    0.054410  10.677467  -0.025058  -1.202201   0.021881  -0.006667
    27  O   -0.000873  -0.025058   7.981521   0.342814  -0.063306   0.000687
    28  C   -0.000559  -1.202201   0.342814   6.553279   0.217144   0.014859
    29  O   -0.000003   0.021881  -0.063306   0.217144   8.028328   0.268820
    30  H    0.000000  -0.006667   0.000687   0.014859   0.268820   0.410561
    31  H    0.000000  -0.015354  -0.038043   0.432058  -0.016612  -0.007885
    32  H    0.000000  -0.021245  -0.000296   0.081283  -0.004099   0.000199
    33  H    0.000000   0.127430   0.001586  -0.034055   0.000584   0.000009
    34  H   -0.000022   0.149066   0.002446  -0.004371  -0.000333   0.000002
    35  H   -0.000215   0.152795  -0.021033   0.059346  -0.001090   0.000025
    36  H   -0.007618  -0.058697  -0.003428   0.005161  -0.000125  -0.000001
    37  H   -0.001712  -0.290521  -0.002072   0.002778  -0.000326   0.000001
    38  H    0.000000  -0.000001   0.000000   0.000000   0.000000   0.000000
    39  H    0.000000  -0.000015   0.000000   0.000000   0.000000   0.000000
    40  H    0.000000   0.000231   0.000000  -0.000040   0.000000   0.000000
    41  H    0.000000   0.000376   0.000001  -0.000015   0.000000   0.000000
    42  H    0.000000  -0.000145   0.000000  -0.000003   0.000000   0.000000
    43  H    0.000000  -0.000280   0.000000  -0.000002   0.000000   0.000000
    44  H   -0.000013  -0.004336  -0.000003   0.000020   0.000000   0.000000
    45  H    0.000007   0.003617   0.000086  -0.000168  -0.000002   0.000000
             31         32         33         34         35         36
     1  O    0.000000   0.000000   0.000000   0.000001   0.000000   0.000000
     2  C    0.000001   0.000098  -0.000479  -0.002724  -0.000218  -0.000027
     3  C    0.000006   0.000073   0.001413   0.004268   0.000827  -0.000149
     4  O    0.000000   0.000000   0.000000   0.000003   0.000000   0.000000
     5  H    0.000000   0.000000   0.000000   0.000000   0.000000   0.000000
     6  C   -0.000010   0.001299   0.005285   0.007061   0.000355   0.000400
     7  O    0.000000   0.000001   0.000013  -0.001148  -0.000161  -0.000528
     8  H    0.000000   0.000000  -0.000003  -0.000296  -0.000036   0.000204
     9  C    0.000003  -0.000068  -0.000734   0.000115   0.000145   0.000002
    10  O    0.000000   0.000000   0.000002   0.000001   0.000000   0.000000
    11  H    0.000000   0.000000   0.000000   0.000000   0.000000   0.000000
    12  C    0.000068   0.000258  -0.002234  -0.002058   0.000771   0.000149
    13  O    0.000008   0.000034  -0.002716  -0.003460  -0.000466   0.000009
    14  C    0.001967  -0.002909  -0.005746  -0.013277   0.036702   0.008663
    15  O    0.000296   0.001283  -0.001237  -0.011195  -0.000458   0.000707
    16  C    0.051936   0.116909  -0.143711   0.076635   0.029407   0.013990
    17  C   -0.006927  -0.214182   0.266334   0.031912  -0.029496   0.004760
    18  O    0.000124   0.007710  -0.024251   0.000102   0.001342   0.000014
    19  H    0.000000  -0.000163   0.001548   0.000396   0.000004   0.000000
    20  C   -0.133800   0.284479   0.003981   0.032512  -0.057396  -0.003341
    21  O    0.005335  -0.020913   0.000477  -0.000300   0.000318  -0.000001
    22  H    0.000151  -0.002759  -0.000250   0.000004   0.000003   0.000000
    23  C    0.000401   0.011503   0.024603  -0.016531   0.071104   0.393160
    24  O    0.000003   0.000011  -0.000061   0.001451   0.002573  -0.025063
    25  H    0.000000   0.000000   0.000000  -0.000022  -0.000215  -0.007618
    26  C   -0.015354  -0.021245   0.127430   0.149066   0.152795  -0.058697
    27  O   -0.038043  -0.000296   0.001586   0.002446  -0.021033  -0.003428
    28  C    0.432058   0.081283  -0.034055  -0.004371   0.059346   0.005161
    29  O   -0.016612  -0.004099   0.000584  -0.000333  -0.001090  -0.000125
    30  H   -0.007885   0.000199   0.000009   0.000002   0.000025  -0.000001
    31  H    0.567542   0.004560   0.002841  -0.000034   0.002777   0.000000
    32  H    0.004560   0.612745   0.007707   0.003046  -0.000065   0.000002
    33  H    0.002841   0.007707   0.646444   0.006209   0.002512   0.000005
    34  H   -0.000034   0.003046   0.006209   0.601561   0.005646  -0.000031
    35  H    0.002777  -0.000065   0.002512   0.005646   0.617204  -0.007020
    36  H    0.000000   0.000002   0.000005  -0.000031  -0.007020   0.571743
    37  H   -0.000017  -0.000039  -0.000021   0.001469   0.005976  -0.043933
    38  H    0.000000   0.000000   0.000000   0.000000   0.000000   0.000000
    39  H    0.000000   0.000000   0.000000   0.000000   0.000000   0.000000
    40  H    0.000000   0.000000   0.000000   0.000000   0.000000   0.000000
    41  H    0.000000   0.000000   0.000000  -0.000010   0.000000   0.000000
    42  H    0.000000   0.000000   0.000000   0.000000   0.000000   0.000000
    43  H    0.000000   0.000000   0.000000  -0.000001   0.000000   0.000000
    44  H    0.000000   0.000000  -0.000006  -0.000011  -0.000008   0.000000
    45  H    0.000000  -0.000005  -0.000021   0.005028  -0.000009   0.000000
             37         38         39         40         41         42
[...]
 5,0.00064611,0.00060579,0.00048645,0.00050093,-0.00019826,0.00024824,0
 .00008713,-0.00014959,-0.01027480,-0.00042546,0.00193662,0.00233806,0.
 00071039,-0.00080254,-0.00003655,0.00013639,0.00004100,0.00006380,-0.0
 0002587,0.00003090,-0.00001634,-0.00000596,0.00001811,-0.00000333,0.00
 002710,0.00001716,0.00001343,-0.00000080,-0.00007067,-0.00001244,-0.00
 004018,0.00009766,-0.00000836,-0.00000856,0.00000728,0.00000493,0.0000
 0482,-0.00000714,-0.00000216,-0.00000097,0.00000061,-0.00000274,0.0000
 0879,0.00000094,0.00002449,-0.00000378,0.00002826,-0.00001016,-0.00000
 127,-0.00000069,-0.00000812,0.00000221,0.00000813,0.00000568,0.0000000
 7,-0.00001088,-0.00000373,0.00000253,0.00001039,0.00000656,-0.00000133
 ,-0.00001217,-0.00000082,0.,0.00000193,0.00000096,0.00000001,-0.000000
 06,0.00000290,0.00000009,-0.00000207,0.00000262,-0.00000160,0.00000357
 ,0.00000729,0.00000046,-0.00000570,0.00000444,-0.00000064,0.00000289,-
 0.00000048,-0.00000257,0.00000329,0.00000221,-0.00000065,-0.00000163,0
 .00133708,-0.00011095,-0.00056194,0.00009415,0.00008401,0.00001134,0.0
 0006629,-0.00010575,-0.00001092,0.00029686,-0.00102337,0.00069691,0.38
 105670,-0.01112134,-0.00031246,-0.00607936,0.01366418,-0.04385490,0.00
 085056,0.03441444,-0.00490916,-0.00482397,-0.00168825,0.00408048,-0.00
 066423,0.00035796,-0.00013317,0.00008358,0.00062324,0.00118127,0.00098
 946,-0.00045890,-0.00026490,-0.00017016,-0.00007914,-0.00000880,0.0000
 7331,-0.00095824,0.00118267,0.00018933,0.00065419,-0.00041809,-0.00048
 355,0.00016754,0.00018410,-0.00007178,-0.02581510,0.00030329,0.0056751
 0,0.00093724,0.00105296,-0.00261638,0.00007350,-0.00042320,-0.00013116
 ,0.00007273,0.00007756,-0.00003554,-0.00004474,0.00003031,-0.00002602,
 0.00000803,0.00001586,-0.00000100,0.00002894,0.00000085,-0.00006968,-0
 .00005568,-0.00002720,0.00006073,-0.00000843,0.00000172,0.00000039,0.0
 0000361,-0.00000213,-0.00000196,-0.00000081,0.00000032,0.00000019,-0.0
 0000342,-0.00001504,0.00000710,-0.00003722,-0.00000216,-0.00006745,0.0
 0001326,0.00000435,0.00000010,0.00000844,-0.00000369,-0.00000166,-0.00
 000257,-0.00000038,-0.00000150,0.00000074,0.00000294,0.00000298,0.0000
 0177,-0.00000158,-0.00000469,0.00000024,0.00000050,0.00000091,0.000000
 23,0.00000064,0.00000009,0.00000180,-0.00000077,-0.00000125,0.00000066
 ,0.00000210,0.00000217,0.00000179,-0.00000548,0.00000450,-0.00000069,0
 .00000247,0.00000004,0.00000008,0.00000250,-0.00000849,0.00000046,-0.0
 0000007,0.00000059,-0.00113353,0.00144625,0.00002950,0.00017823,0.0001
 4756,-0.00000740,0.00019368,0.00008513,-0.00013232,-0.00117334,-0.0025
 3913,0.00329349,-0.00982910,0.04871008,-0.04083558,-0.00674118,-0.0157
 3552,0.03722415,-0.00081547,-0.04481206,0.01106287,-0.00002862,0.00004
 513,-0.00146377,0.00063840,0.00056550,-0.00021019,-0.00027776,-0.00014
 660,0.00054067,0.00041552,0.00033029,-0.00026300,-0.00003066,-0.000055
 06,0.00000919,0.00003982,0.00004361,0.00013433,-0.00105926,0.00002687,
 -0.00056071,0.00031944,0.00034014,-0.00005567,-0.00001959,0.00006039,0
 .02369657,0.00036569,-0.00419001,-0.00010643,0.00002661,0.00251262,0.0
 0059636,-0.00046085,-0.00024624,-0.00010553,0.00004888,-0.00017403,-0.
 00000281,-0.00004307,0.00001522,0.00002502,0.00000169,0.00000906,-0.00
 005448,-0.00001961,0.00003437,0.00007683,0.00003895,-0.00004083,0.0000
 0238,-0.00000586,0.00000694,-0.00000833,0.00001008,-0.00001031,0.00000
 226,-0.00000069,0.00000152,0.00000231,-0.00000260,0.00000529,-0.000024
 94,-0.00000564,-0.00002895,0.00000904,0.00000228,0.00000188,0.00002083
 ,0.00001234,0.00000716,-0.00001272,0.00000451,-0.00001934,0.00000928,-
 0.00000831,0.00001502,0.00000021,0.00000091,-0.00000994,0.00000071,0.0
 0000005,0.00000141,-0.00000220,-0.00000011,-0.00000261,-0.00000480,0.0
 0000034,0.00000373,-0.00001145,-0.00000487,-0.00001365,-0.00000924,0.0
 0000169,0.00001143,-0.00000707,-0.00000153,-0.00000637,-0.00000130,-0.
 00000203,-0.00000456,-0.00000099,0.00000177,0.00000249,-0.00324017,0.0
 0097751,0.00299278,0.00004249,0.00000156,-0.00004469,-0.00001548,-0.00
 004594,0.00004866,0.00093913,0.00285570,-0.00326184,-0.02719630,0.0061
 4805,0.06207454,0.00180006,-0.00009146,0.00028484,-0.01366200,0.002646
 10,-0.00122534,-0.34673277,0.01841035,-0.01865724,-0.01168661,-0.00849
 269,0.01114474,0.00055704,-0.00100574,0.00010503,-0.01347186,0.0019976
 0,-0.00275110,0.00214718,0.00010360,0.00119674,0.00027433,0.00008289,-
 0.00000014,0.00018392,0.00040478,-0.00013066,0.00023397,-0.00024116,-0
 .00005079,0.00003571,-0.00003185,-0.00006041,-0.00054099,-0.00063740,0
 .00051808,0.00063890,0.00023697,0.00025558,-0.00095083,-0.00112401,0.0
 0028886,0.00042334,0.00015584,-0.00041548,-0.00010159,0.00006403,-0.00
 001397,0.00000787,-0.00002528,-0.00006655,0.00004112,0.00001947,0.0000
 2108,-0.00003786,-0.00001154,0.00000096,-0.00001985,0.00001228,0.00001
 214,0.00001191,0.00000685,-0.00000885,-0.00000491,0.00000091,-0.000001
 60,-0.00001221,0.00001734,0.00002821,0.00007793,0.00001034,0.00011527,
 -0.00002963,-0.00000294,0.00000493,-0.00000849,0.00001684,0.00000893,0
 .00001085,0.00000225,-0.00002366,-0.00000706,-0.00001096,0.00000953,0.
 00000802,0.00000297,-0.00000851,-0.00000131,-0.00000037,0.00000132,0.0
 0000220,0.00000090,0.00000084,0.00000506,-0.00000050,-0.00000230,0.000
 01119,-0.00000013,0.00000815,0.00001592,0.00000544,-0.00003701,0.00000
 989,-0.00000399,0.00000819,0.00000142,-0.00000500,0.00000995,0.0000064
 4,-0.00000041,-0.00001011,0.00025643,-0.00038456,-0.00017151,0.0000354
 4,0.00004849,0.00000446,-0.00000574,0.00006193,0.00001902,0.00094758,0
 .00045218,-0.00071564,0.00049318,0.00141757,0.00025330,0.37822394,-0.0
 0224229,0.00259812,0.00130764,0.03551509,-0.00705174,0.00132634,0.0210
 4648,-0.04002175,-0.00151967,-0.03254764,-0.00747718,0.01283004,-0.000
 06021,0.00054917,-0.00141331,-0.00847311,0.00180887,-0.00288893,-0.000
 32043,0.00072506,0.00125240,-0.00002661,-0.00005788,-0.00009876,-0.000
 04075,0.00015854,-0.00014054,-0.00014486,-0.00009862,0.00004342,-0.000
 08017,-0.00005050,0.00003601,0.00207954,0.00198589,-0.00134282,-0.0003
 6263,-0.00031920,0.00036915,0.00035393,-0.00040142,0.00002601,0.000077
 07,0.00003612,-0.00027627,-0.00002632,0.00004848,-0.00000962,0.0000094
 8,-0.00002633,-0.00004413,-0.00000927,0.00000583,0.00005070,0.00002139
 ,0.00001624,-0.00005949,-0.00000210,0.00001347,0.00000432,0.00000068,-
 0.00000222,-0.00000289,-0.00000061,0.00000268,-0.00000109,0.00000482,0
 .00003227,-0.00002589,0.00009016,-0.00000675,0.00013174,-0.00002904,-0
 .00000680,-0.00001321,-0.00000540,0.00002899,0.00000481,0.00000379,-0.
 00001759,-0.00000173,-0.00000236,0.00000288,-0.00000454,-0.00000135,-0
 .00000069,0.00000493,-0.00000013,0.00000027,-0.00000087,0.00000039,-0.
 00000053,0.00000036,-0.00000029,0.00000012,0.00000063,0.00000106,-0.00
 000030,0.00000036,0.00000388,0.00000694,-0.00001035,0.00000171,-0.0000
 0404,0.00000096,0.00000101,-0.00000613,0.00001452,-0.00000052,-0.00000
 063,-0.00000223,-0.00002485,0.00034742,0.00035025,-0.00004855,-0.00006
 988,-0.00000188,0.00000398,-0.00000380,-0.00000435,-0.00086640,-0.0001
 1860,0.00063155,0.00139457,-0.00538396,-0.00204808,-0.01477874,0.05254
 900,-0.00021651,0.00146905,0.00142251,0.01157716,-0.00454594,0.0014771
 2,-0.02039299,-0.00260872,-0.04158052,0.03031867,0.01202978,-0.0104928
 8,0.00186138,0.00042018,0.00117249,-0.03599493,0.00029029,-0.00564026,
 0.00173465,0.00154774,0.00321612,-0.00015372,0.00028708,-0.00007962,0.
 00001080,-0.00003575,0.00001364,-0.00003502,-0.00001101,0.00001932,-0.
 00001967,-0.00001026,0.00000681,-0.00077410,0.00034197,-0.00047986,0.0
 0015964,0.00059104,-0.00040666,-0.00095820,-0.00088099,0.00156173,0.00
 039637,0.00007776,-0.00040154,0.00003785,0.00007178,0.00007363,0.00002
 373,-0.00001625,-0.00004855,0.00001636,0.00002577,-0.00001665,-0.00002
 726,-0.00003799,0.00003164,-0.00001780,-0.00000054,0.00002360,0.000002
 16,0.00002110,-0.00002843,-0.00000173,0.00000062,0.00000080,0.00000491
 ,0.00003338,0.00002379,0.00014173,-0.00001894,0.00017996,-0.00002548,0
 .00000323,-0.00002486,-0.00000741,0.00003667,0.00004849,0.00000226,0.0
 0000071,-0.00004989,0.00000280,-0.00001642,0.00003314,0.00001118,0.000
 00157,-0.00002723,-0.00000056,0.00000066,0.00000381,-0.00000040,0.0000
 0114,-0.00000159,0.00000021,0.00000128,-0.00000138,0.00000311,-0.00000
 324,0.00000516,0.00002755,0.00001692,-0.00006588,0.00000858,-0.0000073
 0,0.00000742,-0.00000167,-0.00001185,0.00001356,0.00000652,0.00000102,
 -0.00001042,0.00003446,0.00030484,0.00002072,-0.00001544,-0.00000426,0
 .00001283,-0.00000497,-0.00004634,-0.00000611,-0.00019363,0.00045460,0
 .00001692,0.00084079,-0.00157447,-0.00036056,0.01225127,-0.00715897,0.
 05631332,0.00036137,-0.00008005,-0.00007534,-0.00071129,0.00072634,-0.
 00011220,-0.01064334,-0.00412075,-0.00222259,0.00127765,0.00053412,0.0
 0015888,0.00023554,0.00007472,0.00021671,-0.34003189,-0.06718900,-0.00
 926864,-0.01786768,0.01234807,0.00710719,-0.00032722,0.00026335,-0.001
 69280,0.00000118,0.00003396,0.00003973,0.00004473,0.00000998,0.0000119
 4,-0.00000303,-0.00000835,-0.00000873,-0.00009341,0.00004691,-0.000012
 36,0.00181797,-0.00046616,-0.00034920,-0.00859032,-0.00176995,-0.00023
 129,0.00113100,0.00072114,-0.00160650,0.00035495,0.00023242,0.00012237
 ,0.00005339,0.00002438,-0.00006025,0.00002799,0.00001432,-0.00007608,-
 0.00001930,-0.00005872,0.00003753,-0.00003098,0.00002694,0.00003836,0.
 00000829,0.00000475,-0.00004205,-0.00000479,0.00000673,-0.00000010,0.0
 0001709,0.00017623,-0.00009772,0.00045589,-0.00013640,0.00073053,-0.00
 010272,-0.00003532,-0.00011286,-0.00005003,0.00010447,0.00009008,0.000
 02204,-0.00007152,-0.00003265,-0.00001270,0.00002703,0.00002039,0.0000
 1239,-0.00001173,-0.00002361,-0.00000159,0.00000262,0.00000342,0.00000
 314,-0.00000225,-0.00000001,0.00000387,0.00000169,-0.00000064,0.000003
 46,-0.00001369,0.00001383,0.00002031,0.00005684,-0.00028629,0.00001848
 ,-0.00001671,0.00000581,0.00000394,-0.00004088,0.00006884,-0.00000077,
 -0.00000464,-0.00002140,-0.00004438,-0.00009769,-0.00006380,0.00001178
 ,0.00002633,0.00001082,-0.00000648,-0.00001622,-0.00001521,0.00008806,
 0.00010155,0.00001158,0.00048743,-0.00044576,-0.00015679,0.00042487,-0
 .00058356,-0.00101527,0.37135348,0.00016914,0.00001047,-0.00000601,-0.
 00052965,0.00024910,0.00041405,-0.00766501,0.00035109,-0.00020729,0.00
 105375,0.00035698,-0.00034512,-0.00000547,-0.00010187,0.00009926,-0.06
 712422,-0.05205625,0.00051465,0.03975123,-0.00810599,-0.00725298,0.000
 68986,0.00117538,0.00183399,-0.00009962,0.00012224,0.00009917,0.000111
 52,-0.00004780,-0.00001773,-0.00000836,-0.00000091,-0.00001863,-0.0002
 3539,-0.00013190,-0.00015807,0.00111098,0.00203921,-0.00011390,-0.0284
 4086,-0.00735554,0.00118586,0.00079314,0.00117548,-0.00221889,-0.00008
 186,0.00037318,-0.00000352,0.00002695,-0.00006106,-0.00022642,0.000124
 05,0.00001044,0.00003745,-0.00013778,0.00005964,0.00003386,-0.00002190
 ,0.00004007,0.00002409,0.00000950,0.00001759,-0.00002374,-0.00000328,0
 .00000252,-0.00000200,-0.00005780,-0.00006034,0.00007127,-0.00040615,-
 0.00010860,-0.00031689,0.00015320,0.00002338,-0.00003141,0.00004564,-0
 .00004000,0.00003506,-0.00000991,0.00003678,-0.00003313,0.00000575,-0.
 00003636,0.00002275,0.00000561,0.00000941,-0.00001161,0.00000001,-0.00
 000049,0.00000202,-0.00000099,0.00000475,0.00000038,0.00000512,0.00000
 039,-0.00000704,0.00002743,-0.00000439,0.00003187,0.00016726,-0.000008
 39,-0.00011684,0.00000825,0.00001877,0.00002219,-0.00000417,0.00001819
 ,-0.00004312,0.00000173,-0.00001271,0.00003594,0.00000134,0.00001257,-
 0.00001659,0.00001465,-0.00001352,0.00000470,-0.00000547,-0.00002942,0
 .00000106,0.00022777,0.00015578,0.00007992,0.00009478,-0.00008262,-0.0
 0030369,0.00020230,0.00005273,-0.00140675,0.05998085,0.06516748,0.0006
 5098,-0.00007194,-0.00048558,-0.00119140,0.00143892,0.00095627,-0.0351
 9819,-0.00878155,-0.00422591,0.00212466,0.00047952,0.00309754,0.000113
 17,-0.00020972,0.00063902,-0.01263649,0.00031500,-0.04265544,0.0153713
 0,-0.00625523,0.00046073,0.00127601,0.00009958,0.00094313,-0.00006547,
 0.00000549,0.00005542,0.00003077,-0.00000175,0.00000700,-0.00000483,-0
 .00000197,-0.00000025,-0.00027826,-0.00026470,-0.00055309,-0.00118095,
 -0.00090538,0.00049489,0.02300078,0.00879002,-0.00144596,0.00040599,-0
 .00049454,0.00161221,0.00036352,-0.00017256,-0.00014240,-0.00001643,0.
 00006983,0.00021499,-0.00010034,-0.00003636,-0.00006665,0.00009923,-0.
 00004617,0.00003205,0.00002044,-0.00003242,-0.00003123,-0.00001044,-0.
 00003263,0.00003121,0.00000417,-0.00000050,0.00000212,0.00000724,0.000
 06729,-0.00014354,-0.00031929,-0.00006129,-0.00001528,0.00006767,-0.00
 000860,0.00005913,-0.00000266,0.00001288,-0.00005524,-0.00001667,-0.00
 005536,0.00011345,-0.00000541,0.00007402,-0.00005352,-0.00001769,-0.00
 001595,0.00003253,0.00000110,-0.00000080,-0.00000492,0.00000067,-0.000
 00655,-0.00000032,-0.00000577,-0.00000330,0.00000960,-0.00004165,0.000
 01812,-0.00002685,-0.00025881,-0.00002624,0.00004558,-0.00004512,-0.00
 000154,-0.00005684,-0.00000050,-0.00000248,0.00000801,-0.00002383,-0.0
 0001299,0.00006350,0.00002031,-0.00018915,-0.00009022,0.00000206,0.000
 00247,-0.00000907,0.00000913,-0.00003745,0.00000476,0.00007688,0.00007
 601,-0.00018198,0.00048360,-0.00036103,-0.00008750,-0.00176749,-0.0013
 7540,-0.00570951,0.00858878,0.00536621,0.04953874,0.00009854,-0.000038
 47,0.00032782,0.00022283,0.00032804,-0.00007216,-0.00045756,-0.0003188
 1,-0.00013415,0.00025410,0.00000019,0.00000725,-0.00003845,-0.00000018
 ,0.00006367,-0.00503766,0.00115406,0.00127692,0.00200593,-0.00018745,-
 0.00121109,-0.00042584,-0.00027104,-0.00007962,0.00068244,0.00036764,0
 .00010051,0.00019657,-0.00026287,-0.00000383,0.00001688,-0.00004440,-0
 .00008183,-0.00026872,-0.00180376,-0.00242704,-0.01211796,0.00797562,0
 .00615396,-0.33673577,-0.04693188,0.06022071,-0.01714853,-0.00438648,-
 0.00600232,0.00047707,-0.00043494,0.00319809,0.00009819,0.00003020,-0.
 00037850,0.00050623,-0.00002954,-0.00028297,-0.00074829,0.00000410,0.0
 0069422,-0.00005825,0.00010339,0.00004147,0.00003345,0.00002402,-0.000
 05164,-0.00001208,0.00000749,-0.00000713,-0.00011872,0.00007664,0.0000
 5811,0.00016485,-0.00006947,0.00007631,-0.00001075,-0.00003056,-0.0000
 3741,0.00042414,0.00005799,-0.00001536,-0.00001510,-0.00005152,-0.0002
 2601,0.00000113,-0.00008106,0.00005468,0.00002280,0.00001629,-0.000040
 74,-0.00000102,0.00000251,0.00000399,0.00000284,0.00001093,0.00000104,
 0.00002510,0.00000665,-0.00003346,0.00009943,-0.00013246,0.00015908,0.
 00091553,0.00025417,-0.00146837,0.00013998,0.00010988,0.00023474,0.000
 01967,-0.00000581,0.00000078,0.00003006,-0.00003076,-0.00003534,0.0000
 1347,-0.00000692,0.00000378,0.00000970,0.00015067,0.00008351,-0.000069
 35,-0.00008634,0.00001165,0.00141044,-0.00002185,0.00078179,0.00005547
 ,0.00003168,-0.00029797,0.00038799,0.00006915,0.00038260,0.00030162,0.
 00005609,0.00046923,0.36464759,-0.00004560,0.00030382,-0.00027660,-0.0
 0043850,-0.00043386,-0.00004601,-0.00102333,-0.00017930,-0.00132865,0.
 00045376,0.00004008,0.00044822,0.00005313,-0.00011760,0.00010901,-0.02
 414347,-0.00206685,0.00606306,0.00128035,0.00329912,-0.00089759,-0.000
 55422,-0.00030774,-0.00018278,0.00010352,0.00013406,0.00013668,-0.0001
 0150,-0.00009598,-0.00006612,-0.00001777,0.00003565,0.00000200,0.00536
 295,0.00071926,0.00388639,0.03105106,-0.00725912,-0.01583523,-0.049402
 23,-0.04970555,0.01268695,-0.00731144,0.00256423,-0.00164325,0.0003321
 1,-0.00040205,0.00106772,0.00017283,-0.00004525,-0.00003707,-0.0002957
 5,0.00009590,0.00023046,0.00069075,-0.00006340,-0.00059222,0.00001344,
 0.00001455,0.00006992,-0.00001240,0.00005453,-0.00007101,-0.00000081,0
 .00000192,0.00000434,-0.00007374,0.00006221,-0.00005015,0.00012766,-0.
 00003582,0.00006902,-0.00003561,-0.00001852,-0.00001443,0.00001179,0.0
 0010435,0.00009558,-0.00000653,-0.00000903,-0.00014400,0.00000985,-0.0
 0004298,0.00008715,0.00002055,0.00000485,-0.00005960,-0.00000049,0.000
 00156,0.00000869,-0.00000309,0.00000024,-0.00000806,-0.00001157,0.0000
 0749,0.00000054,0.00000964,-0.00006078,0.00001858,0.00036765,0.0001056
 1,-0.00024541,0.00002694,-0.00000610,0.00003459,0.00001457,-0.00002231
 ,0.00000559,0.00001359,-0.00001501,-0.00002968,-0.00000158,0.00001957,
 0.00000809,-0.00000859,-0.00007651,-0.00007108,0.00006296,0.00002196,0
 .00002289,-0.00105580,0.00030326,-0.00026707,-0.00011633,-0.00012703,0
 .00001362,0.00046850,0.00015747,0.00036579,-0.00037638,-0.00322545,0.0
 0265022,0.04438916,0.05626451,-0.00004473,-0.00011246,-0.00024786,-0.0
 0029984,0.00052790,-0.00018693,0.00097288,-0.00048596,0.00142672,-0.00
 039438,0.00009379,-0.00018341,-0.00002607,0.00000386,-0.00005441,0.021
 82127,0.00331013,-0.00059935,-0.00208047,-0.00129857,0.00117926,-0.000
 20148,0.00013654,-0.00026202,0.00010929,-0.00003574,-0.00005779,-0.000
 12868,-0.00001278,-0.00006756,-0.00002468,0.00001827,0.00000498,0.0045
 7011,-0.00090569,0.00220427,0.01011343,-0.00600083,-0.00403836,0.06475
 945,0.01565807,-0.05705389,-0.03389167,-0.00593846,-0.00861241,-0.0045
 0113,-0.00145285,0.00550254,0.00002503,0.00002685,-0.00054444,0.000126
 03,0.00009269,0.00031923,-0.00018448,0.00012772,-0.00041072,-0.0000124
 8,0.00008581,0.00006752,0.00001506,0.00006069,-0.00007075,-0.00000205,
 0.00000611,-0.00000260,-0.00006707,0.00015739,0.00007172,0.00009776,-0
 .00018015,0.00015122,0.00001970,-0.00004190,-0.00007452,-0.00011898,-0
 .00007186,0.00002995,0.00011047,0.00004382,-0.00024174,0.00002413,-0.0
 0012982,0.00010835,0.00002508,0.00002748,-0.00007036,-0.00000053,0.000
 00397,0.00000758,-0.00000427,0.00000947,0.00000251,0.00002166,0.000010
 69,-0.00004981,0.00021095,-0.00007892,0.00004070,0.00123598,0.00016672
 ,-0.00016420,0.00024083,0.00006267,0.00001643,0.00000684,-0.00001458,0
 .00000340,0.00001893,-0.00004141,-0.00001295,-0.00002249,-0.00000089,0
 .00000562,-0.00004898,-0.00007259,-0.00003313,0.00003176,0.00005647,0.
 00001023,-0.00068285,-0.00053993,-0.00081909,-0.00017488,-0.00007711,0
 .00009462,-0.00043307,0.00005888,-0.00026615,0.00030762,0.00296562,-0.
 00238059,-0.06151898,-0.00621911,0.06525819\\0.00890844,-0.01805470,-0
 .00243810,0.00207255,0.01892210,-0.00666299,0.00260303,-0.00187381,0.0
 3001082,0.01170411,0.00152061,0.01301584,-0.01572900,-0.00927548,-0.02
 611305,0.01365202,-0.02306947,0.00014583,-0.00361333,0.01095331,-0.004
 90182,0.00353206,0.00153458,0.01869002,-0.00330409,0.00249100,0.005531
 94,-0.00782567,0.02072462,-0.01245259,0.00191652,-0.03235393,0.0119972
 7,-0.03188051,0.01611245,0.00960746,0.02612401,-0.00147629,-0.00257206
 ,-0.06297999,0.00117164,-0.01928366,0.01613410,0.00189345,-0.00098796,
 -0.01656700,-0.00087978,-0.00378865,-0.01007015,0.02698806,0.02966063,
 0.01668313,-0.00190676,0.00476398,-0.01179197,0.00058629,-0.02741491,-
 0.00031451,0.02876849,-0.02519213,-0.00861989,0.01063706,-0.00708972,0
 .00153871,-0.00874031,0.03430398,0.00462223,-0.01313005,0.00830243,-0.
 00495093,-0.02360212,0.00424381,-0.00270406,0.03311057,-0.00684741,0.0
 0946418,-0.02296649,-0.00186651,-0.01885849,-0.01179714,0.01061132,0.0
 7636997,-0.02633467,0.01315963,-0.02485905,0.01643895,0.00074189,-0.00
 125977,-0.00242358,-0.00390218,-0.01649702,-0.00114620,-0.00500857,0.0
 1997061,-0.00490599,-0.00429982,-0.02325996,-0.00223583,0.00314215,0.0
 1891123,-0.00087518,0.00140226,-0.01969205,0.00197463,0.00482619,-0.00
 933863,-0.00742224,-0.01333829,0.01814902,0.00006593,-0.00766049,-0.00
 161010,0.00129671,-0.00146996,0.01640152,0.00403517,0.00886522,0.00244
 378,0.00661302,-0.01788009,0.02092027,0.00325966,-0.00270985,-0.017101
 49,0.00083736,-0.00043346,0.02291408,-0.00096831,-0.00132302,-0.020073
 66,0.00115903,-0.00221614,0.01786575,0.00434364,-0.00516924\\\@


 WHEN IT COMES TO CASH FLOW, IT SEEMS LIKE THE TIDE IS ALWAYS GOING OUT.
 Job cpu time:  3 days 22 hours  6 minutes 47.9 seconds.
 File lengths (MBytes):  RWF=   2340 Int=      0 D2E=      0 Chk=     43 Scr=      1
 Normal termination of Gaussian 09 at Fri Feb 12 12:02:42 2016.
Gaussian '09 finished on node007 at Fri Feb 12 12:02:42 EST 2016.
