Job furan_test started on node020 at Mon Mar  2 17:10:18 2015
jobid: volta-0-54f4dfc2

  +--------------------------------------------------------------------+
  |  Jaguar version 8.5, release  13                                   |
  |                                                                    |
  |  Copyright Schrodinger, Inc.                                       |
  |  All Rights Reserved.                                              |
  |                                                                    |
  |  The following have contributed to Jaguar (listed alphabetically): |
  |  Mike Beachy, Art Bochevarov, Dale Braden, Yixiang Cao,            |
  |  Chris Cortis, Rich Friesner, Bill Goddard, Hod Greeley,           |
  |  Tom Hughes, Jean-Marc Langlois, Daniel Mainz, Rob Murphy,         |
  |  Dean Philipp, Tom Pollard, Murco Ringnalda.                       |
  |                                                                    |
  |  Use of this program should be acknowledged in publications as:    |
  |                                                                    |
  |  Jaguar, version 8.5, Schrodinger, Inc., New York, NY, 2014.       |
  |                                                                    |
  |  A. D. Bochevarov, E. Harder, T. F. Hughes, J. R. Greenwood,       |
  |  D. A. Braden, D. M. Philipp, D. Rinaldo, M. D. Halls,             |
  |  J. Zhang, R. A. Friesner, "Jaguar: A High-Performance Quantum     |
  |  Chemistry Software Program with Strengths in Life and Materials   |
  |  Sciences", Int. J. Quantum Chem., 2013, 113(18), 2110-2142.       |
  +--------------------------------------------------------------------+
  
  start of program pre
  
  Job name: furan_test
  Executables used: /opt/schrodinger2014-3/jaguar-v85013/bin/Linux-x86_64
  Temporary files : /home/srmcgrat/.schrodinger/tmp/furan_test#volta-0-54f4dfc2
  Maestro file (input):  furan_test.mae
  Maestro file (output): furan_test.01.mae
  
  
  basis set:             6-311g**        
  net molecular charge:    0
  multiplicity:            1
  
  Running   2 MPI processes
   
  Master MPI process running on node020
   Slave MPI process   1 running on node020
  
  Using up to   5 threads per process
  
  number of basis functions....          114
  
 Input geometry:
                                   angstroms
  atom               x                 y                 z
  C1           -0.7584761213     -0.9926600848      0.2758591680 
  C2            0.6628313908     -1.0588399497      0.2499852442 
  C3            1.1024572858      0.2350844707      0.2772171995 
  O4            0.0519477113      1.1004394732      0.3175147335 
  C5           -1.0751649441      0.3363415034      0.3143082686 
  H6            2.0796246729      0.6970566759      0.2735500692 
  H7            1.2856737770     -1.9410982589      0.2153923514 
  H8           -1.4624340992     -1.8124000445      0.2664388865 
  H9           -2.0054986731      0.8859682147      0.3413942809 
   
  principal moments of inertia:
        amu*angstrom^2:       52.91797       55.01835      107.93624
                g*cm^2: 8.78723494E-39 9.13601025E-39 1.79232329E-38
   
  rotational constants:
               cm^(-1):      0.31856151      0.30640014      0.15618136
                   GHz:      9.55023379      9.18564513      4.68219928
   
  Molecular weight:      68.03 amu
   
  Stoichiometry: C4H4O
  Molecular Point Group: C1      
  Point Group used: C1 (symmetry turned off)
  
  nuclear repulsion energy.......     160.794840426 hartrees
 
 Non-default options chosen:
   SCF calculation type: DFT(b3lyp)                  
   DFT=Becke_3_Parameter/HF+Slater+Becke88+VWN+LYP (B3LYP)
   Solvation energy will be computed using PBF
   Vibrational frequencies and related properties will be computed
      from analytic second derivatives
   IR intensities will be computed
   High accuracy cutoffs used in SCF
   Solvent: water                                                           
   Internal dielectric constant:    1.000
   Continuum dielectric constant:  80.370
   Solvent probe molecule radius:   1.400
  
 Temporary integer options set:
     73=  2
  
  atom       vdw   vdw2    cov     mass  grid  daf  charge   basis
  C1        1.949  2.000  0.770   12.000    Y    Y      Y    6-311g**
  C2        1.949  2.000  0.770   12.000    Y    Y      Y    6-311g**
  C3        1.949  2.000  0.770   12.000    Y    Y      Y    6-311g**
  O4        1.702  1.450  0.730   15.995    Y    Y      Y    6-311g**
  C5        1.949  2.000  0.770   12.000    Y    Y      Y    6-311g**
  H6        1.597  1.250  0.320    1.008    Y    Y      Y    6-311g**
  H7        1.597  1.250  0.320    1.008    Y    Y      Y    6-311g**
  H8        1.597  1.250  0.320    1.008    Y    Y      Y    6-311g**
  H9        1.597  1.250  0.320    1.008    Y    Y      Y    6-311g**
  
  Peak memory usage:   1901 Mb
  
  end of program pre
   
 Time(pre)  user:        4.6  user+sys:        4.6  wallclock:        7.1
  
  start of program onee
  
  smallest eigenvalue of S:    5.303E-04
  number of canonical orbitals.....          114
  Peak memory usage:   1800 Mb
  
  end of program onee
   
 Time(onee)  user:        5.1  user+sys:        5.1  wallclock:        2.4
  
  start of program hfig
  
  initial wavefunction generated automatically from atomic wavefunctions
 
  Irreducible     Total no   No of occupied orbitals 
  representation  orbitals   Shell_1  Shell_2    ...
  No Symm          114         18
  ------------------------
  Orbital occupation/shell    1.000
 
  Peak memory usage:   1735 Mb
  
  end of program hfig
   
 Time(hfig)  user:        2.9  user+sys:        2.9  wallclock:        2.0
  
  start of program probe
  
  Peak memory usage:   1665 Mb
  
  end of program probe
   
 Time(probe)  user:        2.4  user+sys:        2.4  wallclock:        1.8
  
  start of program grid
  
  
   grid     grid set  grid #  grid sym
  ------    --------  ------  --------
  coarse        0        0        1
  medium        2        1        1
  fine          0        0        1
  ultrafine     4        2        1
  charge       -1        3        1
  gradient      4        2        1
  density       0        0        1
  DFT-fine    -11        4        1
  DFT-med.    -10        5        1
  DFT-grad    -12        6        1
  DFT-der2     -8        7        1
  DFT-cphf     -9        8        1
  LMP2-enrg     4        2        1
  LMP2-grad     2        1        1
  DFT-cphf2   -15        9        1
  PBF-dens      0        0        1
  plotting      0        0        1
  Rel-grad    -17        0        1
  
   
  number of gridpoints: 
     atom        C1       C2       C3       O4       C5       H6       H7
  grid # 1      167      167      171      218      171      156      156
  grid # 2      334      334      332      465      332      331      331
  grid # 3       52       52       54      239       54      497      492
  grid # 4     4304     4304     4304     4304     4304     4304     4304
  grid # 5     1192     1192     1192     1192     1192     1192     1192
  grid # 6     5226     5226     5226     5226     5226     5226     5226
  grid # 7    12650    12650    12650    23504    12650    13718    13718
  grid # 8      688      688      688      714      688      744      744
  grid # 9      358      358      358      360      358      382      382
   
  number of gridpoints: 
     atom        H8       H9    total
  grid # 1      156      156     1518
  grid # 2      331      331     3121
  grid # 3      492      497     2429
  grid # 4     4304     4304    38736
  grid # 5     1192     1192    10728
  grid # 6     5226     5226    47034
  grid # 7    13718    13718   128976
  grid # 8      744      744     6442
  grid # 9      382      382     3320
   
  Sorting grid blocks by size.
  Peak memory usage:   1652 Mb
  
  end of program grid
   
 Time(grid)  user:       10.4  user+sys:       10.4  wallclock:        5.8
  
  start of program rwr
  
  Peak memory usage:   1807 Mb
  
  end of program rwr
   
 Time(rwr)  user:        7.6  user+sys:        7.6  wallclock:        3.2
  
  start of program scf
  
 number of electrons..........         36
 number of alpha electrons....         18
 number of beta electrons.....         18
 number of orbitals, total....        114
 number of doubly-occ'd orbs..         18
 number of open shell orbs....          0
 number of occupied orbitals..         18
 number of virtual orbitals...         96
 number of hamiltonians.......          1
 number of shells.............          1
 SCF type: DFT=Becke_3_Parameter/HF+Slater+Becke88+VWN+LYP (B3LYP)
  
       i  u  d  i  g                   
       t  p  i  c  r                                 RMS    maximum
       e  d  i  u  i                       energy  density   DIIS  
       r  t  s  t  d       total energy    change  change    error 
  
etot    1  N  N  4  M    -229.40876701894           4.4E-03  1.4E-01
etot    2  Y  Y  6  M    -230.00069606544  5.9E-01  2.9E-03  6.0E-02
etot    3  Y  Y  6  M    -230.03142812284  3.1E-02  1.8E-03  5.9E-02
etot    4  N  Y  1  U    -230.06845518156  3.7E-02  8.6E-04  4.3E-02
etot    5  Y  Y  6  M    -230.08276503767  1.4E-02  3.0E-04  5.0E-03
etot    6  N  Y  1  U    -230.08307182243  3.1E-04  7.0E-05  1.3E-03
etot    7  Y  Y  6  M    -230.08307690481  5.1E-06  1.9E-05  8.9E-04
etot    8  N  Y  1  U    -230.08308704777  1.0E-05  3.0E-06  5.2E-05
etot    9  N  N  1  U    -230.08308713368  8.6E-08  0.0E+00  0.0E+00
  
  
 Energy components, in hartrees:
   (A)  Nuclear repulsion............     160.79484042554
   (E)  Total one-electron terms.....    -629.32826858292
   (F)    Electron-nuclear...........    -858.52672078644
   (H)    Kinetic....................     229.19845220352
   (I)  Total two-electron terms.....     238.45034102371
   (J)    Coulomb....................     270.26161482886
   (K)    Exchange+Correlation.......     -31.81127380515
   (L)  Electronic energy............    -390.87792755921  (E+I)
   (M)  -V/T.........................       2.00385968981  (-(A+F+I)/H)
   (N)  Total energy.................    -230.08308713368  (A+L)
  
 SCFE: SCF energy: DFT(b3lyp)      -230.08308713368 hartrees   iterations:   9
  
 
 HOMO energy:    -0.23249
 LUMO energy:     0.00495
 
  Orbital energies (hartrees): 
   -19.18821   -10.22016   -10.22012   -10.17231   -10.17185    -1.11408
    -0.80310    -0.74579    -0.60107    -0.57121    -0.54455    -0.45246
    -0.44680    -0.41247    -0.40472    -0.37698    -0.28512    -0.23249
     0.00495     0.05887     0.06293     0.08517     0.09044     0.10323
     0.15353     0.18705     0.24696     0.30375
 
  Peak memory usage:   2175 Mb
  
  end of program scf
   
 Time(scf)  user:       22.0  user+sys:       22.0  wallclock:        6.7
  
  start of program ch
  
  gridpoints used for charge fit         2225
    out of a possible maximum of         2429
  
   Electrostatic potential fitting constrained to reproduce
     total charge:                yes
     dipole moment:               no 
     traceless quadrupole moment: no 
     traceless octapole moment:   no 
  
  Atomic charges from electrostatic potential: 
   
 Atom       C1           C2           C3           O4           C5      
 Charge   -0.19911     -0.20019     -0.01656     -0.14346     -0.01721
   
 Atom       H6           H7           H8           H9      
 Charge    0.13396      0.15442      0.15405      0.13410
  
  sum of atomic charges:    -0.000000
   
 RMS Error   1.48E-03 hartrees
 
  Peak memory usage:   1624 Mb
  
  end of program ch
   
 Time(ch)  user:        3.0  user+sys:        3.0  wallclock:        2.2
  
  start of program post
  
  Writing input files for PBF
  Peak memory usage:    571 Mb
  
  end of program post
   
 Time(post)  user:        0.1  user+sys:        0.1  wallclock:        0.4

  start of program pbf

Pbf Version 4.00

Molecular surface area:       97.30551   [A2]
Reaction field energy:        -4.02364   [kT]

Solvent-accessible surface area:  224.46917 [A2]
Cavity energy:                      3.68616 [kT]

  Peak memory usage: 531 Mb

  end of program pbf

 Time(pbf)  user:        0.2  user+sys:        0.2  wallclock:        0.4
  
  start of program solv
  
   number of surface charges from PBF     988
   sum of surface charges      0.00006
   
  nuclear repulsion energy.......     160.794840426 hartrees
  Peak memory usage:   1792 Mb
  
  end of program solv
   
 Time(solv)  user:        1.5  user+sys:        1.5  wallclock:        1.5
  
  start of program scf
  
  
       i  u  d  i  g                   
       t  p  i  c  r                                 RMS    maximum
       e  d  i  u  i                       energy  density   DIIS  
       r  t  s  t  d       total energy    change  change    error 
  
etot    1  N  N  1  U    -230.09146717476           4.0E-04  3.4E-03
etot    2  Y  Y  6  M    -230.09276328615  1.3E-03  1.1E-04  3.4E-03
etot    3  Y  Y  6  M    -230.09289306017  1.3E-04  4.1E-05  2.2E-03
etot    4  N  Y  1  U    -230.09191375147 -9.8E-04  1.7E-05  6.1E-04
etot    5  N  Y  1  U    -230.09191950213  5.8E-06  5.2E-06  1.7E-04
etot    6  N  Y  1  U    -230.09191974298  2.4E-07  1.4E-06  6.8E-05
etot    7  N  N  1  U    -230.09191980069  5.8E-08  0.0E+00  0.0E+00
  
  
 Energy components, in hartrees:
   (A)  Total zero-electron terms....     161.06327503581
   (B)    Nuclear-nuclear............     160.79484042554
   (C)    Nuclear-solvent............       0.26843461028
   (E)  Total one-electron terms.....    -629.75381546418
   (F)    Electron-nuclear...........    -858.69306350357
   (G)    Electron-solvent...........      -0.27772201374
   (H)    Kinetic....................     229.21697005312
   (I)  Total two-electron terms.....     238.59862062768
   (J)    Coulomb....................     270.41489200811
   (K)    Exchange+Correlation.......     -31.81627138043
   (L)  Electronic energy............    -391.15519483650  (E+I)
   (N)  Total quantum mech. energy...    -230.09191980069  (A+L)
   (O)  Gas phase energy.............    -230.08308713368
   (P)  Solution phase energy........    -230.08172574782  (Q+R+S+T)
   (Q)    Total solute energy........    -230.08263239723  (N-C-G)
   (R)    Total solvent energy.......      -0.00464370173  (C/2+G/2)
   (S)    Solute cavity energy.......       0.00347866926
   (T)    First shell corr. factor...       0.00207168188
   (U)  Reorganization energy........       0.00045473645  (Q-O)
   (V)  Solvation energy.............       0.00136138586  (P-O)
  
 SCFE:  Solution phase energy: DFT(b3lyp)       -230.08172574782 hartrees
        SCF iterations:   7
  
 
 HOMO energy:    -0.23675
 LUMO energy:     0.00024
 
  Orbital energies (hartrees): 
   -19.19453   -10.22254   -10.22249   -10.17453   -10.17406    -1.12080
    -0.80720    -0.74924    -0.60405    -0.57216    -0.54712    -0.46024
    -0.44722    -0.41305    -0.40716    -0.38235    -0.29128    -0.23675
     0.00024     0.05941     0.06383     0.09159     0.09629     0.10935
     0.14991     0.18583     0.24473     0.30302
 
  Peak memory usage:   2169 Mb
  
  end of program scf
   
 Time(scf)  user:       17.8  user+sys:       17.8  wallclock:        5.7
  
  start of program sole
  
    SCRF                   solvation energy
  iteration          Hartrees            kcal/mol
     0               0.0000000            0.0000
     1               0.0013614            0.8543
  
  solvation energy not yet converged... 
  
  Peak memory usage:    671 Mb
  
  end of program sole
   
 Time(sole)  user:        0.1  user+sys:        0.1  wallclock:        0.6
  
  start of program ch
  
  gridpoints used for charge fit         2225
    out of a possible maximum of         2225
  
   Electrostatic potential fitting constrained to reproduce
     total charge:                yes
     dipole moment:               no 
     traceless quadrupole moment: no 
     traceless octapole moment:   no 
  
  Atomic charges from electrostatic potential: 
   
 Atom       C1           C2           C3           O4           C5      
 Charge   -0.21648     -0.21777     -0.01601     -0.17317     -0.01642
   
 Atom       H6           H7           H8           H9      
 Charge    0.14874      0.17138      0.17090      0.14883
  
  sum of atomic charges:    -0.000000
   
 RMS Error   1.50E-03 hartrees
 
  Peak memory usage:   1624 Mb
  
  end of program ch
   
 Time(ch)  user:        3.9  user+sys:        3.9  wallclock:        2.3
  
  start of program post
  
  Writing input files for PBF
  Peak memory usage:    571 Mb
  
  end of program post
   
 Time(post)  user:        0.1  user+sys:        0.1  wallclock:        0.2

  start of program pbf

Pbf Version 4.00

Molecular surface area:       97.30551   [A2]
Reaction field energy:        -5.13757   [kT]

Solvent-accessible surface area:  224.46917 [A2]
Cavity energy:                      3.68616 [kT]

  Peak memory usage: 531 Mb

  end of program pbf

 Time(pbf)  user:        0.2  user+sys:        0.2  wallclock:        0.2
  
  start of program solv
  
   number of surface charges from PBF     988
   sum of surface charges      0.00006
   
  nuclear repulsion energy.......     160.794840426 hartrees
  Peak memory usage:   1793 Mb
  
  end of program solv
   
 Time(solv)  user:        2.1  user+sys:        2.1  wallclock:        1.9
  
  start of program scf
  
  
       i  u  d  i  g                   
       t  p  i  c  r                                 RMS    maximum
       e  d  i  u  i                       energy  density   DIIS  
       r  t  s  t  d       total energy    change  change    error 
  
etot    1  N  N  1  U    -230.09312005772           7.0E-05  6.1E-04
etot    2  Y  Y  6  M    -230.09414661562  1.0E-03  2.4E-05  9.8E-04
etot    3  N  Y  1  U    -230.09313011204 -1.0E-03  5.4E-06  2.9E-04
etot    4  N  Y  1  U    -230.09313092560  8.1E-07  1.9E-06  6.7E-05
etot    5  N  N  1  U    -230.09313098265  5.7E-08  0.0E+00  0.0E+00
  
  
 Energy components, in hartrees:
   (A)  Total zero-electron terms....     161.09997232760
   (B)    Nuclear-nuclear............     160.79484042554
   (C)    Nuclear-solvent............       0.30513190207
   (E)  Total one-electron terms.....    -629.81275034426
   (F)    Electron-nuclear...........    -858.71692644996
   (G)    Electron-solvent...........      -0.31577259308
   (H)    Kinetic....................     229.21994869878
   (I)  Total two-electron terms.....     238.61964703401
   (J)    Coulomb....................     270.43675519721
   (K)    Exchange+Correlation.......     -31.81710816321
   (L)  Electronic energy............    -391.19310331025  (E+I)
   (N)  Total quantum mech. energy...    -230.09313098265  (A+L)
   (O)  Gas phase energy.............    -230.08308713368
   (P)  Solution phase energy........    -230.08226028600  (Q+R+S+T)
   (Q)    Total solute energy........    -230.08249029163  (N-C-G)
   (R)    Total solvent energy.......      -0.00532034551  (C/2+G/2)
   (S)    Solute cavity energy.......       0.00347866926
   (T)    First shell corr. factor...       0.00207168188
   (U)  Reorganization energy........       0.00059684204  (Q-O)
   (V)  Solvation energy.............       0.00082684768  (P-O)
  
 SCFE:  Solution phase energy: DFT(b3lyp)       -230.08226028600 hartrees
        SCF iterations:   5
  
 
 HOMO energy:    -0.23722
 LUMO energy:    -0.00037
 
  Orbital energies (hartrees): 
   -19.19556   -10.22282   -10.22277   -10.17467   -10.17420    -1.12185
    -0.80763    -0.74974    -0.60441    -0.57228    -0.54748    -0.46142
    -0.44734    -0.41301    -0.40748    -0.38317    -0.29196    -0.23722
    -0.00037     0.05913     0.06453     0.09229     0.09702     0.11025
     0.14927     0.18573     0.24462     0.30313
 
  Peak memory usage:   2171 Mb
  
  end of program scf
   
 Time(scf)  user:       18.3  user+sys:       18.3  wallclock:        6.0
  
  start of program sole
  
    SCRF                   solvation energy
  iteration          Hartrees            kcal/mol
     0               0.0000000            0.0000
     1               0.0013614            0.8543
     2               0.0008268            0.5189
  
  solvation energy not yet converged... 
  
  Peak memory usage:    671 Mb
  
  end of program sole
   
 Time(sole)  user:        0.1  user+sys:        0.1  wallclock:        0.1
  
  start of program ch
  
  gridpoints used for charge fit         2225
    out of a possible maximum of         2225
  
   Electrostatic potential fitting constrained to reproduce
     total charge:                yes
     dipole moment:               no 
     traceless quadrupole moment: no 
     traceless octapole moment:   no 
  
  Atomic charges from electrostatic potential: 
   
 Atom       C1           C2           C3           O4           C5      
 Charge   -0.21722     -0.21853     -0.01610     -0.17897     -0.01648
   
 Atom       H6           H7           H8           H9      
 Charge    0.15026      0.17359      0.17309      0.15035
  
  sum of atomic charges:    -0.000000
   
 RMS Error   1.50E-03 hartrees
 
  Peak memory usage:   1717 Mb
  
  end of program ch
   
 Time(ch)  user:        3.6  user+sys:        3.6  wallclock:        1.9
  
  start of program post
  
  Writing input files for PBF
  Peak memory usage:    571 Mb
  
  end of program post
   
 Time(post)  user:        0.1  user+sys:        0.1  wallclock:        0.4

  start of program pbf

Pbf Version 4.00

Molecular surface area:       97.30551   [A2]
Reaction field energy:        -5.31469   [kT]

Solvent-accessible surface area:  224.46917 [A2]
Cavity energy:                      3.68616 [kT]

  Peak memory usage: 531 Mb

  end of program pbf

 Time(pbf)  user:        0.1  user+sys:        0.2  wallclock:        0.2
  
  start of program solv
  
   number of surface charges from PBF     988
   sum of surface charges      0.00006
   
  nuclear repulsion energy.......     160.794840426 hartrees
  Peak memory usage:   1855 Mb
  
  end of program solv
   
 Time(solv)  user:        1.8  user+sys:        1.8  wallclock:        1.6
  
  start of program scf
  
  
       i  u  d  i  g                   
       t  p  i  c  r                                 RMS    maximum
       e  d  i  u  i                       energy  density   DIIS  
       r  t  s  t  d       total energy    change  change    error 
  
etot    1  N  N  1  U    -230.09330858968           1.8E-05  1.7E-04
etot    2  N  Y  1  U    -230.09330820336 -3.9E-07  6.5E-06  3.1E-04
etot    3  N  Y  1  U    -230.09330909119  8.9E-07  1.1E-06  2.8E-05
etot    4  N  N  1  U    -230.09330911331  2.2E-08  0.0E+00  0.0E+00
  
  
 Energy components, in hartrees:
   (A)  Total zero-electron terms....     161.10575675158
   (B)    Nuclear-nuclear............     160.79484042554
   (C)    Nuclear-solvent............       0.31091632604
   (E)  Total one-electron terms.....    -629.82132469074
   (F)    Electron-nuclear...........    -858.71965733394
   (G)    Electron-solvent...........      -0.32176190202
   (H)    Kinetic....................     229.22009454523
   (I)  Total two-electron terms.....     238.62225882585
   (J)    Coulomb....................     270.43946686922
   (K)    Exchange+Correlation.......     -31.81720804338
   (L)  Electronic energy............    -391.19906586489  (E+I)
   (N)  Total quantum mech. energy...    -230.09330911331  (A+L)
   (O)  Gas phase energy.............    -230.08308713368
   (P)  Solution phase energy........    -230.08233597418  (Q+R+S+T)
   (Q)    Total solute energy........    -230.08246353733  (N-C-G)
   (R)    Total solvent energy.......      -0.00542278799  (C/2+G/2)
   (S)    Solute cavity energy.......       0.00347866926
   (T)    First shell corr. factor...       0.00207168188
   (U)  Reorganization energy........       0.00062359635  (Q-O)
   (V)  Solvation energy.............       0.00075115950  (P-O)
  
 SCFE:  Solution phase energy: DFT(b3lyp)       -230.08233597418 hartrees
        SCF iterations:   4
  
 
 HOMO energy:    -0.23731
 LUMO energy:    -0.00047
 
  Orbital energies (hartrees): 
   -19.19571   -10.22290   -10.22285   -10.17475   -10.17428    -1.12203
    -0.80771    -0.74984    -0.60448    -0.57232    -0.54755    -0.46162
    -0.44739    -0.41300    -0.40754    -0.38333    -0.29206    -0.23731
    -0.00047     0.05910     0.06465     0.09234     0.09711     0.11042
     0.14913     0.18571     0.24463     0.30318
 
  Peak memory usage:   2174 Mb
  
  end of program scf
   
 Time(scf)  user:       11.2  user+sys:       11.2  wallclock:        4.1
  
  start of program sole
  
    SCRF                   solvation energy
  iteration          Hartrees            kcal/mol
     0               0.0000000            0.0000
     1               0.0013614            0.8543
     2               0.0008268            0.5189
     3               0.0007512            0.4714
  
  stopping: solvation energy converged
  
  iterations:   3    sfinal:      0.4714 kcal/mol
  
  Peak memory usage:    671 Mb
  
  end of program sole
   
 Time(sole)  user:        0.1  user+sys:        0.1  wallclock:        0.1
  
  start of program cutabab2
  
  Peak memory usage:    663 Mb
  
  end of program cutabab2
   
 Time(cutabab2)  user:        0.2  user+sys:        0.2  wallclock:        1.0
  
  start of program der2a
  
  Peak memory usage:   1650 Mb
  
  end of program der2a
   
 Time(der2a)  user:        6.6  user+sys:        6.6  wallclock:        1.9
  
  start of program der2b
  
  Peak memory usage:   2106 Mb
  
  end of program der2b
   
 Time(der2b)  user:       20.8  user+sys:       20.8  wallclock:        6.3
  
  start of program der2nda
  
 
  Peak memory usage:   1522 Mb
  
  end of program der2nda
   
 Time(der2nda)  user:        9.7  user+sys:        9.7  wallclock:        2.6
  
  start of program der2ndb
  
  Peak memory usage:   2035 Mb
  
  end of program der2ndb
   
 Time(der2ndb)  user:       76.9  user+sys:       76.9  wallclock:       21.5
  
  start of program rwr
  
  Peak memory usage:   1807 Mb
  
  end of program rwr
   
 Time(rwr)  user:        6.9  user+sys:        6.9  wallclock:        3.2
  
  start of program cphfa
  
       1  vectors produced in CPHF
  
     v    i  j  k  i  g
     e    t  c  c  c  r
     c    e  o  o  u  i
     t    r  r  r  t  d       RMS  
  
     1    1  0  0  6  M     2.7E-02
     1    2  0  0  6  M     1.9E-03
     1    3  0  0  6  M     6.1E-04
     1    4  0  0  6  M     2.1E-04
     1    5  0  0  6  M     6.1E-05
     1    6  0  0  6  M     1.3E-05
  
  
  Atomic Polar Tensors (au): Total
  =========================
  
  APT for atom C1      
  --------------------------------------
        0.0400       0.0531      -0.0028
        0.0715      -0.0863       0.0017
       -0.0024       0.0024      -0.2039
  --------------------------------------
  
  APT for atom C2      
  --------------------------------------
        0.0275      -0.0634      -0.0057
       -0.0818      -0.0739       0.0051
       -0.0061       0.0050      -0.2036
  --------------------------------------
  
  APT for atom C3      
  --------------------------------------
        0.0469      -0.1183      -0.0058
       -0.0850       0.4049       0.0149
       -0.0046       0.0154      -0.1029
  --------------------------------------
  
  APT for atom O4      
  --------------------------------------
       -0.2944      -0.0269       0.0015
       -0.0271      -0.8722      -0.0184
        0.0012      -0.0189      -0.1515
  --------------------------------------
  
  APT for atom C5      
  --------------------------------------
        0.0692       0.1496       0.0019
        0.1164       0.3827       0.0106
        0.0010       0.0102      -0.1029
  --------------------------------------
  
  APT for atom H6      
  --------------------------------------
        0.0509      -0.0091       0.0021
       -0.0350       0.0677      -0.0028
        0.0013      -0.0033       0.1925
  --------------------------------------
  
  APT for atom H7      
  --------------------------------------
        0.0560       0.0614       0.0035
        0.0544       0.0514      -0.0040
        0.0035      -0.0042       0.1681
  --------------------------------------
  
  APT for atom H8      
  --------------------------------------
        0.0448      -0.0612       0.0004
       -0.0539       0.0620      -0.0018
        0.0006      -0.0019       0.1682
  --------------------------------------
  
  APT for atom H9      
  --------------------------------------
        0.0551       0.0104       0.0023
        0.0359       0.0634      -0.0038
        0.0030      -0.0034       0.1925
  --------------------------------------
  
  Peak memory usage:   2062 Mb
  
  end of program cphfa
   
 Time(cphfa)  user:       97.7  user+sys:       97.7  wallclock:       26.6
  
  start of program rwr
  
  Peak memory usage:   1807 Mb
  
  end of program rwr
   
 Time(rwr)  user:        5.6  user+sys:        5.6  wallclock:        2.7
  
  start of program scf
  
 number of electrons..........         36
 number of alpha electrons....         18
 number of beta electrons.....         18
 number of orbitals, total....        114
 number of doubly-occ'd orbs..         18
 number of open shell orbs....          0
 number of occupied orbitals..         18
 number of virtual orbitals...         96
 number of hamiltonians.......          1
 number of shells.............          1
 SCF type: DFT=Becke_3_Parameter/HF+Slater+Becke88+VWN+LYP (B3LYP)
  
       i  u  d  i  g                   
       t  p  i  c  r                                 RMS    maximum
       e  d  i  u  i                       energy  density   DIIS  
       r  t  s  t  d       total energy    change  change    error 
  
etot    1  N  N  4  M    -230.09341244097           2.8E-04  9.8E-04
etot    2  Y  Y  6  M    -230.09340136407 -1.1E-05  1.5E-06  1.9E-05
etot    3  N  Y  1  U    -230.09330278854 -9.9E-05  1.0E-04  1.0E-03
etot    4  Y  Y  6  M    -230.09331036446  7.6E-06  2.3E-05  6.5E-04
etot    5  N  Y  1  U    -230.09330719507 -3.2E-06  1.3E-05  5.7E-04
etot    6  N  Y  1  U    -230.09330745646  2.6E-07  9.4E-06  5.2E-04
etot    7  N  Y  1  U    -230.09330767564  2.2E-07  7.3E-06  4.9E-04
etot    8  N  Y  1  U    -230.09330782708  1.5E-07  6.0E-06  4.6E-04
etot    9  N  Y  1  U    -230.09330794560  1.2E-07  5.1E-06  4.4E-04
etot   10  N  Y  1  U    -230.09330804858  1.0E-07  4.5E-06  4.2E-04
etot   11  N  N  1  U    -230.09330812924  8.1E-08  0.0E+00  0.0E+00
  
  
 Energy components, in hartrees:
   (A)  Total zero-electron terms....     161.10575675158
   (B)    Nuclear-nuclear............     160.79484042554
   (C)    Nuclear-solvent............       0.31091632604
   (E)  Total one-electron terms.....    -629.82152017005
   (F)    Electron-nuclear...........    -858.71971302970
   (G)    Electron-solvent...........      -0.32176196649
   (H)    Kinetic....................     229.21995482614
   (I)  Total two-electron terms.....     238.62245528923
   (J)    Coulomb....................     270.43967004558
   (K)    Exchange+Correlation.......     -31.81721475635
   (L)  Electronic energy............    -391.19906488082  (E+I)
   (N)  Total energy.................    -230.09330812924  (A+L)
  
 SCFE: SCF energy: DFT(b3lyp)      -230.09330812924 hartrees   iterations:  11
  
 
 HOMO energy:    -0.23730
 LUMO energy:    -0.00046
 
  Orbital energies (hartrees): 
   -19.19571   -10.22288   -10.22283   -10.17475   -10.17428    -1.12202
    -0.80771    -0.74984    -0.60447    -0.57232    -0.54754    -0.46161
    -0.44738    -0.41300    -0.40754    -0.38332    -0.29205    -0.23730
    -0.00046     0.05910     0.06465     0.09234     0.09711     0.11042
     0.14913     0.18572     0.24464     0.30318
 
  Peak memory usage:   2212 Mb
  
  end of program scf
   
 Time(scf)  user:       29.8  user+sys:       29.8  wallclock:        9.1
  
  start of program der1a
  
  Peak memory usage:   1930 Mb
  
  end of program der1a
   
 Time(der1a)  user:        4.4  user+sys:        4.4  wallclock:        2.2
  
  start of program rwr
  
  Peak memory usage:   1844 Mb
  
  end of program rwr
   
 Time(rwr)  user:        4.6  user+sys:        4.6  wallclock:        2.3
  
  start of program der1b
  
   
  forces (hartrees/bohr) : total     
   
 atom  label           x              y              z
 ---- --------   -------------  -------------  -------------
    1 C1         -9.946623E-03   7.738932E-03   1.314650E-04
    2 C2          1.046228E-02   6.773010E-03   1.157029E-04
    3 C3          8.264245E-03  -4.605243E-03  -2.164501E-04
    4 O4         -2.639897E-04  -3.236138E-03  -3.319642E-04
    5 C5         -8.601390E-03  -3.850339E-03   2.652042E-04
    6 H6         -8.383120E-04  -2.081520E-03  -5.690816E-05
    7 H7         -3.290555E-04   4.611371E-04   7.361582E-05
    8 H8          4.997079E-04   3.650994E-04  -5.891164E-05
    9 H9          7.365514E-04  -2.060317E-03   2.724434E-05
 -------------   -------------  -------------  -------------
     total       -1.658827E-05  -4.953785E-04  -5.100203E-05
   
  Peak memory usage:   2153 Mb
  
  end of program der1b
   
 Time(der1b)  user:        6.3  user+sys:        6.3  wallclock:        2.6
  
  start of program raman
  
  calculation with applied electric field of
     Ex= 0.02400 Ey= 0.00000 Ez= 0.00000 follows...
  nuclear repulsion energy.......     160.794840426 hartrees
  nuclear electric field energy..       0.004406855 hartrees
  Peak memory usage:    534 Mb
  
  end of program raman
   
 Time(raman)  user:        0.1  user+sys:        0.1  wallclock:        0.1
  
  start of program rwr
  
  Peak memory usage:   1853 Mb
  
  end of program rwr
   
 Time(rwr)  user:        5.6  user+sys:        5.6  wallclock:        2.7
  
  start of program scf
  
 number of electrons..........         36
 number of alpha electrons....         18
 number of beta electrons.....         18
 number of orbitals, total....        114
 number of doubly-occ'd orbs..         18
 number of open shell orbs....          0
 number of occupied orbitals..         18
 number of virtual orbitals...         96
 number of hamiltonians.......          1
 number of shells.............          1
 SCF type: DFT=Becke_3_Parameter/HF+Slater+Becke88+VWN+LYP (B3LYP)
  
       i  u  d  i  g                   
       t  p  i  c  r                                 RMS    maximum
       e  d  i  u  i                       energy  density   DIIS  
       r  t  s  t  d       total energy    change  change    error 
  
etot    1  N  N  4  M    -230.40393345533           2.2E-03  2.8E-02
etot    2  Y  Y  6  M    -230.41282721460  8.9E-03  6.3E-04  2.5E-02
etot    3  N  Y  1  U    -230.41762995446  4.8E-03  2.6E-04  7.5E-03
etot    4  Y  Y  6  M    -230.41843988592  8.1E-04  1.1E-04  1.1E-03
etot    5  Y  Y  6  M    -230.41845414111  1.4E-05  3.2E-05  8.2E-04
etot    6  N  Y  1  U    -230.41845346353 -6.8E-07  7.9E-06  1.9E-04
etot    7  N  Y  1  U    -230.41845353141  6.8E-08  3.6E-06  1.7E-04
etot    8  N  N  1  U    -230.41845382740  3.0E-07  0.0E+00  0.0E+00
  
  
 Energy components, in hartrees:
   (A)  Nuclear repulsion............     160.79924728039
   (E)  Total one-electron terms.....    -629.76738732841
   (F)    Electron-nuclear...........    -858.95015610926
   (H)    Kinetic....................     229.21615358290
   (I)  Total two-electron terms.....     238.54968622061
   (J)    Coulomb....................     270.36175128023
   (K)    Exchange+Correlation.......     -31.81206505961
   (L)  Electronic energy............    -391.21770110780  (E+I)
   (M)  -V/T.........................       2.00509962070  (-(A+F+I)/H)
   (N)  Total energy.................    -230.41845382740  (A+L)
  
 SCFE: SCF energy: DFT(b3lyp)      -230.41845382740 hartrees   iterations:   8
  
 
 HOMO energy:    -0.23716
 LUMO energy:    -0.00725
 
  Orbital energies (hartrees): 
   -19.19815   -10.23950   -10.21124   -10.19336   -10.16220    -1.12416
    -0.81256    -0.75262    -0.60891    -0.57783    -0.55216    -0.46407
    -0.45053    -0.41937    -0.40187    -0.38048    -0.29744    -0.23716
    -0.00725    -0.00678     0.02896     0.06174     0.12498     0.15750
     0.17626     0.18903     0.23783     0.29051
 
  Peak memory usage:   2174 Mb
  
  end of program scf
   
 Time(scf)  user:       22.8  user+sys:       22.8  wallclock:        7.5
  
  start of program der1a
  
  Peak memory usage:   1930 Mb
  
  end of program der1a
   
 Time(der1a)  user:        4.1  user+sys:        4.1  wallclock:        2.2
  
  start of program rwr
  
  Peak memory usage:   1807 Mb
  
  end of program rwr
   
 Time(rwr)  user:        4.2  user+sys:        4.2  wallclock:        2.2
  
  start of program der1b
  
   
  forces (hartrees/bohr) : total     
   
 atom  label           x              y              z
 ---- --------   -------------  -------------  -------------
    1 C1         -9.467748E-03   3.808823E-03  -6.880671E-05
    2 C2          1.088331E-02  -8.994931E-04  -1.663116E-04
    3 C3          1.320821E-02  -4.182841E-03  -2.840776E-04
    4 O4         -7.074655E-03   5.920175E-04  -1.863988E-04
    5 C5         -1.089616E-02   1.650260E-03   3.987407E-04
    6 H6          5.008404E-05  -2.855791E-03   7.321840E-06
    7 H7          1.447670E-04   3.175860E-03   2.236349E-04
    8 H8          1.829699E-03  -9.121168E-05  -3.658775E-05
    9 H9          1.321798E-03  -1.158436E-03   1.135379E-04
 -------------   -------------  -------------  -------------
     total       -6.954609E-07   3.918815E-05   1.052847E-06
   
  Peak memory usage:   2153 Mb
  
  end of program der1b
   
 Time(der1b)  user:        6.1  user+sys:        6.1  wallclock:        2.8
  
  start of program raman
  
  calculation with applied electric field of
     Ex=-0.02400 Ey= 0.00000 Ez= 0.00000 follows...
  nuclear repulsion energy.......     160.794840426 hartrees
  nuclear electric field energy..      -0.004406855 hartrees
  Peak memory usage:    534 Mb
  
  end of program raman
   
 Time(raman)  user:        0.1  user+sys:        0.1  wallclock:        0.1
  
  start of program rwr
  
  Peak memory usage:   1807 Mb
  
  end of program rwr
   
 Time(rwr)  user:        7.7  user+sys:        7.7  wallclock:        3.4
  
  start of program scf
  
 number of electrons..........         36
 number of alpha electrons....         18
 number of beta electrons.....         18
 number of orbitals, total....        114
 number of doubly-occ'd orbs..         18
 number of open shell orbs....          0
 number of occupied orbitals..         18
 number of virtual orbitals...         96
 number of hamiltonians.......          1
 number of shells.............          1
 SCF type: DFT=Becke_3_Parameter/HF+Slater+Becke88+VWN+LYP (B3LYP)
  
       i  u  d  i  g                   
       t  p  i  c  r                                 RMS    maximum
       e  d  i  u  i                       energy  density   DIIS  
       r  t  s  t  d       total energy    change  change    error 
  
etot    1  N  N  4  M    -230.40472834796           2.6E-03  2.8E-02
etot    2  Y  Y  6  M    -230.40838895333  3.7E-03  9.3E-04  3.6E-02
etot    3  N  Y  1  U    -230.41843664418  1.0E-02  2.6E-04  7.6E-03
etot    4  Y  Y  6  M    -230.41924945351  8.1E-04  1.1E-04  1.1E-03
etot    5  Y  Y  6  M    -230.41926135575  1.2E-05  3.4E-05  8.7E-04
etot    6  N  Y  1  U    -230.41926048131 -8.7E-07  8.1E-06  1.5E-04
etot    7  N  Y  1  U    -230.41926054640  6.5E-08  3.4E-06  1.7E-04
etot    8  N  N  1  U    -230.41926081100  2.6E-07  0.0E+00  0.0E+00
  
  
 Energy components, in hartrees:
   (A)  Nuclear repulsion............     160.79043357068
   (E)  Total one-electron terms.....    -629.78400865778
   (F)    Electron-nuclear...........    -858.97817826656
   (H)    Kinetic....................     229.21957405062
   (I)  Total two-electron terms.....     238.57431427611
   (J)    Coulomb....................     270.38758420164
   (K)    Exchange+Correlation.......     -31.81326992553
   (L)  Electronic energy............    -391.20969438167  (E+I)
   (M)  -V/T.........................       2.00512295830  (-(A+F+I)/H)
   (N)  Total energy.................    -230.41926081100  (A+L)
  
 SCFE: SCF energy: DFT(b3lyp)      -230.41926081100 hartrees   iterations:   8
  
 
 HOMO energy:    -0.23630
 LUMO energy:    -0.00897
 
  Orbital energies (hartrees): 
   -19.19809   -10.23881   -10.21046   -10.19157   -10.16031    -1.12427
    -0.81105    -0.75226    -0.60750    -0.57707    -0.55099    -0.46425
    -0.44972    -0.41833    -0.39971    -0.38028    -0.29598    -0.23630
    -0.00897    -0.00616     0.03555     0.06359     0.12620     0.16189
     0.17525     0.19032     0.23953     0.29264
 
  Peak memory usage:   2177 Mb
  
  end of program scf
   
 Time(scf)  user:       11.8  user+sys:       11.8  wallclock:        4.3
  
  start of program der1a
  
  Peak memory usage:   1803 Mb
  
  end of program der1a
   
 Time(der1a)  user:        3.1  user+sys:        3.1  wallclock:        1.9
  
  start of program rwr
  
  Peak memory usage:   1841 Mb
  
  end of program rwr
   
 Time(rwr)  user:        6.2  user+sys:        6.2  wallclock:        2.7
  
  start of program der1b
  
   
  forces (hartrees/bohr) : total     
   
 atom  label           x              y              z
 ---- --------   -------------  -------------  -------------
    1 C1         -1.115851E-02   4.787437E-04   3.530237E-05
    2 C2          9.734822E-03   2.871902E-03   1.165915E-04
    3 C3          1.129144E-02  -1.679989E-04  -9.329430E-05
    4 O4          6.959861E-03   1.827276E-03  -2.118433E-04
    5 C5         -1.382792E-02  -3.898108E-03   3.203346E-04
    6 H6         -1.087110E-03  -1.120923E-03  -8.558680E-05
    7 H7         -2.063256E-03   2.488277E-04   3.203366E-05
    8 H8          2.723157E-04   2.825045E-03  -6.552260E-05
    9 H9         -1.135731E-04  -3.024333E-03  -4.755971E-05
 -------------   -------------  -------------  -------------
     total        8.069612E-06   4.043212E-05   4.554832E-07
   
  Peak memory usage:   2234 Mb
  
  end of program der1b
   
 Time(der1b)  user:        6.6  user+sys:        6.6  wallclock:        2.9
  
  start of program raman
  
  calculation with applied electric field of
     Ex= 0.00000 Ey= 0.02400 Ez= 0.00000 follows...
  nuclear repulsion energy.......     160.794840426 hartrees
  nuclear electric field energy..       0.101927382 hartrees
  Peak memory usage:    534 Mb
  
  end of program raman
   
 Time(raman)  user:        0.1  user+sys:        0.1  wallclock:        0.1
  
  start of program rwr
  
  Peak memory usage:   1807 Mb
  
  end of program rwr
   
 Time(rwr)  user:        9.4  user+sys:        9.4  wallclock:        3.6
  
  start of program scf
  
 number of electrons..........         36
 number of alpha electrons....         18
 number of beta electrons.....         18
 number of orbitals, total....        114
 number of doubly-occ'd orbs..         18
 number of open shell orbs....          0
 number of occupied orbitals..         18
 number of virtual orbitals...         96
 number of hamiltonians.......          1
 number of shells.............          1
 SCF type: DFT=Becke_3_Parameter/HF+Slater+Becke88+VWN+LYP (B3LYP)
  
       i  u  d  i  g                   
       t  p  i  c  r                                 RMS    maximum
       e  d  i  u  i                       energy  density   DIIS  
       r  t  s  t  d       total energy    change  change    error 
  
etot    1  N  N  4  M    -230.39620571835           2.9E-03  2.7E-02
etot    2  Y  Y  6  M    -230.39259845482 -3.6E-03  1.0E-03  4.2E-02
etot    3  N  Y  1  U    -230.40931603735  1.7E-02  3.1E-04  5.6E-03
etot    4  Y  Y  6  M    -230.40980342918  4.9E-04  9.7E-05  1.6E-03
etot    5  Y  Y  6  M    -230.40984161268  3.8E-05  4.5E-05  9.6E-04
etot    6  N  Y  1  U    -230.40985392103  1.2E-05  7.3E-06  1.7E-04
etot    7  N  Y  1  U    -230.40985432663  4.1E-07  2.2E-06  6.0E-05
etot    8  N  N  1  U    -230.40985440766  8.1E-08  0.0E+00  0.0E+00
  
  
 Energy components, in hartrees:
   (A)  Nuclear repulsion............     160.89676780762
   (E)  Total one-electron terms.....    -629.61757137819
   (F)    Electron-nuclear...........    -858.67829315893
   (H)    Kinetic....................     229.18219493672
   (I)  Total two-electron terms.....     238.31094916292
   (J)    Coulomb....................     270.11180848023
   (K)    Exchange+Correlation.......     -31.80085931732
   (L)  Electronic energy............    -391.30662221528  (E+I)
   (M)  -V/T.........................       2.00482666778  (-(A+F+I)/H)
   (N)  Total energy.................    -230.40985440766  (A+L)
  
 SCFE: SCF energy: DFT(b3lyp)      -230.40985440766 hartrees   iterations:   8
  
 
 HOMO energy:    -0.24834
 LUMO energy:    -0.01075
 
  Orbital energies (hartrees): 
   -19.19773   -10.23358   -10.23212   -10.19746   -10.19586    -1.12280
    -0.82632    -0.75665    -0.62086    -0.58860    -0.55901    -0.46203
    -0.46078    -0.42915    -0.42604    -0.38339    -0.30978    -0.24834
    -0.01075    -0.00746     0.02040     0.03741     0.11301     0.13188
     0.15025     0.16558     0.21565     0.27470
 
  Peak memory usage:   2174 Mb
  
  end of program scf
   
 Time(scf)  user:       28.7  user+sys:       28.7  wallclock:        8.5
  
  start of program der1a
  
  Peak memory usage:   1801 Mb
  
  end of program der1a
   
 Time(der1a)  user:        2.3  user+sys:        2.3  wallclock:        1.7
  
  start of program rwr
  
  Peak memory usage:   1848 Mb
  
  end of program rwr
   
 Time(rwr)  user:        7.5  user+sys:        7.5  wallclock:        3.0
  
  start of program der1b
  
   
  forces (hartrees/bohr) : total     
   
 atom  label           x              y              z
 ---- --------   -------------  -------------  -------------
    1 C1         -1.196232E-02   1.139982E-03   1.808381E-04
    2 C2          1.179118E-02   3.173842E-04   1.133547E-04
    3 C3          8.708960E-03   6.103912E-03   4.887848E-05
    4 O4         -5.305217E-04  -1.651051E-02  -5.679682E-04
    5 C5         -8.181800E-03   6.659774E-03   5.178766E-04
    6 H6         -2.937659E-03  -4.640142E-04  -9.052602E-05
    7 H7          7.289539E-04   1.519343E-03  -2.068216E-05
    8 H8         -3.583280E-04   1.843730E-03  -1.096038E-04
    9 H9          2.743966E-03  -5.862274E-04  -7.184873E-05
 -------------   -------------  -------------  -------------
     total        2.433286E-06   2.337063E-05   3.188991E-07
   
  Peak memory usage:   2150 Mb
  
  end of program der1b
   
 Time(der1b)  user:        5.8  user+sys:        5.8  wallclock:        2.6
  
  start of program raman
  
  calculation with applied electric field of
     Ex= 0.00000 Ey=-0.02400 Ez= 0.00000 follows...
  nuclear repulsion energy.......     160.794840426 hartrees
  nuclear electric field energy..      -0.101927382 hartrees
  Peak memory usage:    534 Mb
  
  end of program raman
   
 Time(raman)  user:        0.1  user+sys:        0.1  wallclock:        0.1
  
  start of program rwr
  
  Peak memory usage:   1807 Mb
  
  end of program rwr
   
 Time(rwr)  user:        5.7  user+sys:        5.7  wallclock:        2.7
  
  start of program scf
  
 number of electrons..........         36
 number of alpha electrons....         18
 number of beta electrons.....         18
 number of orbitals, total....        114
 number of doubly-occ'd orbs..         18
 number of open shell orbs....          0
 number of occupied orbitals..         18
 number of virtual orbitals...         96
 number of hamiltonians.......          1
 number of shells.............          1
 SCF type: DFT=Becke_3_Parameter/HF+Slater+Becke88+VWN+LYP (B3LYP)
  
       i  u  d  i  g                   
       t  p  i  c  r                                 RMS    maximum
       e  d  i  u  i                       energy  density   DIIS  
       r  t  s  t  d       total energy    change  change    error 
  
etot    1  N  N  4  M    -230.41245608495           2.3E-03  2.7E-02
etot    2  Y  Y  6  M    -230.41651536158  4.1E-03  6.5E-04  2.9E-02
etot    3  N  Y  1  U    -230.42531849361  8.8E-03  2.5E-04  5.0E-03
etot    4  Y  Y  6  M    -230.42583826915  5.2E-04  7.7E-05  1.0E-03
etot    5  Y  Y  6  M    -230.42584717811  8.9E-06  3.1E-05  8.9E-04
etot    6  N  Y  1  U    -230.42584052318 -6.7E-06  5.0E-06  7.8E-05
etot    7  N  Y  1  U    -230.42584061078  8.8E-08  1.6E-06  4.5E-05
etot    8  N  N  1  U    -230.42584064898  3.8E-08  0.0E+00  0.0E+00
  
  
 Energy components, in hartrees:
   (A)  Nuclear repulsion............     160.69291304346
   (E)  Total one-electron terms.....    -629.95538331266
   (F)    Electron-nuclear...........    -859.27567902744
   (H)    Kinetic....................     229.25338928564
   (I)  Total two-electron terms.....     238.83662962023
   (J)    Coulomb....................     270.66340277882
   (K)    Exchange+Correlation.......     -31.82677315859
   (L)  Electronic energy............    -391.11875369244  (E+I)
   (M)  -V/T.........................       2.00540606094  (-(A+F+I)/H)
   (N)  Total energy.................    -230.42584064898  (A+L)
  
 SCFE: SCF energy: DFT(b3lyp)      -230.42584064898 hartrees   iterations:   8
  
 
 HOMO energy:    -0.23038
 LUMO energy:     0.00477
 
  Orbital energies (hartrees): 
   -19.19751   -10.21718   -10.21576   -10.15709   -10.15559    -1.12500
    -0.79357    -0.74814    -0.59185    -0.56798    -0.53614    -0.46565
    -0.44758    -0.39357    -0.38749    -0.37929    -0.27700    -0.23038
     0.00477     0.04519     0.05920     0.07905     0.13343     0.17011
     0.17673     0.20998     0.26494     0.31146
 
  Peak memory usage:   2206 Mb
  
  end of program scf
   
 Time(scf)  user:       23.4  user+sys:       23.4  wallclock:        7.2
  
  start of program der1a
  
  Peak memory usage:   1801 Mb
  
  end of program der1a
   
 Time(der1a)  user:        3.4  user+sys:        3.4  wallclock:        2.2
  
  start of program rwr
  
  Peak memory usage:   1847 Mb
  
  end of program rwr
   
 Time(rwr)  user:        5.8  user+sys:        5.8  wallclock:        2.6
  
  start of program der1b
  
   
  forces (hartrees/bohr) : total     
   
 atom  label           x              y              z
 ---- --------   -------------  -------------  -------------
    1 C1         -1.454628E-02   5.201731E-03   6.162808E-05
    2 C2          1.485762E-02   3.767254E-03  -1.138892E-04
    3 C3          1.419040E-02  -1.313602E-02  -6.390460E-04
    4 O4          6.196324E-04   2.400590E-02   2.566578E-04
    5 C5         -1.512115E-02  -1.146556E-02   7.637310E-05
    6 H6         -1.989462E-03  -3.790348E-03   5.392674E-05
    7 H7         -2.787533E-03  -2.841326E-04   2.181344E-04
    8 H8          3.130738E-03  -5.939591E-04  -9.032176E-06
    9 H9          1.650642E-03  -3.643574E-03   9.674811E-05
 -------------   -------------  -------------  -------------
     total        4.602478E-06   6.128604E-05   1.500809E-06
   
  Peak memory usage:   2156 Mb
  
  end of program der1b
   
 Time(der1b)  user:        6.1  user+sys:        6.1  wallclock:        2.8
  
  start of program raman
  
  calculation with applied electric field of
     Ex= 0.00000 Ey= 0.00000 Ez= 0.02400 follows...
  nuclear repulsion energy.......     160.794840426 hartrees
  nuclear electric field energy..      -0.469004902 hartrees
  Peak memory usage:    534 Mb
  
  end of program raman
   
 Time(raman)  user:        0.1  user+sys:        0.1  wallclock:        0.1
  
  start of program rwr
  
  Peak memory usage:   1841 Mb
  
  end of program rwr
   
 Time(rwr)  user:        7.5  user+sys:        7.5  wallclock:        3.3
  
  start of program scf
  
 number of electrons..........         36
 number of alpha electrons....         18
 number of beta electrons.....         18
 number of orbitals, total....        114
 number of doubly-occ'd orbs..         18
 number of open shell orbs....          0
 number of occupied orbitals..         18
 number of virtual orbitals...         96
 number of hamiltonians.......          1
 number of shells.............          1
 SCF type: DFT=Becke_3_Parameter/HF+Slater+Becke88+VWN+LYP (B3LYP)
  
       i  u  d  i  g                   
       t  p  i  c  r                                 RMS    maximum
       e  d  i  u  i                       energy  density   DIIS  
       r  t  s  t  d       total energy    change  change    error 
  
etot    1  N  N  4  M    -230.40407535413           1.9E-03  1.8E-02
etot    2  Y  Y  6  M    -230.40832746979  4.3E-03  4.6E-04  1.3E-02
etot    3  N  Y  1  U    -230.41043640871  2.1E-03  2.6E-04  1.0E-03
etot    4  Y  Y  6  M    -230.41043816862  1.8E-06  5.2E-05  1.6E-03
etot    5  Y  Y  6  M    -230.41046466769  2.6E-05  2.1E-05  4.2E-04
etot    6  N  Y  1  U    -230.41045677991 -7.9E-06  4.0E-06  9.0E-05
etot    7  N  N  1  U    -230.41045694660  1.7E-07  0.0E+00  0.0E+00
  
  
 Energy components, in hartrees:
   (A)  Nuclear repulsion............     160.32583552385
   (E)  Total one-electron terms.....    -629.33021971012
   (F)    Electron-nuclear...........    -859.00205544930
   (H)    Kinetic....................     229.21555553468
   (I)  Total two-electron terms.....     238.59392723967
   (J)    Coulomb....................     270.40884200799
   (K)    Exchange+Correlation.......     -31.81491476832
   (L)  Electronic energy............    -390.73629247045  (E+I)
   (M)  -V/T.........................       2.00720361937  (-(A+F+I)/H)
   (N)  Total energy.................    -230.41045694660  (A+L)
  
 SCFE: SCF energy: DFT(b3lyp)      -230.41045694660 hartrees   iterations:   7
  
 
 HOMO energy:    -0.22534
 LUMO energy:     0.01095
 
  Orbital energies (hartrees): 
   -19.18344   -10.21112   -10.21076   -10.16325   -10.16251    -1.10967
    -0.79589    -0.73767    -0.59253    -0.56029    -0.53554    -0.44913
    -0.43514    -0.40120    -0.39554    -0.37093    -0.28011    -0.22534
     0.01095     0.06985     0.07584     0.10460     0.10920     0.12205
     0.16157     0.19782     0.25501     0.31281
 
  Peak memory usage:   2175 Mb
  
  end of program scf
   
 Time(scf)  user:       16.2  user+sys:       16.2  wallclock:        5.3
  
  start of program der1a
  
  Peak memory usage:   1928 Mb
  
  end of program der1a
   
 Time(der1a)  user:        3.0  user+sys:        3.0  wallclock:        1.8
  
  start of program rwr
  
  Peak memory usage:   1807 Mb
  
  end of program rwr
   
 Time(rwr)  user:        5.7  user+sys:        5.7  wallclock:        2.6
  
  start of program der1b
  
   
  forces (hartrees/bohr) : total     
   
 atom  label           x              y              z
 ---- --------   -------------  -------------  -------------
    1 C1         -1.265615E-02   3.352761E-03  -4.793892E-03
    2 C2          1.253382E-02   2.184272E-03  -4.916217E-03
    3 C3          1.147798E-02  -3.036340E-03  -1.804169E-03
    4 O4         -6.262886E-05   8.977727E-04  -4.923366E-03
    5 C5         -1.173177E-02  -2.082559E-03  -1.139456E-03
    6 H6         -2.902631E-03  -2.796316E-03   4.632569E-03
    7 H7         -1.744750E-03   2.359148E-03   4.237178E-03
    8 H8          2.202756E-03   2.166673E-03   4.064180E-03
    9 H9          2.887106E-03  -3.008192E-03   4.654087E-03
 -------------   -------------  -------------  -------------
     total        3.732233E-06   3.721927E-05   1.091363E-05
   
  Peak memory usage:   2156 Mb
  
  end of program der1b
   
 Time(der1b)  user:        5.3  user+sys:        5.3  wallclock:        2.3
  
  start of program raman
  
  calculation with applied electric field of
     Ex= 0.00000 Ey= 0.00000 Ez=-0.02400 follows...
  nuclear repulsion energy.......     160.794840426 hartrees
  nuclear electric field energy..       0.469004902 hartrees
  Peak memory usage:    534 Mb
  
  end of program raman
   
 Time(raman)  user:        0.1  user+sys:        0.1  wallclock:        0.1
  
  start of program rwr
  
  Peak memory usage:   1846 Mb
  
  end of program rwr
   
 Time(rwr)  user:        5.3  user+sys:        5.3  wallclock:        2.4
  
  start of program scf
  
 number of electrons..........         36
 number of alpha electrons....         18
 number of beta electrons.....         18
 number of orbitals, total....        114
 number of doubly-occ'd orbs..         18
 number of open shell orbs....          0
 number of occupied orbitals..         18
 number of virtual orbitals...         96
 number of hamiltonians.......          1
 number of shells.............          1
 SCF type: DFT=Becke_3_Parameter/HF+Slater+Becke88+VWN+LYP (B3LYP)
  
       i  u  d  i  g                   
       t  p  i  c  r                                 RMS    maximum
       e  d  i  u  i                       energy  density   DIIS  
       r  t  s  t  d       total energy    change  change    error 
  
etot    1  N  N  4  M    -230.40458644917           1.9E-03  1.8E-02
etot    2  Y  Y  6  M    -230.40884419143  4.3E-03  4.6E-04  1.3E-02
etot    3  N  Y  1  U    -230.41094887754  2.1E-03  2.8E-04  1.0E-03
etot    4  Y  Y  6  M    -230.41095912894  1.0E-05  4.1E-05  1.3E-03
etot    5  N  Y  1  U    -230.41096539409  6.3E-06  2.5E-05  4.6E-04
etot    6  N  Y  1  U    -230.41096724208  1.8E-06  3.4E-06  1.1E-04
etot    7  N  N  1  U    -230.41096746748  2.3E-07  0.0E+00  0.0E+00
  
  
 Energy components, in hartrees:
   (A)  Nuclear repulsion............     161.26384532722
   (E)  Total one-electron terms.....    -630.28251396799
   (F)    Electron-nuclear...........    -859.01761937757
   (H)    Kinetic....................     229.21734447650
   (I)  Total two-electron terms.....     238.60770117329
   (J)    Coulomb....................     270.42327103888
   (K)    Exchange+Correlation.......     -31.81556986560
   (L)  Electronic energy............    -391.67481279470  (E+I)
   (M)  -V/T.........................       2.00310353445  (-(A+F+I)/H)
   (N)  Total energy.................    -230.41096746748  (A+L)
  
 SCFE: SCF energy: DFT(b3lyp)      -230.41096746748 hartrees   iterations:   7
  
 
 HOMO energy:    -0.25107
 LUMO energy:    -0.01493
 
  Orbital energies (hartrees): 
   -19.20968   -10.23686   -10.23653   -10.18838   -10.18769    -1.13595
    -0.82125    -0.76364    -0.61799    -0.58596    -0.56112    -0.47545
    -0.46107    -0.42622    -0.42086    -0.39709    -0.30548    -0.25107
    -0.01493     0.04472     0.05150     0.07811     0.08392     0.09861
     0.13525     0.17260     0.23010     0.28818
 
  Peak memory usage:   2175 Mb
  
  end of program scf
   
 Time(scf)  user:       16.6  user+sys:       16.6  wallclock:        5.5
  
  start of program der1a
  
  Peak memory usage:   1928 Mb
  
  end of program der1a
   
 Time(der1a)  user:        3.5  user+sys:        3.5  wallclock:        2.4
  
  start of program rwr
  
  Peak memory usage:   1807 Mb
  
  end of program rwr
   
 Time(rwr)  user:        4.1  user+sys:        4.1  wallclock:        2.4
  
  start of program der1b
  
   
  forces (hartrees/bohr) : total     
   
 atom  label           x              y              z
 ---- --------   -------------  -------------  -------------
    1 C1         -1.251912E-02   3.243905E-03   4.840841E-03
    2 C2          1.280540E-02   1.977781E-03   4.699897E-03
    3 C3          1.170618E-02  -3.694098E-03   1.332321E-03
    4 O4         -6.795192E-05   1.687139E-03   4.569552E-03
    5 C5         -1.185525E-02  -2.527340E-03   2.012053E-03
    6 H6         -3.028617E-03  -2.671165E-03  -4.691228E-03
    7 H7         -1.942182E-03   2.574407E-03  -3.963257E-03
    8 H8          2.179503E-03   2.262798E-03  -4.139811E-03
    9 H9          2.725247E-03  -2.814260E-03  -4.670012E-03
 -------------   -------------  -------------  -------------
     total        3.208905E-06   3.916816E-05  -9.642507E-06
   
  Peak memory usage:   2153 Mb
  
  end of program der1b
   
 Time(der1b)  user:        6.6  user+sys:        6.6  wallclock:        2.8
  
  start of program raman
  
  calculation with applied electric field of
     Ex= 0.01200 Ey= 0.01200 Ez= 0.00000 follows...
  nuclear repulsion energy.......     160.794840426 hartrees
  nuclear electric field energy..       0.053167118 hartrees
  Peak memory usage:    534 Mb
  
  end of program raman
   
 Time(raman)  user:        0.1  user+sys:        0.1  wallclock:        0.1
  
  start of program rwr
  
  Peak memory usage:   1841 Mb
  
  end of program rwr
   
 Time(rwr)  user:        6.4  user+sys:        6.4  wallclock:        3.0
  
  start of program scf
  
 number of electrons..........         36
 number of alpha electrons....         18
 number of beta electrons.....         18
 number of orbitals, total....        114
 number of doubly-occ'd orbs..         18
 number of open shell orbs....          0
 number of occupied orbitals..         18
 number of virtual orbitals...         96
 number of hamiltonians.......          1
 number of shells.............          1
 SCF type: DFT=Becke_3_Parameter/HF+Slater+Becke88+VWN+LYP (B3LYP)
  
       i  u  d  i  g                   
       t  p  i  c  r                                 RMS    maximum
       e  d  i  u  i                       energy  density   DIIS  
       r  t  s  t  d       total energy    change  change    error 
  
etot    1  N  N  4  M    -230.40006958684           1.9E-03  1.4E-02
etot    2  Y  Y  6  M    -230.40021980539  1.5E-04  6.7E-04  2.2E-02
etot    3  N  Y  1  U    -230.40663060943  6.4E-03  2.3E-04  5.1E-03
etot    4  Y  Y  6  M    -230.40696372045  3.3E-04  9.4E-05  1.4E-03
etot    5  Y  Y  6  M    -230.40699362204  3.0E-05  4.9E-05  7.0E-04
etot    6  N  Y  1  U    -230.40699980921  6.2E-06  7.7E-06  2.0E-04
etot    7  N  Y  1  U    -230.40700023669  4.3E-07  2.5E-06  8.1E-05
etot    8  N  N  1  U    -230.40700036426  1.3E-07  0.0E+00  0.0E+00
  
  
 Energy components, in hartrees:
   (A)  Nuclear repulsion............     160.84800754400
   (E)  Total one-electron terms.....    -629.71468651390
   (F)    Electron-nuclear...........    -858.85253225967
   (H)    Kinetic....................     229.20084217272
   (I)  Total two-electron terms.....     238.45967860564
   (J)    Coulomb....................     270.26829109124
   (K)    Exchange+Correlation.......     -31.80861248560
   (L)  Electronic energy............    -391.25500790826  (E+I)
   (M)  -V/T.........................       2.00498759845  (-(A+F+I)/H)
   (N)  Total energy.................    -230.40700036426  (A+L)
  
 SCFE: SCF energy: DFT(b3lyp)      -230.40700036426 hartrees   iterations:   8
  
 
 HOMO energy:    -0.24239
 LUMO energy:    -0.00548
 
  Orbital energies (hartrees): 
   -19.19675   -10.23490   -10.22122   -10.19359   -10.17852    -1.12239
    -0.81777    -0.75326    -0.61349    -0.58017    -0.55467    -0.46178
    -0.45314    -0.42366    -0.41564    -0.38288    -0.30200    -0.24239
    -0.00548     0.01058     0.04907     0.06682     0.07870     0.14651
     0.15114     0.17684     0.22957     0.28542
 
  Peak memory usage:   2174 Mb
  
  end of program scf
   
 Time(scf)  user:       13.8  user+sys:       13.8  wallclock:        4.5
  
  start of program der1a
  
  Peak memory usage:   1803 Mb
  
  end of program der1a
   
 Time(der1a)  user:        2.2  user+sys:        2.2  wallclock:        1.8
  
  start of program rwr
  
  Peak memory usage:   1807 Mb
  
  end of program rwr
   
 Time(rwr)  user:        5.7  user+sys:        5.7  wallclock:        2.6
  
  start of program der1b
  
   
  forces (hartrees/bohr) : total     
   
 atom  label           x              y              z
 ---- --------   -------------  -------------  -------------
    1 C1         -1.116576E-02   3.405832E-03   7.297662E-05
    2 C2          1.189755E-02  -1.782301E-04  -6.003602E-05
    3 C3          1.077184E-02   5.482695E-04  -1.325293E-04
    4 O4         -3.973374E-03  -8.451190E-03  -3.784719E-04
    5 C5         -9.352184E-03   3.554775E-03   4.803824E-04
    6 H6         -1.753724E-03  -1.683595E-03  -3.977381E-05
    7 H7         -4.513734E-04   3.540491E-03   1.392312E-04
    8 H8          7.248667E-04   9.950448E-04  -6.769810E-05
    9 H9          3.304156E-03  -1.702293E-03  -1.350289E-05
 -------------   -------------  -------------  -------------
     total        1.995437E-06   2.910498E-05   5.781240E-07
   
  Peak memory usage:   2203 Mb
  
  end of program der1b
   
 Time(der1b)  user:        6.1  user+sys:        6.1  wallclock:        2.8
  
  start of program raman
  
  calculation with applied electric field of
     Ex=-0.01200 Ey=-0.01200 Ez= 0.00000 follows...
  nuclear repulsion energy.......     160.794840426 hartrees
  nuclear electric field energy..      -0.053167118 hartrees
  Peak memory usage:    534 Mb
  
  end of program raman
   
 Time(raman)  user:        0.1  user+sys:        0.1  wallclock:        0.1
  
  start of program rwr
  
  Peak memory usage:   1807 Mb
  
  end of program rwr
   
 Time(rwr)  user:        7.4  user+sys:        7.4  wallclock:        2.9
  
  start of program scf
  
 number of electrons..........         36
 number of alpha electrons....         18
 number of beta electrons.....         18
 number of orbitals, total....        114
 number of doubly-occ'd orbs..         18
 number of open shell orbs....          0
 number of occupied orbitals..         18
 number of virtual orbitals...         96
 number of hamiltonians.......          1
 number of shells.............          1
 SCF type: DFT=Becke_3_Parameter/HF+Slater+Becke88+VWN+LYP (B3LYP)
  
       i  u  d  i  g                   
       t  p  i  c  r                                 RMS    maximum
       e  d  i  u  i                       energy  density   DIIS  
       r  t  s  t  d       total energy    change  change    error 
  
etot    1  N  N  4  M    -230.40859221646           1.7E-03  1.4E-02
etot    2  Y  Y  6  M    -230.41118325284  2.6E-03  5.0E-04  1.7E-02
etot    3  N  Y  1  U    -230.41513369355  4.0E-03  2.2E-04  4.8E-03
etot    4  Y  Y  6  M    -230.41549989697  3.7E-04  7.7E-05  1.1E-03
etot    5  Y  Y  6  M    -230.41551817423  1.8E-05  4.7E-05  6.8E-04
etot    6  N  Y  1  U    -230.41551141557 -6.8E-06  7.1E-06  1.9E-04
etot    7  N  Y  1  U    -230.41551179453  3.8E-07  2.7E-06  9.8E-05
etot    8  N  N  1  U    -230.41551193911  1.4E-07  0.0E+00  0.0E+00
  
  
 Energy components, in hartrees:
   (A)  Nuclear repulsion............     160.74167330707
   (E)  Total one-electron terms.....    -629.88894235535
   (F)    Electron-nuclear...........    -859.16110348908
   (H)    Kinetic....................     229.23732485888
   (I)  Total two-electron terms.....     238.73175710917
   (J)    Coulomb....................     270.55369422910
   (K)    Exchange+Correlation.......     -31.82193711993
   (L)  Electronic energy............    -391.15718524618  (E+I)
   (M)  -V/T.........................       2.00529156129  (-(A+F+I)/H)
   (N)  Total energy.................    -230.41551193911  (A+L)
  
 SCFE: SCF energy: DFT(b3lyp)      -230.41551193911 hartrees   iterations:   8
  
 
 HOMO energy:    -0.23297
 LUMO energy:     0.00114
 
  Orbital energies (hartrees): 
   -19.19679   -10.22652   -10.21269   -10.17268   -10.15747    -1.12367
    -0.80074    -0.74897    -0.59820    -0.57020    -0.54214    -0.46382
    -0.44665    -0.40585    -0.39385    -0.38148    -0.28503    -0.23297
     0.00114     0.02521     0.07051     0.10018     0.11723     0.13720
     0.17097     0.19734     0.25444     0.31070
 
  Peak memory usage:   2210 Mb
  
  end of program scf
   
 Time(scf)  user:       14.7  user+sys:       14.7  wallclock:        5.0
  
  start of program der1a
  
  Peak memory usage:   1801 Mb
  
  end of program der1a
   
 Time(der1a)  user:        2.2  user+sys:        2.2  wallclock:        1.6
  
  start of program rwr
  
  Peak memory usage:   1841 Mb
  
  end of program rwr
   
 Time(rwr)  user:        4.5  user+sys:        4.5  wallclock:        2.4
  
  start of program der1b
  
   
  forces (hartrees/bohr) : total     
   
 atom  label           x              y              z
 ---- --------   -------------  -------------  -------------
    1 C1         -1.323736E-02   3.782405E-03   6.528834E-05
    2 C2          1.274640E-02   3.393402E-03  -3.387510E-05
    3 C3          1.243307E-02  -6.834535E-03  -3.694877E-04
    4 O4          3.990183E-03   1.241843E-02   1.194725E-05
    5 C5         -1.441661E-02  -8.452408E-03   2.203016E-04
    6 H6         -1.869707E-03  -2.439550E-03  -1.407549E-05
    7 H7         -3.292105E-03   1.076862E-03   1.611414E-04
    8 H8          1.737124E-03   1.247471E-03  -3.209067E-05
    9 H9          1.915566E-03  -4.144349E-03  -8.309034E-06
 -------------   -------------  -------------  -------------
     total        6.565821E-06   4.773237E-05   8.405882E-07
   
  Peak memory usage:   2232 Mb
  
  end of program der1b
   
 Time(der1b)  user:        5.8  user+sys:        5.8  wallclock:        2.5
  
  start of program raman
  
  calculation with applied electric field of
     Ex=-0.01200 Ey= 0.01200 Ez= 0.00000 follows...
  nuclear repulsion energy.......     160.794840426 hartrees
  nuclear electric field energy..       0.048760264 hartrees
  Peak memory usage:    534 Mb
  
  end of program raman
   
 Time(raman)  user:        0.1  user+sys:        0.1  wallclock:        0.3
  
  start of program rwr
  
  Peak memory usage:   1807 Mb
  
  end of program rwr
   
 Time(rwr)  user:        7.6  user+sys:        7.6  wallclock:        3.1
  
  start of program scf
  
 number of electrons..........         36
 number of alpha electrons....         18
 number of beta electrons.....         18
 number of orbitals, total....        114
 number of doubly-occ'd orbs..         18
 number of open shell orbs....          0
 number of occupied orbitals..         18
 number of virtual orbitals...         96
 number of hamiltonians.......          1
 number of shells.............          1
 SCF type: DFT=Becke_3_Parameter/HF+Slater+Becke88+VWN+LYP (B3LYP)
  
       i  u  d  i  g                   
       t  p  i  c  r                                 RMS    maximum
       e  d  i  u  i                       energy  density   DIIS  
       r  t  s  t  d       total energy    change  change    error 
  
etot    1  N  N  4  M    -230.40046703316           1.9E-03  1.5E-02
etot    2  Y  Y  6  M    -230.40097560729  5.1E-04  6.6E-04  2.0E-02
etot    3  N  Y  1  U    -230.40704865910  6.1E-03  2.3E-04  5.1E-03
etot    4  Y  Y  6  M    -230.40739686321  3.5E-04  9.4E-05  1.4E-03
etot    5  Y  Y  6  M    -230.40742665343  3.0E-05  5.1E-05  7.2E-04
etot    6  N  Y  1  U    -230.40743304158  6.4E-06  8.2E-06  2.0E-04
etot    7  N  Y  1  U    -230.40743350884  4.7E-07  2.8E-06  8.5E-05
etot    8  N  N  1  U    -230.40743364055  1.3E-07  0.0E+00  0.0E+00
  
  
 Energy components, in hartrees:
   (A)  Nuclear repulsion............     160.84360068915
   (E)  Total one-electron terms.....    -629.72259686087
   (F)    Electron-nuclear...........    -858.86601500685
   (H)    Kinetic....................     229.20247306079
   (I)  Total two-electron terms.....     238.47156253117
   (J)    Coulomb....................     270.28072498766
   (K)    Exchange+Correlation.......     -31.80916245649
   (L)  Electronic energy............    -391.25103432970  (E+I)
   (M)  -V/T.........................       2.00499953447  (-(A+F+I)/H)
   (N)  Total energy.................    -230.40743364055  (A+L)
  
 SCFE: SCF energy: DFT(b3lyp)      -230.40743364055 hartrees   iterations:   8
  
 
 HOMO energy:    -0.24185
 LUMO energy:    -0.00548
 
  Orbital energies (hartrees): 
   -19.19678   -10.23523   -10.22016   -10.19345   -10.17683    -1.12247
    -0.81710    -0.75307    -0.61291    -0.57961    -0.55436    -0.46190
    -0.45269    -0.42307    -0.41453    -0.38273    -0.30139    -0.24185
    -0.00548     0.01150     0.05028     0.06157     0.08492     0.14629
     0.15327     0.17795     0.23072     0.28619
 
  Peak memory usage:   2173 Mb
  
  end of program scf
   
 Time(scf)  user:       16.9  user+sys:       16.9  wallclock:        5.4
  
  start of program der1a
  
  Peak memory usage:   1928 Mb
  
  end of program der1a
   
 Time(der1a)  user:        2.7  user+sys:        2.7  wallclock:        1.8
  
  start of program rwr
  
  Peak memory usage:   1807 Mb
  
  end of program rwr
   
 Time(rwr)  user:        5.9  user+sys:        5.9  wallclock:        2.6
  
  start of program der1b
  
   
  forces (hartrees/bohr) : total     
   
 atom  label           x              y              z
 ---- --------   -------------  -------------  -------------
    1 C1         -1.197937E-02   9.309521E-04   1.104077E-04
    2 C2          1.117588E-02   2.447892E-03   1.274522E-04
    3 C3          9.825786E-03   2.422841E-03  -2.415535E-05
    4 O4          3.287899E-03  -7.961101E-03  -4.053498E-04
    5 C5         -1.087890E-02   1.041830E-03   4.088458E-04
    6 H6         -3.281835E-03  -1.514367E-03  -8.574894E-05
    7 H7         -6.316853E-04   1.050726E-03   1.012076E-05
    8 H8          9.302601E-04   3.467189E-03  -7.657850E-05
    9 H9          1.555910E-03  -1.856210E-03  -6.464622E-05
 -------------   -------------  -------------  -------------
     total        3.942635E-06   2.975349E-05   3.477061E-07
   
  Peak memory usage:   2156 Mb
  
  end of program der1b
   
 Time(der1b)  user:        5.7  user+sys:        5.7  wallclock:        2.8
  
  start of program raman
  
  calculation with applied electric field of
     Ex= 0.01200 Ey=-0.01200 Ez= 0.00000 follows...
  nuclear repulsion energy.......     160.794840426 hartrees
  nuclear electric field energy..      -0.048760264 hartrees
  Peak memory usage:    534 Mb
  
  end of program raman
   
 Time(raman)  user:        0.1  user+sys:        0.1  wallclock:        0.1
  
  start of program rwr
  
  Peak memory usage:   1780 Mb
  
  end of program rwr
   
 Time(rwr)  user:        5.5  user+sys:        5.5  wallclock:        2.6
  
  start of program scf
  
 number of electrons..........         36
 number of alpha electrons....         18
 number of beta electrons.....         18
 number of orbitals, total....        114
 number of doubly-occ'd orbs..         18
 number of open shell orbs....          0
 number of occupied orbitals..         18
 number of virtual orbitals...         96
 number of hamiltonians.......          1
 number of shells.............          1
 SCF type: DFT=Becke_3_Parameter/HF+Slater+Becke88+VWN+LYP (B3LYP)
  
       i  u  d  i  g                   
       t  p  i  c  r                                 RMS    maximum
       e  d  i  u  i                       energy  density   DIIS  
       r  t  s  t  d       total energy    change  change    error 
  
etot    1  N  N  4  M    -230.40819477014           1.9E-03  1.5E-02
etot    2  Y  Y  6  M    -230.40881306766  6.2E-04  6.6E-04  1.9E-02
etot    3  N  Y  1  U    -230.41476659427  6.0E-03  2.2E-04  4.8E-03
etot    4  Y  Y  6  M    -230.41514967581  3.8E-04  7.8E-05  1.2E-03
etot    5  Y  Y  6  M    -230.41516822282  1.9E-05  4.7E-05  7.1E-04
etot    6  N  Y  1  U    -230.41516215388 -6.1E-06  7.1E-06  1.9E-04
etot    7  N  Y  1  U    -230.41516259329  4.4E-07  2.5E-06  1.0E-04
etot    8  N  N  1  U    -230.41516273945  1.5E-07  0.0E+00  0.0E+00
  
  
 Energy components, in hartrees:
   (A)  Nuclear repulsion............     160.74608016192
   (E)  Total one-electron terms.....    -629.88004605670
   (F)    Electron-nuclear...........    -859.14644770043
   (H)    Kinetic....................     229.23567891633
   (I)  Total two-electron terms.....     238.71880315533
   (J)    Coulomb....................     270.54008309358
   (K)    Exchange+Correlation.......     -31.82127993825
   (L)  Electronic energy............    -391.16124290137  (E+I)
   (M)  -V/T.........................       2.00527931148  (-(A+F+I)/H)
   (N)  Total energy.................    -230.41516273945  (A+L)
  
 SCFE: SCF energy: DFT(b3lyp)      -230.41516273945 hartrees   iterations:   8
  
 
 HOMO energy:    -0.23325
 LUMO energy:     0.00064
 
  Orbital energies (hartrees): 
   -19.19681   -10.22752   -10.21247   -10.17431   -10.15775    -1.12362
    -0.80158    -0.74916    -0.59895    -0.57066    -0.54285    -0.46373
    -0.44670    -0.40717    -0.39440    -0.38151    -0.28595    -0.23325
     0.00064     0.02253     0.06973     0.09627     0.12015     0.13657
     0.17059     0.19642     0.25314     0.30938
 
  Peak memory usage:   2175 Mb
  
  end of program scf
   
 Time(scf)  user:       15.3  user+sys:       15.3  wallclock:        5.0
  
  start of program der1a
  
  Peak memory usage:   1801 Mb
  
  end of program der1a
   
 Time(der1a)  user:        4.2  user+sys:        4.2  wallclock:        2.1
  
  start of program rwr
  
  Peak memory usage:   1723 Mb
  
  end of program rwr
   
 Time(rwr)  user:        4.1  user+sys:        4.1  wallclock:        2.3
  
  start of program der1b
  
   
  forces (hartrees/bohr) : total     
   
 atom  label           x              y              z
 ---- --------   -------------  -------------  -------------
    1 C1         -1.230782E-02   4.543094E-03  -9.003500E-06
    2 C2          1.318106E-02   2.295241E-03  -1.242105E-04
    3 C3          1.358575E-02  -9.344083E-03  -4.674704E-04
    4 O4         -3.434714E-03   1.169571E-02   2.281653E-05
    5 C5         -1.275777E-02  -5.070933E-03   2.317483E-04
    6 H6         -2.103865E-03  -4.014203E-03   3.192527E-05
    7 H7         -1.335875E-03   1.617313E-03   2.260114E-04
    8 H8          3.458826E-03   7.236881E-04  -1.159553E-05
    9 H9          1.715870E-03  -2.398786E-03   1.009721E-04
 -------------   -------------  -------------  -------------
     total        1.460687E-06   4.704602E-05   1.193774E-06
   
  Peak memory usage:   2236 Mb
  
  end of program der1b
   
 Time(der1b)  user:        5.1  user+sys:        5.1  wallclock:        2.4
  
  start of program raman
  
  calculation with applied electric field of
     Ex= 0.01200 Ey= 0.00000 Ez= 0.01200 follows...
  nuclear repulsion energy.......     160.794840426 hartrees
  nuclear electric field energy..      -0.232299023 hartrees
  Peak memory usage:    534 Mb
  
  end of program raman
   
 Time(raman)  user:        0.1  user+sys:        0.1  wallclock:        0.1
  
  start of program rwr
  
  Peak memory usage:   1807 Mb
  
  end of program rwr
   
 Time(rwr)  user:        7.3  user+sys:        7.3  wallclock:        3.0
  
  start of program scf
  
 number of electrons..........         36
 number of alpha electrons....         18
 number of beta electrons.....         18
 number of orbitals, total....        114
 number of doubly-occ'd orbs..         18
 number of open shell orbs....          0
 number of occupied orbitals..         18
 number of virtual orbitals...         96
 number of hamiltonians.......          1
 number of shells.............          1
 SCF type: DFT=Becke_3_Parameter/HF+Slater+Becke88+VWN+LYP (B3LYP)
  
       i  u  d  i  g                   
       t  p  i  c  r                                 RMS    maximum
       e  d  i  u  i                       energy  density   DIIS  
       r  t  s  t  d       total energy    change  change    error 
  
etot    1  N  N  4  M    -230.40400440473           1.6E-03  1.4E-02
etot    2  Y  Y  6  M    -230.40615498894  2.2E-03  5.2E-04  1.7E-02
etot    3  N  Y  1  U    -230.40870260082  2.5E-03  2.0E-04  5.9E-03
etot    4  Y  Y  6  M    -230.40908852226  3.9E-04  1.2E-04  9.9E-04
etot    5  Y  Y  6  M    -230.40910636599  1.8E-05  2.7E-05  3.6E-04
etot    6  N  Y  1  U    -230.40910029105 -6.1E-06  9.3E-06  2.3E-04
etot    7  N  Y  1  U    -230.40910090243  6.1E-07  2.6E-06  1.1E-04
[...]
  Peak memory usage:    534 Mb
  
  end of program raman
   
 Time(raman)  user:        0.1  user+sys:        0.1  wallclock:        0.1
  
  start of program rwr
  
  Peak memory usage:   1780 Mb
  
  end of program rwr
   
 Time(rwr)  user:        6.1  user+sys:        6.1  wallclock:        2.7
  
  start of program scf
  
 number of electrons..........         36
 number of alpha electrons....         18
 number of beta electrons.....         18
 number of orbitals, total....        114
 number of doubly-occ'd orbs..         18
 number of open shell orbs....          0
 number of occupied orbitals..         18
 number of virtual orbitals...         96
 number of hamiltonians.......          1
 number of shells.............          1
 SCF type: DFT=Becke_3_Parameter/HF+Slater+Becke88+VWN+LYP (B3LYP)
  
       i  u  d  i  g                   
       t  p  i  c  r                                 RMS    maximum
       e  d  i  u  i                       energy  density   DIIS  
       r  t  s  t  d       total energy    change  change    error 
  
etot    1  N  N  4  M    -230.40826571954           1.6E-03  1.3E-02
etot    2  Y  Y  6  M    -230.40863305540  3.7E-04  5.8E-04  1.9E-02
etot    3  N  Y  1  U    -230.41258948567  4.0E-03  2.1E-04  6.3E-03
etot    4  Y  Y  6  M    -230.41307454766  4.9E-04  1.0E-04  1.0E-03
etot    5  Y  Y  6  M    -230.41308779942  1.3E-05  2.7E-05  5.0E-04
etot    6  N  Y  1  U    -230.41307346907 -1.4E-05  8.7E-06  2.3E-04
etot    7  N  Y  1  U    -230.41307404358  5.7E-07  1.4E-06  3.4E-05
etot    8  N  N  1  U    -230.41307405826  1.5E-08  0.0E+00  0.0E+00
  
  
 Energy components, in hartrees:
   (A)  Nuclear repulsion............     160.50937428365
   (E)  Total one-electron terms.....    -629.65522707114
   (F)    Electron-nuclear...........    -859.16297997484
   (H)    Kinetic....................     229.23604319798
   (I)  Total two-electron terms.....     238.73277872923
   (J)    Coulomb....................     270.55495091612
   (K)    Exchange+Correlation.......     -31.82217218689
   (L)  Electronic energy............    -390.92244834191  (E+I)
   (M)  -V/T.........................       2.00631986378  (-(A+F+I)/H)
   (N)  Total energy.................    -230.41307405826  (A+L)
  
 SCFE: SCF energy: DFT(b3lyp)      -230.41307405826 hartrees   iterations:   8
  
 
 HOMO energy:    -0.22714
 LUMO energy:     0.00840
 
  Orbital energies (hartrees): 
   -19.18979   -10.21323   -10.21280   -10.15917   -10.15856    -1.11668
    -0.79395    -0.74208    -0.59153    -0.56263    -0.53538    -0.45668
    -0.44012    -0.39474    -0.39329    -0.37601    -0.27800    -0.22714
     0.00840     0.06878     0.07499     0.08401     0.12675     0.15124
     0.15577     0.20177     0.26181     0.32357
 
  Peak memory usage:   2205 Mb
  
  end of program scf
   
 Time(scf)  user:       25.0  user+sys:       25.0  wallclock:        7.2
  
  start of program der1a
  
  Peak memory usage:   1928 Mb
  
  end of program der1a
   
 Time(der1a)  user:        2.0  user+sys:        2.0  wallclock:        1.6
  
  start of program rwr
  
  Peak memory usage:   1718 Mb
  
  end of program rwr
   
 Time(rwr)  user:        6.1  user+sys:        6.1  wallclock:        2.6
  
  start of program der1b
  
   
  forces (hartrees/bohr) : total     
   
 atom  label           x              y              z
 ---- --------   -------------  -------------  -------------
    1 C1         -1.337562E-02   4.502753E-03  -1.863456E-03
    2 C2          1.351464E-02   3.181114E-03  -1.980868E-03
    3 C3          1.280860E-02  -8.205747E-03  -1.664471E-03
    4 O4          2.682166E-04   1.185688E-02  -2.548235E-03
    5 C5         -1.344837E-02  -6.919725E-03  -1.041047E-03
    6 H6         -2.601873E-03  -3.472196E-03   2.333880E-03
    7 H7         -2.485119E-03   1.501211E-03   2.323437E-03
    8 H8          2.868982E-03   1.169504E-03   2.098542E-03
    9 H9          2.454653E-03  -3.567319E-03   2.349037E-03
 -------------   -------------  -------------  -------------
     total        4.114768E-06   4.647302E-05   6.820311E-06
   
  Peak memory usage:   2203 Mb
  
  end of program der1b
   
 Time(der1b)  user:        5.4  user+sys:        5.4  wallclock:        2.4
  
  start of program raman
  
  calculation with applied electric field of
     Ex= 0.00000 Ey= 0.01200 Ez=-0.01200 follows...
  nuclear repulsion energy.......     160.794840426 hartrees
  nuclear electric field energy..       0.285466142 hartrees
  Peak memory usage:    534 Mb
  
  end of program raman
   
 Time(raman)  user:        0.1  user+sys:        0.1  wallclock:        0.1
  
  start of program rwr
  
  Peak memory usage:   1807 Mb
  
  end of program rwr
   
 Time(rwr)  user:        6.7  user+sys:        6.7  wallclock:        2.9
  
  start of program scf
  
 number of electrons..........         36
 number of alpha electrons....         18
 number of beta electrons.....         18
 number of orbitals, total....        114
 number of doubly-occ'd orbs..         18
 number of open shell orbs....          0
 number of occupied orbitals..         18
 number of virtual orbitals...         96
 number of hamiltonians.......          1
 number of shells.............          1
 SCF type: DFT=Becke_3_Parameter/HF+Slater+Becke88+VWN+LYP (B3LYP)
  
       i  u  d  i  g                   
       t  p  i  c  r                                 RMS    maximum
       e  d  i  u  i                       energy  density   DIIS  
       r  t  s  t  d       total energy    change  change    error 
  
etot    1  N  N  4  M    -230.40039608376           1.7E-03  1.3E-02
etot    2  Y  Y  6  M    -230.40068262202  2.9E-04  6.0E-04  2.0E-02
etot    3  N  Y  1  U    -230.40476113536  4.1E-03  2.1E-04  6.5E-03
etot    4  Y  Y  6  M    -230.40521996041  4.6E-04  1.3E-04  1.1E-03
etot    5  Y  Y  6  M    -230.40523733469  1.7E-05  3.1E-05  5.4E-04
etot    6  N  Y  1  U    -230.40524068151  3.3E-06  1.1E-05  2.4E-04
etot    7  N  Y  1  U    -230.40524127088  5.9E-07  2.0E-06  4.3E-05
etot    8  N  N  1  U    -230.40524130067  3.0E-08  0.0E+00  0.0E+00
  
  
 Energy components, in hartrees:
   (A)  Nuclear repulsion............     161.08030656742
   (E)  Total one-electron terms.....    -629.96304904801
   (F)    Electron-nuclear...........    -858.87266200186
   (H)    Kinetic....................     229.20106582098
   (I)  Total two-electron terms.....     238.47750117991
   (J)    Coulomb....................     270.28710210661
   (K)    Exchange+Correlation.......     -31.80960092669
   (L)  Electronic energy............    -391.48554786809  (E+I)
   (M)  -V/T.........................       2.00398219183  (-(A+F+I)/H)
   (N)  Total energy.................    -230.40524130067  (A+L)
  
 SCFE: SCF energy: DFT(b3lyp)      -230.40524130067 hartrees   iterations:   8
  
 
 HOMO energy:    -0.24893
 LUMO energy:    -0.01057
 
  Orbital energies (hartrees): 
   -19.20299   -10.23432   -10.23382   -10.19194   -10.19125    -1.12869
    -0.82298    -0.75925    -0.61872    -0.58541    -0.55999    -0.46796
    -0.45832    -0.42937    -0.42304    -0.39021    -0.30713    -0.24893
    -0.01057     0.02603     0.04154     0.05791     0.09549     0.10827
     0.14372     0.16953     0.22408     0.28175
 
  Peak memory usage:   2177 Mb
  
  end of program scf
   
 Time(scf)  user:       21.2  user+sys:       21.2  wallclock:        6.3
  
  start of program der1a
  
  Peak memory usage:   1803 Mb
  
  end of program der1a
   
 Time(der1a)  user:        2.4  user+sys:        2.4  wallclock:        1.7
  
  start of program rwr
  
  Peak memory usage:   1719 Mb
  
  end of program rwr
   
 Time(rwr)  user:        7.0  user+sys:        7.0  wallclock:        2.9
  
  start of program der1b
  
   
  forces (hartrees/bohr) : total     
   
 atom  label           x              y              z
 ---- --------   -------------  -------------  -------------
    1 C1         -1.208188E-02   2.390995E-03   3.004728E-03
    2 C2          1.218047E-02   1.293476E-03   2.926872E-03
    3 C3          1.014808E-02   1.043776E-03   2.604215E-04
    4 O4         -3.441680E-04  -8.007184E-03   1.767224E-03
    5 C5         -9.983378E-03   1.887383E-03   7.669361E-04
    6 H6         -3.112922E-03  -1.727871E-03  -2.403331E-03
    7 H7         -8.464848E-04   2.579885E-03  -1.883832E-03
    8 H8          1.132005E-03   2.490264E-03  -2.043666E-03
    9 H9          2.911073E-03  -1.921352E-03  -2.399267E-03
 -------------   -------------  -------------  -------------
     total        2.789211E-06   2.937230E-05  -3.915006E-06
   
  Peak memory usage:   2203 Mb
  
  end of program der1b
   
 Time(der1b)  user:        5.7  user+sys:        5.7  wallclock:        2.5
  
  start of program raman
  
   gradient of polarizability calculations complete...
  Peak memory usage:    534 Mb
  
  end of program raman
   
 Time(raman)  user:        0.1  user+sys:        0.1  wallclock:        0.1
  
  start of program freq
  
   
  harmonic frequencies in cm**-1, reduced masses in amu,
  force constants in mDyne/A, and
  normal modes in cartesian coordinates:
  IR intensities in km/mol
  Raman intensities in Angstrom^4
  
  frequencies       620.19   629.83   761.94   788.64   878.64   889.42
  intensities         0.00    18.15     0.00   117.88     0.09    18.60
  reduc. mass         2.02     2.99     0.54     0.27     0.31     4.18
  force const         0.46     0.70     0.19     0.10     0.14     1.95
  Raman Int.          7.99     1.75     4.54     0.52     6.04    24.78
    C1       X    -0.00247  0.00075 -0.00042 -0.00051  0.00090 -0.00775
    C1       Y     0.00387 -0.00127  0.00068  0.00095 -0.00216  0.07162
    C1       Z    -0.15054  0.05192 -0.02233 -0.03579  0.07137  0.00200
    C2       X     0.00252  0.00086  0.00045 -0.00057  0.00089  0.01394
    C2       Y    -0.00402 -0.00130 -0.00056  0.00087 -0.00169  0.07121
    C2       Z     0.15085  0.05095  0.02200 -0.03590  0.07171  0.00188
    C3       X    -0.00146 -0.00199  0.00169 -0.00124 -0.00100  0.09983
    C3       Y     0.00238  0.00332 -0.00267  0.00179  0.00197  0.02714
    C3       Z    -0.08922 -0.12531  0.09969 -0.06823 -0.06824 -0.00109
    O4       X     0.00004  0.00238 -0.00002  0.00068 -0.00002 -0.00801
    O4       Y    -0.00003 -0.00402 -0.00011 -0.00108  0.00044 -0.17308
    O4       Z     0.00053  0.15012  0.00001  0.04179 -0.00590 -0.00451
    C5       X     0.00137 -0.00199 -0.00157 -0.00105 -0.00065 -0.09649
    C5       Y    -0.00221  0.00324  0.00257  0.00180  0.00140  0.03587
    C5       Z     0.08836 -0.12601 -0.09977 -0.06781 -0.06825  0.00249
    H6       X    -0.00397 -0.00502 -0.00915  0.00692  0.00759  0.02214
    H6       Y     0.00648  0.00829  0.01512 -0.01161 -0.01220  0.20191
    H6       Z    -0.24310 -0.31143 -0.55297  0.42390  0.43908  0.00663
    H7       X     0.00465 -0.00012 -0.00440  0.00868 -0.00788 -0.15857
    H7       Y    -0.00718 -0.00012  0.00676 -0.01291  0.01187 -0.04684
    H7       Z     0.26973  0.00333 -0.25265  0.48303 -0.43266  0.00040
    H8       X    -0.00448  0.00007  0.00415  0.00791 -0.00748  0.15284
    H8       Y     0.00700 -0.00016 -0.00646 -0.01228  0.01084 -0.06224
    H8       Z    -0.26960  0.00564  0.25543  0.48216 -0.43039 -0.00395
    H9       X     0.00357 -0.00453  0.00784  0.00596  0.00642 -0.00267
    H9       Y    -0.00609  0.00821 -0.01396 -0.01058 -0.01185  0.20314
    H9       Z     0.24128 -0.31239  0.55490  0.42107  0.43899  0.00557
  
  frequencies       894.92   910.39  1029.73  1059.90  1102.71  1169.02
  intensities         0.52     0.00    48.49     2.60    10.47     0.01
  reduc. mass         2.72     0.50     0.58     0.87     1.40     1.05
  force const         1.28     0.24     0.36     0.58     1.00     0.85
  Raman Int.          5.38     0.88    36.42     4.94    95.98   145.68
    C1       X     0.11099 -0.00179 -0.05973  0.01240 -0.08434  0.08155
    C1       Y     0.11799  0.00197 -0.00251 -0.02712  0.01314  0.09551
    C1       Z     0.00127 -0.09429  0.00101 -0.00074  0.00173  0.00102
    C2       X     0.09944  0.00134  0.05941  0.01518  0.08510 -0.07234
    C2       Y    -0.12740 -0.00231 -0.00815  0.02610  0.00501  0.10262
    C2       Z    -0.00455  0.09406 -0.00112  0.00055 -0.00130  0.00394
    C3       X    -0.06503 -0.00056 -0.06828 -0.10591  0.12757 -0.04590
    C3       Y    -0.07182  0.00116  0.03075 -0.02453 -0.04556 -0.03611
    C3       Z    -0.00107 -0.03675  0.00182  0.00110 -0.00325 -0.00017
    O4       X    -0.05667  0.00021 -0.00428  0.09135  0.00234 -0.00300
    O4       Y     0.00226  0.00029 -0.08937 -0.00403  0.05199 -0.06528
    O4       Z     0.00100 -0.00003 -0.00236 -0.00161  0.00137 -0.00164
    C5       X    -0.05857  0.00071  0.07066 -0.10422 -0.13081  0.04236
    C5       Y     0.07770 -0.00118  0.02466  0.03389 -0.03382 -0.04021
    C5       Z     0.00291  0.03704 -0.00041  0.00239  0.00122 -0.00166
    H6       X    -0.11823  0.00404 -0.13169  0.01081  0.20823  0.12109
    H6       Y     0.03336 -0.00649  0.15987 -0.28658 -0.19369 -0.41820
    H6       Z     0.00443  0.22544  0.00671 -0.00779 -0.00844 -0.01330
    H7       X     0.04355 -0.00997  0.45698  0.35249  0.26830  0.04223
    H7       Y    -0.17148  0.01559  0.26828  0.26721  0.12374  0.20367
    H7       Z    -0.00804 -0.56732 -0.00124  0.00075 -0.00118  0.00458
    H8       X     0.06124  0.00920 -0.42819  0.32512 -0.25779 -0.02303
    H8       Y     0.16581 -0.01517  0.30903 -0.29862  0.15053  0.20694
    H8       Z     0.00333  0.56869  0.01509 -0.01363  0.00803  0.00592
    H9       X    -0.12099 -0.00298  0.14625  0.03539 -0.22645 -0.16014
    H9       Y    -0.02160  0.00566  0.14824  0.28267 -0.17666 -0.40665
    H9       Z     0.00147 -0.22709  0.00152  0.00700 -0.00115 -0.00832
  
  frequencies      1207.07  1298.41  1426.38  1495.16  1566.58  3216.25
  intensities        19.00     0.00     7.38    12.95     2.40     1.86
  reduc. mass         2.88     0.29     2.67     1.66     2.09     0.29
  force const         2.47     0.29     3.20     2.19     3.03     1.77
  Raman Int.         57.54     0.68     8.35    14.14    46.18   116.93
    C1       X    -0.01251 -0.05359  0.14866  0.02042  0.04082  0.03320
    C1       Y    -0.01295  0.03164 -0.06990  0.07326 -0.13521  0.03961
    C1       Z    -0.00011  0.00167 -0.00419  0.00149 -0.00410  0.00047
    C2       X    -0.01128 -0.05662 -0.15458 -0.01333  0.05292  0.02797
    C2       Y     0.01423 -0.02681 -0.05612  0.07517  0.13040 -0.04083
    C2       Z     0.00060  0.00025  0.00113  0.00222  0.00260 -0.00158
    C3       X     0.08014  0.02977  0.07468  0.00277 -0.02504 -0.02517
    C3       Y    -0.08463 -0.05286  0.02398 -0.14360 -0.11709 -0.01221
    C3       Z    -0.00357 -0.00194 -0.00058 -0.00389 -0.00272  0.00008
    O4       X    -0.15249  0.02999  0.00039  0.00247  0.00736 -0.00120
    O4       Y     0.00723 -0.00137  0.00919  0.05186 -0.00040  0.00004
    O4       Z     0.00259 -0.00048  0.00026  0.00132 -0.00013  0.00002
    C5       X     0.08727  0.03452 -0.07216 -0.01622 -0.01411 -0.02505
    C5       Y     0.07658  0.05010  0.03035 -0.14243  0.11942  0.01504
    C5       Z     0.00066  0.00075  0.00183 -0.00339  0.00326  0.00074
    H6       X     0.14586 -0.21687  0.03310 -0.22688 -0.15654  0.30132
    H6       Y    -0.23390  0.47536  0.14602  0.31223  0.10259  0.13955
    H6       Z    -0.00868  0.01639  0.00328  0.01226  0.00540 -0.00120
    H7       X     0.20724  0.28430  0.19756 -0.00009 -0.22444 -0.32695
    H7       Y     0.16547  0.21227  0.19702  0.10688 -0.04097  0.46844
    H7       Z     0.00074  0.00073  0.00170  0.00290  0.00276  0.01826
    H8       X     0.19080  0.26287 -0.17789  0.00940 -0.21991 -0.38553
    H8       Y    -0.18409 -0.23816  0.21528  0.10671  0.06214 -0.45376
    H8       Z    -0.00763 -0.01033  0.00834  0.00264  0.00516 -0.00532
    H9       X     0.16609 -0.25957 -0.01850  0.25416 -0.16595  0.29979
    H9       Y     0.21836 -0.45229  0.14954  0.28951 -0.08797 -0.17402
    H9       Z     0.00319 -0.00786  0.00416  0.00368  0.00025 -0.00870
  
  frequencies      3224.97  3236.74  3245.43
  intensities         0.54     0.43     0.03
  reduc. mass         0.24     0.29     0.24
  force const         1.45     1.79     1.48
  Raman Int.          7.98     3.33   512.52
    C1       X     0.03047  0.01669  0.02697
    C1       Y     0.03191  0.02816  0.03337
    C1       Z     0.00032  0.00044  0.00041
    C2       X    -0.02837  0.01348 -0.02430
    C2       Y     0.03610 -0.02884  0.03691
    C2       Z     0.00146 -0.00101  0.00141
    C3       X     0.03695  0.04569 -0.04339
    C3       Y     0.01572  0.02608 -0.02329
    C3       Z    -0.00019 -0.00005  0.00009
    O4       X     0.00000 -0.00046 -0.00003
    O4       Y    -0.00059  0.00001 -0.00088
    O4       Z    -0.00001  0.00001 -0.00003
    C5       X    -0.03396  0.04454  0.03995
    C5       Y     0.01820 -0.03110 -0.02639
    C5       Z     0.00095 -0.00143 -0.00125
    H6       X    -0.41441 -0.51579  0.45653
    H6       Y    -0.19323 -0.24546  0.21831
    H6       Z     0.00160  0.00188 -0.00163
    H7       X     0.29743 -0.18662  0.25743
    H7       Y    -0.41800  0.27370 -0.36912
    H7       Z    -0.01640  0.01061 -0.01438
    H8       X    -0.32203 -0.21736 -0.28225
    H8       Y    -0.37212 -0.26165 -0.33252
    H8       Z    -0.00427 -0.00316 -0.00391
    H9       X     0.37856 -0.50648 -0.42203
    H9       Y    -0.22106  0.30113  0.25200
    H9       Z    -0.01102  0.01489  0.01243
  
  Number of imaginary frequencies:   0
   
  Writing vibrational animation data to furan_test.vib
  Writing vibrational spectrum data to furan_test_vib.spm
  
  Thermochemical properties at    1.0000 atm
  
  rotational symmetry number:  1

  rotational temperatures (K):      0.458338      0.440841      0.224710
   
  vibrational temperatures:
       mode:      1        2        3        4        5        6
  temp. (K):   892.31   906.19  1096.26  1134.67  1264.17  1279.67
   
       mode:      7        8        9       10       11       12
  temp. (K):  1287.59  1309.84  1481.55  1524.96  1586.55  1681.96
   
       mode:     13       14       15       16       17       18
  temp. (K):  1736.70  1868.11  2052.25  2151.20  2253.96  4627.45
   
       mode:     19       20       21
  temp. (K):  4640.01  4656.94  4669.44
   
   
  Thermodynamic properties calculated assuming an ideal gas

  In the table below, the units for temperature
  are kelvins, the units for U, H, and G are
  kcal/mol and the units for Cv and S are cal/(mol K)

  The zero point energy (ZPE):     43.820 kcal/mol
  is not included in U, H, or G in the table below


  T =   298.15 K
   
              U         Cv          S          H          G        ln(Q)
          ---------  ---------  ---------  ---------  ---------  ---------
  trans.      0.889      2.981     38.570      1.481    -10.018   16.90896
    rot.      0.889      2.981     24.174      0.889     -6.319   10.66484
    vib.      0.524      7.128      2.218      0.524     -0.137    0.23134
   elec.      0.000      0.000      0.000      0.000      0.000    0.00000
   total      2.302     13.090     64.962      2.894    -16.474   27.80515
   
  Total internal energy, Utot (SCFE + ZPE + U):    -230.331742 hartrees
              Total enthalpy, Htot (Utot + pV):    -230.330798 hartrees
    Total Gibbs free energy, Gtot (Htot - T*S):    -230.361663 hartrees
   
  Peak memory usage:    565 Mb
  
  end of program freq
   
 Time(freq)  user:        0.1  user+sys:        0.1  wallclock:        0.1
  
  start of program post
  
  Writing input files for PBF
  Peak memory usage:    571 Mb
  
  end of program post
   
 Time(post)  user:        0.1  user+sys:        0.1  wallclock:        0.4

 Total cpu seconds     user:     784.623   user+sys:     784.623
  
 Total elapsed time:    709 seconds

Job furan_test completed on node020 at Mon Mar  2 17:22:07 2015
