Gaussian '09 started on node026 at Fri Feb 12 11:41:10 EST 2016.
 Entering Gaussian System, Link 0=/usr/local/gaussian/g09/g09
 Initial command:
 /usr/local/gaussian/g09/l1.exe /home/srmcgrat/thesis/gaussian/cellobiose/500/10000/1/2dfp/gaussian18364/Gau-18400.inp -scrdir=/home/srmcgrat/thesis/gaussian/cellobiose/500/10000/1/2dfp/gaussian18364/
 Entering Link 1 = /usr/local/gaussian/g09/l1.exe PID=     18402.
  
 Copyright (c) 1988,1990,1992,1993,1995,1998,2003,2009,2010,
            Gaussian, Inc.  All Rights Reserved.
  
 This is part of the Gaussian(R) 09 program.  It is based on
 the Gaussian(R) 03 system (copyright 2003, Gaussian, Inc.),
 the Gaussian(R) 98 system (copyright 1998, Gaussian, Inc.),
 the Gaussian(R) 94 system (copyright 1995, Gaussian, Inc.),
 the Gaussian 92(TM) system (copyright 1992, Gaussian, Inc.),
 the Gaussian 90(TM) system (copyright 1990, Gaussian, Inc.),
 the Gaussian 88(TM) system (copyright 1988, Gaussian, Inc.),
 the Gaussian 86(TM) system (copyright 1986, Carnegie Mellon
 University), and the Gaussian 82(TM) system (copyright 1983,
 Carnegie Mellon University). Gaussian is a federally registered
 trademark of Gaussian, Inc.
  
 This software contains proprietary and confidential information,
 including trade secrets, belonging to Gaussian, Inc.
  
 This software is provided under written license and may be
 used, copied, transmitted, or stored only in accord with that
 written license.
  
 The following legend is applicable only to US Government
 contracts under FAR:
  
                    RESTRICTED RIGHTS LEGEND
  
 Use, reproduction and disclosure by the US Government is
 subject to restrictions as set forth in subparagraphs (a)
 and (c) of the Commercial Computer Software - Restricted
 Rights clause in FAR 52.227-19.
  
 Gaussian, Inc.
 340 Quinnipiac St., Bldg. 40, Wallingford CT 06492
  
  
 ---------------------------------------------------------------
 Warning -- This program may not be used in any manner that
 competes with the business of Gaussian, Inc. or will provide
 assistance to any competitor of Gaussian, Inc.  The licensee
 of this program is prohibited from giving any competitor of
 Gaussian, Inc. access to this program.  By using this program,
 the user acknowledges that Gaussian, Inc. is engaged in the
 business of creating and licensing software in the field of
 computational chemistry and represents and warrants to the
 licensee that it is not a competitor of Gaussian, Inc. and that
 it will not use this program in any manner prohibited above.
 ---------------------------------------------------------------
  

 Cite this work as:
 Gaussian 09, Revision B.01,
 M. J. Frisch, G. W. Trucks, H. B. Schlegel, G. E. Scuseria, 
 M. A. Robb, J. R. Cheeseman, G. Scalmani, V. Barone, B. Mennucci, 
 G. A. Petersson, H. Nakatsuji, M. Caricato, X. Li, H. P. Hratchian, 
 A. F. Izmaylov, J. Bloino, G. Zheng, J. L. Sonnenberg, M. Hada, 
 M. Ehara, K. Toyota, R. Fukuda, J. Hasegawa, M. Ishida, T. Nakajima, 
 Y. Honda, O. Kitao, H. Nakai, T. Vreven, J. A. Montgomery, Jr., 
 J. E. Peralta, F. Ogliaro, M. Bearpark, J. J. Heyd, E. Brothers, 
 K. N. Kudin, V. N. Staroverov, T. Keith, R. Kobayashi, J. Normand, 
 K. Raghavachari, A. Rendell, J. C. Burant, S. S. Iyengar, J. Tomasi, 
 M. Cossi, N. Rega, J. M. Millam, M. Klene, J. E. Knox, J. B. Cross, 
 V. Bakken, C. Adamo, J. Jaramillo, R. Gomperts, R. E. Stratmann, 
 O. Yazyev, A. J. Austin, R. Cammi, C. Pomelli, J. W. Ochterski, 
 R. L. Martin, K. Morokuma, V. G. Zakrzewski, G. A. Voth, 
 P. Salvador, J. J. Dannenberg, S. Dapprich, A. D. Daniels, 
 O. Farkas, J. B. Foresman, J. V. Ortiz, J. Cioslowski, 
 and D. J. Fox, Gaussian, Inc., Wallingford CT, 2010.
 
 ******************************************
 Gaussian 09:  EM64L-G09RevB.01 12-Aug-2010
                12-Feb-2016 
 ******************************************
 --------------------------------------------------
 # freq=raman b3lyp/6-31+g(2df,p) geom=connectivity
 --------------------------------------------------
 1/10=4,30=1,38=1,57=2/1,3;
 2/12=2,17=6,18=5,40=1/2;
 3/5=1,6=6,7=114,11=2,16=1,25=1,30=1,71=2,74=-5/1,2,3;
 4//1;
 5/5=2,38=5,98=1/2;
 8/6=4,10=90,11=11/1;
 10/13=10,15=4/2;
 11/6=3,8=1,9=11,15=111,16=1/1,2,10;
 10/6=1/2;
 6/7=2,8=2,9=2,10=2,18=1,28=1/1;
 7/8=1,10=1,25=1/1,2,3,16;
 1/10=4,30=1/3;
 99//99;
 -------------
 500 10000.com
 -------------
 Symbolic Z-matrix:
 Charge =  0 Multiplicity = 1
 O                     8.649     7.118     12.405 
 C                     9.366     7.246     13.641 
 C                     9.417     8.629     14.269 
 O                     10.204    9.52      13.466 
 H                     10.138    9.315     12.489 
 C                     9.985     8.752     15.674 
 O                     10.158    10.086    16.174 
 H                     10.667    10.628    15.505 
 C                     9.161     4.78      14.224 
 O                     8.542     3.612     14.782 
 H                     8.674     2.785     14.235 
 C                     8.932     6.215     14.671 
 O                     9.199     6.469     16.058 
 C                     9.07      7.837     16.472 
 O                     9.755     7.67      17.722 
 C                     9.026     7.477     18.943 
 C                     8.656     6.024     19.191 
 O                     7.815     5.367     18.232 
 H                     8.163     5.696     17.354 
 C                     8.086     5.753     20.574 
 O                     7.988     4.329     20.722 
 H                     7.55      4.037     19.871 
 C                     10.049    9.609     20.06 
 O                     10.689    10.346    21.111 
 H                     10.469    11.322    21.126 
 C                     9.788     8.112     20.095 
 O                     9.038     7.832     21.286 
 C                     8.979     6.433     21.6 
 O                     8.42      6.311     22.916 
 H                     9.12894   6.25125   23.56054 
 H                     9.96052   6.0077    21.57494 
 H                     7.10497   6.17591   20.63424 
 H                     9.58508   5.49425   19.15814 
 H                     8.10719   8.0164    18.84434 
 H                     10.73326   7.61698   20.17455 
 H                     9.09678   10.0731   19.90901 
 H                     9.27302   7.04285   11.67936 
 H                     10.21524   4.61598   14.30507 
 H                     8.92748   4.76095   13.17997 
 H                     10.62566   9.78942   19.17693 
 H                     7.8659    6.29814   14.63323 
 H                     10.3812   7.00518   13.40377 
 H                     8.41665   9.00809   14.29123 
 H                     10.95386   8.29802   15.66361 
 H                     8.06118   8.17921   16.57236 
 

 GradGradGradGradGradGradGradGradGradGradGradGradGradGradGradGradGradGrad
 Berny optimization.
 Initialization pass.
 Trust Radius=3.00D-01 FncErr=1.00D-07 GrdErr=1.00D-07
 Number of steps in this run=      2 maximum allowed number of steps=      2.
 GradGradGradGradGradGradGradGradGradGradGradGradGradGradGradGradGradGrad

                          Input orientation:                          
 ---------------------------------------------------------------------
 Center     Atomic      Atomic             Coordinates (Angstroms)
 Number     Number       Type             X           Y           Z
 ---------------------------------------------------------------------
      1          8           0        8.649000    7.118000   12.405000
      2          6           0        9.366000    7.246000   13.641000
      3          6           0        9.417000    8.629000   14.269000
      4          8           0       10.204000    9.520000   13.466000
      5          1           0       10.138000    9.315000   12.489000
      6          6           0        9.985000    8.752000   15.674000
      7          8           0       10.158000   10.086000   16.174000
      8          1           0       10.667000   10.628000   15.505000
      9          6           0        9.161000    4.780000   14.224000
     10          8           0        8.542000    3.612000   14.782000
     11          1           0        8.674000    2.785000   14.235000
     12          6           0        8.932000    6.215000   14.671000
     13          8           0        9.199000    6.469000   16.058000
     14          6           0        9.070000    7.837000   16.472000
     15          8           0        9.755000    7.670000   17.722000
     16          6           0        9.026000    7.477000   18.943000
     17          6           0        8.656000    6.024000   19.191000
     18          8           0        7.815000    5.367000   18.232000
     19          1           0        8.163000    5.696000   17.354000
     20          6           0        8.086000    5.753000   20.574000
     21          8           0        7.988000    4.329000   20.722000
     22          1           0        7.550000    4.037000   19.871000
     23          6           0       10.049000    9.609000   20.060000
     24          8           0       10.689000   10.346000   21.111000
     25          1           0       10.469000   11.322000   21.126000
     26          6           0        9.788000    8.112000   20.095000
     27          8           0        9.038000    7.832000   21.286000
     28          6           0        8.979000    6.433000   21.600000
     29          8           0        8.420000    6.311000   22.916000
     30          1           0        9.128945    6.251248   23.560536
     31          1           0        9.960524    6.007696   21.574938
     32          1           0        7.104971    6.175910   20.634242
     33          1           0        9.585076    5.494247   19.158142
     34          1           0        8.107191    8.016404   18.844337
     35          1           0       10.733264    7.616977   20.174547
     36          1           0        9.096783   10.073096   19.909009
     37          1           0        9.273022    7.042853   11.679363
     38          1           0       10.215242    4.615983   14.305070
     39          1           0        8.927479    4.760947   13.179967
     40          1           0       10.625661    9.789422   19.176931
     41          1           0        7.865904    6.298140   14.633229
     42          1           0       10.381198    7.005182   13.403768
     43          1           0        8.416653    9.008094   14.291229
     44          1           0       10.953862    8.298020   15.663609
     45          1           0        8.061178    8.179208   16.572357
 ---------------------------------------------------------------------
                    Distance matrix (angstroms):
                    1          2          3          4          5
     1  O    0.000000
     2  C    1.434632   0.000000
     3  C    2.519413   1.519761   0.000000
     4  O    3.051778   2.429803   1.434594   0.000000
     5  H    2.655369   2.490753   2.039323   1.000455   0.000000
     6  C    3.891171   2.604666   1.520453   2.347988   3.237994
     7  O    5.029062   3.887024   2.510170   2.766900   3.764846
     8  H    5.099257   4.074926   2.661991   2.366338   3.331676
     9  C    3.006185   2.542257   3.857766   4.912231   4.952876
    10  O    4.237171   3.897026   5.118504   6.276828   6.350533
    11  H    4.703660   4.553265   5.891141   6.949280   6.916120
    12  C    2.455658   1.520598   2.494840   3.740726   3.978135
    13  O    3.750748   2.544309   2.813120   4.127601   4.660386
    14  C    4.151469   2.907139   2.366618   3.626911   4.380570
    15  O    5.458794   4.121366   3.599602   4.662364   5.498818
    16  C    6.558693   5.317910   4.829727   5.963142   6.802125
    17  C    6.873622   5.727118   5.620608   6.884326   7.612083
    18  O    6.141294   5.197454   5.377027   6.757920   7.346093
    19  H    5.172125   4.199533   4.437593   5.822817   6.376991
    20  C    8.301371   7.206521   7.056625   8.318646   9.070048
    21  O    8.797041   7.781281   7.885002   9.192751   9.862301
    22  H    8.151167   7.239367   7.480278   8.839176   9.436575
    23  C    8.170931   6.874141   5.907242   6.596422   7.577229
    24  O    9.506630   8.195195   7.167917   7.704773   8.700888
    25  H    9.850983   8.593929   7.441599   7.873565   8.873296
    26  C    7.837184   6.525500   5.860649   6.789636   7.708498
    27  O    8.918143   7.674438   7.072280   8.084634   8.988687
    28  C    9.226383   8.009770   7.665365   8.785906   9.625982
    29  O   10.544421   9.369886   9.007649  10.138187  10.986258
    30  H   11.199446   9.972108   9.595276  10.664903  11.531855
    31  H    9.329557   8.051971   7.780963   8.840274   9.670782
    32  H    8.425674   7.427165   7.202738   8.495329   9.241110
    33  H    7.008405   5.792710   5.810219   6.999303   7.705929
    34  H    6.524243   5.408589   4.798394   5.965226   6.797120
    35  H    8.059714   6.685377   6.134511   6.993298   7.893368
    36  H    8.077330   6.881344   5.830751   6.560809   7.530961
    37  H    0.960000   1.974318   3.040199   3.192969   2.562489
    38  H    3.510480   2.842392   4.091796   4.975294   5.038337
    39  H    2.496763   2.565218   4.048143   4.935576   4.762583
    40  H    7.543390   6.221115   5.186061   5.732811   6.722449
    41  H    2.500083   2.033038   2.823379   4.148433   4.342992
    42  H    2.002692   1.070000   2.077280   2.521821   2.496238
    43  H    2.680355   2.104527   1.070000   2.034123   2.511027
    44  H    4.162135   2.778309   2.101530   2.623931   3.431913
    45  H    4.340342   3.341601   2.710354   4.004855   4.719854
                    6          7          8          9         10
     6  C    0.000000
     7  O    1.435091   0.000000
     8  H    2.003263   1.000203   0.000000
     9  C    4.307930   5.740222   6.173176   0.000000
    10  O    5.412718   6.816289   7.366316   1.434834   0.000000
    11  H    6.276506   7.698479   8.191312   2.053610   1.000281
    12  C    2.924241   4.329749   4.814598   1.520354   2.634394
    13  O    2.444860   3.743772   4.445010   2.493536   3.197229
    14  C    1.520281   2.516058   3.357853   3.795660   4.580994
    15  O    2.327644   2.897545   3.807440   4.576127   5.155806
    16  C    3.637536   3.969341   4.943837   5.437002   5.699684
    17  C    4.645160   5.278081   6.231174   5.145255   5.026930
    18  O    4.765552   5.656322   6.576363   4.268530   3.938408
    19  H    3.934618   4.964325   5.832104   3.410566   3.331949
    20  C    6.050636   6.513684   7.491458   6.513436   6.191856
    21  O    7.002374   7.650899   8.606482   6.618409   6.008711
    22  H    6.765742   7.553799   8.498172   5.919120   5.202174
    23  C    4.469401   3.916683   4.708323   7.626708   8.129720
    24  O    5.709415   4.972276   5.613131   8.985873   9.487497
    25  H    6.046773   5.113386   5.667140   9.599283  10.168764
    26  C    4.471426   4.405430   5.307636   6.779675   7.073223
    27  O    5.765219   5.698022   6.625045   7.694263   7.768940
    28  C    6.442614   6.646497   7.589229   7.561145   7.391491
    29  O    7.800915   7.919964   8.866139   8.856856   8.570965
    30  H    8.317695   8.386012   9.295872   9.451799   9.185469
    31  H    6.507909   6.770649   7.660970   7.495516   7.341361
    32  H    6.287671   6.671098   7.669308   6.875102   6.548849
    33  H    4.786663   5.506137   6.393077   5.003574   4.876626
    34  H    3.757433   3.952182   4.952194   5.738670   6.007530
    35  H    4.701393   4.736178   5.556557   6.777128   7.065482
    36  H    4.524326   3.882865   4.708375   7.767903   8.266787
    37  H    4.402865   5.499608   5.425122   3.407085   4.683108
    38  H    4.362753   5.780767   6.147216   1.070000   2.008776
    39  H    4.823594   6.231742   6.546298   1.070000   2.008776
    40  H    3.709073   3.053565   3.766696   7.195212   7.862417
    41  H    3.405172   4.687810   5.230087   2.037030   2.773912
    42  H    2.891764   4.149150   4.197817   2.667039   4.098275
    43  H    2.106502   2.781905   3.026780   4.293641   5.419816
    44  H    1.070000   2.022565   2.352925   4.202772   5.343510
    45  H    2.199142   2.862028   3.731774   4.275396   4.929093
                   11         12         13         14         15
    11  H    0.000000
    12  C    3.467212   0.000000
    13  O    4.143768   1.435122   0.000000
    14  C    5.539286   2.427659   1.435082   0.000000
    15  O    6.098439   3.478930   2.126131   1.435136   0.000000
    16  C    6.656127   4.455498   3.060918   2.497474   1.435107
    17  C    5.920590   4.532445   3.210695   3.294135   2.464767
    18  O    4.835350   3.827207   2.802880   3.282305   3.054097
    19  H    4.296883   2.838875   1.830421   2.486856   2.562531
    20  C    7.024079   5.981185   4.705920   4.705073   3.820256
    21  O    6.703410   6.408021   5.272477   5.615985   4.825409
    22  H    5.881783   5.804620   4.813813   5.320113   4.762238
    23  C    9.076796   6.465930   5.157335   4.119729   3.051623
    24  O   10.416733   7.850211   6.540951   5.516934   4.417992
    25  H   11.117026   8.373222   7.130858   5.980146   5.043225
    26  C    7.997345   5.809571   4.398152   3.703684   2.414039
    27  O    8.678785   6.810591   5.405153   4.814109   3.639015
    28  C    8.224607   6.932588   5.546482   5.317507   4.143818
    29  O    9.373204   8.261440   6.903910   6.654045   5.532336
    30  H    9.959291   8.891792   7.506023   7.263982   6.040969
    31  H    8.118843   6.983208   5.588321   5.493575   4.201265
    32  H    7.410156   6.236972   5.041116   4.893344   4.211427
    33  H    5.692750   4.591344   3.272626   3.601272   2.612524
    34  H    6.995344   4.619752   3.369003   2.566548   2.023588
    35  H    7.928858   5.958114   4.540680   4.064937   2.640985
    36  H    9.246052   6.507596   5.275436   4.100473   3.315287
    37  H    5.001942   3.122744   4.416701   4.862228   6.094184
    38  H    2.394334   2.082659   2.745757   4.047483   4.605893
    39  H    2.254265   2.082659   3.357714   4.507759   5.456871
    40  H    8.791678   5.995698   4.773709   3.680854   2.714190
    41  H    3.626811   1.070000   1.958650   2.683098   3.871845
    42  H    4.627678   2.080971   2.954663   3.438781   4.413756
    43  H    6.228667   2.865516   3.190697   2.560095   3.918145
    44  H    6.134499   3.067926   2.565229   2.101183   2.463463
    45  H    5.910692   2.869077   2.117549   1.070000   2.109503
                   16         17         18         19         20
    16  C    0.000000
    17  C    1.519741   0.000000
    18  O    2.534589   1.434786   0.000000
    19  H    2.538041   1.930078   1.000114   0.000000
    20  C    2.552633   1.520207   2.389017   3.221425   0.000000
    21  O    3.761940   2.379750   2.703234   3.639057   1.435021
    22  H    3.856600   2.373564   2.127310   3.076254   1.930327
    23  C    2.615271   3.943074   5.130975   5.117714   4.357327
    24  O    3.961938   5.147735   6.429538   6.489856   5.306565
    25  H    4.650996   5.924525   7.133090   7.155243   6.082529
    26  C    1.520188   2.541335   3.859860   3.998845   2.948072
    27  O    2.369772   2.793531   4.110824   4.559468   2.394888
    28  C    2.855135   2.464729   3.719499   4.386062   1.520699
    29  O    4.184677   3.743486   4.816328   5.601796   2.430614
    30  H    4.778568   4.400928   5.558925   6.305747   3.202403
    31  H    3.155834   2.717574   4.023555   4.598322   2.140230
    32  H    2.871148   2.124080   2.632345   3.479903   1.070000
    33  H    2.071271   1.070000   2.001774   2.306065   2.078180
    34  H    1.070000   2.095481   2.734899   2.758350   2.848716
    35  H    2.109752   2.796420   4.165591   4.272224   3.262205
    36  H    2.770902   4.135820   5.157777   5.153542   4.486326
    37  H    7.280792   7.605489   6.918914   5.936975   9.065722
    38  H    5.577644   5.318464   4.663257   3.830680   6.717586
    39  H    6.371750   6.148294   5.208450   4.345262   7.507595
    40  H    2.821513   4.249490   5.324521   5.113109   4.969344
    41  H    4.616238   4.633862   3.717629   2.802398   5.969789
    42  H    5.722086   6.118095   5.707963   4.715792   7.632046
    43  H    4.935031   5.741939   5.399003   4.518282   7.083656
    44  H    3.891674   4.784749   5.003995   4.173349   6.230064
    45  H    2.654039   3.443258   3.274681   2.605313   4.679770
                   21         22         23         24         25
    21  O    0.000000
    22  H    1.000654   0.000000
    23  C    5.706520   6.109657   0.000000
    24  O    6.606891   7.155026   1.434354   0.000000
    25  H    7.431058   7.947755   2.060855   1.000600   0.000000
    26  C    4.236062   4.654508   1.519985   2.614348   3.439596
    27  O    3.700217   4.314904   2.383889   3.012743   3.775376
    28  C    2.485917   3.282118   3.688289   4.298231   5.132942
    29  O    2.988074   3.898718   4.656950   4.968663   5.701984
    30  H    3.613043   4.583518   4.937080   5.020059   5.782321
    31  H    2.726971   3.549320   3.907973   4.423437   5.357417
    32  H    2.049028   2.314200   4.558856   5.519259   6.167720
    33  H    2.520734   2.602550   4.237897   5.345261   6.214217
    34  H    4.139658   4.147307   2.790129   4.150966   4.659516
    35  H    4.318214   4.800161   2.109383   2.885562   3.834357
    36  H    5.906352   6.231247   1.070000   2.013557   2.218965
    37  H    9.528146   8.894205   8.798996  10.093144  10.439368
    38  H    6.798526   6.198251   7.620832   8.909446   9.568706
    39  H    7.612586   6.869605   8.490953   9.858857  10.419364
    40  H    6.257851   6.559861   1.070000   2.013557   2.484392
    41  H    6.400434   5.713737   6.721424   8.143498   8.612279
    42  H    8.151434   7.658386   7.155114   8.405786   8.847344
    43  H    7.964451   7.523079   6.025310   7.311828   7.502025
    44  H    7.080733   6.888012   4.676077   5.825671   6.262369
    45  H    5.661183   5.319797   4.261384   5.674479   6.034104
                   26         27         28         29         30
    26  C    0.000000
    27  O    1.435054   0.000000
    28  C    2.395526   1.435018   0.000000
    29  O    3.615670   2.313496   1.434999   0.000000
    30  H    3.988320   2.771383   1.974644   0.960000   0.000000
    31  H    2.578386   2.064611   1.070000   2.064861   2.166435
    32  H    3.352294   2.627551   2.123857   2.637038   3.558840
    33  H    2.787743   3.208140   2.685378   4.018206   4.490232
    34  H    2.097240   2.619566   3.295587   4.425459   5.138316
    35  H    1.070000   2.038500   2.551698   3.817372   3.987979
    36  H    2.087647   2.630983   4.015423   4.863476   5.285944
    37  H    8.498895   9.641860   9.943712  11.292709  11.908387
    38  H    6.777017   7.775735   7.618783   8.957907   9.461384
    39  H    7.732253   8.668988   8.584601   9.871704  10.488937
    40  H    2.087647   3.286387   4.455146   5.562823   5.828793
    41  H    6.067576   6.927185   7.056420   8.301294   9.016334
    42  H    6.808048   8.038495   8.334973   9.737081  10.261409
    43  H    6.030534   7.120119   7.769522   9.036648   9.696784
    44  H    4.585964   5.958102   6.528332   7.935104   8.359489
    45  H    3.923703   4.826299   5.400818   6.622745   7.327469
                   31         32         33         34         35
    31  H    0.000000
    32  H    3.011210   0.000000
    33  H    2.499098   2.965545   0.000000
    34  H    3.863409   2.756016   2.940050   0.000000
    35  H    2.268922   3.930968   2.618664   2.970734   0.000000
    36  H    4.477593   4.436366   4.665629   2.518492   2.963292
    37  H    9.973295   9.254291   7.643802   7.324194   8.638870
    38  H    7.406263   7.222574   4.971998   6.050759   6.612494
    39  H    8.549684   7.803196   6.058774   6.584524   7.768006
    40  H    4.527063   5.251332   4.419469   3.097886   2.392976
    41  H    7.256660   6.050299   4.906795   4.554567   6.377091
    42  H    8.242571   7.981298   6.002463   5.982764   6.807474
    43  H    8.027350   7.069342   6.115487   4.670119   6.474205
    44  H    6.416862   6.635097   4.684707   4.277835   4.567389
    45  H    5.774841   4.628871   4.027104   2.278270   4.520168
                   36         37         38         39         40
    36  H    0.000000
    37  H    8.771574   0.000000
    38  H    7.901593   3.697542   0.000000
    39  H    8.574824   2.752873   1.716160   0.000000
    40  H    1.718684   8.098568   7.118142   8.008306   0.000000
    41  H    6.602970   3.355578   2.908046   2.366828   6.360074
    42  H    7.306161   2.050133   2.558937   2.683277   6.414139
    43  H    5.758147   3.378962   4.746130   4.419741   5.418512
    44  H    4.962163   4.502764   3.993568   4.773426   3.830852
    45  H    3.973982   5.167327   4.741008   4.893189   3.994141
                   41         42         43         44         45
    41  H    0.000000
    42  H    2.887592   0.000000
    43  H    2.786421   2.942564   0.000000
    44  H    3.820561   2.665757   2.970701   0.000000
    45  H    2.708647   4.098877   2.452950   3.034396   0.000000
 Stoichiometry    C12H22O11
 Framework group  C1[X(C12H22O11)]
 Deg. of freedom   129
 Full point group                 C1      NOp   1
 Largest Abelian subgroup         C1      NOp   1
 Largest concise Abelian subgroup C1      NOp   1
                         Standard orientation:                         
 ---------------------------------------------------------------------
 Center     Atomic      Atomic             Coordinates (Angstroms)
 Number     Number       Type             X           Y           Z
 ---------------------------------------------------------------------
      1          8           0        5.109999   -0.368633   -0.662161
      2          6           0        3.906644    0.023506    0.013362
      3          6           0        3.294372    1.356029   -0.385612
      4          8           0        4.138228    2.442233    0.021976
      5          1           0        5.109601    2.204415   -0.006107
      6          6           0        1.915835    1.696861    0.157753
      7          8           0        1.436136    3.021701   -0.114593
      8          1           0        2.131099    3.688522    0.155190
      9          6           0        3.292376   -2.351704    0.679786
     10          8           0        2.697785   -3.647133    0.515241
     11          1           0        3.242083   -4.392825    0.900268
     12          6           0        2.849596   -1.069411   -0.006615
     13          8           0        1.477558   -0.707855    0.208704
     14          6           0        1.071342    0.544569   -0.362159
     15          8           0       -0.150122    0.648742    0.384023
     16          6           0       -1.402582    0.248343   -0.190915
     17          6           0       -1.679622   -1.237877   -0.035951
     18          8           0       -0.763212   -2.163153   -0.638170
     19          1           0        0.131754   -1.756087   -0.454970
     20          6           0       -3.087947   -1.653966   -0.429040
     21          8           0       -3.253319   -3.023001   -0.031953
     22          1           0       -2.424359   -3.465855   -0.375485
     23          6           0       -2.455307    2.626192    0.087016
     24          8           0       -3.471370    3.560685    0.476516
     25          1           0       -3.486484    4.404340   -0.061274
     26          6           0       -2.515355    1.130614    0.351585
     27          8           0       -3.739548    0.640578   -0.214629
     28          6           0       -4.068882   -0.687875    0.216683
     29          8           0       -5.408407   -0.961656   -0.219137
     30          1           0       -6.022956   -0.762531    0.490989
     31          1           0       -4.006379   -0.755636    1.282705
     32          1           0       -3.185599   -1.587474   -1.492498
     33          1           0       -1.612527   -1.421834    1.015980
     34          1           0       -1.337756    0.441810   -1.241281
     35          1           0       -2.559549    0.987414    1.411038
     36          1           0       -2.340320    2.736293   -0.971075
     37          1           0        5.860609   -0.244535   -0.076683
     38          1           0        3.254371   -2.146615    1.729259
     39          1           0        4.325388   -2.472998    0.428644
     40          1           0       -1.547014    2.970939    0.535405
     41          1           0        2.843082   -1.353578   -1.038170
     42          1           0        4.184273    0.135750    1.040602
     43          1           0        3.233471    1.373883   -1.453728
     44          1           0        1.962876    1.598177    1.222154
     45          1           0        0.931681    0.526669   -1.422854
 ---------------------------------------------------------------------
 Rotational constants (GHZ):      0.3640355      0.1501501      0.1091698
 Standard basis: 6-31+G(2df,p) (6D, 7F)
 There are   846 symmetry adapted basis functions of A   symmetry.
 Integral buffers will be    131072 words long.
 Raffenetti 2 integral format.
 Two-electron integral symmetry is turned on.
   846 basis functions,  1258 primitive gaussians,   915 cartesian basis functions
    91 alpha electrons       91 beta electrons
       nuclear repulsion energy      2262.6264660332 Hartrees.
 NAtoms=   45 NActive=   45 NUniq=   45 SFac= 1.00D+00 NAtFMM=   50 NAOKFM=F Big=F
 One-electron integrals computed using PRISM.
 NBasis=   846 RedAO= T  NBF=   846
 NBsUse=   846 1.00D-06 NBFU=   846
 Harris functional with IExCor=  402 diagonalized for initial guess.
 ExpMin= 4.38D-02 ExpMax= 5.48D+03 ExpMxC= 8.25D+02 IAcc=2 IRadAn=         0 AccDes= 0.00D+00
 HarFok:  IExCor=  402 AccDes= 0.00D+00 IRadAn=         0 IDoV= 1
 ScaDFX=  1.000000  1.000000  1.000000  1.000000
 FoFCou: FMM=F IPFlag=           0 FMFlag=      100000 FMFlg1=           0
         NFxFlg=           0 DoJE=T BraDBF=F KetDBF=T FulRan=T
         Omega=  0.000000  0.000000  1.000000  0.000000  0.000000 ICntrl=     500 IOpCl=  0
         NMat0=    1 NMatS0=    1 NMatT0=    0 NMatD0=    1 NMtDS0=    0 NMtDT0=    0
         I1Cent=           4 NGrid=           0.
 Petite list used in FoFCou.
 Initial guess orbital symmetries:
       Occupied  (A) (A) (A) (A) (A) (A) (A) (A) (A) (A) (A) (A)
                 (A) (A) (A) (A) (A) (A) (A) (A) (A) (A) (A) (A)
                 (A) (A) (A) (A) (A) (A) (A) (A) (A) (A) (A) (A)
                 (A) (A) (A) (A) (A) (A) (A) (A) (A) (A) (A) (A)
                 (A) (A) (A) (A) (A) (A) (A) (A) (A) (A) (A) (A)
                 (A) (A) (A) (A) (A) (A) (A) (A) (A) (A) (A) (A)
                 (A) (A) (A) (A) (A) (A) (A) (A) (A) (A) (A) (A)
                 (A) (A) (A) (A) (A) (A) (A)
       Virtual   (A) (A) (A) (A) (A) (A) (A) (A) (A) (A) (A) (A)
                 (A) (A) (A) (A) (A) (A) (A) (A) (A) (A) (A) (A)
                 (A) (A) (A) (A) (A) (A) (A) (A) (A) (A) (A) (A)
                 (A) (A) (A) (A) (A) (A) (A) (A) (A) (A) (A) (A)
                 (A) (A) (A) (A) (A) (A) (A) (A) (A) (A) (A) (A)
                 (A) (A) (A) (A) (A) (A) (A) (A) (A) (A) (A) (A)
                 (A) (A) (A) (A) (A) (A) (A) (A) (A) (A) (A) (A)
                 (A) (A) (A) (A) (A) (A) (A) (A) (A) (A) (A) (A)
                 (A) (A) (A) (A) (A) (A) (A) (A) (A) (A) (A) (A)
                 (A) (A) (A) (A) (A) (A) (A) (A) (A) (A) (A) (A)
                 (A) (A) (A) (A) (A) (A) (A) (A) (A) (A) (A) (A)
                 (A) (A) (A) (A) (A) (A) (A) (A) (A) (A) (A) (A)
                 (A) (A) (A) (A) (A) (A) (A) (A) (A) (A) (A) (A)
                 (A) (A) (A) (A) (A) (A) (A) (A) (A) (A) (A) (A)
                 (A) (A) (A) (A) (A) (A) (A) (A) (A) (A) (A) (A)
                 (A) (A) (A) (A) (A) (A) (A) (A) (A) (A) (A) (A)
                 (A) (A) (A) (A) (A) (A) (A) (A) (A) (A) (A) (A)
                 (A) (A) (A) (A) (A) (A) (A) (A) (A) (A) (A) (A)
                 (A) (A) (A) (A) (A) (A) (A) (A) (A) (A) (A) (A)
                 (A) (A) (A) (A) (A) (A) (A) (A) (A) (A) (A) (A)
                 (A) (A) (A) (A) (A) (A) (A) (A) (A) (A) (A) (A)
                 (A) (A) (A) (A) (A) (A) (A) (A) (A) (A) (A) (A)
                 (A) (A) (A) (A) (A) (A) (A) (A) (A) (A) (A) (A)
                 (A) (A) (A) (A) (A) (A) (A) (A) (A) (A) (A) (A)
                 (A) (A) (A) (A) (A) (A) (A) (A) (A) (A) (A) (A)
                 (A) (A) (A) (A) (A) (A) (A) (A) (A) (A) (A) (A)
                 (A) (A) (A) (A) (A) (A) (A) (A) (A) (A) (A) (A)
                 (A) (A) (A) (A) (A) (A) (A) (A) (A) (A) (A) (A)
                 (A) (A) (A) (A) (A) (A) (A) (A) (A) (A) (A) (A)
                 (A) (A) (A) (A) (A) (A) (A) (A) (A) (A) (A) (A)
                 (A) (A) (A) (A) (A) (A) (A) (A) (A) (A) (A) (A)
                 (A) (A) (A) (A) (A) (A) (A) (A) (A) (A) (A) (A)
                 (A) (A) (A) (A) (A) (A) (A) (A) (A) (A) (A) (A)
                 (A) (A) (A) (A) (A) (A) (A) (A) (A) (A) (A) (A)
                 (A) (A) (A) (A) (A) (A) (A) (A) (A) (A) (A) (A)
                 (A) (A) (A) (A) (A) (A) (A) (A) (A) (A) (A) (A)
                 (A) (A) (A) (A) (A) (A) (A) (A) (A) (A) (A) (A)
                 (A) (A) (A) (A) (A) (A) (A) (A) (A) (A) (A) (A)
                 (A) (A) (A) (A) (A) (A) (A) (A) (A) (A) (A) (A)
                 (A) (A) (A) (A) (A) (A) (A) (A) (A) (A) (A) (A)
                 (A) (A) (A) (A) (A) (A) (A) (A) (A) (A) (A) (A)
                 (A) (A) (A) (A) (A) (A) (A) (A) (A) (A) (A) (A)
                 (A) (A) (A) (A) (A) (A) (A) (A) (A) (A) (A) (A)
                 (A) (A) (A) (A) (A) (A) (A) (A) (A) (A) (A) (A)
                 (A) (A) (A) (A) (A) (A) (A) (A) (A) (A) (A) (A)
                 (A) (A) (A) (A) (A) (A) (A) (A) (A) (A) (A) (A)
                 (A) (A) (A) (A) (A) (A) (A) (A) (A) (A) (A) (A)
                 (A) (A) (A) (A) (A) (A) (A) (A) (A) (A) (A) (A)
                 (A) (A) (A) (A) (A) (A) (A) (A) (A) (A) (A) (A)
                 (A) (A) (A) (A) (A) (A) (A) (A) (A) (A) (A) (A)
                 (A) (A) (A) (A) (A) (A) (A) (A) (A) (A) (A) (A)
                 (A) (A) (A) (A) (A) (A) (A) (A) (A) (A) (A) (A)
                 (A) (A) (A) (A) (A) (A) (A) (A) (A) (A) (A) (A)
                 (A) (A) (A) (A) (A) (A) (A) (A) (A) (A) (A) (A)
                 (A) (A) (A) (A) (A) (A) (A) (A) (A) (A) (A) (A)
                 (A) (A) (A) (A) (A) (A) (A) (A) (A) (A) (A) (A)
                 (A) (A) (A) (A) (A) (A) (A) (A) (A) (A) (A) (A)
                 (A) (A) (A) (A) (A) (A) (A) (A) (A) (A) (A) (A)
                 (A) (A) (A) (A) (A) (A) (A) (A) (A) (A) (A) (A)
                 (A) (A) (A) (A) (A) (A) (A) (A) (A) (A) (A) (A)
                 (A) (A) (A) (A) (A) (A) (A) (A) (A) (A) (A) (A)
                 (A) (A) (A) (A) (A) (A) (A) (A) (A) (A) (A) (A)
                 (A) (A) (A) (A) (A) (A) (A) (A) (A) (A) (A)
 The electronic state of the initial guess is 1-A.
 Requested convergence on RMS density matrix=1.00D-08 within 128 cycles.
 Requested convergence on MAX density matrix=1.00D-06.
 Requested convergence on             energy=1.00D-06.
 No special actions if energy rises.
 SCF Done:  E(RB3LYP) =  -1297.98013720     A.U. after   14 cycles
             Convg  =    0.1041D-08             -V/T =  2.0067
 Range of M.O.s used for correlation:     1   846
 NBasis=   846 NAE=    91 NBE=    91 NFC=     0 NFV=     0
 NROrb=    846 NOA=    91 NOB=    91 NVA=   755 NVB=   755

 **** Warning!!: The largest alpha MO coefficient is  0.95815422D+02

          Differentiating once with respect to electric field.
                with respect to dipole field.
          Electric field/nuclear overlap derivatives assumed to be zero.
          There are     3 degrees of freedom in the 1st order CPHF.  IDoFFX=0.
      3 vectors produced by pass  0 Test12= 2.29D-12 3.33D-08 XBig12= 1.22D+02 1.28D+00.
 AX will form     3 AO Fock derivatives at one time.
      3 vectors produced by pass  1 Test12= 2.29D-12 3.33D-08 XBig12= 2.32D+01 3.96D-01.
      3 vectors produced by pass  2 Test12= 2.29D-12 3.33D-08 XBig12= 9.63D+00 1.93D-01.
      3 vectors produced by pass  3 Test12= 2.29D-12 3.33D-08 XBig12= 1.12D+00 7.36D-02.
      3 vectors produced by pass  4 Test12= 2.29D-12 3.33D-08 XBig12= 3.73D-01 4.16D-02.
      3 vectors produced by pass  5 Test12= 2.29D-12 3.33D-08 XBig12= 6.48D-02 1.55D-02.
      3 vectors produced by pass  6 Test12= 2.29D-12 3.33D-08 XBig12= 2.02D-02 1.14D-02.
      3 vectors produced by pass  7 Test12= 2.29D-12 3.33D-08 XBig12= 3.70D-03 7.32D-03.
      3 vectors produced by pass  8 Test12= 2.29D-12 3.33D-08 XBig12= 7.49D-04 3.03D-03.
      3 vectors produced by pass  9 Test12= 2.29D-12 3.33D-08 XBig12= 1.76D-04 1.59D-03.
      3 vectors produced by pass 10 Test12= 2.29D-12 3.33D-08 XBig12= 5.79D-05 7.89D-04.
      3 vectors produced by pass 11 Test12= 2.29D-12 3.33D-08 XBig12= 1.18D-05 4.85D-04.
      3 vectors produced by pass 12 Test12= 2.29D-12 3.33D-08 XBig12= 1.18D-06 1.47D-04.
      3 vectors produced by pass 13 Test12= 2.29D-12 3.33D-08 XBig12= 2.64D-07 3.19D-05.
      3 vectors produced by pass 14 Test12= 2.29D-12 3.33D-08 XBig12= 6.84D-08 2.22D-05.
      3 vectors produced by pass 15 Test12= 2.29D-12 3.33D-08 XBig12= 1.43D-08 9.10D-06.
      3 vectors produced by pass 16 Test12= 2.29D-12 3.33D-08 XBig12= 1.52D-09 3.57D-06.
      3 vectors produced by pass 17 Test12= 2.29D-12 3.33D-08 XBig12= 2.56D-10 1.47D-06.
      3 vectors produced by pass 18 Test12= 2.29D-12 3.33D-08 XBig12= 2.82D-11 3.63D-07.
      3 vectors produced by pass 19 Test12= 2.29D-12 3.33D-08 XBig12= 7.52D-12 1.79D-07.
      3 vectors produced by pass 20 Test12= 2.29D-12 3.33D-08 XBig12= 7.08D-12 2.63D-07.
      3 vectors produced by pass 21 Test12= 2.29D-12 3.33D-08 XBig12= 4.75D-12 1.35D-07.
      1 vectors produced by pass 22 Test12= 2.29D-12 3.33D-08 XBig12= 1.44D-12 6.36D-08.
 Inverted reduced A of dimension    67 with in-core refinement.
 End of Minotr Frequency-dependent properties file   721 does not exist.
 End of Minotr Frequency-dependent properties file   722 does not exist.
 Symmetrizing basis deriv contribution to polar:
 IMax=3 JMax=2 DiffMx= 0.00D+00
 G2DrvN: will do     8 centers at a time, making    6 passes doing MaxLOS=3.
 Calling FoFCou, ICntrl=  3107 FMM=F I1Cent=   0 AccDes= 0.00D+00.
 Calling FoFCou, ICntrl=  3107 FMM=F I1Cent=   0 AccDes= 0.00D+00.
 Calling FoFCou, ICntrl=  3107 FMM=F I1Cent=   0 AccDes= 0.00D+00.
 Calling FoFCou, ICntrl=  3107 FMM=F I1Cent=   0 AccDes= 0.00D+00.
 Calling FoFCou, ICntrl=  3107 FMM=F I1Cent=   0 AccDes= 0.00D+00.
 Calling FoFCou, ICntrl=  3107 FMM=F I1Cent=   0 AccDes= 0.00D+00.
 FoFDir/FoFCou used for L=0 through L=3.
 End of G2Drv Frequency-dependent properties file   721 does not exist.
 End of G2Drv Frequency-dependent properties file   722 does not exist.
          IDoAtm=111111111111111111111111111111111111111111111
          Differentiating once with respect to electric field.
                with respect to dipole field.
          Differentiating once with respect to nuclear coordinates.
          There are   138 degrees of freedom in the 1st order CPHF.  IDoFFX=5.
 Will reuse    3 saved solutions.
    135 vectors produced by pass  0 Test12= 6.87D-14 1.00D-09 XBig12= 1.74D-01 7.55D-02.
 AX will form    27 AO Fock derivatives at one time.
    135 vectors produced by pass  1 Test12= 6.87D-14 1.00D-09 XBig12= 2.07D-02 1.40D-02.
    132 vectors produced by pass  2 Test12= 6.87D-14 1.00D-09 XBig12= 1.94D-04 1.68D-03.
    132 vectors produced by pass  3 Test12= 6.87D-14 1.00D-09 XBig12= 9.24D-07 8.09D-05.
    132 vectors produced by pass  4 Test12= 6.87D-14 1.00D-09 XBig12= 2.03D-09 2.99D-06.
    132 vectors produced by pass  5 Test12= 6.87D-14 1.00D-09 XBig12= 6.10D-12 1.46D-07.
     93 vectors produced by pass  6 Test12= 6.87D-14 1.00D-09 XBig12= 2.60D-13 2.41D-08.
      2 vectors produced by pass  7 Test12= 6.87D-14 1.00D-09 XBig12= 1.46D-15 3.64D-09.
 Inverted reduced A of dimension   893 with in-core refinement.
 Isotropic polarizability for W=    0.000000      193.41 Bohr**3.
 End of Minotr Frequency-dependent properties file   721 does not exist.
 End of Minotr Frequency-dependent properties file   722 does not exist.

 **********************************************************************

            Population analysis using the SCF density.

 **********************************************************************

 Orbital symmetries:
       Occupied  (A) (A) (A) (A) (A) (A) (A) (A) (A) (A) (A) (A)
                 (A) (A) (A) (A) (A) (A) (A) (A) (A) (A) (A) (A)
                 (A) (A) (A) (A) (A) (A) (A) (A) (A) (A) (A) (A)
                 (A) (A) (A) (A) (A) (A) (A) (A) (A) (A) (A) (A)
                 (A) (A) (A) (A) (A) (A) (A) (A) (A) (A) (A) (A)
                 (A) (A) (A) (A) (A) (A) (A) (A) (A) (A) (A) (A)
                 (A) (A) (A) (A) (A) (A) (A) (A) (A) (A) (A) (A)
                 (A) (A) (A) (A) (A) (A) (A)
       Virtual   (A) (A) (A) (A) (A) (A) (A) (A) (A) (A) (A) (A)
                 (A) (A) (A) (A) (A) (A) (A) (A) (A) (A) (A) (A)
                 (A) (A) (A) (A) (A) (A) (A) (A) (A) (A) (A) (A)
                 (A) (A) (A) (A) (A) (A) (A) (A) (A) (A) (A) (A)
                 (A) (A) (A) (A) (A) (A) (A) (A) (A) (A) (A) (A)
                 (A) (A) (A) (A) (A) (A) (A) (A) (A) (A) (A) (A)
                 (A) (A) (A) (A) (A) (A) (A) (A) (A) (A) (A) (A)
                 (A) (A) (A) (A) (A) (A) (A) (A) (A) (A) (A) (A)
                 (A) (A) (A) (A) (A) (A) (A) (A) (A) (A) (A) (A)
                 (A) (A) (A) (A) (A) (A) (A) (A) (A) (A) (A) (A)
                 (A) (A) (A) (A) (A) (A) (A) (A) (A) (A) (A) (A)
                 (A) (A) (A) (A) (A) (A) (A) (A) (A) (A) (A) (A)
                 (A) (A) (A) (A) (A) (A) (A) (A) (A) (A) (A) (A)
                 (A) (A) (A) (A) (A) (A) (A) (A) (A) (A) (A) (A)
                 (A) (A) (A) (A) (A) (A) (A) (A) (A) (A) (A) (A)
                 (A) (A) (A) (A) (A) (A) (A) (A) (A) (A) (A) (A)
                 (A) (A) (A) (A) (A) (A) (A) (A) (A) (A) (A) (A)
                 (A) (A) (A) (A) (A) (A) (A) (A) (A) (A) (A) (A)
                 (A) (A) (A) (A) (A) (A) (A) (A) (A) (A) (A) (A)
                 (A) (A) (A) (A) (A) (A) (A) (A) (A) (A) (A) (A)
                 (A) (A) (A) (A) (A) (A) (A) (A) (A) (A) (A) (A)
                 (A) (A) (A) (A) (A) (A) (A) (A) (A) (A) (A) (A)
                 (A) (A) (A) (A) (A) (A) (A) (A) (A) (A) (A) (A)
                 (A) (A) (A) (A) (A) (A) (A) (A) (A) (A) (A) (A)
                 (A) (A) (A) (A) (A) (A) (A) (A) (A) (A) (A) (A)
                 (A) (A) (A) (A) (A) (A) (A) (A) (A) (A) (A) (A)
                 (A) (A) (A) (A) (A) (A) (A) (A) (A) (A) (A) (A)
                 (A) (A) (A) (A) (A) (A) (A) (A) (A) (A) (A) (A)
                 (A) (A) (A) (A) (A) (A) (A) (A) (A) (A) (A) (A)
                 (A) (A) (A) (A) (A) (A) (A) (A) (A) (A) (A) (A)
                 (A) (A) (A) (A) (A) (A) (A) (A) (A) (A) (A) (A)
                 (A) (A) (A) (A) (A) (A) (A) (A) (A) (A) (A) (A)
                 (A) (A) (A) (A) (A) (A) (A) (A) (A) (A) (A) (A)
                 (A) (A) (A) (A) (A) (A) (A) (A) (A) (A) (A) (A)
                 (A) (A) (A) (A) (A) (A) (A) (A) (A) (A) (A) (A)
                 (A) (A) (A) (A) (A) (A) (A) (A) (A) (A) (A) (A)
                 (A) (A) (A) (A) (A) (A) (A) (A) (A) (A) (A) (A)
                 (A) (A) (A) (A) (A) (A) (A) (A) (A) (A) (A) (A)
                 (A) (A) (A) (A) (A) (A) (A) (A) (A) (A) (A) (A)
                 (A) (A) (A) (A) (A) (A) (A) (A) (A) (A) (A) (A)
                 (A) (A) (A) (A) (A) (A) (A) (A) (A) (A) (A) (A)
                 (A) (A) (A) (A) (A) (A) (A) (A) (A) (A) (A) (A)
                 (A) (A) (A) (A) (A) (A) (A) (A) (A) (A) (A) (A)
                 (A) (A) (A) (A) (A) (A) (A) (A) (A) (A) (A) (A)
                 (A) (A) (A) (A) (A) (A) (A) (A) (A) (A) (A) (A)
                 (A) (A) (A) (A) (A) (A) (A) (A) (A) (A) (A) (A)
                 (A) (A) (A) (A) (A) (A) (A) (A) (A) (A) (A) (A)
                 (A) (A) (A) (A) (A) (A) (A) (A) (A) (A) (A) (A)
                 (A) (A) (A) (A) (A) (A) (A) (A) (A) (A) (A) (A)
                 (A) (A) (A) (A) (A) (A) (A) (A) (A) (A) (A) (A)
                 (A) (A) (A) (A) (A) (A) (A) (A) (A) (A) (A) (A)
                 (A) (A) (A) (A) (A) (A) (A) (A) (A) (A) (A) (A)
                 (A) (A) (A) (A) (A) (A) (A) (A) (A) (A) (A) (A)
                 (A) (A) (A) (A) (A) (A) (A) (A) (A) (A) (A) (A)
                 (A) (A) (A) (A) (A) (A) (A) (A) (A) (A) (A) (A)
                 (A) (A) (A) (A) (A) (A) (A) (A) (A) (A) (A) (A)
                 (A) (A) (A) (A) (A) (A) (A) (A) (A) (A) (A) (A)
                 (A) (A) (A) (A) (A) (A) (A) (A) (A) (A) (A) (A)
                 (A) (A) (A) (A) (A) (A) (A) (A) (A) (A) (A) (A)
                 (A) (A) (A) (A) (A) (A) (A) (A) (A) (A) (A) (A)
                 (A) (A) (A) (A) (A) (A) (A) (A) (A) (A) (A) (A)
                 (A) (A) (A) (A) (A) (A) (A) (A) (A) (A) (A) (A)
                 (A) (A) (A) (A) (A) (A) (A) (A) (A) (A) (A)
 The electronic state is 1-A.
 Alpha  occ. eigenvalues --  -19.20396 -19.20032 -19.18607 -19.17860 -19.16929
 Alpha  occ. eigenvalues --  -19.16759 -19.15308 -19.15178 -19.15042 -19.14654
 Alpha  occ. eigenvalues --  -19.13790 -10.32019 -10.28542 -10.28404 -10.27183
 Alpha  occ. eigenvalues --  -10.26955 -10.26712 -10.25520 -10.25010 -10.24662
 Alpha  occ. eigenvalues --  -10.23253 -10.22853 -10.22759  -1.11054  -1.08118
 Alpha  occ. eigenvalues --   -1.06488  -1.05751  -1.03862  -1.03228  -1.02917
 Alpha  occ. eigenvalues --   -1.02523  -1.01111  -1.00195  -0.99611  -0.83316
 Alpha  occ. eigenvalues --   -0.82556  -0.78578  -0.77523  -0.72710  -0.69910
 Alpha  occ. eigenvalues --   -0.67946  -0.65038  -0.63942  -0.62586  -0.61101
 Alpha  occ. eigenvalues --   -0.59585  -0.58066  -0.56971  -0.55402  -0.54081
 Alpha  occ. eigenvalues --   -0.53770  -0.53471  -0.52835  -0.52052  -0.51549
 Alpha  occ. eigenvalues --   -0.51050  -0.49703  -0.48260  -0.47854  -0.47489
 Alpha  occ. eigenvalues --   -0.46127  -0.45503  -0.44364  -0.43873  -0.43292
 Alpha  occ. eigenvalues --   -0.43155  -0.42255  -0.41110  -0.40294  -0.39815
 Alpha  occ. eigenvalues --   -0.39221  -0.37675  -0.37100  -0.36806  -0.36052
 Alpha  occ. eigenvalues --   -0.35576  -0.34531  -0.34005  -0.33688  -0.33382
 Alpha  occ. eigenvalues --   -0.31785  -0.31459  -0.30987  -0.30307  -0.29724
 Alpha  occ. eigenvalues --   -0.29573  -0.28977  -0.27979  -0.27217  -0.26722
 Alpha  occ. eigenvalues --   -0.26106
 Alpha virt. eigenvalues --   -0.04498  -0.02173  -0.00945  -0.00264  -0.00011
 Alpha virt. eigenvalues --    0.00970   0.01225   0.02131   0.02732   0.03009
 Alpha virt. eigenvalues --    0.03714   0.04349   0.04847   0.05258   0.05779
 Alpha virt. eigenvalues --    0.06028   0.06225   0.07060   0.07572   0.07900
 Alpha virt. eigenvalues --    0.08002   0.08964   0.09128   0.09294   0.09739
 Alpha virt. eigenvalues --    0.10092   0.10886   0.11120   0.11239   0.11992
 Alpha virt. eigenvalues --    0.12279   0.12452   0.12685   0.12981   0.13349
 Alpha virt. eigenvalues --    0.13537   0.14084   0.14457   0.14703   0.14789
 Alpha virt. eigenvalues --    0.15155   0.15796   0.15897   0.16706   0.16739
 Alpha virt. eigenvalues --    0.17568   0.17751   0.17864   0.18089   0.18187
 Alpha virt. eigenvalues --    0.18717   0.18905   0.19211   0.19615   0.19890
 Alpha virt. eigenvalues --    0.19984   0.20148   0.20430   0.20914   0.21175
 Alpha virt. eigenvalues --    0.21342   0.21758   0.21982   0.22216   0.22861
 Alpha virt. eigenvalues --    0.23094   0.23459   0.23661   0.23850   0.24472
 Alpha virt. eigenvalues --    0.24732   0.24871   0.25194   0.25683   0.25936
 Alpha virt. eigenvalues --    0.26222   0.26524   0.27034   0.27102   0.27419
 Alpha virt. eigenvalues --    0.27679   0.27862   0.28120   0.28491   0.28711
 Alpha virt. eigenvalues --    0.28847   0.29285   0.29744   0.29897   0.30255
 Alpha virt. eigenvalues --    0.31047   0.31062   0.31519   0.31556   0.31884
 Alpha virt. eigenvalues --    0.32120   0.32629   0.32799   0.33149   0.33626
 Alpha virt. eigenvalues --    0.34257   0.34577   0.34780   0.35143   0.35369
 Alpha virt. eigenvalues --    0.35938   0.36373   0.37104   0.37145   0.37611
 Alpha virt. eigenvalues --    0.37829   0.37974   0.38205   0.38547   0.38882
 Alpha virt. eigenvalues --    0.39613   0.40072   0.40324   0.40461   0.41150
 Alpha virt. eigenvalues --    0.41422   0.42268   0.42625   0.43046   0.43658
 Alpha virt. eigenvalues --    0.43858   0.44464   0.44657   0.45431   0.46136
 Alpha virt. eigenvalues --    0.46504   0.46846   0.47410   0.47877   0.48680
 Alpha virt. eigenvalues --    0.49637   0.51425   0.53579   0.55032   0.56237
 Alpha virt. eigenvalues --    0.57882   0.58314   0.59359   0.60712   0.61027
 Alpha virt. eigenvalues --    0.61825   0.62720   0.63512   0.64045   0.64155
 Alpha virt. eigenvalues --    0.65355   0.67344   0.67541   0.68211   0.68548
 Alpha virt. eigenvalues --    0.70448   0.70772   0.71520   0.72350   0.73030
 Alpha virt. eigenvalues --    0.73718   0.74208   0.75051   0.76263   0.76958
 Alpha virt. eigenvalues --    0.77791   0.78721   0.78789   0.80253   0.80912
 Alpha virt. eigenvalues --    0.81278   0.83581   0.83860   0.84051   0.84979
 Alpha virt. eigenvalues --    0.85269   0.86107   0.87277   0.88161   0.88363
 Alpha virt. eigenvalues --    0.89258   0.89499   0.89669   0.90476   0.90534
 Alpha virt. eigenvalues --    0.91341   0.91888   0.92375   0.92521   0.92849
 Alpha virt. eigenvalues --    0.93263   0.93926   0.94811   0.95219   0.95575
 Alpha virt. eigenvalues --    0.96177   0.96665   0.97063   0.97415   0.97731
 Alpha virt. eigenvalues --    0.98177   0.98547   0.99651   0.99875   1.00188
 Alpha virt. eigenvalues --    1.01242   1.01766   1.02768   1.03439   1.04324
 Alpha virt. eigenvalues --    1.05225   1.05472   1.05735   1.05868   1.06111
 Alpha virt. eigenvalues --    1.06686   1.07385   1.08044   1.08779   1.09414
 Alpha virt. eigenvalues --    1.10531   1.11029   1.12041   1.12825   1.13469
 Alpha virt. eigenvalues --    1.14480   1.14940   1.15626   1.16236   1.16817
 Alpha virt. eigenvalues --    1.17254   1.17633   1.17980   1.18671   1.18868
 Alpha virt. eigenvalues --    1.19315   1.20040   1.20368   1.20685   1.21198
 Alpha virt. eigenvalues --    1.21901   1.22317   1.22812   1.23258   1.23924
 Alpha virt. eigenvalues --    1.24197   1.25168   1.25508   1.26170   1.26582
 Alpha virt. eigenvalues --    1.27166   1.27229   1.27698   1.28151   1.28264
 Alpha virt. eigenvalues --    1.29494   1.30161   1.30594   1.30784   1.31522
 Alpha virt. eigenvalues --    1.31902   1.33499   1.33810   1.33916   1.35793
 Alpha virt. eigenvalues --    1.36352   1.36869   1.37414   1.38145   1.39115
 Alpha virt. eigenvalues --    1.39586   1.40085   1.40647   1.41435   1.42178
 Alpha virt. eigenvalues --    1.42852   1.43913   1.44666   1.45655   1.46252
 Alpha virt. eigenvalues --    1.47302   1.48031   1.48571   1.49444   1.49959
 Alpha virt. eigenvalues --    1.50611   1.50967   1.52242   1.53196   1.54359
 Alpha virt. eigenvalues --    1.54910   1.55214   1.55836   1.57783   1.57897
 Alpha virt. eigenvalues --    1.59568   1.60065   1.60441   1.62064   1.62802
 Alpha virt. eigenvalues --    1.63382   1.63614   1.66018   1.66233   1.67440
 Alpha virt. eigenvalues --    1.68262   1.69362   1.70452   1.71093   1.71658
 Alpha virt. eigenvalues --    1.72346   1.73642   1.74201   1.74858   1.75541
 Alpha virt. eigenvalues --    1.76884   1.78572   1.79525   1.80881   1.81444
 Alpha virt. eigenvalues --    1.82248   1.83028   1.83651   1.84430   1.85311
 Alpha virt. eigenvalues --    1.85642   1.86544   1.88358   1.89767   1.90903
 Alpha virt. eigenvalues --    1.91266   1.92652   1.93428   1.93706   1.94733
 Alpha virt. eigenvalues --    1.95659   1.96385   1.97872   1.98203   1.99391
 Alpha virt. eigenvalues --    2.00298   2.00424   2.02132   2.04155   2.05628
 Alpha virt. eigenvalues --    2.07389   2.09000   2.10072   2.11032   2.12453
 Alpha virt. eigenvalues --    2.13636   2.15312   2.16388   2.18086   2.18174
 Alpha virt. eigenvalues --    2.20815   2.22018   2.22622   2.23169   2.24101
 Alpha virt. eigenvalues --    2.26189   2.26815   2.28284   2.29483   2.31566
 Alpha virt. eigenvalues --    2.31876   2.33175   2.34438   2.38756   2.40384
 Alpha virt. eigenvalues --    2.42232   2.44703   2.47059   2.47991   2.48983
 Alpha virt. eigenvalues --    2.51635   2.51997   2.53742   2.53982   2.54870
 Alpha virt. eigenvalues --    2.55185   2.56551   2.57116   2.57917   2.59136
 Alpha virt. eigenvalues --    2.59893   2.60825   2.62403   2.64131   2.64643
 Alpha virt. eigenvalues --    2.64891   2.65998   2.68055   2.69062   2.69823
 Alpha virt. eigenvalues --    2.71058   2.73646   2.74707   2.76817   2.77750
 Alpha virt. eigenvalues --    2.78118   2.78518   2.79564   2.82050   2.82606
 Alpha virt. eigenvalues --    2.83209   2.85890   2.86492   2.86637   2.88012
 Alpha virt. eigenvalues --    2.89099   2.89702   2.90340   2.92343   2.93198
 Alpha virt. eigenvalues --    2.93722   2.94273   2.95724   2.96947   2.97438
 Alpha virt. eigenvalues --    2.97859   2.98503   3.00426   3.00979   3.01047
 Alpha virt. eigenvalues --    3.02002   3.02710   3.04600   3.05324   3.06036
 Alpha virt. eigenvalues --    3.07601   3.08735   3.09212   3.09882   3.11654
 Alpha virt. eigenvalues --    3.12679   3.13143   3.13422   3.14944   3.16804
 Alpha virt. eigenvalues --    3.18679   3.19333   3.20278   3.20681   3.23122
 Alpha virt. eigenvalues --    3.23486   3.24520   3.26422   3.27539   3.27819
 Alpha virt. eigenvalues --    3.28901   3.29254   3.31846   3.32446   3.33663
 Alpha virt. eigenvalues --    3.33987   3.34772   3.36171   3.37625   3.37986
 Alpha virt. eigenvalues --    3.38767   3.39053   3.40159   3.43438   3.44543
 Alpha virt. eigenvalues --    3.45475   3.47363   3.47953   3.49688   3.50610
 Alpha virt. eigenvalues --    3.53186   3.54031   3.55607   3.56659   3.58339
 Alpha virt. eigenvalues --    3.59477   3.60690   3.61733   3.63761   3.67058
 Alpha virt. eigenvalues --    3.67887   3.68367   3.70772   3.71488   3.73128
 Alpha virt. eigenvalues --    3.74599   3.75579   3.77294   3.78429   3.79795
 Alpha virt. eigenvalues --    3.80422   3.82026   3.82836   3.84986   3.85371
 Alpha virt. eigenvalues --    3.86873   3.87230   3.88328   3.90756   3.91706
 Alpha virt. eigenvalues --    3.94186   3.96892   3.98037   3.98529   4.02048
 Alpha virt. eigenvalues --    4.02564   4.05389   4.09421   4.11863   4.13324
 Alpha virt. eigenvalues --    4.13940   4.14705   4.14981   4.16219   4.18162
 Alpha virt. eigenvalues --    4.19043   4.19900   4.21136   4.22820   4.23320
 Alpha virt. eigenvalues --    4.23850   4.24839   4.27826   4.28348   4.28606
 Alpha virt. eigenvalues --    4.30506   4.31651   4.32244   4.32673   4.33527
 Alpha virt. eigenvalues --    4.36186   4.36441   4.36654   4.37686   4.39115
 Alpha virt. eigenvalues --    4.39904   4.39972   4.40909   4.41415   4.42135
 Alpha virt. eigenvalues --    4.43212   4.44504   4.45706   4.47177   4.47223
 Alpha virt. eigenvalues --    4.47943   4.48200   4.49530   4.50067   4.50325
 Alpha virt. eigenvalues --    4.50826   4.52230   4.52961   4.53385   4.54721
 Alpha virt. eigenvalues --    4.55129   4.55593   4.55946   4.56914   4.57398
 Alpha virt. eigenvalues --    4.57848   4.58213   4.59283   4.60413   4.61416
 Alpha virt. eigenvalues --    4.62465   4.62628   4.63269   4.63723   4.64057
 Alpha virt. eigenvalues --    4.65159   4.66083   4.66775   4.67093   4.67648
 Alpha virt. eigenvalues --    4.68366   4.69233   4.69380   4.70717   4.71301
 Alpha virt. eigenvalues --    4.71605   4.72136   4.72556   4.73331   4.74073
 Alpha virt. eigenvalues --    4.75237   4.75494   4.77063   4.77537   4.78538
 Alpha virt. eigenvalues --    4.79027   4.79781   4.81007   4.81563   4.82037
 Alpha virt. eigenvalues --    4.82467   4.83001   4.84294   4.84727   4.85801
 Alpha virt. eigenvalues --    4.86230   4.87105   4.88091   4.89104   4.90167
 Alpha virt. eigenvalues --    4.91236   4.91701   4.92775   4.95497   4.96227
 Alpha virt. eigenvalues --    4.96650   4.97162   4.98594   4.99414   4.99804
 Alpha virt. eigenvalues --    5.02481   5.03362   5.06445   5.09673   5.10116
 Alpha virt. eigenvalues --    5.10453   5.13171   5.13968   5.15239   5.17403
 Alpha virt. eigenvalues --    5.17556   5.19661   5.21581   5.22192   5.22595
 Alpha virt. eigenvalues --    5.23421   5.24146   5.24902   5.25694   5.26490
 Alpha virt. eigenvalues --    5.29770   5.30331   5.31445   5.32613   5.34106
 Alpha virt. eigenvalues --    5.34136   5.35913   5.36559   5.37758   5.39323
 Alpha virt. eigenvalues --    5.40643   5.41469   5.42309   5.42478   5.43010
 Alpha virt. eigenvalues --    5.43523   5.44024   5.45372   5.45491   5.46016
 Alpha virt. eigenvalues --    5.46967   5.47528   5.48523   5.48960   5.50184
 Alpha virt. eigenvalues --    5.51176   5.52779   5.53356   5.54278   5.56616
 Alpha virt. eigenvalues --    5.58411   5.60204   5.60508   5.61989   5.65587
 Alpha virt. eigenvalues --    5.67311   5.68222   5.70472   5.73383   5.73969
 Alpha virt. eigenvalues --    5.75085   5.76552   5.79309   5.80873   5.82454
 Alpha virt. eigenvalues --    5.83581   5.86292   5.87595   5.88966   5.89268
 Alpha virt. eigenvalues --    5.90739   5.91468   5.92924   5.93721   5.94558
 Alpha virt. eigenvalues --    5.94727   5.95626   5.96238   5.98151   5.98625
 Alpha virt. eigenvalues --    5.99725   6.01662   6.03045   6.03254   6.04689
 Alpha virt. eigenvalues --    6.05567   6.06281   6.08328   6.09485   6.09667
 Alpha virt. eigenvalues --    6.13398   6.16042   6.17268   6.18899   6.20833
 Alpha virt. eigenvalues --    6.26617   6.28336   6.31128   6.34483   6.39205
 Alpha virt. eigenvalues --    6.52947   6.59152   6.95238   6.99358   7.09013
 Alpha virt. eigenvalues --    7.10082   7.14101   7.16629   7.22452   7.27812
 Alpha virt. eigenvalues --    7.30159   7.34125   7.38015   7.54928   7.66038
 Alpha virt. eigenvalues --    7.71485   8.02399  11.94188  12.07733  12.18568
 Alpha virt. eigenvalues --   12.21510  12.41977  12.58063  12.78268  12.86748
 Alpha virt. eigenvalues --   13.00624  13.10804  13.21622  13.32804  13.33697
 Alpha virt. eigenvalues --   13.37784  13.40630  13.44460  13.56340  13.62718
 Alpha virt. eigenvalues --   13.67003  13.68902  13.91756  14.10028  14.42727
          Condensed to atoms (all electrons):
              1          2          3          4          5          6
     1  O    8.056107   0.242653   0.031429  -0.007069   0.011992   0.003486
     2  C    0.242653  10.123650  -2.532619   0.039765   0.017035  -1.197815
     3  C    0.031429  -2.532619   8.300030   0.193005  -0.044390   0.998072
     4  O   -0.007069   0.039765   0.193005   8.149222   0.243482  -0.099040
     5  H    0.011992   0.017035  -0.044390   0.243482   0.420669  -0.010902
     6  C    0.003486  -1.197815   0.998072  -0.099040  -0.010902   7.386310
     7  O   -0.000343  -0.001886   0.001096  -0.015744   0.001131   0.258845
     8  H   -0.000034   0.010550  -0.050166   0.012893  -0.000311  -0.012493
     9  C   -0.051835   0.197817  -0.262019   0.011322  -0.003027  -0.093294
    10  O   -0.000973   0.012510   0.003932   0.000012   0.000000  -0.001548
    11  H    0.000115  -0.004559   0.000533   0.000000   0.000000   0.000090
    12  C   -0.063044  -3.043229   1.150228  -0.000938   0.012820   0.036946
    13  O    0.001059   0.017041  -0.013599  -0.001169  -0.000010  -0.043721
    14  C   -0.022408   1.567899  -1.477856   0.001563   0.010796  -1.267098
    15  O   -0.000169  -0.036237  -0.008414   0.000839   0.000001  -0.116955
    16  C    0.000868   0.158748  -0.137119  -0.001625   0.000205   0.273945
    17  C   -0.001095  -0.056177  -0.041048   0.000768   0.000031  -0.119804
    18  O    0.000026   0.005635   0.000247  -0.000005   0.000000   0.001102
    19  H   -0.000017  -0.000325   0.005434   0.000004   0.000000  -0.000924
    20  C   -0.000029  -0.014166  -0.009602   0.000012   0.000002   0.008132
    21  O    0.000000  -0.000020   0.000045   0.000000   0.000000  -0.000082
    22  H    0.000000  -0.000055   0.000027   0.000000   0.000000   0.000265
    23  C    0.000004   0.005421   0.011445  -0.000128   0.000003  -0.042285
    24  O    0.000000   0.000035   0.000071  -0.000003   0.000000   0.001976
    25  H    0.000000  -0.000002   0.000033   0.000000   0.000000   0.000000
    26  C   -0.000052   0.024529  -0.094395   0.000989   0.000007  -0.075566
    27  O    0.000000   0.000161  -0.000324   0.000001   0.000000  -0.000605
    28  C    0.000003  -0.000218   0.000833   0.000005   0.000000  -0.001169
    29  O    0.000000   0.000017   0.000011   0.000000   0.000000  -0.000154
    30  H    0.000000   0.000000   0.000000   0.000000   0.000000   0.000004
    31  H    0.000000   0.000026  -0.000009   0.000000   0.000000   0.000077
    32  H    0.000000   0.000088  -0.000065   0.000000   0.000000   0.000410
    33  H    0.000000  -0.000651   0.001632  -0.000001   0.000000   0.007834
    34  H   -0.000001  -0.002493   0.006233   0.000010   0.000000  -0.008575
    35  H    0.000000  -0.000360   0.001716   0.000000   0.000000  -0.002615
    36  H    0.000000  -0.000021   0.002162  -0.000001   0.000000  -0.001472
    37  H    0.269453   0.022245  -0.028877   0.000118  -0.000891  -0.001768
    38  H   -0.001779   0.044940  -0.029697   0.000082  -0.000001   0.001543
    39  H    0.002388   0.052383  -0.003887  -0.000109  -0.000003   0.000482
    40  H    0.000000  -0.000749  -0.000522   0.000003   0.000000  -0.006901
    41  H   -0.006246   0.272061  -0.200404   0.000769  -0.000009  -0.017759
    42  H   -0.035401   0.565848  -0.252711   0.004630  -0.000901  -0.008268
    43  H   -0.005479   0.077625   0.286935  -0.023901  -0.000387  -0.213592
    44  H   -0.000265  -0.024697   0.060307   0.002770  -0.000130   0.268800
    45  H    0.000082  -0.028846  -0.004206   0.000657   0.000005  -0.013564
              7          8          9         10         11         12
     1  O   -0.000343  -0.000034  -0.051835  -0.000973   0.000115  -0.063044
     2  C   -0.001886   0.010550   0.197817   0.012510  -0.004559  -3.043229
     3  C    0.001096  -0.050166  -0.262019   0.003932   0.000533   1.150228
     4  O   -0.015744   0.012893   0.011322   0.000012   0.000000  -0.000938
     5  H    0.001131  -0.000311  -0.003027   0.000000   0.000000   0.012820
     6  C    0.258845  -0.012493  -0.093294  -0.001548   0.000090   0.036946
     7  O    8.067800   0.254355   0.000776  -0.000011   0.000000   0.011333
     8  H    0.254355   0.389048   0.000009   0.000000   0.000000  -0.002579
     9  C    0.000776   0.000009   6.555062   0.224447  -0.035922  -0.989665
    10  O   -0.000011   0.000000   0.224447   8.105745   0.247791  -0.080301
    11  H    0.000000   0.000000  -0.035922   0.247791   0.418612   0.031437
    12  C    0.011333  -0.002579  -0.989665  -0.080301   0.031437  10.161800
    13  O    0.000406  -0.000387  -0.060997   0.015083  -0.000249   0.093292
    14  C   -0.067490   0.030717  -0.129780   0.007124  -0.000882  -1.222518
    15  O    0.004204   0.000684   0.002268  -0.000321  -0.000003   0.034305
    16  C   -0.022756   0.001452  -0.068835   0.006257  -0.000118  -0.026699
    17  C   -0.001743  -0.000212   0.028763  -0.003545  -0.000137  -0.051550
    18  O    0.000129  -0.000002  -0.007169  -0.000022   0.000048   0.001598
    19  H   -0.000065   0.000000  -0.010517   0.001126  -0.000030   0.006710
    20  C    0.000211  -0.000029   0.020680  -0.000355  -0.000080  -0.012054
    21  O    0.000000   0.000000  -0.000498  -0.000024   0.000000   0.001087
    22  H    0.000000   0.000000  -0.000140  -0.000005   0.000000  -0.000042
    23  C   -0.003474   0.000597  -0.000175   0.000056   0.000000  -0.015358
    24  O    0.000024  -0.000011  -0.000013   0.000000   0.000000  -0.000109
    25  H    0.000014   0.000000   0.000000   0.000000   0.000000   0.000010
    26  C   -0.003306  -0.000182   0.022950   0.000172  -0.000023  -0.025379
    27  O   -0.000097   0.000001   0.000040   0.000003   0.000000   0.000265
    28  C   -0.000102  -0.000004  -0.001923   0.000107   0.000002   0.005978
    29  O   -0.000001   0.000000  -0.000010   0.000000   0.000000   0.000008
    30  H    0.000000   0.000000   0.000000   0.000000   0.000000  -0.000001
    31  H    0.000001   0.000000  -0.000015   0.000000   0.000000   0.000160
    32  H    0.000002   0.000000  -0.000118  -0.000001   0.000000   0.000360
    33  H   -0.000001   0.000000  -0.001320  -0.000007   0.000000  -0.000800
    34  H   -0.000658  -0.000001  -0.000024   0.000002   0.000000  -0.001473
    35  H   -0.000139   0.000000   0.000111   0.000000   0.000000   0.000062
    36  H    0.000237   0.000003  -0.000003   0.000000   0.000000  -0.000187
    37  H   -0.000014   0.000000   0.010156   0.000107  -0.000001  -0.010864
    38  H    0.000004   0.000000   0.630350  -0.049251  -0.001301  -0.309087
    39  H   -0.000005   0.000000   0.368044  -0.028596  -0.006743  -0.070897
    40  H   -0.001670  -0.000037   0.000056   0.000000   0.000000   0.000717
    41  H    0.000058  -0.000001   0.134883  -0.005519  -0.000078  -0.020734
    42  H    0.001145  -0.000011   0.014323  -0.000222  -0.000004  -0.124326
    43  H    0.007025   0.000084   0.006029   0.000020   0.000000   0.022825
    44  H   -0.030987  -0.002688   0.013967  -0.000003   0.000000   0.087483
    45  H    0.001374  -0.000253   0.011699  -0.000040   0.000000   0.067026
             13         14         15         16         17         18
     1  O    0.001059  -0.022408  -0.000169   0.000868  -0.001095   0.000026
     2  C    0.017041   1.567899  -0.036237   0.158748  -0.056177   0.005635
     3  C   -0.013599  -1.477856  -0.008414  -0.137119  -0.041048   0.000247
     4  O   -0.001169   0.001563   0.000839  -0.001625   0.000768  -0.000005
     5  H   -0.000010   0.010796   0.000001   0.000205   0.000031   0.000000
     6  C   -0.043721  -1.267098  -0.116955   0.273945  -0.119804   0.001102
     7  O    0.000406  -0.067490   0.004204  -0.022756  -0.001743   0.000129
     8  H   -0.000387   0.030717   0.000684   0.001452  -0.000212  -0.000002
     9  C   -0.060997  -0.129780   0.002268  -0.068835   0.028763  -0.007169
    10  O    0.015083   0.007124  -0.000321   0.006257  -0.003545  -0.000022
    11  H   -0.000249  -0.000882  -0.000003  -0.000118  -0.000137   0.000048
    12  C    0.093292  -1.222518   0.034305  -0.026699  -0.051550   0.001598
    13  O    7.911473   0.216907  -0.044126  -0.030364   0.057233  -0.029165
    14  C    0.216907   8.759904   0.305437  -0.890236   0.311922   0.050811
    15  O   -0.044126   0.305437   7.837522   0.226840  -0.099474  -0.007312
    16  C   -0.030364  -0.890236   0.226840  11.994787  -1.491005  -0.044628
    17  C    0.057233   0.311922  -0.099474  -1.491005   7.687347   0.182916
    18  O   -0.029165   0.050811  -0.007312  -0.044628   0.182916   8.172444
    19  H    0.037560   0.007798   0.000293  -0.008241  -0.006206   0.238310
    20  C    0.000274  -0.186718   0.004406  -1.579868  -0.304644  -0.014343
    21  O    0.000029   0.000100   0.000553   0.024998  -0.035068  -0.024025
    22  H    0.000045   0.001155   0.000068   0.010143  -0.068164   0.017418
    23  C   -0.000082   0.169144  -0.055342  -0.079901  -0.181980   0.006832
    24  O    0.000051  -0.005103  -0.001715   0.053820   0.003582   0.000020
    25  H    0.000001   0.000356   0.000118  -0.014200  -0.000286   0.000000
    26  C   -0.017243  -0.537248  -0.004592  -3.298446  -0.004815  -0.001336
    27  O   -0.000165   0.012391   0.006883   0.063096  -0.043384  -0.001452
    28  C   -0.000095   0.030202   0.012695   0.647025  -0.200864  -0.007546
    29  O   -0.000010   0.001124  -0.000076  -0.011727   0.012705   0.000202
    30  H    0.000000   0.000113   0.000003  -0.001429   0.000204  -0.000015
    31  H    0.000029  -0.000507   0.000684   0.035585   0.000556   0.001230
    32  H    0.000066  -0.006608   0.000488   0.049057  -0.052731   0.004607
    33  H   -0.000909   0.006660  -0.003869  -0.187563   0.376183  -0.033806
    34  H   -0.004244   0.005146  -0.031879   0.057948   0.020599  -0.003155
    35  H   -0.000495   0.040220  -0.000437   0.130618  -0.042349  -0.000016
    36  H    0.000042   0.019082  -0.000030   0.135684  -0.000316   0.000085
    37  H   -0.000359  -0.000464   0.000003   0.000093  -0.000022   0.000000
    38  H   -0.003987   0.009694  -0.000010  -0.002561   0.001742   0.000112
    39  H    0.002890   0.006249  -0.000120   0.001021  -0.000348  -0.000019
    40  H   -0.000095   0.019485   0.002103  -0.086738  -0.006831  -0.000030
    41  H   -0.047196   0.109911  -0.003559   0.004083   0.001172   0.001544
    42  H    0.000765   0.074691  -0.000517  -0.001036   0.000690   0.000015
    43  H    0.004613   0.073547   0.001880  -0.005002   0.002172   0.000042
    44  H    0.012362  -0.122128  -0.000910  -0.012800   0.000233   0.000063
    45  H   -0.029461   0.208009  -0.006776   0.039137  -0.010177   0.000559
             19         20         21         22         23         24
     1  O   -0.000017  -0.000029   0.000000   0.000000   0.000004   0.000000
     2  C   -0.000325  -0.014166  -0.000020  -0.000055   0.005421   0.000035
     3  C    0.005434  -0.009602   0.000045   0.000027   0.011445   0.000071
     4  O    0.000004   0.000012   0.000000   0.000000  -0.000128  -0.000003
     5  H    0.000000   0.000002   0.000000   0.000000   0.000003   0.000000
     6  C   -0.000924   0.008132  -0.000082   0.000265  -0.042285   0.001976
     7  O   -0.000065   0.000211   0.000000   0.000000  -0.003474   0.000024
     8  H    0.000000  -0.000029   0.000000   0.000000   0.000597  -0.000011
     9  C   -0.010517   0.020680  -0.000498  -0.000140  -0.000175  -0.000013
    10  O    0.001126  -0.000355  -0.000024  -0.000005   0.000056   0.000000
    11  H   -0.000030  -0.000080   0.000000   0.000000   0.000000   0.000000
    12  C    0.006710  -0.012054   0.001087  -0.000042  -0.015358  -0.000109
    13  O    0.037560   0.000274   0.000029   0.000045  -0.000082   0.000051
    14  C    0.007798  -0.186718   0.000100   0.001155   0.169144  -0.005103
    15  O    0.000293   0.004406   0.000553   0.000068  -0.055342  -0.001715
    16  C   -0.008241  -1.579868   0.024998   0.010143  -0.079901   0.053820
    17  C   -0.006206  -0.304644  -0.035068  -0.068164  -0.181980   0.003582
    18  O    0.238310  -0.014343  -0.024025   0.017418   0.006832   0.000020
    19  H    0.342213  -0.012598   0.001489  -0.000495  -0.001428   0.000000
    20  C   -0.012598   7.326757   0.274458   0.020717   0.039764  -0.001906
    21  O    0.001489   0.274458   8.050510   0.255275  -0.002184  -0.000003
    22  H   -0.000495   0.020717   0.255275   0.396618   0.000655   0.000000
    23  C   -0.001428   0.039764  -0.002184   0.000655   6.492881   0.246707
    24  O    0.000000  -0.001906  -0.000003   0.000000   0.246707   8.091964
    25  H    0.000000   0.000259   0.000000   0.000000  -0.067820   0.259466
    26  C   -0.012684   1.013073  -0.014454   0.006457  -1.218301  -0.114361
    27  O   -0.000011  -0.144921   0.001712   0.000070  -0.090149   0.002686
    28  C    0.005124  -0.352459  -0.069856   0.001957  -0.024775  -0.002363
    29  O    0.000015  -0.093961   0.003291  -0.000604   0.012528  -0.000047
    30  H    0.000000   0.017167  -0.001065   0.000024  -0.000353   0.000015
    31  H    0.000002  -0.122396   0.004530  -0.000338   0.002428  -0.000203
    32  H   -0.000132   0.291687  -0.030889  -0.002567   0.002885  -0.000010
    33  H   -0.000785   0.003608  -0.003723   0.000342   0.006880   0.000054
    34  H    0.000171   0.053538  -0.000187   0.000004   0.019387   0.000179
    35  H    0.000015  -0.020704   0.000142  -0.000004   0.116339  -0.001648
    36  H    0.000000  -0.001316   0.000004   0.000000   0.546951  -0.026786
    37  H    0.000000  -0.000001   0.000000   0.000000  -0.000001   0.000000
    38  H   -0.000070   0.000111   0.000000   0.000000   0.000011   0.000000
    39  H   -0.000008   0.000032   0.000000   0.000000   0.000005   0.000000
    40  H    0.000000   0.001678  -0.000004   0.000000   0.512151  -0.054301
    41  H   -0.001476   0.000652   0.000000   0.000000   0.000196   0.000000
    42  H   -0.000012   0.000019   0.000000   0.000000   0.000105   0.000000
    43  H   -0.000008   0.000080   0.000000   0.000000   0.000106   0.000000
    44  H   -0.000019   0.000967   0.000000   0.000000  -0.000960  -0.000006
    45  H   -0.001273   0.011995   0.000009   0.000000  -0.002593   0.000001
             25         26         27         28         29         30
     1  O    0.000000  -0.000052   0.000000   0.000003   0.000000   0.000000
     2  C   -0.000002   0.024529   0.000161  -0.000218   0.000017   0.000000
     3  C    0.000033  -0.094395  -0.000324   0.000833   0.000011   0.000000
     4  O    0.000000   0.000989   0.000001   0.000005   0.000000   0.000000
     5  H    0.000000   0.000007   0.000000   0.000000   0.000000   0.000000
     6  C    0.000000  -0.075566  -0.000605  -0.001169  -0.000154   0.000004
     7  O    0.000014  -0.003306  -0.000097  -0.000102  -0.000001   0.000000
     8  H    0.000000  -0.000182   0.000001  -0.000004   0.000000   0.000000
     9  C    0.000000   0.022950   0.000040  -0.001923  -0.000010   0.000000
    10  O    0.000000   0.000172   0.000003   0.000107   0.000000   0.000000
    11  H    0.000000  -0.000023   0.000000   0.000002   0.000000   0.000000
    12  C    0.000010  -0.025379   0.000265   0.005978   0.000008  -0.000001
    13  O    0.000001  -0.017243  -0.000165  -0.000095  -0.000010   0.000000
    14  C    0.000356  -0.537248   0.012391   0.030202   0.001124   0.000113
    15  O    0.000118  -0.004592   0.006883   0.012695  -0.000076   0.000003
    16  C   -0.014200  -3.298446   0.063096   0.647025  -0.011727  -0.001429
    17  C   -0.000286  -0.004815  -0.043384  -0.200864   0.012705   0.000204
    18  O    0.000000  -0.001336  -0.001452  -0.007546   0.000202  -0.000015
    19  H    0.000000  -0.012684  -0.000011   0.005124   0.000015   0.000000
    20  C    0.000259   1.013073  -0.144921  -0.352459  -0.093961   0.017167
    21  O    0.000000  -0.014454   0.001712  -0.069856   0.003291  -0.001065
    22  H    0.000000   0.006457   0.000070   0.001957  -0.000604   0.000024
    23  C   -0.067820  -1.218301  -0.090149  -0.024775   0.012528  -0.000353
    24  O    0.259466  -0.114361   0.002686  -0.002363  -0.000047   0.000015
    25  H    0.420583   0.064533  -0.000861   0.001437  -0.000014   0.000000
    26  C    0.064533  11.186562   0.213338  -0.830483  -0.027362  -0.000179
    27  O   -0.000861   0.213338   7.862941   0.252391  -0.033128   0.000733
    28  C    0.001437  -0.830483   0.252391   5.764110   0.342032  -0.027805
    29  O   -0.000014  -0.027362  -0.033128   0.342032   7.995139   0.267466
    30  H    0.000000  -0.000179   0.000733  -0.027805   0.267466   0.418550
    31  H    0.000000   0.008797  -0.042061   0.395564  -0.017777  -0.009188
    32  H    0.000000   0.031216  -0.001391  -0.033546  -0.000077  -0.000081
    33  H    0.000000   0.090190   0.000267  -0.028409   0.000448   0.000011
    34  H    0.000002   0.127717   0.000069  -0.007578  -0.000276   0.000001
    35  H   -0.000135   0.000176  -0.025725   0.035649   0.000447  -0.000006
    36  H   -0.009262  -0.368342   0.000651  -0.000986   0.000071   0.000000
    37  H    0.000000   0.000002   0.000000   0.000000   0.000000   0.000000
    38  H    0.000000   0.000442   0.000000  -0.000019   0.000000   0.000000
    39  H    0.000000   0.000026   0.000000  -0.000001   0.000000   0.000000
    40  H    0.000879  -0.062254   0.001821   0.003052  -0.000018   0.000000
    41  H    0.000000   0.002313   0.000001  -0.000092   0.000000   0.000000
    42  H    0.000000  -0.000033   0.000000  -0.000005   0.000000   0.000000
    43  H    0.000000  -0.000895   0.000000   0.000004   0.000000   0.000000
    44  H    0.000000  -0.004389  -0.000001   0.000139   0.000000   0.000000
    45  H    0.000000   0.022740   0.000142   0.000397  -0.000003   0.000000
             31         32         33         34         35         36
     1  O    0.000000   0.000000   0.000000  -0.000001   0.000000   0.000000
     2  C    0.000026   0.000088  -0.000651  -0.002493  -0.000360  -0.000021
     3  C   -0.000009  -0.000065   0.001632   0.006233   0.001716   0.002162
     4  O    0.000000   0.000000  -0.000001   0.000010   0.000000  -0.000001
     5  H    0.000000   0.000000   0.000000   0.000000   0.000000   0.000000
     6  C    0.000077   0.000410   0.007834  -0.008575  -0.002615  -0.001472
     7  O    0.000001   0.000002  -0.000001  -0.000658  -0.000139   0.000237
     8  H    0.000000   0.000000   0.000000  -0.000001   0.000000   0.000003
     9  C   -0.000015  -0.000118  -0.001320  -0.000024   0.000111  -0.000003
    10  O    0.000000  -0.000001  -0.000007   0.000002   0.000000   0.000000
    11  H    0.000000   0.000000   0.000000   0.000000   0.000000   0.000000
    12  C    0.000160   0.000360  -0.000800  -0.001473   0.000062  -0.000187
    13  O    0.000029   0.000066  -0.000909  -0.004244  -0.000495   0.000042
    14  C   -0.000507  -0.006608   0.006660   0.005146   0.040220   0.019082
    15  O    0.000684   0.000488  -0.003869  -0.031879  -0.000437  -0.000030
    16  C    0.035585   0.049057  -0.187563   0.057948   0.130618   0.135684
    17  C    0.000556  -0.052731   0.376183   0.020599  -0.042349  -0.000316
    18  O    0.001230   0.004607  -0.033806  -0.003155  -0.000016   0.000085
    19  H    0.000002  -0.000132  -0.000785   0.000171   0.000015   0.000000
    20  C   -0.122396   0.291687   0.003608   0.053538  -0.020704  -0.001316
    21  O    0.004530  -0.030889  -0.003723  -0.000187   0.000142   0.000004
    22  H   -0.000338  -0.002567   0.000342   0.000004  -0.000004   0.000000
    23  C    0.002428   0.002885   0.006880   0.019387   0.116339   0.546951
    24  O   -0.000203  -0.000010   0.000054   0.000179  -0.001648  -0.026786
    25  H    0.000000   0.000000   0.000000   0.000002  -0.000135  -0.009262
    26  C    0.008797   0.031216   0.090190   0.127717   0.000176  -0.368342
    27  O   -0.042061  -0.001391   0.000267   0.000069  -0.025725   0.000651
    28  C    0.395564  -0.033546  -0.028409  -0.007578   0.035649  -0.000986
    29  O   -0.017777  -0.000077   0.000448  -0.000276   0.000447   0.000071
    30  H   -0.009188  -0.000081   0.000011   0.000001  -0.000006   0.000000
    31  H    0.605044   0.005503   0.002062  -0.000096   0.004099  -0.000005
    32  H    0.005503   0.597406   0.005749   0.000644  -0.000088  -0.000019
    33  H    0.002062   0.005749   0.621634   0.007393   0.002218  -0.000003
    34  H   -0.000096   0.000644   0.007393   0.632866   0.006766   0.004415
    35  H    0.004099  -0.000088   0.002218   0.006766   0.631242   0.007063
    36  H   -0.000005  -0.000019  -0.000003   0.004415   0.007063   0.603542
    37  H    0.000000   0.000000   0.000000   0.000000   0.000000   0.000000
    38  H    0.000000   0.000000  -0.000001   0.000000   0.000000   0.000000
    39  H    0.000000   0.000000   0.000000   0.000000   0.000000   0.000000
    40  H   -0.000004  -0.000001  -0.000006   0.000232  -0.003363  -0.044784
    41  H    0.000000   0.000000  -0.000001  -0.000007   0.000000   0.000000
    42  H    0.000000   0.000000   0.000000   0.000000   0.000000   0.000000
    43  H    0.000000   0.000000   0.000000  -0.000006   0.000000   0.000000
    44  H    0.000000   0.000000  -0.000008  -0.000016  -0.000002   0.000001
    45  H    0.000000  -0.000002  -0.000030   0.004466  -0.000007   0.000012
             37         38         39         40         41         42
[...]
 026570,0.00016450,-0.00007214,0.00003585,-0.00005918,-0.00001145,-0.01
 378302,-0.00129304,0.00661844,0.00062164,0.00025550,0.00191678,-0.0000
 8233,-0.00084773,-0.00042067,0.00012564,0.00008318,0.00020554,0.000029
 68,0.00003678,-0.00006512,-0.00006766,-0.00002460,-0.00006585,0.000011
 14,-0.00004194,0.00015307,0.00005667,0.00009675,-0.00017476,0.00001189
 ,0.00001243,-0.00000402,0.00000692,-0.00001605,0.00001901,-0.00000357,
 0.00001775,-0.00001823,-0.00001561,-0.00001692,-0.00000553,0.00001892,
 0.00001961,0.00000985,-0.00000460,-0.00000306,0.00000157,-0.00002972,-
 0.00000198,-0.00001837,0.00001570,0.00000194,0.00002237,-0.00001977,-0
 .00000060,-0.00002678,0.00000424,-0.00000118,0.00002339,-0.00000292,0.
 00000243,-0.00000189,0.00000438,-0.00000044,0.00000197,0.00000305,-0.0
 0000204,-0.00000314,0.00001768,-0.00000081,0.00000894,0.00000266,-0.00
 000852,-0.00000013,0.00000740,-0.00000416,0.00000604,0.00000523,-0.000
 00230,-0.00000075,0.00101154,-0.00030144,-0.00033935,0.00047284,-0.001
 20741,-0.00005165,-0.00035275,-0.00011826,-0.00017592,-0.00000348,0.00
 000026,-0.00000053,0.00028236,-0.00139924,0.00135681,0.34441349,-0.003
 68182,0.00316133,-0.00085060,0.06700261,-0.05663799,-0.01624603,0.0329
 0829,-0.01507530,-0.01338750,-0.00029350,0.00497217,0.00016814,0.00059
 387,-0.00105296,0.00092487,0.00137325,0.00027262,0.00164613,-0.0008423
 5,-0.00003704,-0.00018642,0.00010699,-0.00006811,-0.00013473,-0.001852
 54,0.00125223,0.00029668,0.00072027,0.00054747,-0.00033232,0.00000786,
 -0.00005469,-0.00006932,-0.02648311,0.00326272,0.00869468,0.00113828,0
 .00063915,0.00005915,0.00011328,-0.00069959,0.00028991,0.00001060,0.00
 012028,-0.00003101,-0.00001480,0.00001181,0.00002573,-0.00001884,-0.00
 001886,-0.00003077,0.00002637,-0.00000214,0.00003219,-0.00002854,0.000
 01787,-0.00007366,0.00000398,0.00000474,0.00000571,0.00000462,0.000001
 70,-0.00000175,-0.00000437,0.00000529,-0.00000200,0.00000938,0.0000038
 3,0.00001304,-0.00001028,-0.00000693,-0.00001275,0.00000320,0.00000265
 ,0.00000246,0.00000302,-0.00000089,0.00000506,0.00000038,0.00000721,-0
 .00001048,-0.00000181,-0.00001028,0.00000845,0.00000185,0.00000164,-0.
 00000493,0.00000031,0.00000002,0.00000151,0.00000011,0.00000118,0.0000
 0013,-0.00000002,-0.00000128,-0.00000181,0.00000735,0.00000424,0.00000
 547,-0.00000298,-0.00000316,0.00000704,-0.00000118,0.00000242,-0.00000
 171,-0.00000575,0.00000154,0.00000234,-0.00018176,0.00128011,0.0005052
 6,0.00087903,0.00019186,0.00011093,-0.00010471,0.00006556,-0.00015219,
 0.00000646,-0.00000039,0.00000204,-0.00237422,-0.00326725,0.00310032,-
 0.06747014,0.06628467,-0.04472256,0.00406496,-0.01431619,0.07751102,-0
 .01967188,-0.05909254,0.01576411,-0.00444691,-0.00312699,-0.00156114,0
 .00187460,0.00102689,-0.00030263,-0.00004591,0.00024784,0.00127665,-0.
 00001169,0.00093174,-0.00048771,0.00011001,0.00000918,0.00005194,-0.00
 004549,-0.00001704,-0.00011248,-0.00211394,-0.00010459,-0.00026840,-0.
 00013944,0.00005395,-0.00005073,0.00000432,0.00003347,0.02732126,-0.00
 017624,-0.00629530,-0.00178264,-0.00038620,0.00042618,0.00033782,0.000
 35751,0.00021124,-0.00007736,-0.00000576,-0.00031989,-0.00007242,-0.00
 004083,0.00007383,0.00006479,0.00001665,0.00004944,-0.00005167,0.00000
 741,-0.00010299,0.00003877,-0.00002502,0.00012501,-0.00001619,-0.00001
 382,0.00001047,0.00000076,0.00002426,-0.00002366,-0.00000152,-0.000017
 87,0.00001976,0.00001816,0.00002324,0.00001265,-0.00002035,-0.00002584
 ,-0.00002171,0.00000321,0.00000486,0.00000166,0.00003402,0.00000479,0.
 00002662,-0.00001115,0.00000631,-0.00004123,0.00001607,-0.00001096,0.0
 0004033,-0.00000039,0.00000357,-0.00003452,0.00000256,-0.00000280,0.00
 000396,-0.00000357,0.00000112,-0.00000213,-0.00000247,0.00000157,0.000
 00284,-0.00001772,0.00000212,-0.00001041,-0.00000319,0.00000763,0.0000
 0599,-0.00000776,0.00000359,-0.00000688,-0.00000614,0.00000236,0.00000
 134,-0.00340846,0.00075694,0.00353800,-0.00072347,0.00058927,0.0001579
 3,-0.00015394,0.00019745,0.00027126,0.00000575,0.00000061,0.00000026,0
 .00121156,0.00352525,-0.00310764,-0.06840518,0.01833973,0.08060030,0.0
 0114682,0.00026085,0.00088312,-0.00065116,0.00138181,-0.00122722,-0.30
 212995,0.11071233,-0.00232142,-0.02220618,-0.00755749,0.01325473,-0.00
 122137,-0.00027025,-0.00071206,-0.01435729,0.00841295,-0.00293368,0.00
 176674,-0.00101211,0.00080615,-0.00027351,0.00011951,0.00026168,0.0002
 9037,0.00015015,-0.00025772,-0.00005474,0.00009316,0.00008661,0.000004
 29,0.00003118,-0.00001651,-0.00029871,0.00077830,0.00014324,0.00029581
 ,0.00011048,-0.00007527,-0.00119494,-0.00064550,0.00148551,0.00068336,
 -0.00029343,-0.00005521,0.00004794,0.00013092,-0.00017672,-0.00000938,
 -0.00000464,-0.00004693,0.00005149,-0.00002797,0.00002952,-0.00005901,
 0.00003300,0.00001715,-0.00000630,0.00001962,-0.00000336,0.00000685,-0
 .00001566,0.00000734,-0.00000307,0.00000955,-0.00000649,-0.00005001,-0
 .00000668,0.00000877,0.00003533,0.00001495,0.00000849,-0.00001319,-0.0
 0000325,0.00000108,-0.00002141,-0.00000966,-0.00001154,0.00001762,-0.0
 0000243,0.00001481,-0.00001253,0.00001066,-0.00002327,0.00000300,-0.00
 000363,0.00001675,-0.00000231,0.00000197,-0.00000243,0.00000446,-0.000
 00168,0.00000161,0.00000547,-0.00000235,-0.00000263,0.00000912,-0.0000
 0744,0.00000721,0.00000716,-0.00000603,-0.00004084,0.00000824,-0.00000
 935,0.00000960,0.00001870,-0.00000669,-0.00000793,0.00013194,-0.000187
 05,-0.00012471,-0.00002852,-0.00015122,-0.00002236,0.00002975,-0.00003
 465,0.00000910,-0.00000368,0.00000526,0.00000191,0.00040572,0.00017644
 ,-0.00011881,0.00079105,-0.00070709,-0.00069178,0.33561637,-0.00219376
 ,0.00306172,0.00144498,0.03340962,-0.01677574,-0.00211576,0.11207278,-
 0.08591769,-0.00418243,-0.02986682,0.00236952,0.00929116,-0.00090852,0
 .00016596,-0.00047749,-0.00090996,0.00133384,-0.00090201,0.00007788,0.
 00134958,0.00100819,-0.00024852,0.00002475,0.00023241,-0.00023305,-0.0
 0004792,-0.00005764,-0.00015747,-0.00026332,0.00003588,-0.00000782,-0.
 00000245,0.00002425,0.00149052,0.00189773,-0.00107164,-0.00042338,-0.0
 0008146,0.00035803,0.00159965,-0.00029929,0.00049905,-0.00030636,0.000
 07287,-0.00010828,0.00001611,-0.00003244,0.00005704,0.00000555,-0.0000
 0940,0.00000087,-0.00004389,0.00002662,0.00002057,0.00007300,-0.000021
 68,-0.00004392,0.00000051,-0.00000737,0.00000466,-0.00000392,0.0000129
 7,-0.00000278,0.00000404,-0.00000616,-0.00000044,0.00000668,0.00000579
 ,-0.00000405,-0.00000365,-0.00000747,0.00000283,-0.00000055,0.00000091
 ,-0.00000387,0.00000059,0.00001116,0.00001295,-0.00000681,-0.00000195,
 -0.00000911,0.00000495,-0.00000342,0.00000881,-0.00000129,0.00000132,-
 0.00000483,0.00000060,-0.00000081,0.00000029,-0.00000205,0.00000011,-0
 .00000091,-0.00000245,0.00000137,0.00000237,-0.00000601,0.00000368,-0.
 00000537,-0.00000487,0.00000968,0.00001205,-0.00000372,-0.00000169,-0.
 00000517,0.00000174,0.00000211,-0.00000190,-0.00001400,0.00028811,0.00
 046730,-0.00021905,0.00020847,0.00003783,0.00004288,0.00002273,0.00005
 716,-0.00000480,0.00000286,-0.00000258,-0.00093406,-0.00044524,0.00030
 802,0.00001384,-0.00547572,-0.00264417,-0.11151125,0.09803935,0.000017
 23,0.00186702,0.00152944,0.01236687,-0.01020695,0.00089584,-0.00305721
 ,-0.00369085,-0.04141797,0.02795017,0.00276519,-0.00565075,0.00183078,
 -0.00054880,0.00001253,-0.03286200,0.01503762,-0.00412142,0.00272913,-
 0.00029273,0.00256697,-0.00017610,-0.00019286,-0.00021679,-0.00022453,
 -0.00011235,0.00011430,-0.00000804,-0.00014717,-0.00002649,-0.00000901
 ,-0.00001889,0.00002084,0.00008289,0.00019363,-0.00067513,0.00039891,0
 .00018101,-0.00013661,-0.00259653,0.00008090,0.00058174,0.00041715,-0.
 00013597,0.00008468,0.00015264,-0.00000073,0.00007488,-0.00000871,-0.0
 0002034,-0.00003360,0.00002692,0.00000048,0.00001385,-0.00002944,0.000
 00456,0.00000278,-0.00000489,0.00000420,0.00000770,0.00000672,0.000009
 74,-0.00000511,-0.00000257,-0.00000154,-0.00000185,-0.00001918,0.00001
 339,0.00001813,0.00000833,-0.00001445,-0.00000559,-0.00000408,0.000002
 10,-0.00000378,-0.00002001,0.00000612,0.00003369,0.00001250,0.00000249
 ,-0.00001762,-0.00000633,-0.00000777,0.00001040,0.00000439,0.00000074,
 -0.00000819,-0.00000038,0.00000012,0.00000174,0.00000161,-0.00000048,0
 .00000055,0.00000162,0.00000031,-0.00000182,0.00000173,-0.00000709,0.0
 0000746,0.00004524,-0.00000022,-0.00006578,0.00000504,-0.00000975,0.00
 001012,0.00001560,-0.00000461,-0.00001099,0.00011117,0.00020463,0.0001
 2774,-0.00002373,0.00008287,-0.00000676,0.00001206,0.00000605,0.000032
 35,-0.00000731,0.00001930,-0.00000040,-0.00026954,-0.00005602,0.000105
 08,0.00045173,-0.00225531,-0.00087025,-0.00557514,-0.00235089,0.053486
 03,0.00037381,-0.00014244,-0.00003345,-0.00045345,0.00106961,0.0004378
 2,-0.01499404,0.00333742,-0.00156268,0.00212112,-0.00018647,0.00044051
 ,0.00012194,0.00002976,-0.00001401,-0.30466784,0.11445416,0.00161042,0
 .01013832,-0.00086962,-0.00035391,0.00061230,0.00026611,0.00052176,-0.
 00020060,-0.00004171,0.00006418,0.00010027,0.00005949,-0.00002308,-0.0
 0001534,-0.00002034,-0.00000629,-0.00066403,-0.00061164,-0.00037800,0.
 00286261,0.00057768,-0.00078149,-0.02243898,0.00736502,0.00003258,0.00
 174029,0.00040633,-0.00218114,0.00029525,0.00018021,0.00019432,0.00005
 329,0.00001008,-0.00015678,0.00011229,-0.00004844,-0.00011366,-0.00017
 777,0.00000110,0.00021029,-0.00001437,0.00003285,0.00004289,0.00002274
 ,0.00001761,-0.00003463,-0.00001534,-0.00000438,0.00000375,-0.00001980
 ,0.00003090,-0.00000982,0.00000700,-0.00003067,0.00000930,-0.00000294,
 0.00000109,-0.00001286,0.00000999,0.00001852,0.00006019,-0.00000076,-0
 .00003309,-0.00004472,-0.00000218,0.00001320,0.00002805,0.00000487,-0.
 00000736,-0.00002073,-0.00000018,0.00000228,0.00000270,0.00000439,-0.0
 0000143,0.00000097,0.00000932,-0.00000254,-0.00000838,0.00000869,-0.00
 002897,0.00002615,0.00017267,-0.00002586,-0.00023228,0.00001384,-0.000
 00911,0.00002287,0.00002153,-0.00001217,-0.00001393,-0.00001953,-0.000
 02654,-0.00008481,0.00009125,-0.00006818,-0.00002331,0.00002435,0.0000
 1630,0.00000424,-0.00000725,0.00002524,-0.00001123,0.00014373,0.000131
 53,0.00003894,0.00044000,-0.00068845,-0.00055624,0.00008587,-0.0004808
 7,-0.00221627,0.32498279,0.00000055,0.00004048,0.00022810,-0.00034168,
 -0.00008240,-0.00019045,0.00093437,0.00284089,0.00108915,-0.00000508,0
 .00018676,-0.00035098,-0.00004213,0.00003476,-0.00001504,0.11525636,-0
 .08582226,0.00449053,0.02527640,-0.03990665,-0.01136532,0.00133073,0.0
 0007455,-0.00072752,-0.00004609,0.00001483,-0.00002573,0.00000753,-0.0
 0001246,-0.00000639,-0.00000305,0.00000083,-0.00000292,-0.00015462,-0.
 00007069,-0.00007432,-0.00012138,0.00163722,0.00047579,-0.01823003,0.0
 0535508,0.00118338,0.00018364,0.00012607,-0.00093967,-0.00022275,0.000
 31356,-0.00008031,-0.00002313,-0.00002374,-0.00016432,0.00007041,-0.00
 009950,0.00009397,-0.00009392,0.00014444,0.00004050,0.00000758,0.00000
 988,-0.00000392,0.00000316,0.00000289,0.00002072,0.00000528,0.00001580
 ,-0.00001908,0.00000640,-0.00001827,0.00004355,-0.00002336,0.00003551,
 -0.00005340,0.00001038,-0.00000036,0.00003564,0.00003125,-0.00008874,-
 0.00003875,0.00001014,0.00005979,-0.00000105,-0.00000550,-0.00003151,-
 0.00001778,0.00000253,0.00001145,0.00001439,0.00000002,-0.00000264,-0.
 00000116,-0.00000054,0.00000336,0.00000107,0.00000222,-0.00000031,-0.0
 0000581,0.00001543,-0.00001235,0.00001411,0.00009984,-0.00009075,0.000
 10053,0.00000633,0.00003408,0.00001334,-0.00006040,0.00000075,0.000042
 42,0.00003859,0.00004477,0.00003471,0.00000854,-0.00002142,-0.00000179
 ,0.00001104,-0.00001886,-0.00000770,0.00008121,-0.00004451,0.00002930,
 0.00007150,0.00003844,0.00003680,-0.00004622,0.00032618,-0.00010741,-0
 .00016077,0.00044142,-0.00066719,-0.12250209,0.11663786,0.00057265,-0.
 00010100,-0.00009201,-0.00060779,0.00125286,0.00150238,-0.03522162,0.0
 1225388,-0.00477574,0.00106945,-0.00130179,0.00321895,0.00010073,-0.00
 015809,0.00030820,-0.00100185,0.00537755,-0.04176167,0.00955598,-0.016
 25551,0.00098072,0.00018129,0.00039938,-0.00002676,-0.00008017,-0.0000
 3266,0.00012317,0.00002386,-0.00001261,-0.00002387,-0.00000317,-0.0000
 0927,0.00000558,-0.00025337,-0.00018337,-0.00040754,-0.00197814,-0.001
 28368,0.00085761,0.02448137,-0.00603167,-0.00129824,-0.00013348,-0.000
 45453,0.00134102,0.00022655,-0.00034470,-0.00014068,-0.00000099,0.0000
 2441,0.00022644,-0.00008937,0.00006927,-0.00004077,0.00010083,-0.00009
 580,-0.00006456,-0.00000171,-0.00002394,-0.00002718,-0.00002313,-0.000
 03275,0.00001219,0.00000700,-0.00000246,0.00001248,0.00004806,-0.00001
 909,-0.00007695,-0.00002173,0.00004433,0.00003086,0.00000940,-0.000008
 36,0.00000978,0.00001118,-0.00000097,-0.00004830,-0.00005436,-0.000019
 14,0.00008753,0.00002827,0.00004343,-0.00002877,-0.00001522,-0.0000074
 0,0.00002309,0.00000153,-0.00000009,-0.00000558,-0.00000452,-0.0000004
 1,-0.00000234,-0.00000792,-0.00000028,0.00000934,-0.00002029,0.0000419
 5,-0.00001761,-0.00026138,0.00009816,-0.00002103,-0.00003880,0.0000247
 0,-0.00005893,-0.00004979,0.00001225,0.00003929,0.00001176,-0.00009010
 ,-0.00008462,0.00002134,-0.00003264,0.00000683,-0.00000477,0.00002800,
 0.00000467,0.00002211,-0.00005531,0.00004432,0.00013030,0.00002057,-0.
 00013883,0.00045834,-0.00051777,-0.00049227,-0.00228096,-0.00022394,-0
 .00585589,0.00344905,0.00507933,0.04874370,0.00006443,0.00004350,0.000
 04854,-0.00012569,0.00005349,0.00009988,-0.00108192,0.00040690,-0.0010
 3728,0.00068820,-0.00008418,-0.00007990,0.00005045,-0.00001586,0.00012
 111,-0.01445292,0.00748881,0.00114253,0.00119820,-0.00076918,-0.000492
 53,0.00006457,-0.00005679,-0.00014002,0.00007788,-0.00012559,0.0000378
 4,0.00002276,-0.00000675,0.00001200,-0.00000916,-0.00000286,-0.0000016
 7,0.00064451,0.00029201,0.00101754,0.00626666,0.00198557,-0.00029178,-
 0.33171214,0.08658067,0.03269350,-0.01386962,0.00470715,-0.00602359,0.
 00062323,-0.00088590,0.00277352,0.00013159,-0.00007430,-0.00033981,0.0
 0024064,-0.00026760,-0.00008495,-0.00034540,0.00020148,0.00035048,0.00
 002731,0.00004145,0.00007515,0.00003438,0.00006975,-0.00003434,-0.0000
 1550,0.00000072,-0.00002501,-0.00015215,0.00009688,0.00001050,0.000067
 10,-0.00005401,0.00000459,-0.00002340,-0.00000290,-0.00000962,0.000367
 93,-0.00010310,0.00009885,-0.00000799,-0.00001499,-0.00023279,-0.00003
 176,-0.00006813,0.00006482,0.00001915,0.00001097,-0.00004365,-0.000000
 79,0.00000085,0.00000774,0.00000792,0.00000328,0.00000149,0.00001457,0
 .00000233,-0.00001987,-0.00005868,-0.00014810,0.00011580,0.00115230,-0
 .00013053,-0.00119384,0.00008203,0.00002488,0.00022610,0.00009098,-0.0
 0004564,-0.00006207,0.00000221,0.00000544,0.00001150,-0.00004085,-0.00
 005391,-0.00006208,-0.00002884,0.00002439,0.00002148,-0.00001858,0.000
 06711,-0.00000705,-0.00023949,0.00046934,0.00075469,0.00000643,-0.0001
 5308,-0.00013917,0.00113383,-0.00032202,0.00047060,-0.00088012,-0.0013
 8868,0.00164350,0.35001572,0.00014732,0.00028616,-0.00016434,-0.000423
 24,-0.00076345,-0.00009528,-0.00076437,0.00023576,-0.00137406,0.000175
 40,-0.00020603,0.00049929,0.00009380,-0.00011111,0.00003899,-0.0184585
 6,0.00938371,0.00301852,0.00173171,0.00120332,-0.00077604,0.00030573,0
 .00011451,-0.00000504,-0.00042971,0.00020361,-0.00088415,-0.00006492,-
 0.00017441,0.00005344,-0.00000645,0.00005112,0.00000791,0.00255545,0.0
 0076071,0.00458726,0.02805532,-0.02338525,-0.00942767,0.08447359,-0.06
 945619,-0.00718008,0.00309691,0.00282500,0.00155021,0.00011657,-0.0003
 6206,-0.00042665,0.00020325,-0.00016338,0.00022893,-0.00056933,0.00041
 437,0.00019119,0.00127907,-0.00037141,-0.00101072,-0.00001599,-0.00002
 771,0.00003062,-0.00000060,0.00007123,-0.00003684,-0.00000137,-0.00004
 345,0.00001826,-0.00001813,0.00007217,-0.00000814,0.00000269,-0.000041
 87,-0.00001422,-0.00001073,0.00000343,-0.00000063,-0.00013673,0.000106
 57,0.00004721,-0.00000342,0.00002351,-0.00004001,0.00001368,-0.0000297
 1,0.00006263,0.00000332,0.00000730,-0.00004745,0.00000273,-0.00000438,
 0.00000628,-0.00000785,-0.00000051,-0.00000503,-0.00001635,0.00000425,
 0.00002409,-0.00006988,0.00003356,-0.00008188,-0.00012498,0.00002580,0
 .00048566,-0.00004176,-0.00003327,-0.00007835,0.00000812,-0.00000778,-
 0.00002698,-0.00002384,0.00000515,-0.00002922,-0.00009194,0.00021048,0
 .00018424,-0.00006910,-0.00032757,-0.00014279,-0.00001567,-0.00000826,
 0.00000179,-0.00118766,0.00020732,-0.00060438,0.00010965,-0.00002990,0
 .00000205,0.00018521,0.00004660,0.00026048,-0.00220413,-0.00208426,0.0
 0252927,-0.09780286,0.08133630,-0.00006538,-0.00000200,-0.00023420,-0.
 00001786,-0.00013178,-0.00017083,0.00169364,-0.00043484,0.00107599,-0.
 00052410,0.00015103,-0.00001324,-0.00006450,-0.00004068,0.00000807,0.0
 1669793,-0.00552134,0.00154063,-0.00066900,0.00095979,0.00019736,0.000
 00798,0.00005581,0.00014943,-0.00023255,-0.00001792,-0.00026616,-0.000
 02985,-0.00007369,0.00001801,0.00000341,0.00001566,0.00000038,0.001480
 17,0.00076078,0.00286574,0.01055953,-0.00886461,0.00020975,0.03792728,
 -0.00804488,-0.04874455,-0.03297753,0.01036359,-0.01045253,-0.00505468
 ,0.00033499,0.00567085,0.00009731,0.00004962,-0.00070722,0.00006979,-0
 .00006867,0.00041331,0.00012386,0.00029325,-0.00034531,0.00003163,0.00
 004363,0.00009454,0.00005553,0.00011970,-0.00001862,-0.00001234,0.0000
 0619,-0.00004563,-0.00006347,0.00009814,0.00010441,0.00001189,-0.00008
 508,-0.00008202,-0.00000996,0.00001263,-0.00000621,0.00002423,-0.00016
 084,0.00004664,0.00015964,0.00003512,-0.00028040,-0.00004479,-0.000150
 59,0.00009238,0.00003117,0.00003023,-0.00006431,0.00000017,-0.00000287
 ,0.00001295,0.00000405,0.00000393,0.00000679,0.00002710,0.00001065,-0.
 00004900,0.00011954,-0.00023275,0.00001437,0.00146427,-0.00069477,0.00
 001897,0.00025954,-0.00003084,0.00013054,0.00003913,-0.00005381,-0.000
 03156,-0.00002485,0.00000260,0.00000645,-0.00010108,0.00013223,0.00005
 748,-0.00003881,-0.00009520,-0.00003175,0.00003952,0.00008958,-0.00005
 172,-0.00077894,0.00031715,0.00001099,-0.00008922,0.00005609,0.0001040
 9,-0.00031941,0.00033249,-0.00060606,0.00167272,0.00180068,-0.00209802
 ,-0.03148272,0.00863163,0.05144923\\0.01044483,-0.01071312,-0.01721315
 ,-0.03801379,0.01649686,-0.00881241,-0.00287559,-0.03073699,0.03010476
 ,-0.00420797,0.00405007,0.03288126,0.00350973,-0.00623536,-0.03353914,
 -0.00000398,0.00661239,0.01840863,0.00641626,-0.00008583,0.01978568,0.
 01734422,0.02199155,-0.01599251,-0.03056013,0.02351202,0.01284892,0.01
 501131,0.00441552,-0.01043067,-0.00087931,-0.03678497,-0.01208739,0.07
 134229,0.02191680,-0.01070737,-0.00801971,-0.00825109,0.03884556,-0.06
 339414,0.02132487,-0.05884613,0.00797331,-0.01938207,-0.01056630,0.016
 94666,-0.02098703,0.02632706,-0.01148051,0.01335229,-0.00463961,-0.007
 67137,-0.03358848,0.01683788,0.00960125,0.01886666,-0.01603519,-0.0025
 4513,0.01206355,0.00829839,0.00924627,-0.00244646,0.01768088,-0.013883
 42,-0.00510108,-0.02567993,0.01241841,-0.03022304,0.02086409,-0.005129
 31,-0.00031285,-0.01996648,0.00033871,0.03909203,0.00990049,-0.0052439
 3,0.00668135,-0.04368427,-0.00089315,0.01071595,-0.00289305,0.02593945
 ,-0.00842947,-0.02600085,-0.00377670,0.00048748,0.02575310,-0.00260139
 ,-0.00220224,0.00010190,-0.01946781,0.00663171,-0.00043356,0.01754996,
 -0.00981525,-0.00486351,-0.02114735,0.01146517,-0.00094859,0.01930335,
 -0.01310725,0.00068514,-0.02088319,0.01161758,-0.00187894,0.01959943,-
 0.00677860,0.00572557,-0.00119756,0.00112423,-0.00089741,-0.02460578,0
 .00260074,-0.00014805,0.00324400,-0.00791494,0.01805019,-0.00735311,-0
 .00023941,0.01875239,0.02871646,-0.00323821,0.00482437,-0.02366391,0.0
 0133099,0.00361349,0.02158665,-0.00919452,0.00089991,-0.01567181,0.011
 99071,-0.00353792,0.01863749,-0.00257226,-0.00138723\\\@


 I WANT IT ALL - RICH, THIN, AND CHOCOLATE.
 Job cpu time:  3 days 21 hours 11 minutes 39.4 seconds.
 File lengths (MBytes):  RWF=   2351 Int=      0 D2E=      0 Chk=     43 Scr=      1
 Normal termination of Gaussian 09 at Tue Feb 16 08:54:39 2016.
Gaussian '09 finished on node026 at Tue Feb 16 08:54:39 EST 2016.
