Gaussian '09 started on node001 at Mon Feb  8 13:26:33 EST 2016.
 Entering Gaussian System, Link 0=/usr/local/gaussian/g09/g09
 Initial command:
 /usr/local/gaussian/g09/l1.exe /home/srmcgrat/thesis/gaussian/cellobiose/400/10000/1/2dfp/gaussian5698/Gau-5734.inp -scrdir=/home/srmcgrat/thesis/gaussian/cellobiose/400/10000/1/2dfp/gaussian5698/
 Entering Link 1 = /usr/local/gaussian/g09/l1.exe PID=      5736.
  
 Copyright (c) 1988,1990,1992,1993,1995,1998,2003,2009,2010,
            Gaussian, Inc.  All Rights Reserved.
  
 This is part of the Gaussian(R) 09 program.  It is based on
 the Gaussian(R) 03 system (copyright 2003, Gaussian, Inc.),
 the Gaussian(R) 98 system (copyright 1998, Gaussian, Inc.),
 the Gaussian(R) 94 system (copyright 1995, Gaussian, Inc.),
 the Gaussian 92(TM) system (copyright 1992, Gaussian, Inc.),
 the Gaussian 90(TM) system (copyright 1990, Gaussian, Inc.),
 the Gaussian 88(TM) system (copyright 1988, Gaussian, Inc.),
 the Gaussian 86(TM) system (copyright 1986, Carnegie Mellon
 University), and the Gaussian 82(TM) system (copyright 1983,
 Carnegie Mellon University). Gaussian is a federally registered
 trademark of Gaussian, Inc.
  
 This software contains proprietary and confidential information,
 including trade secrets, belonging to Gaussian, Inc.
  
 This software is provided under written license and may be
 used, copied, transmitted, or stored only in accord with that
 written license.
  
 The following legend is applicable only to US Government
 contracts under FAR:
  
                    RESTRICTED RIGHTS LEGEND
  
 Use, reproduction and disclosure by the US Government is
 subject to restrictions as set forth in subparagraphs (a)
 and (c) of the Commercial Computer Software - Restricted
 Rights clause in FAR 52.227-19.
  
 Gaussian, Inc.
 340 Quinnipiac St., Bldg. 40, Wallingford CT 06492
  
  
 ---------------------------------------------------------------
 Warning -- This program may not be used in any manner that
 competes with the business of Gaussian, Inc. or will provide
 assistance to any competitor of Gaussian, Inc.  The licensee
 of this program is prohibited from giving any competitor of
 Gaussian, Inc. access to this program.  By using this program,
 the user acknowledges that Gaussian, Inc. is engaged in the
 business of creating and licensing software in the field of
 computational chemistry and represents and warrants to the
 licensee that it is not a competitor of Gaussian, Inc. and that
 it will not use this program in any manner prohibited above.
 ---------------------------------------------------------------
  

 Cite this work as:
 Gaussian 09, Revision B.01,
 M. J. Frisch, G. W. Trucks, H. B. Schlegel, G. E. Scuseria, 
 M. A. Robb, J. R. Cheeseman, G. Scalmani, V. Barone, B. Mennucci, 
 G. A. Petersson, H. Nakatsuji, M. Caricato, X. Li, H. P. Hratchian, 
 A. F. Izmaylov, J. Bloino, G. Zheng, J. L. Sonnenberg, M. Hada, 
 M. Ehara, K. Toyota, R. Fukuda, J. Hasegawa, M. Ishida, T. Nakajima, 
 Y. Honda, O. Kitao, H. Nakai, T. Vreven, J. A. Montgomery, Jr., 
 J. E. Peralta, F. Ogliaro, M. Bearpark, J. J. Heyd, E. Brothers, 
 K. N. Kudin, V. N. Staroverov, T. Keith, R. Kobayashi, J. Normand, 
 K. Raghavachari, A. Rendell, J. C. Burant, S. S. Iyengar, J. Tomasi, 
 M. Cossi, N. Rega, J. M. Millam, M. Klene, J. E. Knox, J. B. Cross, 
 V. Bakken, C. Adamo, J. Jaramillo, R. Gomperts, R. E. Stratmann, 
 O. Yazyev, A. J. Austin, R. Cammi, C. Pomelli, J. W. Ochterski, 
 R. L. Martin, K. Morokuma, V. G. Zakrzewski, G. A. Voth, 
 P. Salvador, J. J. Dannenberg, S. Dapprich, A. D. Daniels, 
 O. Farkas, J. B. Foresman, J. V. Ortiz, J. Cioslowski, 
 and D. J. Fox, Gaussian, Inc., Wallingford CT, 2010.
 
 ******************************************
 Gaussian 09:  EM64L-G09RevB.01 12-Aug-2010
                 8-Feb-2016 
 ******************************************
 --------------------------------------------------
 # freq=raman b3lyp/6-31+g(2df,p) geom=connectivity
 --------------------------------------------------
 1/10=4,30=1,38=1,57=2/1,3;
 2/12=2,17=6,18=5,40=1/2;
 3/5=1,6=6,7=114,11=2,16=1,25=1,30=1,71=2,74=-5/1,2,3;
 4//1;
 5/5=2,38=5,98=1/2;
 8/6=4,10=90,11=11/1;
 10/13=10,15=4/2;
 11/6=3,8=1,9=11,15=111,16=1/1,2,10;
 10/6=1/2;
 6/7=2,8=2,9=2,10=2,18=1,28=1/1;
 7/8=1,10=1,25=1/1,2,3,16;
 1/10=4,30=1/3;
 99//99;
 -------------
 400 10000.com
 -------------
 Symbolic Z-matrix:
 Charge =  0 Multiplicity = 1
 O                     9.427     7.764     12.014 
 C                     10.131    7.75      13.264 
 C                     10.209    9.215     13.661 
 O                     10.957    10.047    12.762 
 H                     10.738    9.811     11.815 
 C                     10.591    9.481     15.108 
 O                     10.112    10.693    15.709 
 H                     10.552    10.832    16.597 
 C                     9.333     5.529     14.034 
 O                     9.177     4.883     12.763 
 H                     9.087     3.907     12.965 
 C                     9.338     7.019     14.335 
 O                     10.027    7.109     15.591 
 C                     9.919     8.472     16.026 
 O                     10.899    8.39      17.071 
 C                     10.414    8.137     18.397 
 C                     10.971    6.818     18.907 
 O                     10.706    5.757     17.978 
 H                     10.771    6.266     17.119 
 C                     10.284    6.411     20.201 
 O                     10.831    5.152     20.617 
 H                     10.404    4.961     21.501 
 C                     10.639    10.539    19.12 
 O                     11.497    11.227    18.198 
 H                     11.27     12.201    18.179 
 C                     10.92     9.087     19.47 
 O                     10.224    8.862     20.705 
 C                     10.447    7.537     21.209 
 O                     9.631     7.501     22.389 
 H                     10.1936   7.47728   23.16651 
 H                     11.46438   7.49968   21.5383 
 H                     9.24027   6.27934   20.00556 
 H                     12.02527   6.90588   19.0673 
 H                     9.34432   8.11116   18.40147 
 H                     11.97067   8.94531   19.61463 
 H                     10.6469   11.09339   20.03515 
 H                     9.64619   10.58354   18.72346 
 H                     10.05861   7.7721    11.29109 
 H                     8.94747   8.7556    16.37329 
 H                     11.65336   9.4181    15.21907 
 H                     9.20173   9.56662   13.57929 
 H                     11.10852   7.32964   13.15154 
 H                     8.34179   7.40191   14.41148 
 H                     8.55239   5.12681   14.64538 
 H                     10.26561   5.16774   14.4143 
 

 GradGradGradGradGradGradGradGradGradGradGradGradGradGradGradGradGradGrad
 Berny optimization.
 Initialization pass.
 Trust Radius=3.00D-01 FncErr=1.00D-07 GrdErr=1.00D-07
 Number of steps in this run=      2 maximum allowed number of steps=      2.
 GradGradGradGradGradGradGradGradGradGradGradGradGradGradGradGradGradGrad

                          Input orientation:                          
 ---------------------------------------------------------------------
 Center     Atomic      Atomic             Coordinates (Angstroms)
 Number     Number       Type             X           Y           Z
 ---------------------------------------------------------------------
      1          8           0        9.427000    7.764000   12.014000
      2          6           0       10.131000    7.750000   13.264000
      3          6           0       10.209000    9.215000   13.661000
      4          8           0       10.957000   10.047000   12.762000
      5          1           0       10.738000    9.811000   11.815000
      6          6           0       10.591000    9.481000   15.108000
      7          8           0       10.112000   10.693000   15.709000
      8          1           0       10.552000   10.832000   16.597000
      9          6           0        9.333000    5.529000   14.034000
     10          8           0        9.177000    4.883000   12.763000
     11          1           0        9.087000    3.907000   12.965000
     12          6           0        9.338000    7.019000   14.335000
     13          8           0       10.027000    7.109000   15.591000
     14          6           0        9.919000    8.472000   16.026000
     15          8           0       10.899000    8.390000   17.071000
     16          6           0       10.414000    8.137000   18.397000
     17          6           0       10.971000    6.818000   18.907000
     18          8           0       10.706000    5.757000   17.978000
     19          1           0       10.771000    6.266000   17.119000
     20          6           0       10.284000    6.411000   20.201000
     21          8           0       10.831000    5.152000   20.617000
     22          1           0       10.404000    4.961000   21.501000
     23          6           0       10.639000   10.539000   19.120000
     24          8           0       11.497000   11.227000   18.198000
     25          1           0       11.270000   12.201000   18.179000
     26          6           0       10.920000    9.087000   19.470000
     27          8           0       10.224000    8.862000   20.705000
     28          6           0       10.447000    7.537000   21.209000
     29          8           0        9.631000    7.501000   22.389000
     30          1           0       10.193597    7.477279   23.166510
     31          1           0       11.464382    7.499677   21.538304
     32          1           0        9.240272    6.279340   20.005556
     33          1           0       12.025268    6.905884   19.067298
     34          1           0        9.344322    8.111155   18.401473
     35          1           0       11.970669    8.945307   19.614632
     36          1           0       10.646899   11.093386   20.035147
     37          1           0        9.646191   10.583544   18.723457
     38          1           0       10.058612    7.772097   11.291088
     39          1           0        8.947475    8.755602   16.373288
     40          1           0       11.653360    9.418102   15.219066
     41          1           0        9.201734    9.566623   13.579289
     42          1           0       11.108522    7.329639   13.151540
     43          1           0        8.341791    7.401907   14.411484
     44          1           0        8.552388    5.126807   14.645381
     45          1           0       10.265611    5.167740   14.414299
 ---------------------------------------------------------------------
                    Distance matrix (angstroms):
                    1          2          3          4          5
     1  O    0.000000
     2  C    1.434682   0.000000
     3  C    2.330136   1.519841   0.000000
     4  O    2.848244   2.492085   1.435245   0.000000
     5  H    2.438961   2.591480   2.010665   1.000233   0.000000
     6  C    3.725026   2.570661   1.520029   2.440907   3.312757
     7  O    4.764587   3.826178   2.527488   3.133074   4.041415
     8  H    5.628689   4.559041   3.369337   3.935413   4.893318
     9  C    3.014044   2.482447   3.806981   4.966657   5.023297
    10  O    2.987250   3.062810   4.542868   5.462170   5.255531
    11  H    3.987035   3.993493   5.469750   6.421659   6.237429
    12  C    2.439260   1.519951   2.456691   3.776807   4.013186
    13  O    3.685642   2.415911   2.862387   4.183298   4.697287
    14  C    4.103593   2.862669   2.495871   3.769849   4.494019
    15  O    5.303952   3.936073   3.575587   4.616979   5.447082
    16  C    6.469620   5.155342   4.861461   5.974628   6.799263
    17  C    7.126872   5.780802   5.817798   6.941733   7.701221
    18  O    6.421307   5.150191   5.553491   6.758236   7.376890
    19  H    5.487382   4.180058   4.579324   5.771829   6.379697
    20  C    8.342184   7.066704   7.116154   8.307355   9.060415
    21  O    9.099746   7.829828   8.079653   9.256237   9.959424
    22  H    9.940549   8.700645   8.921891  10.126368  10.837557
    23  C    7.724300   6.506099   5.633698   6.384932   7.341853
    24  O    7.383707   6.188687   5.127520   5.588747   6.582084
    25  H    7.816063   6.727997   5.518536   5.837943   6.818770
    26  C    7.718246   6.397228   5.853750   6.776447   7.691315
    27  O    8.796266   7.524206   7.052855   8.064289   8.955272
    28  C    9.254186   7.954134   7.735931   8.826778   9.669695
    29  O   10.380338   9.142080   8.913465  10.045871  10.879845
    30  H   11.182502   9.906462   9.663055  10.744304  11.601698
    31  H    9.743364   8.384788   8.159058   9.152584  10.020603
    32  H    8.130440   6.957357   7.057615   8.343352   9.044392
    33  H    7.565472   6.162714   6.152959   7.124927   7.917864
    34  H    6.397434   5.209887   4.943503   6.176721   6.943589
    35  H    8.101564   6.718904   6.214656   7.014258   7.943750
    36  H    8.769935   7.569202   6.659567   7.354574   8.320074
    37  H    7.281118   6.170063   5.274290   6.127403   7.036735
    38  H    0.960000   1.974363   2.778681   2.854097   2.212053
    39  H    4.496289   3.475577   3.026384   4.329815   5.009774
    40  H    4.238535   2.987043   2.134243   2.630133   3.546818
    41  H    2.397983   2.064718   1.070000   1.994914   2.352137
    42  H    2.076098   1.070000   2.150180   2.749318   2.842671
    43  H    2.656448   2.153870   2.708690   4.068984   4.276362
    44  H    3.826734   3.358775   4.519589   5.791164   5.893184
    45  H    3.633906   2.830084   4.117157   5.197624   5.342225
                    6          7          8          9         10
     6  C    0.000000
     7  O    1.435126   0.000000
     8  H    2.010931   1.000732   0.000000
     9  C    4.284197   5.484466   6.014710   0.000000
    10  O    5.351638   6.580976   7.209770   1.434257   0.000000
    11  H    6.158242   7.391208   7.955707   1.958101   1.000740
    12  C    2.868620   3.998153   4.596674   1.520107   2.656991
    13  O    2.485512   3.586949   3.892093   2.324282   3.697994
    14  C    1.520654   2.251795   2.509249   3.601765   4.907001
    15  O    2.266829   2.788946   2.511663   4.456573   5.815771
    16  C    3.557413   3.721516   3.243774   5.196729   6.622737
    17  C    4.654930   5.097128   4.650146   5.300065   6.686658
    18  O    4.703010   5.464915   5.261796   4.182374   5.504357
    19  H    3.796412   4.692623   4.600957   3.482562   4.840275
    20  C    5.954645   6.208315   5.710156   6.301921   7.673596
    21  O    7.010487   7.436942   6.964240   6.761806   8.030778
    22  H    7.831719   8.154039   7.651128   7.564771   8.824073
    23  C    4.149435   3.454905   2.541446   7.257626   8.633610
    24  O    3.662984   2.898017   1.900592   7.381666   8.669946
    25  H    4.158183   3.117038   2.211879   8.090030   9.341672
    26  C    4.392098   4.168599   3.381505   6.687902   8.105277
    27  O    5.643072   5.322135   4.567729   7.510327   8.944496
    28  C    6.404848   6.350005   5.669091   7.533504   8.943799
    29  O    7.606245   7.419072   6.744707   8.589739   9.985986
    30  H    8.313387   8.121698   7.385192   9.377588  10.770180
    31  H    6.785075   6.782848   6.029370   8.046175   9.438489
    32  H    6.005094   6.220989   5.836574   6.019227   7.376204
    33  H    4.936029   5.411193   4.866958   5.871814   7.207556
    34  H    3.778577   3.808499   3.481035   5.073704   6.499335
    35  H    4.743436   4.665088   3.831232   7.054921   8.441077
    36  H    5.184563   4.377439   3.449374   8.288696   9.675413
    37  H    3.896126   3.052197   2.324659   6.901993   8.260955
    38  H    4.215756   5.296458   6.144846   3.616844   3.360155
    39  H    2.197346   2.356036   2.633624   4.003980   5.299425
    40  H    1.070000   2.059415   2.260709   4.681192   5.721168
    41  H    2.067450   2.575457   3.539912   4.065266   4.754289
    42  H    2.953628   4.341181   4.944436   2.678342   3.141303
    43  H    3.141131   3.955816   4.628936   2.152387   3.124094
    44  H    4.830005   5.877600   6.352676   1.070000   1.998234
    45  H    4.380789   5.677002   6.077010   1.070000   1.998234
                   11         12         13         14         15
    11  H    0.000000
    12  C    3.409464   0.000000
    13  O    4.246443   1.435394   0.000000
    14  C    5.558882   2.303964   1.434802   0.000000
    15  O    6.343490   3.435412   2.142836   1.434974   0.000000
    16  C    7.011452   4.348281   3.013335   2.445177   1.434402
    17  C    6.879734   4.859040   3.460011   3.484621   2.418112
    18  O    5.583353   4.090907   2.826077   3.435244   2.791521
    19  H    5.065220   3.220428   1.897095   2.605185   2.128395
    20  C    7.750001   5.972816   4.669620   4.670286   3.753873
    21  O    7.946362   6.721478   5.453159   5.738591   4.802435
    22  H    8.701075   7.531486   6.299534   6.522114   5.623875
    23  C    9.180204   6.081055   4.959162   3.789951   2.980638
    24  O    9.315299   6.106661   5.090705   3.846777   3.110675
    25  H   10.037018   6.735138   5.845619   4.512876   3.986104
    26  C    8.515123   5.757393   4.444837   3.638868   2.498290
    27  O    9.260259   6.690183   5.409696   4.705121   3.726173
    28  C    9.109887   6.982126   5.649912   5.293061   4.249112
    29  O   10.100720   8.073728   6.820798   6.443101   5.538887
    30  H   10.864725   8.884685   7.586286   7.214690   6.203700
    31  H    9.594832   7.525964   6.130996   5.806816   4.590113
    32  H    7.431078   5.719428   4.560217   4.594050   3.977170
    33  H    7.407075   5.443238   4.014844   4.017285   2.730620
    34  H    6.877235   4.210587   3.060902   2.470493   2.065172
    35  H    8.827100   6.206136   4.831096   4.160726   2.815476
    36  H   10.201196   7.127798   6.000837   4.845076   4.019704
    37  H    8.834521   5.662112   4.693587   3.436468   3.018572
    38  H    4.322613   3.217427   4.350855   4.788397   5.873281
    39  H    5.928308   2.706088   2.118643   1.070000   2.104499
    40  H    6.483769   3.449370   2.848742   2.134070   2.248491
    41  H    5.694018   2.660836   3.281456   2.774719   4.056747
    42  H    3.979423   2.152167   2.677561   3.313981   4.065763
    43  H    3.855130   1.070000   2.077735   2.497869   3.819512
    44  H    2.144159   2.072177   2.645329   3.868340   4.694533
    45  H    2.253676   2.072177   2.282554   3.692676   4.224003
                   16         17         18         19         20
    16  C    0.000000
    17  C    1.519905   0.000000
    18  O    2.434179   1.434917   0.000000
    19  H    2.293769   1.881927   1.000593   0.000000
    20  C    2.500078   1.520544   2.355319   3.123607   0.000000
    21  O    3.743329   2.391497   2.710345   3.671594   1.434345
    22  H    4.440934   3.240181   3.624410   4.586899   1.951128
    23  C    2.518523   3.741849   4.916928   4.720165   4.281935
    24  O    3.280334   4.496514   5.531273   5.128629   5.355113
    25  H    4.158889   5.440227   6.471757   6.049531   6.211665
    26  C    1.519824   2.338361   3.655237   3.675247   2.846021
    27  O    2.426642   2.822897   4.160514   4.460697   2.503002
    28  C    2.875488   2.467943   3.697951   4.295174   1.520036
    29  O    4.117481   3.792943   4.863546   5.531521   2.530188
    30  H    4.819962   4.379775   5.490223   6.194592   3.152677
    31  H    3.373021   2.762584   4.035818   4.640364   2.089713
    32  H    2.723232   2.119528   2.555813   3.267340   1.070000
    33  H    2.135680   1.070000   2.060818   2.403852   2.135932
    34  H    1.070000   2.138666   2.752371   2.661718   2.647985
    35  H    2.135230   2.454693   3.800428   3.853060   3.100224
    36  H    3.387917   4.433585   5.719472   5.641185   4.699355
    37  H    2.584895   3.996014   4.997442   4.741377   4.472142
    38  H    7.124144   7.729480   7.013880   6.061384   9.016092
    39  H    2.574641   3.777387   3.828724   3.174815   4.683464
    40  H    3.643693   4.563661   4.681119   3.784713   5.978083
    41  H    5.169502   6.250579   6.010383   5.087854   7.414601
    42  H    5.352480   5.779793   5.092144   4.121406   7.156718
    43  H    4.551786   5.240549   4.584238   3.810772   6.186483
    44  H    5.157665   5.183745   4.017653   3.512661   5.959239
    45  H    4.969953   4.837902   3.638837   2.962601   5.918779
                   21         22         23         24         25
    21  O    0.000000
    22  H    1.000133   0.000000
    23  C    5.594430   6.069470   0.000000
    24  O    6.572727   7.167092   1.435128   0.000000
    25  H    7.471611   8.012692   2.011439   1.000283   0.000000
    26  C    4.099726   4.627644   1.519791   2.555487   3.389126
    27  O    3.760358   3.985451   2.344521   3.674072   4.315520
    28  C    2.487196   2.592853   3.662347   4.876958   5.622377
    29  O    3.177701   2.799584   4.575136   5.910120   6.519235
    30  H    3.509018   3.024873   5.093796   6.359666   6.953232
    31  H    2.600300   2.751487   3.970760   5.005160   5.781448
    32  H    2.043324   2.308383   4.570050   5.730569   6.520902
    33  H    2.627539   3.511978   3.888965   4.439233   5.421970
    34  H    3.984391   4.544609   2.843748   3.792613   4.525987
    35  H    4.085678   4.678412   2.134914   2.727147   3.626502
    36  H    5.972647   6.309824   1.070000   2.028703   2.249521
    37  H    5.872899   6.316804   1.070000   2.028703   2.355707
    38  H    9.717722  10.595464   8.323729   7.855619   8.278042
    39  H    5.877304   6.543233   3.685945   3.992175   4.530506
    40  H    6.929184   7.803163   4.183614   3.488640   4.080772
    41  H    8.465978   9.241792   5.806094   5.418265   5.689904
    42  H    7.781531   8.707484   6.792861   6.388043   7.002256
    43  H    7.054550   7.776373   6.106443   6.238941   6.767561
    44  H    6.391631   7.103202   7.325844   7.648803   8.361584
    45  H    6.228436   7.091067   7.150768   7.248955   8.040430
                   26         27         28         29         30
    26  C    0.000000
    27  O    1.435363   0.000000
    28  C    2.377046   1.435051   0.000000
    29  O    3.563352   2.244956   1.435114   0.000000
    30  H    4.096712   2.824430   1.974747   0.960000   0.000000
    31  H    2.663424   2.022095   1.070000   2.021132   2.065539
    32  H    3.315307   2.850803   2.118060   2.706645   3.512195
    33  H    2.478115   3.122983   2.734251   4.137679   4.526042
    34  H    2.139343   2.577565   3.070467   4.044113   4.881460
    35  H    1.070000   2.060751   2.616659   3.906045   4.234256
    36  H    2.102275   2.367832   3.750436   4.413378   4.804908
    37  H    2.102275   2.687767   4.012561   4.789417   5.448785
    38  H    8.328599   9.478237   9.928297  11.109455  11.879847
    39  H    3.686503   4.517141   5.207464   6.183043   7.023873
    40  H    4.326417   5.696297   6.393212   7.692410   8.310209
    41  H    6.154913   7.233069   7.992656   9.058812   9.862249
    42  H    6.561005   7.757916   8.087229   9.356447  10.057758
    43  H    5.922439   6.729259   7.117330   8.081624   8.949042
    44  H    6.675752   7.311972   7.244286   8.170914   8.990435
    45  H    6.430314   7.295356   7.198212   8.333228   9.052091
                   31         32         33         34         35
    31  H    0.000000
    32  H    2.963984   0.000000
    33  H    2.602509   3.004844   0.000000
    34  H    3.835136   2.437100   3.013881   0.000000
    35  H    2.459001   3.836048   2.112298   3.010858   0.000000
    36  H    3.980264   5.015427   4.513514   3.641332   2.558015
    37  H    4.554055   4.509404   4.393565   2.511475   2.980136
    38  H   10.346778   8.879186   8.067682   7.154211   8.620543
    39  H    5.881289   4.405789   4.489093   2.164794   4.436440
    40  H    6.606726   6.211708   4.610688   4.143366   4.432293
    41  H    8.528643   7.218354   6.720872   5.039065   6.669213
    42  H    8.396032   7.181297   6.001348   5.593296   6.717532
    43  H    7.781497   5.775905   5.957403   4.174699   6.528675
    44  H    7.850007   5.525667   5.897402   4.862275   7.138560
    45  H    7.591207   5.792161   5.269529   5.040836   6.649865
                   36         37         38         39         40
    36  H    0.000000
    37  H    1.726814   0.000000
    38  H    9.372065   7.957036   0.000000
    39  H    4.665028   3.058246   5.294399   0.000000
    40  H    5.197517   4.203301   4.547698   3.015451   0.000000
    41  H    6.789522   5.262522   3.031571   2.920417   2.953201
    42  H    7.858939   6.616084   2.181596   4.133177   2.988844
    43  H    7.110986   5.515196   3.580696   2.459272   3.960268
    44  H    8.308827   6.899499   4.529629   4.038553   5.325443
    45  H    8.176344   6.948630   4.071851   4.295099   4.543025
                   41         42         43         44         45
    41  H    0.000000
    42  H    2.970338   0.000000
    43  H    2.473469   3.040967   0.000000
    44  H    4.611959   3.690237   2.296767   0.000000
    45  H    4.602092   2.641754   2.948321   1.729222   0.000000
 Stoichiometry    C12H22O11
 Framework group  C1[X(C12H22O11)]
 Deg. of freedom   129
 Full point group                 C1      NOp   1
 Largest Abelian subgroup         C1      NOp   1
 Largest concise Abelian subgroup C1      NOp   1
                         Standard orientation:                         
 ---------------------------------------------------------------------
 Center     Atomic      Atomic             Coordinates (Angstroms)
 Number     Number       Type             X           Y           Z
 ---------------------------------------------------------------------
      1          8           0       -4.966072   -0.289964    0.411653
      2          6           0       -3.662331   -0.200366   -0.180414
      3          6           0       -3.263553    1.252294    0.021261
      4          8           0       -4.099794    2.208203   -0.647221
      5          1           0       -5.061075    1.949868   -0.548897
      6          6           0       -1.790620    1.561699   -0.191397
      7          8           0       -1.233820    2.669290    0.531653
      8          1           0       -0.312927    2.869702    0.195118
      9          6           0       -2.955645   -2.532437    0.293493
     10          8           0       -4.233717   -3.180639    0.234679
     11          1           0       -4.037616   -4.160204    0.175720
     12          6           0       -2.658607   -1.066243    0.563256
     13          8           0       -1.350355   -0.876704    0.003873
     14          6           0       -0.928789    0.443810    0.374256
     15          8           0        0.193522    0.514980   -0.517092
     16          6           0        1.475660    0.168944    0.025025
     17          6           0        2.032748   -1.043963   -0.702036
     18          8           0        1.087475   -2.123502   -0.695550
     19          1           0        0.235599   -1.600867   -0.743995
     20          6           0        3.266712   -1.575275    0.010070
     21          8           0        3.729162   -2.729618   -0.704758
     22          1           0        4.575437   -2.999688   -0.245251
     23          6           0        2.209324    2.566140    0.266162
     24          8           0        1.359542    3.398784   -0.536437
     25          1           0        1.319728    4.321160   -0.151464
     26          6           0        2.584534    1.177751   -0.225121
     27          8           0        3.758548    0.825034    0.521570
     28          6           0        4.282174   -0.449660    0.121145
     29          8           0        5.391072   -0.635520    1.012972
     30          1           0        6.212309   -0.573702    0.519668
     31          1           0        4.694197   -0.319877   -0.857780
     32          1           0        2.986306   -1.877609    0.997423
     33          1           0        2.279094   -0.782610   -1.709959
     34          1           0        1.392116   -0.035745    1.071936
     35          1           0        2.815488    1.212365   -1.269325
     36          1           0        3.120766    3.103355    0.426082
     37          1           0        1.732297    2.448371    1.216675
     38          1           0       -5.634550   -0.167802   -0.266442
     39          1           0       -0.663298    0.556635    1.404637
     40          1           0       -1.592333    1.676337   -1.236596
     41          1           0       -3.428699    1.431169    1.063197
     42          1           0       -3.692991   -0.449731   -1.220500
     43          1           0       -2.665255   -0.856513    1.612479
     44          1           0       -2.409698   -3.066762    1.042718
     45          1           0       -2.499050   -2.736783   -0.652374
 ---------------------------------------------------------------------
 Rotational constants (GHZ):      0.4047028      0.1488659      0.1135203
 Standard basis: 6-31+G(2df,p) (6D, 7F)
 There are   846 symmetry adapted basis functions of A   symmetry.
 Integral buffers will be    131072 words long.
 Raffenetti 2 integral format.
 Two-electron integral symmetry is turned on.
   846 basis functions,  1258 primitive gaussians,   915 cartesian basis functions
    91 alpha electrons       91 beta electrons
       nuclear repulsion energy      2298.4771509711 Hartrees.
 NAtoms=   45 NActive=   45 NUniq=   45 SFac= 1.00D+00 NAtFMM=   50 NAOKFM=F Big=F
 One-electron integrals computed using PRISM.
 NBasis=   846 RedAO= T  NBF=   846
 NBsUse=   846 1.00D-06 NBFU=   846
 Harris functional with IExCor=  402 diagonalized for initial guess.
 ExpMin= 4.38D-02 ExpMax= 5.48D+03 ExpMxC= 8.25D+02 IAcc=2 IRadAn=         0 AccDes= 0.00D+00
 HarFok:  IExCor=  402 AccDes= 0.00D+00 IRadAn=         0 IDoV= 1
 ScaDFX=  1.000000  1.000000  1.000000  1.000000
 FoFCou: FMM=F IPFlag=           0 FMFlag=      100000 FMFlg1=           0
         NFxFlg=           0 DoJE=T BraDBF=F KetDBF=T FulRan=T
         Omega=  0.000000  0.000000  1.000000  0.000000  0.000000 ICntrl=     500 IOpCl=  0
         NMat0=    1 NMatS0=    1 NMatT0=    0 NMatD0=    1 NMtDS0=    0 NMtDT0=    0
         I1Cent=           4 NGrid=           0.
 Petite list used in FoFCou.
 Initial guess orbital symmetries:
       Occupied  (A) (A) (A) (A) (A) (A) (A) (A) (A) (A) (A) (A)
                 (A) (A) (A) (A) (A) (A) (A) (A) (A) (A) (A) (A)
                 (A) (A) (A) (A) (A) (A) (A) (A) (A) (A) (A) (A)
                 (A) (A) (A) (A) (A) (A) (A) (A) (A) (A) (A) (A)
                 (A) (A) (A) (A) (A) (A) (A) (A) (A) (A) (A) (A)
                 (A) (A) (A) (A) (A) (A) (A) (A) (A) (A) (A) (A)
                 (A) (A) (A) (A) (A) (A) (A) (A) (A) (A) (A) (A)
                 (A) (A) (A) (A) (A) (A) (A)
       Virtual   (A) (A) (A) (A) (A) (A) (A) (A) (A) (A) (A) (A)
                 (A) (A) (A) (A) (A) (A) (A) (A) (A) (A) (A) (A)
                 (A) (A) (A) (A) (A) (A) (A) (A) (A) (A) (A) (A)
                 (A) (A) (A) (A) (A) (A) (A) (A) (A) (A) (A) (A)
                 (A) (A) (A) (A) (A) (A) (A) (A) (A) (A) (A) (A)
                 (A) (A) (A) (A) (A) (A) (A) (A) (A) (A) (A) (A)
                 (A) (A) (A) (A) (A) (A) (A) (A) (A) (A) (A) (A)
                 (A) (A) (A) (A) (A) (A) (A) (A) (A) (A) (A) (A)
                 (A) (A) (A) (A) (A) (A) (A) (A) (A) (A) (A) (A)
                 (A) (A) (A) (A) (A) (A) (A) (A) (A) (A) (A) (A)
                 (A) (A) (A) (A) (A) (A) (A) (A) (A) (A) (A) (A)
                 (A) (A) (A) (A) (A) (A) (A) (A) (A) (A) (A) (A)
                 (A) (A) (A) (A) (A) (A) (A) (A) (A) (A) (A) (A)
                 (A) (A) (A) (A) (A) (A) (A) (A) (A) (A) (A) (A)
                 (A) (A) (A) (A) (A) (A) (A) (A) (A) (A) (A) (A)
                 (A) (A) (A) (A) (A) (A) (A) (A) (A) (A) (A) (A)
                 (A) (A) (A) (A) (A) (A) (A) (A) (A) (A) (A) (A)
                 (A) (A) (A) (A) (A) (A) (A) (A) (A) (A) (A) (A)
                 (A) (A) (A) (A) (A) (A) (A) (A) (A) (A) (A) (A)
                 (A) (A) (A) (A) (A) (A) (A) (A) (A) (A) (A) (A)
                 (A) (A) (A) (A) (A) (A) (A) (A) (A) (A) (A) (A)
                 (A) (A) (A) (A) (A) (A) (A) (A) (A) (A) (A) (A)
                 (A) (A) (A) (A) (A) (A) (A) (A) (A) (A) (A) (A)
                 (A) (A) (A) (A) (A) (A) (A) (A) (A) (A) (A) (A)
                 (A) (A) (A) (A) (A) (A) (A) (A) (A) (A) (A) (A)
                 (A) (A) (A) (A) (A) (A) (A) (A) (A) (A) (A) (A)
                 (A) (A) (A) (A) (A) (A) (A) (A) (A) (A) (A) (A)
                 (A) (A) (A) (A) (A) (A) (A) (A) (A) (A) (A) (A)
                 (A) (A) (A) (A) (A) (A) (A) (A) (A) (A) (A) (A)
                 (A) (A) (A) (A) (A) (A) (A) (A) (A) (A) (A) (A)
                 (A) (A) (A) (A) (A) (A) (A) (A) (A) (A) (A) (A)
                 (A) (A) (A) (A) (A) (A) (A) (A) (A) (A) (A) (A)
                 (A) (A) (A) (A) (A) (A) (A) (A) (A) (A) (A) (A)
                 (A) (A) (A) (A) (A) (A) (A) (A) (A) (A) (A) (A)
                 (A) (A) (A) (A) (A) (A) (A) (A) (A) (A) (A) (A)
                 (A) (A) (A) (A) (A) (A) (A) (A) (A) (A) (A) (A)
                 (A) (A) (A) (A) (A) (A) (A) (A) (A) (A) (A) (A)
                 (A) (A) (A) (A) (A) (A) (A) (A) (A) (A) (A) (A)
                 (A) (A) (A) (A) (A) (A) (A) (A) (A) (A) (A) (A)
                 (A) (A) (A) (A) (A) (A) (A) (A) (A) (A) (A) (A)
                 (A) (A) (A) (A) (A) (A) (A) (A) (A) (A) (A) (A)
                 (A) (A) (A) (A) (A) (A) (A) (A) (A) (A) (A) (A)
                 (A) (A) (A) (A) (A) (A) (A) (A) (A) (A) (A) (A)
                 (A) (A) (A) (A) (A) (A) (A) (A) (A) (A) (A) (A)
                 (A) (A) (A) (A) (A) (A) (A) (A) (A) (A) (A) (A)
                 (A) (A) (A) (A) (A) (A) (A) (A) (A) (A) (A) (A)
                 (A) (A) (A) (A) (A) (A) (A) (A) (A) (A) (A) (A)
                 (A) (A) (A) (A) (A) (A) (A) (A) (A) (A) (A) (A)
                 (A) (A) (A) (A) (A) (A) (A) (A) (A) (A) (A) (A)
                 (A) (A) (A) (A) (A) (A) (A) (A) (A) (A) (A) (A)
                 (A) (A) (A) (A) (A) (A) (A) (A) (A) (A) (A) (A)
                 (A) (A) (A) (A) (A) (A) (A) (A) (A) (A) (A) (A)
                 (A) (A) (A) (A) (A) (A) (A) (A) (A) (A) (A) (A)
                 (A) (A) (A) (A) (A) (A) (A) (A) (A) (A) (A) (A)
                 (A) (A) (A) (A) (A) (A) (A) (A) (A) (A) (A) (A)
                 (A) (A) (A) (A) (A) (A) (A) (A) (A) (A) (A) (A)
                 (A) (A) (A) (A) (A) (A) (A) (A) (A) (A) (A) (A)
                 (A) (A) (A) (A) (A) (A) (A) (A) (A) (A) (A) (A)
                 (A) (A) (A) (A) (A) (A) (A) (A) (A) (A) (A) (A)
                 (A) (A) (A) (A) (A) (A) (A) (A) (A) (A) (A) (A)
                 (A) (A) (A) (A) (A) (A) (A) (A) (A) (A) (A) (A)
                 (A) (A) (A) (A) (A) (A) (A) (A) (A) (A) (A) (A)
                 (A) (A) (A) (A) (A) (A) (A) (A) (A) (A) (A)
 The electronic state of the initial guess is 1-A.
 Requested convergence on RMS density matrix=1.00D-08 within 128 cycles.
 Requested convergence on MAX density matrix=1.00D-06.
 Requested convergence on             energy=1.00D-06.
 No special actions if energy rises.
 SCF Done:  E(RB3LYP) =  -1297.98692248     A.U. after   13 cycles
             Convg  =    0.3480D-08             -V/T =  2.0064
 Range of M.O.s used for correlation:     1   846
 NBasis=   846 NAE=    91 NBE=    91 NFC=     0 NFV=     0
 NROrb=    846 NOA=    91 NOB=    91 NVA=   755 NVB=   755

 **** Warning!!: The largest alpha MO coefficient is  0.76202696D+02

          Differentiating once with respect to electric field.
                with respect to dipole field.
          Electric field/nuclear overlap derivatives assumed to be zero.
          There are     3 degrees of freedom in the 1st order CPHF.  IDoFFX=0.
      3 vectors produced by pass  0 Test12= 2.29D-12 3.33D-08 XBig12= 1.22D+02 1.40D+00.
 AX will form     3 AO Fock derivatives at one time.
      3 vectors produced by pass  1 Test12= 2.29D-12 3.33D-08 XBig12= 2.69D+01 3.85D-01.
      3 vectors produced by pass  2 Test12= 2.29D-12 3.33D-08 XBig12= 1.08D+01 2.50D-01.
      3 vectors produced by pass  3 Test12= 2.29D-12 3.33D-08 XBig12= 1.38D+00 9.54D-02.
      3 vectors produced by pass  4 Test12= 2.29D-12 3.33D-08 XBig12= 5.03D-01 7.32D-02.
      3 vectors produced by pass  5 Test12= 2.29D-12 3.33D-08 XBig12= 8.29D-02 2.50D-02.
      3 vectors produced by pass  6 Test12= 2.29D-12 3.33D-08 XBig12= 3.02D-02 2.00D-02.
      3 vectors produced by pass  7 Test12= 2.29D-12 3.33D-08 XBig12= 3.69D-03 1.13D-02.
      3 vectors produced by pass  8 Test12= 2.29D-12 3.33D-08 XBig12= 8.86D-04 4.27D-03.
      3 vectors produced by pass  9 Test12= 2.29D-12 3.33D-08 XBig12= 1.75D-04 2.27D-03.
      3 vectors produced by pass 10 Test12= 2.29D-12 3.33D-08 XBig12= 5.01D-05 1.06D-03.
      3 vectors produced by pass 11 Test12= 2.29D-12 3.33D-08 XBig12= 1.16D-05 6.58D-04.
      3 vectors produced by pass 12 Test12= 2.29D-12 3.33D-08 XBig12= 1.41D-06 1.84D-04.
      3 vectors produced by pass 13 Test12= 2.29D-12 3.33D-08 XBig12= 3.97D-07 7.49D-05.
      3 vectors produced by pass 14 Test12= 2.29D-12 3.33D-08 XBig12= 4.01D-08 2.81D-05.
      3 vectors produced by pass 15 Test12= 2.29D-12 3.33D-08 XBig12= 9.37D-09 1.27D-05.
      3 vectors produced by pass 16 Test12= 2.29D-12 3.33D-08 XBig12= 2.63D-09 6.03D-06.
      3 vectors produced by pass 17 Test12= 2.29D-12 3.33D-08 XBig12= 3.50D-10 1.73D-06.
      3 vectors produced by pass 18 Test12= 2.29D-12 3.33D-08 XBig12= 6.13D-11 7.84D-07.
      3 vectors produced by pass 19 Test12= 2.29D-12 3.33D-08 XBig12= 6.77D-12 1.56D-07.
      2 vectors produced by pass 20 Test12= 2.29D-12 3.33D-08 XBig12= 2.63D-12 1.20D-07.
      2 vectors produced by pass 21 Test12= 2.29D-12 3.33D-08 XBig12= 1.12D-12 5.87D-08.
 Inverted reduced A of dimension    64 with in-core refinement.
 End of Minotr Frequency-dependent properties file   721 does not exist.
 End of Minotr Frequency-dependent properties file   722 does not exist.
 Symmetrizing basis deriv contribution to polar:
 IMax=3 JMax=2 DiffMx= 0.00D+00
 G2DrvN: will do     8 centers at a time, making    6 passes doing MaxLOS=3.
 Calling FoFCou, ICntrl=  3107 FMM=F I1Cent=   0 AccDes= 0.00D+00.
 Calling FoFCou, ICntrl=  3107 FMM=F I1Cent=   0 AccDes= 0.00D+00.
 Calling FoFCou, ICntrl=  3107 FMM=F I1Cent=   0 AccDes= 0.00D+00.
 Calling FoFCou, ICntrl=  3107 FMM=F I1Cent=   0 AccDes= 0.00D+00.
 Calling FoFCou, ICntrl=  3107 FMM=F I1Cent=   0 AccDes= 0.00D+00.
 Calling FoFCou, ICntrl=  3107 FMM=F I1Cent=   0 AccDes= 0.00D+00.
 FoFDir/FoFCou used for L=0 through L=3.
 End of G2Drv Frequency-dependent properties file   721 does not exist.
 End of G2Drv Frequency-dependent properties file   722 does not exist.
          IDoAtm=111111111111111111111111111111111111111111111
          Differentiating once with respect to electric field.
                with respect to dipole field.
          Differentiating once with respect to nuclear coordinates.
          There are   138 degrees of freedom in the 1st order CPHF.  IDoFFX=5.
 Will reuse    3 saved solutions.
    135 vectors produced by pass  0 Test12= 6.87D-14 1.00D-09 XBig12= 1.53D-01 5.73D-02.
 AX will form    27 AO Fock derivatives at one time.
    135 vectors produced by pass  1 Test12= 6.87D-14 1.00D-09 XBig12= 2.19D-02 1.48D-02.
    132 vectors produced by pass  2 Test12= 6.87D-14 1.00D-09 XBig12= 1.90D-04 1.59D-03.
    132 vectors produced by pass  3 Test12= 6.87D-14 1.00D-09 XBig12= 1.09D-06 7.94D-05.
    132 vectors produced by pass  4 Test12= 6.87D-14 1.00D-09 XBig12= 2.96D-09 3.78D-06.
    132 vectors produced by pass  5 Test12= 6.87D-14 1.00D-09 XBig12= 7.64D-12 1.38D-07.
     92 vectors produced by pass  6 Test12= 6.87D-14 1.00D-09 XBig12= 3.19D-13 3.30D-08.
      2 vectors produced by pass  7 Test12= 6.87D-14 1.00D-09 XBig12= 2.29D-15 2.38D-09.
 Inverted reduced A of dimension   892 with in-core refinement.
 Isotropic polarizability for W=    0.000000      190.64 Bohr**3.
 End of Minotr Frequency-dependent properties file   721 does not exist.
 End of Minotr Frequency-dependent properties file   722 does not exist.

 **********************************************************************

            Population analysis using the SCF density.

 **********************************************************************

 Orbital symmetries:
       Occupied  (A) (A) (A) (A) (A) (A) (A) (A) (A) (A) (A) (A)
                 (A) (A) (A) (A) (A) (A) (A) (A) (A) (A) (A) (A)
                 (A) (A) (A) (A) (A) (A) (A) (A) (A) (A) (A) (A)
                 (A) (A) (A) (A) (A) (A) (A) (A) (A) (A) (A) (A)
                 (A) (A) (A) (A) (A) (A) (A) (A) (A) (A) (A) (A)
                 (A) (A) (A) (A) (A) (A) (A) (A) (A) (A) (A) (A)
                 (A) (A) (A) (A) (A) (A) (A) (A) (A) (A) (A) (A)
                 (A) (A) (A) (A) (A) (A) (A)
       Virtual   (A) (A) (A) (A) (A) (A) (A) (A) (A) (A) (A) (A)
                 (A) (A) (A) (A) (A) (A) (A) (A) (A) (A) (A) (A)
                 (A) (A) (A) (A) (A) (A) (A) (A) (A) (A) (A) (A)
                 (A) (A) (A) (A) (A) (A) (A) (A) (A) (A) (A) (A)
                 (A) (A) (A) (A) (A) (A) (A) (A) (A) (A) (A) (A)
                 (A) (A) (A) (A) (A) (A) (A) (A) (A) (A) (A) (A)
                 (A) (A) (A) (A) (A) (A) (A) (A) (A) (A) (A) (A)
                 (A) (A) (A) (A) (A) (A) (A) (A) (A) (A) (A) (A)
                 (A) (A) (A) (A) (A) (A) (A) (A) (A) (A) (A) (A)
                 (A) (A) (A) (A) (A) (A) (A) (A) (A) (A) (A) (A)
                 (A) (A) (A) (A) (A) (A) (A) (A) (A) (A) (A) (A)
                 (A) (A) (A) (A) (A) (A) (A) (A) (A) (A) (A) (A)
                 (A) (A) (A) (A) (A) (A) (A) (A) (A) (A) (A) (A)
                 (A) (A) (A) (A) (A) (A) (A) (A) (A) (A) (A) (A)
                 (A) (A) (A) (A) (A) (A) (A) (A) (A) (A) (A) (A)
                 (A) (A) (A) (A) (A) (A) (A) (A) (A) (A) (A) (A)
                 (A) (A) (A) (A) (A) (A) (A) (A) (A) (A) (A) (A)
                 (A) (A) (A) (A) (A) (A) (A) (A) (A) (A) (A) (A)
                 (A) (A) (A) (A) (A) (A) (A) (A) (A) (A) (A) (A)
                 (A) (A) (A) (A) (A) (A) (A) (A) (A) (A) (A) (A)
                 (A) (A) (A) (A) (A) (A) (A) (A) (A) (A) (A) (A)
                 (A) (A) (A) (A) (A) (A) (A) (A) (A) (A) (A) (A)
                 (A) (A) (A) (A) (A) (A) (A) (A) (A) (A) (A) (A)
                 (A) (A) (A) (A) (A) (A) (A) (A) (A) (A) (A) (A)
                 (A) (A) (A) (A) (A) (A) (A) (A) (A) (A) (A) (A)
                 (A) (A) (A) (A) (A) (A) (A) (A) (A) (A) (A) (A)
                 (A) (A) (A) (A) (A) (A) (A) (A) (A) (A) (A) (A)
                 (A) (A) (A) (A) (A) (A) (A) (A) (A) (A) (A) (A)
                 (A) (A) (A) (A) (A) (A) (A) (A) (A) (A) (A) (A)
                 (A) (A) (A) (A) (A) (A) (A) (A) (A) (A) (A) (A)
                 (A) (A) (A) (A) (A) (A) (A) (A) (A) (A) (A) (A)
                 (A) (A) (A) (A) (A) (A) (A) (A) (A) (A) (A) (A)
                 (A) (A) (A) (A) (A) (A) (A) (A) (A) (A) (A) (A)
                 (A) (A) (A) (A) (A) (A) (A) (A) (A) (A) (A) (A)
                 (A) (A) (A) (A) (A) (A) (A) (A) (A) (A) (A) (A)
                 (A) (A) (A) (A) (A) (A) (A) (A) (A) (A) (A) (A)
                 (A) (A) (A) (A) (A) (A) (A) (A) (A) (A) (A) (A)
                 (A) (A) (A) (A) (A) (A) (A) (A) (A) (A) (A) (A)
                 (A) (A) (A) (A) (A) (A) (A) (A) (A) (A) (A) (A)
                 (A) (A) (A) (A) (A) (A) (A) (A) (A) (A) (A) (A)
                 (A) (A) (A) (A) (A) (A) (A) (A) (A) (A) (A) (A)
                 (A) (A) (A) (A) (A) (A) (A) (A) (A) (A) (A) (A)
                 (A) (A) (A) (A) (A) (A) (A) (A) (A) (A) (A) (A)
                 (A) (A) (A) (A) (A) (A) (A) (A) (A) (A) (A) (A)
                 (A) (A) (A) (A) (A) (A) (A) (A) (A) (A) (A) (A)
                 (A) (A) (A) (A) (A) (A) (A) (A) (A) (A) (A) (A)
                 (A) (A) (A) (A) (A) (A) (A) (A) (A) (A) (A) (A)
                 (A) (A) (A) (A) (A) (A) (A) (A) (A) (A) (A) (A)
                 (A) (A) (A) (A) (A) (A) (A) (A) (A) (A) (A) (A)
                 (A) (A) (A) (A) (A) (A) (A) (A) (A) (A) (A) (A)
                 (A) (A) (A) (A) (A) (A) (A) (A) (A) (A) (A) (A)
                 (A) (A) (A) (A) (A) (A) (A) (A) (A) (A) (A) (A)
                 (A) (A) (A) (A) (A) (A) (A) (A) (A) (A) (A) (A)
                 (A) (A) (A) (A) (A) (A) (A) (A) (A) (A) (A) (A)
                 (A) (A) (A) (A) (A) (A) (A) (A) (A) (A) (A) (A)
                 (A) (A) (A) (A) (A) (A) (A) (A) (A) (A) (A) (A)
                 (A) (A) (A) (A) (A) (A) (A) (A) (A) (A) (A) (A)
                 (A) (A) (A) (A) (A) (A) (A) (A) (A) (A) (A) (A)
                 (A) (A) (A) (A) (A) (A) (A) (A) (A) (A) (A) (A)
                 (A) (A) (A) (A) (A) (A) (A) (A) (A) (A) (A) (A)
                 (A) (A) (A) (A) (A) (A) (A) (A) (A) (A) (A) (A)
                 (A) (A) (A) (A) (A) (A) (A) (A) (A) (A) (A) (A)
                 (A) (A) (A) (A) (A) (A) (A) (A) (A) (A) (A)
 The electronic state is 1-A.
 Alpha  occ. eigenvalues --  -19.18765 -19.18686 -19.18272 -19.18113 -19.17893
 Alpha  occ. eigenvalues --  -19.16906 -19.16737 -19.15818 -19.15785 -19.14632
 Alpha  occ. eigenvalues --  -19.13527 -10.30442 -10.30414 -10.25992 -10.25981
 Alpha  occ. eigenvalues --  -10.25408 -10.25317 -10.25000 -10.24922 -10.24559
 Alpha  occ. eigenvalues --  -10.24068 -10.23882 -10.23465  -1.10971  -1.09158
 Alpha  occ. eigenvalues --   -1.05519  -1.05118  -1.04144  -1.03619  -1.02977
 Alpha  occ. eigenvalues --   -1.02285  -1.02156  -1.01165  -1.00315  -0.82560
 Alpha  occ. eigenvalues --   -0.80592  -0.79255  -0.78185  -0.71870  -0.69866
 Alpha  occ. eigenvalues --   -0.67343  -0.64987  -0.62988  -0.62477  -0.61498
 Alpha  occ. eigenvalues --   -0.60492  -0.56355  -0.56135  -0.54962  -0.54758
 Alpha  occ. eigenvalues --   -0.53681  -0.53591  -0.53303  -0.51551  -0.51222
 Alpha  occ. eigenvalues --   -0.50401  -0.50280  -0.49123  -0.48628  -0.46660
 Alpha  occ. eigenvalues --   -0.46315  -0.45031  -0.44371  -0.43457  -0.43236
 Alpha  occ. eigenvalues --   -0.42386  -0.41792  -0.41555  -0.40485  -0.39646
 Alpha  occ. eigenvalues --   -0.39305  -0.38077  -0.36970  -0.36859  -0.36194
 Alpha  occ. eigenvalues --   -0.35973  -0.35607  -0.34291  -0.34036  -0.33642
 Alpha  occ. eigenvalues --   -0.32983  -0.31747  -0.31317  -0.30721  -0.29767
 Alpha  occ. eigenvalues --   -0.29293  -0.28679  -0.28376  -0.28092  -0.26932
 Alpha  occ. eigenvalues --   -0.26376
 Alpha virt. eigenvalues --   -0.02014  -0.01911  -0.01893  -0.00672   0.00063
 Alpha virt. eigenvalues --    0.00745   0.01938   0.02388   0.03162   0.03644
 Alpha virt. eigenvalues --    0.03854   0.04219   0.04382   0.05359   0.05742
 Alpha virt. eigenvalues --    0.06047   0.06352   0.06787   0.07783   0.08205
 Alpha virt. eigenvalues --    0.08493   0.08861   0.09215   0.09648   0.10041
 Alpha virt. eigenvalues --    0.10382   0.11045   0.11116   0.11651   0.11935
 Alpha virt. eigenvalues --    0.12349   0.12576   0.12904   0.13684   0.13777
 Alpha virt. eigenvalues --    0.14030   0.14181   0.14419   0.14864   0.15246
 Alpha virt. eigenvalues --    0.15579   0.15820   0.15975   0.16653   0.16859
 Alpha virt. eigenvalues --    0.17004   0.17500   0.17642   0.18005   0.18252
 Alpha virt. eigenvalues --    0.18469   0.18800   0.19533   0.19705   0.20040
 Alpha virt. eigenvalues --    0.20159   0.20465   0.20853   0.21040   0.21375
 Alpha virt. eigenvalues --    0.21666   0.22099   0.22277   0.22811   0.22981
 Alpha virt. eigenvalues --    0.23447   0.23602   0.23874   0.24145   0.24370
 Alpha virt. eigenvalues --    0.24668   0.25298   0.25524   0.25555   0.25952
 Alpha virt. eigenvalues --    0.26041   0.26617   0.27043   0.27220   0.27563
 Alpha virt. eigenvalues --    0.27948   0.28173   0.28579   0.28635   0.28754
 Alpha virt. eigenvalues --    0.29020   0.29250   0.29793   0.29845   0.30719
 Alpha virt. eigenvalues --    0.31028   0.31264   0.31518   0.31915   0.32126
 Alpha virt. eigenvalues --    0.32470   0.32685   0.32858   0.33782   0.34062
 Alpha virt. eigenvalues --    0.34252   0.34374   0.34768   0.35029   0.35906
 Alpha virt. eigenvalues --    0.36215   0.36394   0.36608   0.37146   0.37390
 Alpha virt. eigenvalues --    0.37697   0.37915   0.38425   0.38676   0.39501
 Alpha virt. eigenvalues --    0.39774   0.40006   0.40444   0.41183   0.41615
 Alpha virt. eigenvalues --    0.42359   0.42648   0.43051   0.43084   0.43415
 Alpha virt. eigenvalues --    0.44316   0.44692   0.45385   0.45733   0.46196
 Alpha virt. eigenvalues --    0.46546   0.47820   0.48607   0.49069   0.50691
 Alpha virt. eigenvalues --    0.51480   0.52127   0.54485   0.57667   0.58082
 Alpha virt. eigenvalues --    0.58515   0.59916   0.60261   0.61412   0.61889
 Alpha virt. eigenvalues --    0.62698   0.63238   0.63935   0.64595   0.66021
 Alpha virt. eigenvalues --    0.66711   0.67295   0.67505   0.68953   0.69570
 Alpha virt. eigenvalues --    0.70018   0.70798   0.71419   0.71875   0.72750
 Alpha virt. eigenvalues --    0.74708   0.75016   0.75051   0.75621   0.76568
 Alpha virt. eigenvalues --    0.76937   0.77540   0.79726   0.79940   0.80087
 Alpha virt. eigenvalues --    0.81291   0.81962   0.82654   0.83420   0.84079
 Alpha virt. eigenvalues --    0.85365   0.86393   0.86838   0.87801   0.88695
 Alpha virt. eigenvalues --    0.88790   0.89473   0.90066   0.90889   0.91256
 Alpha virt. eigenvalues --    0.91717   0.91988   0.92482   0.92994   0.93450
 Alpha virt. eigenvalues --    0.93522   0.94514   0.94708   0.95390   0.95949
 Alpha virt. eigenvalues --    0.95976   0.96549   0.97011   0.97706   0.97879
 Alpha virt. eigenvalues --    0.98903   0.99356   1.00175   1.01013   1.01412
 Alpha virt. eigenvalues --    1.01780   1.02264   1.03299   1.04303   1.04515
 Alpha virt. eigenvalues --    1.05449   1.05698   1.06539   1.07360   1.08176
 Alpha virt. eigenvalues --    1.08821   1.09426   1.09716   1.10106   1.10850
 Alpha virt. eigenvalues --    1.11628   1.11984   1.12324   1.12789   1.13266
 Alpha virt. eigenvalues --    1.14013   1.15158   1.15982   1.16349   1.17243
 Alpha virt. eigenvalues --    1.17921   1.18000   1.18533   1.18759   1.19512
 Alpha virt. eigenvalues --    1.19802   1.20762   1.21111   1.21240   1.22422
 Alpha virt. eigenvalues --    1.22980   1.23444   1.23646   1.24056   1.24516
 Alpha virt. eigenvalues --    1.24984   1.26037   1.26150   1.26666   1.26940
 Alpha virt. eigenvalues --    1.27343   1.28290   1.29448   1.29994   1.30580
 Alpha virt. eigenvalues --    1.30870   1.31305   1.32805   1.33231   1.33685
 Alpha virt. eigenvalues --    1.33977   1.34458   1.35273   1.35840   1.36339
 Alpha virt. eigenvalues --    1.37280   1.37770   1.38788   1.39195   1.39588
 Alpha virt. eigenvalues --    1.40420   1.41235   1.42228   1.42566   1.44005
 Alpha virt. eigenvalues --    1.44677   1.45474   1.46625   1.46906   1.47676
 Alpha virt. eigenvalues --    1.47890   1.49261   1.49656   1.50379   1.51397
 Alpha virt. eigenvalues --    1.52268   1.53119   1.54393   1.55435   1.56714
 Alpha virt. eigenvalues --    1.56925   1.57407   1.57798   1.59006   1.59811
 Alpha virt. eigenvalues --    1.61244   1.61769   1.63251   1.63539   1.64002
 Alpha virt. eigenvalues --    1.64783   1.65181   1.65964   1.66897   1.67499
 Alpha virt. eigenvalues --    1.68965   1.69296   1.70559   1.71691   1.73307
 Alpha virt. eigenvalues --    1.73402   1.73739   1.74872   1.75810   1.77425
 Alpha virt. eigenvalues --    1.78118   1.78318   1.79158   1.79812   1.80669
 Alpha virt. eigenvalues --    1.81806   1.83306   1.84054   1.85192   1.86407
 Alpha virt. eigenvalues --    1.87414   1.88468   1.88534   1.89125   1.90964
 Alpha virt. eigenvalues --    1.92397   1.92459   1.93495   1.93775   1.95139
 Alpha virt. eigenvalues --    1.95886   1.98484   1.99618   2.00319   2.01799
 Alpha virt. eigenvalues --    2.02224   2.02976   2.04236   2.04605   2.05839
 Alpha virt. eigenvalues --    2.06757   2.08772   2.09971   2.10209   2.12540
 Alpha virt. eigenvalues --    2.14192   2.15540   2.16716   2.18199   2.21161
 Alpha virt. eigenvalues --    2.21403   2.22375   2.23597   2.24718   2.25880
 Alpha virt. eigenvalues --    2.26098   2.28896   2.29842   2.30004   2.31068
 Alpha virt. eigenvalues --    2.32818   2.34045   2.36100   2.39634   2.41768
 Alpha virt. eigenvalues --    2.43371   2.44450   2.47262   2.48694   2.49578
 Alpha virt. eigenvalues --    2.50956   2.52524   2.52604   2.53399   2.53685
 Alpha virt. eigenvalues --    2.55758   2.56510   2.57735   2.57793   2.59880
 Alpha virt. eigenvalues --    2.60641   2.62088   2.62742   2.63586   2.65444
 Alpha virt. eigenvalues --    2.66055   2.67450   2.68381   2.69736   2.71667
 Alpha virt. eigenvalues --    2.72331   2.72822   2.74085   2.76132   2.77807
 Alpha virt. eigenvalues --    2.78568   2.80557   2.81024   2.81341   2.82917
 Alpha virt. eigenvalues --    2.84179   2.84913   2.86886   2.88194   2.88733
 Alpha virt. eigenvalues --    2.89940   2.90363   2.91223   2.92066   2.92935
 Alpha virt. eigenvalues --    2.94239   2.95038   2.96108   2.97153   2.98066
 Alpha virt. eigenvalues --    2.99693   3.00208   3.00527   3.01574   3.03466
 Alpha virt. eigenvalues --    3.04508   3.04827   3.05797   3.06237   3.06846
 Alpha virt. eigenvalues --    3.08193   3.09254   3.09453   3.10166   3.10554
 Alpha virt. eigenvalues --    3.12569   3.13395   3.14853   3.16193   3.17339
 Alpha virt. eigenvalues --    3.18626   3.19660   3.19754   3.21440   3.22023
 Alpha virt. eigenvalues --    3.23351   3.24412   3.25558   3.27371   3.27505
 Alpha virt. eigenvalues --    3.28077   3.29589   3.30613   3.31268   3.32372
 Alpha virt. eigenvalues --    3.33809   3.35140   3.36869   3.37063   3.39284
 Alpha virt. eigenvalues --    3.40246   3.42442   3.42921   3.43197   3.44529
 Alpha virt. eigenvalues --    3.47000   3.47894   3.48795   3.50197   3.53111
 Alpha virt. eigenvalues --    3.54290   3.55780   3.56386   3.57183   3.60497
 Alpha virt. eigenvalues --    3.61128   3.62863   3.65297   3.65567   3.67052
 Alpha virt. eigenvalues --    3.70081   3.70168   3.71145   3.73383   3.74952
 Alpha virt. eigenvalues --    3.76158   3.76521   3.76955   3.78841   3.79255
 Alpha virt. eigenvalues --    3.79785   3.81930   3.82349   3.82749   3.86338
 Alpha virt. eigenvalues --    3.87391   3.88181   3.88468   3.90648   3.92042
 Alpha virt. eigenvalues --    3.95234   3.96158   3.99446   4.02654   4.04517
 Alpha virt. eigenvalues --    4.07480   4.08275   4.08727   4.09873   4.13870
 Alpha virt. eigenvalues --    4.15363   4.15804   4.16966   4.17686   4.18319
 Alpha virt. eigenvalues --    4.18998   4.19941   4.23713   4.25113   4.26773
 Alpha virt. eigenvalues --    4.27085   4.27631   4.28223   4.29133   4.31186
 Alpha virt. eigenvalues --    4.31297   4.32913   4.33177   4.34024   4.35651
 Alpha virt. eigenvalues --    4.35965   4.36746   4.37645   4.37949   4.39395
 Alpha virt. eigenvalues --    4.40806   4.41583   4.42144   4.42613   4.43231
 Alpha virt. eigenvalues --    4.44335   4.44964   4.46504   4.46799   4.47606
 Alpha virt. eigenvalues --    4.48005   4.48873   4.50130   4.50568   4.51141
 Alpha virt. eigenvalues --    4.51892   4.52252   4.53269   4.53737   4.54621
 Alpha virt. eigenvalues --    4.55861   4.56356   4.56698   4.57873   4.58102
 Alpha virt. eigenvalues --    4.58528   4.59886   4.60595   4.61981   4.62471
 Alpha virt. eigenvalues --    4.62883   4.63219   4.64451   4.65114   4.65559
 Alpha virt. eigenvalues --    4.66522   4.66874   4.67018   4.68149   4.69022
 Alpha virt. eigenvalues --    4.69210   4.70401   4.70679   4.72074   4.72942
 Alpha virt. eigenvalues --    4.73600   4.73952   4.74388   4.75282   4.75473
 Alpha virt. eigenvalues --    4.76495   4.77566   4.77738   4.79250   4.79911
 Alpha virt. eigenvalues --    4.80609   4.80926   4.81860   4.82300   4.82889
 Alpha virt. eigenvalues --    4.84068   4.84848   4.84961   4.86253   4.86460
 Alpha virt. eigenvalues --    4.87749   4.88185   4.88993   4.90546   4.91243
 Alpha virt. eigenvalues --    4.91757   4.92054   4.93728   4.94522   4.96117
 Alpha virt. eigenvalues --    4.96373   4.98879   5.00426   5.01200   5.02556
 Alpha virt. eigenvalues --    5.05266   5.07069   5.08730   5.09634   5.10999
 Alpha virt. eigenvalues --    5.12939   5.14464   5.16344   5.18710   5.19838
 Alpha virt. eigenvalues --    5.19876   5.21342   5.21865   5.22552   5.23429
 Alpha virt. eigenvalues --    5.24787   5.26328   5.27209   5.28021   5.29350
 Alpha virt. eigenvalues --    5.29747   5.30688   5.32782   5.33371   5.36719
 Alpha virt. eigenvalues --    5.36988   5.38419   5.38686   5.38896   5.39492
 Alpha virt. eigenvalues --    5.40230   5.41378   5.41819   5.42629   5.42959
 Alpha virt. eigenvalues --    5.44056   5.44905   5.45759   5.46329   5.46602
 Alpha virt. eigenvalues --    5.48467   5.48512   5.49791   5.50347   5.51026
 Alpha virt. eigenvalues --    5.52510   5.54426   5.55468   5.57142   5.57985
 Alpha virt. eigenvalues --    5.59438   5.61030   5.62137   5.64849   5.65840
 Alpha virt. eigenvalues --    5.69932   5.70877   5.73493   5.74505   5.75388
 Alpha virt. eigenvalues --    5.76998   5.77500   5.79913   5.81440   5.84981
 Alpha virt. eigenvalues --    5.86345   5.87194   5.88126   5.88817   5.90814
 Alpha virt. eigenvalues --    5.91134   5.91975   5.92737   5.94203   5.94708
 Alpha virt. eigenvalues --    5.95458   5.96084   5.97029   5.98906   6.00211
 Alpha virt. eigenvalues --    6.01646   6.02495   6.03548   6.04893   6.05434
 Alpha virt. eigenvalues --    6.07287   6.08836   6.10006   6.12409   6.13031
 Alpha virt. eigenvalues --    6.14991   6.18313   6.20519   6.22186   6.23853
 Alpha virt. eigenvalues --    6.26458   6.28249   6.32395   6.38480   6.43119
 Alpha virt. eigenvalues --    6.54005   6.69284   6.95481   7.03399   7.06137
 Alpha virt. eigenvalues --    7.11861   7.17459   7.21848   7.24325   7.28341
 Alpha virt. eigenvalues --    7.34034   7.41367   7.56374   7.61670   7.76348
 Alpha virt. eigenvalues --    8.03767   8.22998  12.09953  12.17749  12.21913
 Alpha virt. eigenvalues --   12.29544  12.52315  12.61665  12.83558  12.91462
 Alpha virt. eigenvalues --   13.01427  13.13501  13.25584  13.37300  13.40583
 Alpha virt. eigenvalues --   13.41521  13.48146  13.49480  13.63368  13.67039
 Alpha virt. eigenvalues --   13.70986  13.91002  13.92353  14.23152  14.46758
          Condensed to atoms (all electrons):
              1          2          3          4          5          6
     1  O    8.076378   0.209794  -0.019658  -0.017035   0.023166   0.049308
     2  C    0.209794   7.085340  -1.048352   0.041718  -0.012604  -0.980163
     3  C   -0.019658  -1.048352   7.991405   0.134423  -0.056157  -0.467365
     4  O   -0.017035   0.041718   0.134423   8.132288   0.232505  -0.059540
     5  H    0.023166  -0.012604  -0.056157   0.232505   0.446650   0.033246
     6  C    0.049308  -0.980163  -0.467365  -0.059540   0.033246   8.275714
     7  O   -0.000123   0.031383  -0.074972   0.005792  -0.000669   0.230081
     8  H    0.000020  -0.006672   0.013214  -0.000284   0.000011   0.002832
     9  C   -0.049802  -0.083375  -0.312166   0.014108   0.001232   0.234886
    10  O   -0.017913   0.002544   0.015766  -0.000031   0.000065  -0.006134
    11  H    0.000659  -0.005670  -0.002916   0.000001   0.000000  -0.000178
    12  C   -0.031161  -0.101173  -0.408479   0.018009   0.013905   0.346090
    13  O    0.003912  -0.064679  -0.026750  -0.003784   0.000034  -0.005776
    14  C   -0.033285   0.309911   0.566676   0.012326  -0.004810  -2.075350
    15  O   -0.000084  -0.003658   0.004817   0.000738  -0.000001  -0.054315
    16  C   -0.000203   0.105623  -0.325352  -0.001449   0.000737   0.106719
    17  C    0.000265  -0.020494   0.056560  -0.000057   0.000003   0.061399
    18  O    0.000040   0.004880  -0.001238  -0.000018   0.000000   0.008050
    19  H    0.000013  -0.006221   0.008393   0.000007   0.000000  -0.011255
    20  C   -0.000015   0.005533  -0.003038  -0.000072   0.000001   0.062807
    21  O    0.000000  -0.000059   0.000051   0.000000   0.000000  -0.000195
    22  H    0.000000   0.000001   0.000001   0.000000   0.000000  -0.000019
    23  C    0.000018   0.014623  -0.045248  -0.000261   0.000020   0.002387
    24  O    0.000002  -0.002699  -0.004783   0.000074  -0.000002  -0.013680
    25  H    0.000000   0.000221   0.000766   0.000003   0.000000  -0.004625
    26  C   -0.000062  -0.000271   0.036746   0.001161  -0.000029  -0.067267
    27  O    0.000000  -0.000072   0.000149   0.000001   0.000000   0.001773
    28  C    0.000003  -0.001623  -0.000142   0.000013   0.000000  -0.023051
    29  O    0.000000   0.000005   0.000012   0.000000   0.000000  -0.000174
    30  H    0.000000   0.000000   0.000000   0.000000   0.000000   0.000002
    31  H    0.000000  -0.000006   0.000011   0.000000   0.000000  -0.000252
    32  H    0.000000   0.000084   0.000076   0.000000   0.000000  -0.000250
    33  H    0.000000   0.000945  -0.000058   0.000000   0.000000   0.006534
    34  H   -0.000002   0.000059   0.004510   0.000002   0.000000   0.009762
    35  H    0.000000   0.000011   0.000195   0.000000   0.000000   0.000704
    36  H    0.000000  -0.000032  -0.000263   0.000000   0.000000   0.000422
    37  H    0.000000   0.000322  -0.000279  -0.000001   0.000000  -0.000828
    38  H    0.270248   0.051433  -0.076953   0.002074   0.000282  -0.004195
    39  H    0.000076  -0.005954  -0.032515  -0.000381   0.000005   0.076467
    40  H   -0.000385   0.031053  -0.103010   0.001239  -0.000183   0.356732
    41  H   -0.007881   0.033371   0.273005  -0.024891  -0.003121  -0.155488
    42  H   -0.014893   0.326661  -0.061442   0.002639   0.000140  -0.004178
    43  H    0.000799   0.076773  -0.032223   0.000293  -0.000004  -0.036457
    44  H   -0.000132  -0.008687   0.006680   0.000003   0.000000  -0.003846
    45  H    0.000680   0.001790  -0.007284   0.000025  -0.000001   0.017034
              7          8          9         10         11         12
     1  O   -0.000123   0.000020  -0.049802  -0.017913   0.000659  -0.031161
     2  C    0.031383  -0.006672  -0.083375   0.002544  -0.005670  -0.101173
     3  C   -0.074972   0.013214  -0.312166   0.015766  -0.002916  -0.408479
     4  O    0.005792  -0.000284   0.014108  -0.000031   0.000001   0.018009
     5  H   -0.000669   0.000011   0.001232   0.000065   0.000000   0.013905
     6  C    0.230081   0.002832   0.234886  -0.006134  -0.000178   0.346090
     7  O    8.139978   0.245289   0.000861  -0.000001   0.000000   0.007315
     8  H    0.245289   0.337345   0.000469   0.000000   0.000000   0.001629
     9  C    0.000861   0.000469   6.743948   0.165352  -0.042939  -0.999016
    10  O   -0.000001   0.000000   0.165352   8.128384   0.242090  -0.021061
    11  H    0.000000   0.000000  -0.042939   0.242090   0.435554   0.045580
    12  C    0.007315   0.001629  -0.999016  -0.021061   0.045580   8.109243
    13  O    0.005231  -0.001293  -0.039602  -0.001939  -0.000258   0.035759
    14  C   -0.079677  -0.025147  -0.342115   0.013776  -0.003057  -0.814624
    15  O   -0.000220   0.009525   0.004123   0.000038  -0.000001   0.006484
    16  C    0.048996   0.007833  -0.029684  -0.000123   0.000167   0.089168
    17  C   -0.002141  -0.000087  -0.035896   0.000418  -0.000024  -0.056819
    18  O   -0.000069  -0.000007   0.003346  -0.000089   0.000010  -0.016606
    19  H   -0.000109   0.000000   0.004036  -0.000001   0.000000  -0.010438
    20  C    0.001645   0.000228   0.007287  -0.000024  -0.000008  -0.013387
    21  O   -0.000006   0.000000   0.000208   0.000000   0.000000  -0.000179
    22  H    0.000000   0.000000  -0.000003   0.000000   0.000000   0.000019
    23  C    0.019639  -0.001208   0.006184  -0.000011  -0.000001  -0.002973
    24  O   -0.034888   0.026887   0.000000   0.000000   0.000000  -0.001393
    25  H    0.000632  -0.004100  -0.000007   0.000000   0.000000  -0.000119
    26  C   -0.031546  -0.016244  -0.010310   0.000039   0.000011   0.037718
    27  O    0.000056  -0.000131  -0.000104   0.000000   0.000000   0.000190
    28  C    0.000008   0.000318  -0.002699  -0.000004   0.000001   0.006171
    29  O   -0.000004  -0.000001  -0.000012   0.000000   0.000000   0.000054
    30  H    0.000000   0.000000   0.000000   0.000000   0.000000   0.000000
    31  H    0.000001   0.000000   0.000000   0.000000   0.000000   0.000023
    32  H    0.000003   0.000000  -0.000089   0.000000   0.000000   0.000440
    33  H   -0.000018  -0.000002  -0.000072   0.000000   0.000000  -0.000844
    34  H   -0.002412  -0.000003  -0.001031   0.000000   0.000000  -0.001842
    35  H   -0.000229   0.000042   0.000044   0.000000   0.000000  -0.000049
    36  H   -0.000484   0.000449   0.000001   0.000000   0.000000  -0.000032
    37  H    0.002157  -0.000573   0.000043   0.000000   0.000000   0.000400
    38  H   -0.000007   0.000000   0.007429  -0.000589  -0.000010   0.005994
    39  H   -0.008700  -0.000045   0.007057  -0.000005   0.000000   0.023743
    40  H   -0.020724  -0.005420   0.007975   0.000000   0.000000   0.028702
    41  H    0.002591  -0.000092   0.016181  -0.000051   0.000000   0.040169
    42  H    0.000131   0.000004  -0.002607  -0.000380  -0.000034  -0.028367
    43  H   -0.000074   0.000003   0.052090   0.001092  -0.000147   0.112737
    44  H   -0.000014   0.000000   0.422910  -0.029244  -0.008813  -0.060487
    45  H    0.000008   0.000000   0.625313  -0.052366  -0.003553  -0.262274
             13         14         15         16         17         18
     1  O    0.003912  -0.033285  -0.000084  -0.000203   0.000265   0.000040
     2  C   -0.064679   0.309911  -0.003658   0.105623  -0.020494   0.004880
     3  C   -0.026750   0.566676   0.004817  -0.325352   0.056560  -0.001238
     4  O   -0.003784   0.012326   0.000738  -0.001449  -0.000057  -0.000018
     5  H    0.000034  -0.004810  -0.000001   0.000737   0.000003   0.000000
     6  C   -0.005776  -2.075350  -0.054315   0.106719   0.061399   0.008050
     7  O    0.005231  -0.079677  -0.000220   0.048996  -0.002141  -0.000069
     8  H   -0.001293  -0.025147   0.009525   0.007833  -0.000087  -0.000007
     9  C   -0.039602  -0.342115   0.004123  -0.029684  -0.035896   0.003346
    10  O   -0.001939   0.013776   0.000038  -0.000123   0.000418  -0.000089
    11  H   -0.000258  -0.003057  -0.000001   0.000167  -0.000024   0.000010
    12  C    0.035759  -0.814624   0.006484   0.089168  -0.056819  -0.016606
    13  O    7.956610   0.196947  -0.051369   0.078347  -0.043372  -0.006548
    14  C    0.196947   8.963800   0.302839  -0.746601  -0.263835  -0.010880
    15  O   -0.051369   0.302839   7.853480   0.037208   0.038579  -0.016783
    16  C    0.078347  -0.746601   0.037208  11.026846  -2.689491   0.019056
    17  C   -0.043372  -0.263835   0.038579  -2.689491   8.852749   0.240268
    18  O   -0.006548  -0.010880  -0.016783   0.019056   0.240268   8.085709
    19  H    0.004434   0.023985   0.029351  -0.121719   0.060027   0.234855
    20  C   -0.010173  -0.125524   0.008138  -0.738585   0.117252  -0.092967
    21  O   -0.000264   0.006535   0.000187   0.046160  -0.100786  -0.002430
    22  H   -0.000004  -0.000537  -0.000010  -0.011607   0.016254   0.000266
    23  C    0.004025   0.001589  -0.000811   0.716390  -0.596718   0.018444
    24  O   -0.000793   0.080323  -0.017027  -0.066710   0.013601  -0.000074
    25  H   -0.000008  -0.001009   0.000573  -0.010469  -0.001247   0.000000
    26  C   -0.012440  -0.139961  -0.093725  -2.195340   0.418272  -0.025626
    27  O    0.000342   0.006229   0.001277   0.021421  -0.017251  -0.000666
    28  C    0.000440   0.025410   0.002330   0.446572   0.009765   0.005919
    29  O    0.000034  -0.000171  -0.000150  -0.028759   0.010099   0.000208
    30  H    0.000000   0.000063   0.000001   0.004365   0.001662  -0.000007
    31  H    0.000014   0.001830   0.000415   0.037421  -0.030581   0.001066
    32  H    0.000142  -0.006677   0.001560   0.077042  -0.197884   0.009402
    33  H    0.000361  -0.023049  -0.000773  -0.046435   0.201291  -0.015151
    34  H   -0.007321  -0.040837  -0.001811   0.141039   0.017203   0.000586
    35  H   -0.000282   0.009194  -0.001153   0.003693  -0.028859   0.001566
    36  H    0.000038   0.001429  -0.000619  -0.006049   0.004037   0.000013
    37  H   -0.000208  -0.010677   0.005494   0.062325  -0.002724   0.000090
    38  H   -0.000835   0.005614   0.000003   0.000286  -0.000012  -0.000001
    39  H   -0.030840   0.246681  -0.028782  -0.013958   0.027020  -0.000818
    40  H    0.006904  -0.029684  -0.012285   0.001158  -0.002603   0.000049
    41  H    0.003019   0.053185   0.001374   0.000980  -0.000453   0.000007
    42  H    0.004690   0.049721   0.000844  -0.001242   0.000270   0.000034
    43  H   -0.020957   0.117179  -0.000715  -0.007246   0.003099   0.000061
    44  H   -0.006078   0.005563  -0.000534   0.001343  -0.000798  -0.000221
    45  H   -0.000593  -0.006192   0.000034  -0.006438   0.001466  -0.000179
             19         20         21         22         23         24
     1  O    0.000013  -0.000015   0.000000   0.000000   0.000018   0.000002
     2  C   -0.006221   0.005533  -0.000059   0.000001   0.014623  -0.002699
     3  C    0.008393  -0.003038   0.000051   0.000001  -0.045248  -0.004783
     4  O    0.000007  -0.000072   0.000000   0.000000  -0.000261   0.000074
     5  H    0.000000   0.000001   0.000000   0.000000   0.000020  -0.000002
     6  C   -0.011255   0.062807  -0.000195  -0.000019   0.002387  -0.013680
     7  O   -0.000109   0.001645  -0.000006   0.000000   0.019639  -0.034888
     8  H    0.000000   0.000228   0.000000   0.000000  -0.001208   0.026887
     9  C    0.004036   0.007287   0.000208  -0.000003   0.006184   0.000000
    10  O   -0.000001  -0.000024   0.000000   0.000000  -0.000011   0.000000
    11  H    0.000000  -0.000008   0.000000   0.000000  -0.000001   0.000000
    12  C   -0.010438  -0.013387  -0.000179   0.000019  -0.002973  -0.001393
    13  O    0.004434  -0.010173  -0.000264  -0.000004   0.004025  -0.000793
    14  C    0.023985  -0.125524   0.006535  -0.000537   0.001589   0.080323
    15  O    0.029351   0.008138   0.000187  -0.000010  -0.000811  -0.017027
    16  C   -0.121719  -0.738585   0.046160  -0.011607   0.716390  -0.066710
    17  C    0.060027   0.117252  -0.100786   0.016254  -0.596718   0.013601
    18  O    0.234855  -0.092967  -0.002430   0.000266   0.018444  -0.000074
    19  H    0.370735   0.004273  -0.000180   0.000016  -0.004367   0.000070
    20  C    0.004273   6.662870   0.190486  -0.019582   0.064975  -0.004880
    21  O   -0.000180   0.190486   8.073423   0.238096   0.000665  -0.000002
    22  H    0.000016  -0.019582   0.238096   0.433963   0.000140   0.000000
    23  C   -0.004367   0.064975   0.000665   0.000140   6.491928   0.015599
    24  O    0.000070  -0.004880  -0.000002   0.000000   0.015599   8.183798
    25  H    0.000000   0.000611   0.000000   0.000000  -0.022511   0.269681
    26  C    0.019026   0.367203  -0.029293   0.007723  -1.200671   0.115474
    27  O    0.000078  -0.051566   0.000707   0.000068  -0.074790   0.003293
    28  C   -0.000185  -0.716785   0.019067  -0.004181  -0.113714   0.006734
    29  O   -0.000006  -0.055101  -0.004277   0.009121   0.007635   0.000008
    30  H    0.000000  -0.009629   0.000080  -0.000838  -0.000461  -0.000001
    31  H    0.000002  -0.134985   0.002947  -0.000355   0.004163   0.000019
    32  H   -0.000116   0.337836  -0.020853  -0.003691   0.010878   0.000003
    33  H   -0.001989   0.058043  -0.000412  -0.000192   0.025331  -0.000139
    34  H    0.000362   0.039956   0.000123   0.000003  -0.029276   0.000600
    35  H    0.000048  -0.027830   0.000120   0.000005   0.106399   0.000466
    36  H    0.000001   0.001285  -0.000009   0.000000   0.419848  -0.027827
    37  H   -0.000003   0.001169  -0.000002   0.000000   0.537513  -0.055917
    38  H    0.000000   0.000001   0.000000   0.000000   0.000004   0.000000
    39  H    0.000290   0.004926   0.000002   0.000000  -0.002323   0.000014
    40  H   -0.000044   0.000242   0.000000   0.000000   0.002275   0.001229
    41  H    0.000000  -0.000050   0.000000   0.000000   0.000293   0.000041
    42  H    0.000021  -0.000067   0.000000   0.000000   0.000036   0.000003
    43  H    0.000110  -0.000066   0.000000   0.000000   0.000064  -0.000001
    44  H   -0.000034  -0.000078   0.000000   0.000000  -0.000015   0.000000
    45  H    0.000390   0.000232   0.000001   0.000000   0.000023   0.000000
             25         26         27         28         29         30
     1  O    0.000000  -0.000062   0.000000   0.000003   0.000000   0.000000
     2  C    0.000221  -0.000271  -0.000072  -0.001623   0.000005   0.000000
     3  C    0.000766   0.036746   0.000149  -0.000142   0.000012   0.000000
     4  O    0.000003   0.001161   0.000001   0.000013   0.000000   0.000000
     5  H    0.000000  -0.000029   0.000000   0.000000   0.000000   0.000000
     6  C   -0.004625  -0.067267   0.001773  -0.023051  -0.000174   0.000002
     7  O    0.000632  -0.031546   0.000056   0.000008  -0.000004   0.000000
     8  H   -0.004100  -0.016244  -0.000131   0.000318  -0.000001   0.000000
     9  C   -0.000007  -0.010310  -0.000104  -0.002699  -0.000012   0.000000
    10  O    0.000000   0.000039   0.000000  -0.000004   0.000000   0.000000
    11  H    0.000000   0.000011   0.000000   0.000001   0.000000   0.000000
    12  C   -0.000119   0.037718   0.000190   0.006171   0.000054   0.000000
    13  O   -0.000008  -0.012440   0.000342   0.000440   0.000034   0.000000
    14  C   -0.001009  -0.139961   0.006229   0.025410  -0.000171   0.000063
    15  O    0.000573  -0.093725   0.001277   0.002330  -0.000150   0.000001
    16  C   -0.010469  -2.195340   0.021421   0.446572  -0.028759   0.004365
    17  C   -0.001247   0.418272  -0.017251   0.009765   0.010099   0.001662
    18  O    0.000000  -0.025626  -0.000666   0.005919   0.000208  -0.000007
    19  H    0.000000   0.019026   0.000078  -0.000185  -0.000006   0.000000
    20  C    0.000611   0.367203  -0.051566  -0.716785  -0.055101  -0.009629
    21  O    0.000000  -0.029293   0.000707   0.019067  -0.004277   0.000080
    22  H    0.000000   0.007723   0.000068  -0.004181   0.009121  -0.000838
    23  C   -0.022511  -1.200671  -0.074790  -0.113714   0.007635  -0.000461
    24  O    0.269681   0.115474   0.003293   0.006734   0.000008  -0.000001
    25  H    0.390535   0.024462  -0.000869  -0.001134  -0.000003   0.000000
    26  C    0.024462   9.178080   0.139758  -0.554515  -0.025693  -0.001153
    27  O   -0.000869   0.139758   7.896215   0.203741  -0.040154   0.000134
    28  C   -0.001134  -0.554515   0.203741   6.010672   0.347402  -0.010126
    29  O   -0.000003  -0.025693  -0.040154   0.347402   7.995150   0.271266
    30  H    0.000000  -0.001153   0.000134  -0.010126   0.271266   0.408209
    31  H    0.000000  -0.003117  -0.049436   0.449712  -0.026353  -0.009760
    32  H    0.000000   0.019246  -0.000646   0.019330  -0.000780  -0.000085
    33  H    0.000000   0.076703   0.002177  -0.045543   0.000002   0.000011
    34  H   -0.000002   0.118477   0.005371   0.004344  -0.000630   0.000004
    35  H   -0.000170   0.143986  -0.020341   0.055576  -0.000902   0.000014
    36  H   -0.007533  -0.045793  -0.008317  -0.002845  -0.000261   0.000000
    37  H   -0.002436  -0.244711   0.003083   0.003426  -0.000067   0.000000
    38  H    0.000000  -0.000004   0.000000   0.000000   0.000000   0.000000
    39  H    0.000003   0.013945   0.000253  -0.000874  -0.000003   0.000000
    40  H    0.000016   0.003738   0.000014   0.000092   0.000000   0.000000
    41  H    0.000000   0.000882   0.000000   0.000003   0.000000   0.000000
    42  H    0.000000   0.000019   0.000000   0.000001   0.000000   0.000000
    43  H    0.000000  -0.001038  -0.000001  -0.000049   0.000000   0.000000
    44  H    0.000000  -0.000122   0.000000   0.000030   0.000000   0.000000
    45  H    0.000000  -0.000207   0.000000  -0.000064   0.000000   0.000000
             31         32         33         34         35         36
     1  O    0.000000   0.000000   0.000000  -0.000002   0.000000   0.000000
     2  C   -0.000006   0.000084   0.000945   0.000059   0.000011  -0.000032
     3  C    0.000011   0.000076  -0.000058   0.004510   0.000195  -0.000263
     4  O    0.000000   0.000000   0.000000   0.000002   0.000000   0.000000
     5  H    0.000000   0.000000   0.000000   0.000000   0.000000   0.000000
     6  C   -0.000252  -0.000250   0.006534   0.009762   0.000704   0.000422
     7  O    0.000001   0.000003  -0.000018  -0.002412  -0.000229  -0.000484
     8  H    0.000000   0.000000  -0.000002  -0.000003   0.000042   0.000449
     9  C    0.000000  -0.000089  -0.000072  -0.001031   0.000044   0.000001
    10  O    0.000000   0.000000   0.000000   0.000000   0.000000   0.000000
    11  H    0.000000   0.000000   0.000000   0.000000   0.000000   0.000000
    12  C    0.000023   0.000440  -0.000844  -0.001842  -0.000049  -0.000032
    13  O    0.000014   0.000142   0.000361  -0.007321  -0.000282   0.000038
    14  C    0.001830  -0.006677  -0.023049  -0.040837   0.009194   0.001429
    15  O    0.000415   0.001560  -0.000773  -0.001811  -0.001153  -0.000619
    16  C    0.037421   0.077042  -0.046435   0.141039   0.003693  -0.006049
    17  C   -0.030581  -0.197884   0.201291   0.017203  -0.028859   0.004037
    18  O    0.001066   0.009402  -0.015151   0.000586   0.001566   0.000013
    19  H    0.000002  -0.000116  -0.001989   0.000362   0.000048   0.000001
    20  C   -0.134985   0.337836   0.058043   0.039956  -0.027830   0.001285
    21  O    0.002947  -0.020853  -0.000412   0.000123   0.000120  -0.000009
    22  H   -0.000355  -0.003691  -0.000192   0.000003   0.000005   0.000000
    23  C    0.004163   0.010878   0.025331  -0.029276   0.106399   0.419848
    24  O    0.000019   0.000003  -0.000139   0.000600   0.000466  -0.027827
    25  H    0.000000   0.000000   0.000000  -0.000002  -0.000170  -0.007533
    26  C   -0.003117   0.019246   0.076703   0.118477   0.143986  -0.045793
    27  O   -0.049436  -0.000646   0.002177   0.005371  -0.020341  -0.008317
    28  C    0.449712   0.019330  -0.045543   0.004344   0.055576  -0.002845
    29  O   -0.026353  -0.000780   0.000002  -0.000630  -0.000902  -0.000261
    30  H   -0.009760  -0.000085   0.000011   0.000004   0.000014   0.000000
    31  H    0.624525   0.006498   0.002302  -0.000006   0.003657  -0.000054
    32  H    0.006498   0.604763   0.005993   0.002311  -0.000036   0.000000
    33  H    0.002302   0.005993   0.618285   0.005601   0.002699   0.000000
    34  H   -0.000006   0.002311   0.005601   0.592875   0.005556   0.000056
    35  H    0.003657  -0.000036   0.002699   0.005556   0.606907  -0.001937
    36  H   -0.000054   0.000000   0.000000   0.000056  -0.001937   0.565610
    37  H   -0.000013  -0.000013  -0.000011   0.002187   0.005841  -0.042132
    38  H    0.000000   0.000000   0.000000   0.000000   0.000000   0.000000
    39  H    0.000000  -0.000001   0.000007   0.006527  -0.000002   0.000008
    40  H    0.000000   0.000000  -0.000005  -0.000003  -0.000003   0.000002
    41  H    0.000000   0.000000   0.000000  -0.000002   0.000000   0.000000
    42  H    0.000000   0.000000   0.000000   0.000000   0.000000   0.000000
    43  H    0.000000   0.000000   0.000000  -0.000022   0.000000   0.000000
    44  H    0.000000   0.000000   0.000000  -0.000003   0.000000   0.000000
    45  H    0.000000   0.000000   0.000000  -0.000001   0.000000   0.000000
             37         38         39         40         41         42
     1  O    0.000000   0.270248   0.000076  -0.000385  -0.007881  -0.014893
[...]
 023627,0.00005350,-0.00007903,-0.00008841,-0.01678905,0.00756441,0.002
 38132,0.00236459,-0.00019718,-0.00039878,-0.00017986,-0.00013478,-0.00
 003139,0.00010543,0.00001741,0.00010281,0.00000090,0.00001161,-0.00000
 662,-0.00000380,0.00004234,0.00003735,0.00003324,-0.00005812,-0.000044
 60,-0.00005255,0.00005094,0.00003847,-0.00000741,-0.00000025,-0.000003
 52,0.00000532,-0.00000831,-0.00000122,-0.00000044,0.00000083,0.0000002
 8,-0.00000473,0.00000642,-0.00001032,0.00001221,-0.00000581,0.00001869
 ,-0.00000486,-0.00000015,-0.00000535,-0.00000547,-0.00000050,0.0000056
 6,0.00000737,-0.00001231,0.00000220,-0.00000792,0.00001874,0.00000440,
 0.00000567,-0.00000653,-0.00000919,-0.00000034,0.00000120,0.00000134,0
 .00000231,-0.00000079,0.00000053,0.00000277,0.00000110,-0.00000009,-0.
 00000018,-0.00000346,0.00000169,0.00000593,0.00000091,-0.00000552,0.00
 000394,0.00000004,0.00000367,0.00000003,-0.00000235,-0.00000007,0.0000
 0310,-0.00000004,0.00000051,0.00093385,-0.00044362,-0.00017431,0.00000
 593,-0.00010815,-0.00013913,0.00012872,0.00005943,0.00022113,0.0007232
 2,-0.00107920,0.00003672,0.32435892,-0.00260502,0.00240861,0.00116077,
 0.11509860,-0.09453952,-0.01450048,0.03173374,-0.01500040,-0.00707996,
 -0.00176857,0.00444617,0.00040602,0.00035685,-0.00048265,0.00049059,0.
 00101665,0.00051921,0.00169341,-0.00050443,-0.00028520,-0.00058656,0.0
 0004046,-0.00006064,0.00003031,-0.00074840,0.00123313,-0.00042230,0.00
 003112,-0.00014481,-0.00002986,0.00001316,-0.00002549,-0.00004214,-0.0
 1824368,0.00716711,0.00391680,0.00061893,0.00040635,-0.00146092,0.0000
 4206,-0.00085489,-0.00011998,0.00003155,0.00018121,-0.00007608,-0.0000
 3431,0.00003774,-0.00002590,0.00001580,-0.00000795,-0.00001980,-0.0000
 0967,-0.00000230,0.00000444,0.00002327,0.00002752,-0.00003090,-0.00000
 739,0.00000330,0.00000009,-0.00000040,0.00000382,-0.00000215,0.0000002
 5,0.00000037,0.,-0.00000858,-0.00002698,0.00003351,-0.00006773,0.00000
 100,-0.00011875,0.00001999,0.00001541,0.00001735,0.00000623,-0.0000171
 5,0.00000910,-0.00000432,0.00001745,-0.00000530,0.00000487,-0.00001455
 ,0.00000643,0.00000017,0.00000347,-0.00000267,0.00000062,-0.00000028,0
 .00000036,-0.00000160,0.00000141,-0.00000071,-0.00000035,-0.00000012,0
 .00000046,-0.00000086,0.00000012,-0.00000461,-0.00000469,-0.00000679,0
 .00000566,-0.00000289,0.00000288,-0.00000399,0.00000105,0.00000338,-0.
 00000580,-0.00000572,-0.00000048,0.00000731,0.00058795,0.00110401,0.00
 056947,-0.00005674,-0.00002227,-0.00004076,-0.00045288,-0.00004895,-0.
 00052262,-0.00008020,-0.00553207,-0.00163042,-0.12368050,0.10082416,-0
 .03721052,0.01377341,-0.01174099,0.04171873,-0.01688608,-0.04870294,0.
 01160428,-0.00307305,0.00021110,-0.00136554,0.00035847,0.00091058,-0.0
 0046487,-0.00016624,-0.00007539,0.00057075,0.00051407,0.00060716,-0.00
 020730,-0.00008072,-0.00007179,0.00000010,0.00003073,0.00003002,-0.000
 41382,-0.00103453,0.00093013,0.00008695,0.00029681,0.00011092,0.000034
 35,0.00000298,0.00009601,0.02093167,-0.00904565,-0.00259284,-0.0007555
 1,0.00011916,0.00222229,0.00034612,-0.00040658,-0.00003279,-0.00012885
 ,0.00004744,-0.00025553,-0.00002088,-0.00002083,0.00003413,0.00001944,
 -0.00003290,-0.00003225,-0.00005637,0.00004727,0.00001564,0.00008697,-
 0.00004114,-0.00002520,0.00000550,-0.00000310,0.00001049,-0.00000856,0
 .00001510,-0.00001065,0.00000120,-0.00000082,0.00000153,0.00001142,-0.
 00000178,0.00001275,-0.00002986,-0.00000797,-0.00003963,0.00000826,0.0
 0000708,0.00000826,0.00001087,0.00000865,0.00000887,-0.00000864,0.0000
 1306,-0.00002318,0.00000554,-0.00002025,0.00001915,0.00000128,0.000004
 61,-0.00000917,0.00000037,-0.00000042,0.00000245,-0.00000340,0.0000007
 9,-0.00000292,-0.00000483,-0.00000078,0.00000165,-0.00000588,0.0000007
 4,-0.00000788,-0.00000661,-0.00000060,0.00001209,-0.00000597,-0.000000
 92,-0.00000689,-0.00000176,-0.00000038,-0.00000344,-0.00000647,0.00000
 258,0.00000278,-0.00176068,0.00018291,0.00322860,-0.00013741,0.0000815
 6,0.00005567,-0.00017908,-0.00007041,-0.00011061,-0.00049153,-0.002352
 35,-0.00044985,-0.03328928,0.01548804,0.05889007,0.00138071,-0.0003143
 3,0.00036462,-0.01774660,0.00734403,0.00272543,-0.00060799,0.00161462,
 -0.00027285,0.00084873,-0.00014898,-0.00014490,-0.00010399,0.00011675,
 0.00001775,-0.00019749,-0.00028267,-0.00000490,0.00010796,-0.00019687,
 0.00001324,-0.00000053,0.00000740,-0.00005092,0.00321271,-0.00228069,0
 .00079130,0.00001584,0.00058672,0.00023245,-0.00006844,0.00003187,0.00
 010826,-0.31265657,0.10383467,0.03092650,-0.01520221,0.00272524,-0.011
 04672,-0.00056753,0.00287381,0.00037743,0.00070097,-0.00061332,-0.0002
 0818,-0.00005432,-0.00001883,0.00002918,0.00004270,0.00018842,0.000173
 91,-0.00002017,-0.00001999,-0.00036731,0.00012748,-0.00022851,0.000669
 08,-0.00003227,-0.00003714,-0.00000785,0.00000786,0.00000448,-0.000020
 45,-0.00000136,-0.00000466,0.00000032,-0.00001811,0.00002460,-0.000024
 49,0.00001890,-0.00002283,0.00003069,-0.00000902,-0.00000092,-0.000010
 10,0.00002866,0.00000769,0.00000715,0.00001270,-0.00002566,-0.00003623
 ,-0.00001016,0.00004065,0.00002740,0.00001823,-0.00001418,-0.00004201,
 0.00000112,0.00000048,0.00000545,0.00000196,-0.00000200,-0.00000156,0.
 00000224,0.00000315,0.00000182,-0.00001189,-0.00002632,-0.00001650,0.0
 0000551,0.00001610,-0.00003056,0.00000620,0.00000026,0.00000611,0.0000
 0057,-0.00000977,0.00000064,0.00000600,0.00000008,0.00000470,0.0004001
 8,0.00001096,-0.00008446,0.00029659,-0.00102419,-0.00063517,0.00010787
 ,0.00011760,0.00009653,0.00083393,-0.00094735,0.00004379,-0.00061830,-
 0.00190214,0.00170791,0.33714491,0.00075768,0.00015577,-0.00097938,-0.
 01707598,0.00615674,0.00308884,-0.00105567,0.00107712,0.00035670,0.000
 43125,-0.00030620,-0.00017764,-0.00001652,0.00009100,-0.00004734,-0.00
 006482,-0.00012070,-0.00009881,0.00007521,-0.00003150,-0.00005006,-0.0
 0000477,-0.00001525,-0.00002873,0.03032160,-0.01443128,-0.00179835,-0.
 00093903,-0.00051424,-0.00070028,0.00025829,-0.00002633,-0.00018990,0.
 10370920,-0.08288676,-0.00997641,-0.00288067,0.00237508,-0.00085071,-0
 .00231552,0.00082093,-0.00058042,0.00000109,-0.00016488,-0.00003315,0.
 00007189,-0.00000415,-0.00000642,-0.00000123,-0.00005226,-0.00005885,-
 0.00005468,0.00007425,0.00012923,0.00004012,-0.00010451,-0.00007013,0.
 00002863,0.00000494,0.00000611,-0.00001353,0.00000507,0.00000310,0.000
 00399,0.00000159,0.00000185,-0.00000149,0.00000532,-0.00000333,0.00000
 679,0.00000397,0.00001834,-0.00000317,-0.00000476,-0.00000353,-0.00001
 387,0.00000465,-0.00001409,-0.00000838,-0.00000157,0.00001814,0.000005
 81,-0.00000048,-0.00001781,-0.00001136,0.00000223,0.00001915,0.,-0.000
 00041,-0.00000244,-0.00000245,-0.00000179,-0.00000087,-0.00000632,-0.0
 0000042,0.00000279,0.00000153,0.00000142,0.00000415,0.00000130,0.00001
 998,-0.00000258,-0.00000342,-0.00000282,-0.00000130,0.00000327,0.00000
 233,0.00000378,0.00000367,-0.00000270,-0.00000488,0.00009454,0.0000204
 3,-0.00026224,0.00028675,0.00047917,0.00018492,0.00005765,0.00005652,0
 .00002200,-0.00000832,-0.00036943,0.00018372,-0.00143056,-0.00147268,0
 .00206499,-0.11052872,0.09339146,-0.00140509,-0.00015020,0.00174554,0.
 02346598,-0.00871513,-0.00080895,0.00032446,-0.00146554,0.00011497,-0.
 00044900,0.00053478,0.00001539,0.00011466,-0.00013573,0.00006681,0.000
 24856,-0.00006980,-0.00066200,0.00001654,-0.00038962,0.00025630,-0.000
 01677,0.00008327,-0.00000480,0.00836955,-0.00141240,0.00167278,-0.0005
 0700,0.00032813,0.00005108,-0.00003255,0.00002729,0.00004658,0.0344153
 1,-0.01304483,-0.04735287,-0.03855629,0.00929424,-0.01028946,-0.002484
 92,0.00419901,0.00181731,0.00032677,-0.00083493,-0.00090447,-0.0001243
 3,-0.00009517,0.00028895,0.00010095,0.00016900,0.00012094,0.00000272,0
 .00010853,-0.00053015,0.00012929,-0.00049728,0.00110221,-0.00006658,-0
 .00006455,0.00000469,0.00001007,0.00004731,-0.00004755,-0.00000428,-0.
 00000877,-0.00000176,-0.00000369,0.00004510,-0.00001620,-0.00000825,-0
 .00004827,0.00001719,0.00000256,0.00000489,-0.00000836,0.00004696,0.00
 002464,0.00003199,0.00000496,-0.00000515,-0.00010361,-0.00000156,0.000
 01118,0.00007065,0.00002830,-0.00000769,-0.00007533,0.00000335,-0.0000
 0198,0.00001021,-0.00000160,0.00000154,-0.00000495,0.00000251,0.000003
 00,-0.00000164,-0.00001389,-0.00002989,-0.00001967,0.00002844,0.000001
 31,-0.00006490,0.00000254,-0.00000074,0.00000142,-0.00000178,-0.000016
 44,-0.00000268,-0.00000178,0.00000214,0.00000958,-0.00021032,-0.000192
 13,0.00047715,0.00065485,-0.00041297,-0.00018046,-0.00000025,0.0000243
 6,-0.00007044,-0.00038523,0.00038529,0.00025320,0.00199880,0.00275025,
 -0.00308747,-0.02472296,0.01058862,0.05548692,0.00000455,-0.00021003,0
 .00021305,0.00095795,0.00030313,-0.00027754,0.00029941,0.00014963,0.00
 008316,-0.00004382,-0.00004988,-0.00000920,-0.00000302,0.00006840,-0.0
 0002204,0.00001034,0.00011490,0.00019260,0.00000091,-0.00005660,-0.000
 15427,0.00003153,0.00000295,0.00006766,-0.21896196,-0.08935295,0.12522
 796,0.01086632,0.00402053,-0.00354893,0.00139342,0.00127502,0.00096553
 ,0.00148289,0.00333201,0.00032402,0.00024982,-0.00033151,-0.00095105,0
 .00026587,0.00006127,-0.00004463,-0.00007669,0.00003164,-0.00034011,-0
 .00008990,-0.00006570,0.00021295,0.00001866,-0.00017733,-0.00020728,0.
 00025629,0.00028702,0.00020163,-0.00029471,-0.00027230,0.00013261,-0.0
 0004752,-0.00001262,0.00000586,0.00003933,0.00005217,0.00002069,-0.000
 01790,-0.00000756,-0.00001951,-0.00002561,-0.00003147,0.00006299,0.000
 00262,0.00002878,-0.00008153,0.00000502,0.00000093,0.00001229,-0.00000
 490,0.00000731,-0.00000878,0.00000991,0.00006984,-0.00005215,0.0000096
 2,-0.00010217,-0.00000501,0.00000020,0.00003280,0.00002183,-0.00000170
 ,-0.00000463,-0.00000696,0.00000275,0.00001058,0.00000674,0.00001713,-
 0.00001144,-0.00001847,0.00003477,0.00005752,0.00005618,0.00002352,-0.
 00002064,-0.00001911,0.,-0.00000109,0.00000197,0.00000008,0.00000831,-
 0.00000696,-0.00000086,0.00000411,0.00000264,-0.00000315,0.00005184,-0
 .00005699,-0.00003541,-0.00010214,-0.00003752,0.00001017,0.00000136,-0
 .00000046,-0.00000042,-0.00010497,-0.00003709,0.00044456,0.00026099,-0
 .00022853,0.00143098,-0.00028885,-0.00088239,0.22288245,0.00029273,0.0
 0066788,0.00013084,0.00027101,-0.00728195,-0.00415542,-0.00107635,0.00
 054967,0.00177099,-0.00031669,-0.00146305,0.00028334,-0.00002128,0.000
 12854,-0.00017119,-0.00001422,0.00024601,0.00052569,0.00003336,-0.0000
 5508,-0.00034792,0.00005442,-0.00001749,0.00009095,-0.08693908,-0.0890
 0233,0.07025668,0.00854226,0.00244227,-0.02031489,0.00111351,0.0019695
 2,-0.00158569,-0.02784441,-0.02252749,0.02109049,0.00136100,0.00205814
 ,0.00017680,0.00007186,-0.00045904,0.00000909,0.00003452,0.00005802,-0
 .00019392,-0.00009463,0.00000237,0.00007383,-0.00000046,-0.00007251,-0
 .00008646,0.00009711,0.00007122,0.00005489,-0.00008357,-0.00007777,-0.
 00000728,-0.00004597,0.00001363,-0.00000654,0.00002293,0.00000278,0.00
 000943,-0.00000800,0.00000146,-0.00000669,-0.00003983,-0.00004122,0.00
 005475,-0.00000637,0.00002667,-0.00010589,0.00000600,0.00000524,0.0000
 1982,0.00000246,-0.00001611,0.00000143,0.00001209,0.00003910,-0.000026
 86,0.00000131,-0.00004739,0.00000273,0.00000498,0.00001296,0.00000463,
 -0.00000051,-0.00000107,-0.00000243,0.00000289,0.00000563,0.00000381,0
 .00001207,-0.00000095,-0.00000869,0.00001700,0.00001406,0.00001611,0.0
 0001768,-0.00001543,-0.00001804,0.00000405,0.00000169,0.00000414,0.000
 00269,0.00000600,-0.00000821,0.00000220,0.00000105,0.00000533,0.000039
 96,-0.00018298,-0.00006178,0.00001529,-0.00002233,-0.00001829,-0.00000
 577,-0.00004296,-0.00003804,0.00013389,-0.00008441,-0.00003963,0.00013
 117,0.00025401,-0.00022845,0.00024270,0.00135822,0.00060311,0.09415036
 ,0.10546682,0.00008841,0.00032507,0.00031594,-0.00061971,-0.00037530,-
 0.00031629,0.00016491,-0.00006298,0.00005797,-0.00002032,-0.00004760,0
 .00007577,-0.00001282,-0.00002405,-0.00001242,-0.00002371,-0.00000351,
 0.00002974,-0.00000208,0.00003041,0.00000887,0.00000131,0.00000541,-0.
 00000329,0.12052322,0.06842894,-0.12632509,0.02343931,-0.00302022,-0.0
 4617463,0.00014798,0.00132336,0.00036981,0.00153991,-0.00069833,0.0016
 7303,0.00022602,0.00049341,0.00128331,0.00019747,0.00000916,0.00004321
 ,0.00004831,0.00002336,0.00011938,0.00002834,0.00001322,-0.00001579,-0
 .00000109,0.00000390,0.00000170,-0.00000142,-0.00002063,-0.00000703,-0
 .00003103,0.00001676,-0.00000478,0.00000797,-0.00000126,0.00000102,-0.
 00000670,-0.00000214,-0.00000262,0.00000399,0.00000094,0.00000261,0.00
 000893,0.00000362,-0.00000447,-0.00000679,-0.00000671,0.00000465,0.000
 00227,0.00000179,-0.00000053,-0.00000063,-0.00000093,0.00000243,-0.000
 00400,-0.00000358,0.00000482,0.00000275,0.00000618,0.00000146,-0.00000
 222,-0.00000286,-0.00000210,0.00000055,0.00000067,0.00000137,-0.000001
 37,-0.00000063,-0.00000086,-0.00000237,0.00000008,-0.00000155,-0.00000
 187,-0.00000035,-0.00000041,-0.00000339,0.00000126,0.00000372,-0.00000
 130,0.00000082,-0.00000106,-0.00000055,-0.00000045,0.00000006,-0.00000
 192,0.00000039,-0.00000049,-0.00002622,-0.00020757,-0.00001777,-0.0000
 1531,-0.00000702,-0.00002716,-0.00000563,0.00000109,0.00000380,-0.0000
 1818,-0.00004325,-0.00001611,0.00001814,-0.00000777,-0.00008255,-0.000
 45338,-0.00049229,0.00053792,-0.13742943,-0.06129669,0.16015663,0.0001
 8626,-0.00000373,0.00025249,0.00052841,-0.00007428,-0.00012390,0.00018
 340,-0.00004154,-0.00015012,0.00003544,0.00013408,0.00005737,-0.000023
 40,-0.00003592,0.00001308,0.00003809,-0.00002481,-0.00024494,-0.000019
 97,-0.00016527,0.00010661,-0.00000063,0.00002151,-0.00000417,-0.285040
 05,0.09560888,-0.08434176,0.00376930,-0.00504111,-0.01008985,0.0003024
 0,-0.00042978,-0.00090113,-0.00275390,0.00006907,-0.00019850,0.0013541
 8,-0.00152934,-0.00004140,0.00077876,-0.00049007,0.00023879,0.00005351
 ,0.00019432,0.00022263,-0.00003473,0.00005539,-0.00005048,0.00004640,0
 .00023660,0.00019308,-0.00002203,-0.00041757,-0.00034993,0.00008338,0.
 00048446,0.00018757,-0.00003780,-0.00003458,-0.00001617,0.00000206,-0.
 00001486,-0.00003155,0.00000203,-0.00000294,0.00000682,0.00000501,0.00
 001773,-0.00003506,-0.00000555,-0.00002661,0.00002207,-0.00000084,0.00
 000723,-0.00000282,0.00000311,-0.00001581,0.00004417,0.00000952,-0.000
 03729,-0.00000202,-0.00001388,0.00007701,0.00004562,0.00002448,-0.0000
 2617,-0.00006360,0.00000138,0.00000179,0.00001052,0.00000203,-0.000004
 08,-0.00000350,0.00000104,0.00000425,0.00000696,-0.00002757,-0.0000433
 7,-0.00003927,0.00000291,-0.00000281,0.00000451,0.00000784,0.00000208,
 0.00000217,-0.00000156,-0.00001249,-0.00000121,0.00000013,-0.00000030,
 0.00000547,-0.00000061,-0.00003445,-0.00000609,-0.00012877,-0.00028712
 ,-0.00016762,0.00000477,0.00000921,0.00001933,-0.00003691,-0.00014701,
 0.00001235,0.00029794,0.00028673,-0.00035953,0.00116539,0.00056907,-0.
 00041762,-0.02114351,0.00980362,-0.00775633,0.30040257,-0.00028307,0.0
 0010776,0.00009154,0.00183147,0.00150811,-0.00101013,-0.00007844,0.000
 00968,0.00015516,-0.00029178,-0.00018754,0.00006306,0.00003584,-0.0000
 0855,-0.00004963,0.00009500,0.00009082,0.00007691,-0.00004180,0.000097
 40,-0.00005277,0.00000845,-0.00000754,0.00001736,0.09346710,-0.0818455
 3,0.04272672,-0.01358434,0.00340996,-0.01791396,-0.00100322,0.00080020
 ,-0.00050163,0.03357844,-0.02138287,0.00789982,0.00036483,0.00239468,0
 .00173933,0.00039629,-0.00012750,0.00019317,-0.00023752,0.00002714,-0.
 00013332,0.00000294,-0.00000113,0.00000394,-0.00001983,-0.00012037,-0.
 00008692,-0.00003577,0.00008912,0.00014703,0.00004793,-0.00013052,-0.0
 0040970,0.00000343,0.00003757,0.00000079,-0.00000036,-0.00001431,0.000
 00925,0.00000014,0.00000562,0.00000060,0.00000343,-0.00000914,0.000015
 89,-0.00000801,0.00000865,-0.00001902,0.00000318,-0.00000012,0.0000043
 0,0.00000360,-0.00000172,-0.00001114,-0.00000591,0.00000969,0.00000582
 ,0.00000541,-0.00002525,-0.00001116,-0.00000759,0.00000658,0.00002150,
 -0.00000080,0.00000090,-0.00000276,-0.00000051,0.00000187,0.00000085,0
 .00000071,-0.00000164,-0.00000132,0.00000655,0.00001207,0.00000251,0.0
 0000126,-0.00000839,0.00000704,-0.00000353,-0.00000021,-0.00000328,-0.
 00000027,0.00000431,-0.00000049,-0.00000237,0.00000052,-0.00000095,-0.
 00001236,-0.00016061,0.00002795,-0.00022571,0.00018572,0.00010239,-0.0
 0004091,-0.00004321,-0.00002501,-0.00022463,0.00023941,0.00003445,-0.0
 0078583,-0.00011568,0.00041549,-0.00114220,-0.00559306,-0.00163776,-0.
 01317953,0.00600858,-0.00436372,-0.09863971,0.09472849,0.00023383,0.00
 016860,0.00023583,-0.00089080,-0.00008789,-0.00003153,0.00015378,0.000
 02152,-0.00002455,0.00002936,-0.00001165,0.00002598,-0.00002831,0.0000
 0851,-0.00001183,0.00005026,0.00005038,-0.00006771,-0.00002960,-0.0001
 2495,-0.00000868,0.00002107,0.00001546,0.00003861,-0.08327903,0.042064
 01,-0.06757876,-0.03528270,-0.00476559,-0.03637728,-0.00042751,0.00102
 590,0.00003972,-0.00275697,0.00026084,0.00059365,0.00149704,-0.0040644
 4,-0.00037448,0.00055132,-0.00012887,-0.00001182,-0.00020486,0.0001501
 4,-0.00028687,-0.00001016,-0.00003970,0.00012833,-0.00003481,-0.000159
 20,-0.00016127,0.00002860,0.00017526,0.00023264,-0.00007669,-0.0003013
 7,-0.00033480,0.00000910,0.00002338,0.00001363,0.00000172,0.00001524,0
 .00000553,-0.00000207,0.00000176,-0.00000237,-0.00000254,-0.00000804,0
 .00003243,-0.00000466,0.00000561,-0.00003648,0.00000352,0.00000323,0.0
 0000500,-0.00000780,0.00002006,-0.00001004,-0.00000221,0.00002754,-0.0
 0002955,0.00000285,-0.00005656,0.00000623,-0.00000261,0.00001458,0.000
 01236,-0.00000172,0.,-0.00000078,-0.00000091,0.00000393,0.00000066,0.0
 0000073,-0.00000169,-0.00000474,0.00001690,0.00002972,0.00002685,0.000
 00211,-0.00000350,-0.00000491,-0.00000432,-0.00000310,-0.00000264,-0.0
 0000147,0.00000460,-0.00000412,-0.00000342,0.00000378,0.00000110,-0.00
 007105,-0.00004509,-0.00006504,-0.00012369,-0.00015654,-0.00008242,-0.
 00000263,-0.00000329,0.00001433,0.00002685,-0.00005002,-0.00003451,0.0
 0022315,0.00015005,-0.00005837,-0.00018018,-0.00024452,0.00003794,0.01
 663356,-0.00645987,0.00831779,0.10394698,-0.02752820,0.09583693\\0.001
 53615,0.00728067,-0.00342103,0.00861412,-0.03238690,0.00315768,0.00424
 017,-0.03503050,0.00209861,-0.00676956,0.01406473,0.02036313,-0.001778
 10,-0.00710128,-0.03335608,0.02077503,-0.00412643,-0.00800677,-0.00745
 239,-0.01628094,0.00492986,0.00019431,0.00673917,0.02517077,0.00704247
 ,0.03536907,-0.01461532,0.00583905,0.00721498,0.00849712,-0.00316888,-
 0.03475175,0.00591572,-0.02001251,0.02792209,0.03611103,0.03364801,-0.
 01652315,0.03149270,-0.07922785,0.04208641,-0.01671398,0.01526735,-0.0
 1998526,-0.03498591,-0.02311680,0.01454765,-0.00892617,0.02944894,0.03
 981498,0.01678571,-0.00892384,-0.02983089,0.02005803,0.00334141,0.0280
 0065,-0.01397571,0.00072934,-0.00014255,-0.00088806,0.01426250,-0.0123
 5993,-0.03574817,-0.01340402,-0.00168237,0.02687770,0.00558882,-0.0208
 0419,-0.00556159,-0.00320556,-0.01323644,0.00945655,-0.00564148,0.0327
 9347,-0.00604752,0.00956625,-0.03211651,0.01366324,-0.00044136,0.01423
 196,0.01961153,0.00033737,-0.02197746,-0.03514524,0.00052122,0.0170238
 4,0.02137955,-0.00176490,-0.00195711,0.00046962,-0.02264334,0.00146640
 ,-0.00559446,0.01930825,0.00227021,0.00615293,-0.01983007,-0.00092602,
 -0.00147180,0.01726429,-0.00153969,-0.00003605,-0.01964184,0.00179602,
 -0.00234885,0.00127878,-0.00670715,-0.01751508,0.02033481,-0.00047981,
 0.00375866,-0.00058050,0.00593358,0.00085432,0.01584603,-0.00196730,-0
 .00161172,-0.01593352,0.00463822,-0.00246801,0.02360164,-0.00343196,0.
 00142908,-0.01482576,0.01082293,0.00071590,0.01603890,-0.00887510,-0.0
 0080567,0.01080911,0.00732183,-0.01752534,-0.01707207,0.00288181,-0.01
 218094\\\@


 "MATHEMATICS IS THE ART OF GIVING THE SAME NAME
 TO DIFFERENT THINGS."
                    - H. POINCARE
 Job cpu time:  3 days 22 hours 25 minutes 20.5 seconds.
 File lengths (MBytes):  RWF=   2351 Int=      0 D2E=      0 Chk=     43 Scr=      1
 Normal termination of Gaussian 09 at Fri Feb 12 11:53:47 2016.
Gaussian '09 finished on node001 at Fri Feb 12 11:53:47 EST 2016.
