Gaussian '09 started on node031 at Wed Oct 21 13:39:15 EDT 2015.
 Entering Gaussian System, Link 0=/usr/local/gaussian/g09/g09
 Initial command:
 /usr/local/gaussian/g09/l1.exe /home/srmcgrat/data/gaussian/cellobiose/450/capped/5000ps/gaussian4719/Gau-4757.inp -scrdir=/home/srmcgrat/data/gaussian/cellobiose/450/capped/5000ps/gaussian4719/
 Entering Link 1 = /usr/local/gaussian/g09/l1.exe PID=      4759.
  
 Copyright (c) 1988,1990,1992,1993,1995,1998,2003,2009,2010,
            Gaussian, Inc.  All Rights Reserved.
  
 This is part of the Gaussian(R) 09 program.  It is based on
 the Gaussian(R) 03 system (copyright 2003, Gaussian, Inc.),
 the Gaussian(R) 98 system (copyright 1998, Gaussian, Inc.),
 the Gaussian(R) 94 system (copyright 1995, Gaussian, Inc.),
 the Gaussian 92(TM) system (copyright 1992, Gaussian, Inc.),
 the Gaussian 90(TM) system (copyright 1990, Gaussian, Inc.),
 the Gaussian 88(TM) system (copyright 1988, Gaussian, Inc.),
 the Gaussian 86(TM) system (copyright 1986, Carnegie Mellon
 University), and the Gaussian 82(TM) system (copyright 1983,
 Carnegie Mellon University). Gaussian is a federally registered
 trademark of Gaussian, Inc.
  
 This software contains proprietary and confidential information,
 including trade secrets, belonging to Gaussian, Inc.
  
 This software is provided under written license and may be
 used, copied, transmitted, or stored only in accord with that
 written license.
  
 The following legend is applicable only to US Government
 contracts under FAR:
  
                    RESTRICTED RIGHTS LEGEND
  
 Use, reproduction and disclosure by the US Government is
 subject to restrictions as set forth in subparagraphs (a)
 and (c) of the Commercial Computer Software - Restricted
 Rights clause in FAR 52.227-19.
  
 Gaussian, Inc.
 340 Quinnipiac St., Bldg. 40, Wallingford CT 06492
  
  
 ---------------------------------------------------------------
 Warning -- This program may not be used in any manner that
 competes with the business of Gaussian, Inc. or will provide
 assistance to any competitor of Gaussian, Inc.  The licensee
 of this program is prohibited from giving any competitor of
 Gaussian, Inc. access to this program.  By using this program,
 the user acknowledges that Gaussian, Inc. is engaged in the
 business of creating and licensing software in the field of
 computational chemistry and represents and warrants to the
 licensee that it is not a competitor of Gaussian, Inc. and that
 it will not use this program in any manner prohibited above.
 ---------------------------------------------------------------
  

 Cite this work as:
 Gaussian 09, Revision B.01,
 M. J. Frisch, G. W. Trucks, H. B. Schlegel, G. E. Scuseria, 
 M. A. Robb, J. R. Cheeseman, G. Scalmani, V. Barone, B. Mennucci, 
 G. A. Petersson, H. Nakatsuji, M. Caricato, X. Li, H. P. Hratchian, 
 A. F. Izmaylov, J. Bloino, G. Zheng, J. L. Sonnenberg, M. Hada, 
 M. Ehara, K. Toyota, R. Fukuda, J. Hasegawa, M. Ishida, T. Nakajima, 
 Y. Honda, O. Kitao, H. Nakai, T. Vreven, J. A. Montgomery, Jr., 
 J. E. Peralta, F. Ogliaro, M. Bearpark, J. J. Heyd, E. Brothers, 
 K. N. Kudin, V. N. Staroverov, T. Keith, R. Kobayashi, J. Normand, 
 K. Raghavachari, A. Rendell, J. C. Burant, S. S. Iyengar, J. Tomasi, 
 M. Cossi, N. Rega, J. M. Millam, M. Klene, J. E. Knox, J. B. Cross, 
 V. Bakken, C. Adamo, J. Jaramillo, R. Gomperts, R. E. Stratmann, 
 O. Yazyev, A. J. Austin, R. Cammi, C. Pomelli, J. W. Ochterski, 
 R. L. Martin, K. Morokuma, V. G. Zakrzewski, G. A. Voth, 
 P. Salvador, J. J. Dannenberg, S. Dapprich, A. D. Daniels, 
 O. Farkas, J. B. Foresman, J. V. Ortiz, J. Cioslowski, 
 and D. J. Fox, Gaussian, Inc., Wallingford CT, 2010.
 
 ******************************************
 Gaussian 09:  EM64L-G09RevB.01 12-Aug-2010
                21-Oct-2015 
 ******************************************
 ------------------------------------------------
 # freq=raman b3lyp/6-31+g(d,p) geom=connectivity
 ------------------------------------------------
 1/10=4,30=1,38=1,57=2/1,3;
 2/12=2,17=6,18=5,40=1/2;
 3/5=1,6=6,7=111,11=2,16=1,25=1,30=1,71=2,74=-5/1,2,3;
 4//1;
 5/5=2,38=5,98=1/2;
 8/6=4,10=90,11=11/1;
 10/13=10,15=4/2;
 11/6=3,8=1,9=11,15=111,16=1/1,2,10;
 10/6=1/2;
 6/7=2,8=2,9=2,10=2,18=1,28=1/1;
 7/8=1,10=1,25=1/1,2,3,16;
 1/10=4,30=1/3;
 99//99;
 -----------------------------
 450K 5000ps Cellobiose Unit 1
 -----------------------------
 Symbolic Z-matrix:
 Charge =  0 Multiplicity = 1
 C(PDBName=C4,ResName=GLC,ResNum=1)  11.09     7.535     1.992 
 C(PDBName=C3,ResName=GLC,ResNum=1)  11.438    8.923     2.504 
 O(PDBName=O3,ResName=GLC,ResNum=1)  12.458    9.43      1.631 
 H(PDBName=HO3,ResName=GLC,ResNum=1)  12.064    9.585     0.725 
 C(PDBName=C2,ResName=GLC,ResNum=1)  12.131    8.969     3.856 
 O(PDBName=O2,ResName=GLC,ResNum=1)  12.359    10.294    4.358 
 H(PDBName=HO2,ResName=GLC,ResNum=1)  12.518    10.863    3.551 
 C(PDBName=C6,ResName=GLC,ResNum=1)  10.112    5.271     2.628 
 O(PDBName=O6,ResName=GLC,ResNum=1)  9.424     4.423     3.559 
 H(PDBName=HO6,ResName=GLC,ResNum=1)  9.312     3.496     3.202 
 C(PDBName=C5,ResName=GLC,ResNum=1)  10.356    6.714     3.04 
 O(PDBName=O5,ResName=GLC,ResNum=1)  11.133    6.84      4.24 
 C(PDBName=C1,ResName=GLC,ResNum=1)  11.339    8.126     4.842 
 O(PDBName=O1,ResName=GLC,ResNum=1)  12.028    7.813     6.061 
 C(PDBName=C4,ResName=GLC,ResNum=2)  11.22     7.999     7.232 
 C(PDBName=C3,ResName=GLC,ResNum=2)  10.738    6.64      7.714 
 O(PDBName=O3,ResName=GLC,ResNum=2)  9.858     5.96      6.808 
 H(PDBName=HO3,ResName=GLC,ResNum=2)  10.222    6.028     5.879 
 C(PDBName=C2,ResName=GLC,ResNum=2)  9.917     6.636     8.992 
 O(PDBName=O2,ResName=GLC,ResNum=2)  9.385     5.385     9.454 
 H(PDBName=HO2,ResName=GLC,ResNum=2)  9.133     4.987     8.572 
 C(PDBName=C6,ResName=GLC,ResNum=2)  12.225    10.16     7.975 
 O(PDBName=O6,ResName=GLC,ResNum=2)  12.707    11.122    8.923 
 H(PDBName=HO6,ResName=GLC,ResNum=2)  13.671    10.937    9.112 
 C(PDBName=C5,ResName=GLC,ResNum=2)  11.947    8.715     8.359 
 O(PDBName=O5,ResName=GLC,ResNum=2)  11.2      8.583     9.577 
 C(PDBName=C1,ResName=GLC,ResNum=2)  10.818    7.278     10.034 
 O(PDBName=O1,ResName=GLC,ResNum=2)  10.111    7.42      11.275 
 H                     10.74105   7.50234   11.99462 
 H                     11.69     6.67541   10.18028 
 H                     9.08664   7.29292   8.83755 
 H                     11.59783   6.0224    7.86941 
 H                     12.88957   8.22881   8.50072 
 H                     10.36508   8.58238   6.96055 
 H                     11.31325   10.55254   7.57559 
 H                     12.93553   10.13408   7.17539 
 H                     11.06262   4.82535   2.42157 
 H                     9.54833   5.28212   1.71858 
 H                     9.40438   7.17189   3.2122 
 H                     11.99214   7.02744   1.72103 
 H                     10.46919   7.62892   1.12558 
 H                     10.57931   9.56131   2.49338 
 H                     10.39838   8.58914   5.05564 
 H                     13.08853   8.50629   3.73796 
 
 Residue   3                        charge    0.00000000 ave dist*************
 Residue   1 PDB Number     1_0 GLC charge    0.00000000 ave dist*************
 Residue   2 PDB Number     2_0 GLC charge    0.00000000 ave dist*************

 GradGradGradGradGradGradGradGradGradGradGradGradGradGradGradGradGradGrad
 Berny optimization.
 Initialization pass.
 Trust Radius=3.00D-01 FncErr=1.00D-07 GrdErr=1.00D-07
 Number of steps in this run=      2 maximum allowed number of steps=      2.
 GradGradGradGradGradGradGradGradGradGradGradGradGradGradGradGradGradGrad

                          Input orientation:                          
 ---------------------------------------------------------------------
 Center     Atomic      Atomic             Coordinates (Angstroms)
 Number     Number       Type             X           Y           Z
 ---------------------------------------------------------------------
      1          6           0       11.090000    7.535000    1.992000
      2          6           0       11.438000    8.923000    2.504000
      3          8           0       12.458000    9.430000    1.631000
      4          1           0       12.064000    9.585000    0.725000
      5          6           0       12.131000    8.969000    3.856000
      6          8           0       12.359000   10.294000    4.358000
      7          1           0       12.518000   10.863000    3.551000
      8          6           0       10.112000    5.271000    2.628000
      9          8           0        9.424000    4.423000    3.559000
     10          1           0        9.312000    3.496000    3.202000
     11          6           0       10.356000    6.714000    3.040000
     12          8           0       11.133000    6.840000    4.240000
     13          6           0       11.339000    8.126000    4.842000
     14          8           0       12.028000    7.813000    6.061000
     15          6           0       11.220000    7.999000    7.232000
     16          6           0       10.738000    6.640000    7.714000
     17          8           0        9.858000    5.960000    6.808000
     18          1           0       10.222000    6.028000    5.879000
     19          6           0        9.917000    6.636000    8.992000
     20          8           0        9.385000    5.385000    9.454000
     21          1           0        9.133000    4.987000    8.572000
     22          6           0       12.225000   10.160000    7.975000
     23          8           0       12.707000   11.122000    8.923000
     24          1           0       13.671000   10.937000    9.112000
     25          6           0       11.947000    8.715000    8.359000
     26          8           0       11.200000    8.583000    9.577000
     27          6           0       10.818000    7.278000   10.034000
     28          8           0       10.111000    7.420000   11.275000
     29          1           0       10.741051    7.502342   11.994622
     30          1           0       11.690000    6.675407   10.180277
     31          1           0        9.086639    7.292922    8.837555
     32          1           0       11.597833    6.022395    7.869410
     33          1           0       12.889570    8.228813    8.500719
     34          1           0       10.365080    8.582378    6.960554
     35          1           0       11.313252   10.552538    7.575589
     36          1           0       12.935534   10.134082    7.175394
     37          1           0       11.062624    4.825352    2.421574
     38          1           0        9.548330    5.282125    1.718576
     39          1           0        9.404381    7.171894    3.212202
     40          1           0       11.992140    7.027438    1.721030
     41          1           0       10.469192    7.628918    1.125584
     42          1           0       10.579313    9.561313    2.493376
     43          1           0       10.398384    8.589142    5.055639
     44          1           0       13.088531    8.506289    3.737963
 ---------------------------------------------------------------------
                    Distance matrix (angstroms):
                    1          2          3          4          5
     1  C    0.000000
     2  C    1.519800   0.000000
     3  O    2.364904   1.435123   0.000000
     4  H    2.599320   1.998740   1.000048   0.000000
     5  C    2.571873   1.519957   2.295664   3.191725   0.000000
     6  O    3.849727   2.482982   2.862311   3.713273   1.435135
     7  H    3.942746   2.454834   2.396558   3.134593   1.957046
     8  C    2.546895   3.887256   4.878013   5.103167   4.388570
     9  O    3.862071   5.041748   6.163797   6.453480   5.299262
    10  H    4.575905   5.870214   6.897660   7.126356   6.190978
    11  C    1.520231   2.517479   3.712188   4.064373   2.983539
    12  O    2.353376   2.728665   3.907762   4.555986   2.382457
    13  C    2.921264   2.472095   3.641854   4.427640   1.519904
    14  O    4.184960   3.772592   4.735450   5.622648   2.491780
    15  C    5.262109   4.822373   5.911988   6.750465   3.628801
    16  C    5.802259   5.731159   6.909804   7.699183   4.716869
    17  O    5.214624   5.458955   6.752942   7.416869   4.789041
    18  H    4.258314   4.609805   5.883775   6.527552   4.047998
    19  C    7.154308   7.045421   8.273297   9.036011   6.059965
    20  O    7.950533   8.064413   9.327630  10.050497   7.191883
    21  H    7.322469   7.591162   8.886695   9.555510   6.861850
    22  C    6.631375   5.664043   6.390112   7.274548   4.288762
    23  O    7.969945   6.902863   7.489868   8.365586   5.535492
    24  H    8.302383   7.260038   7.727081   8.645931   5.819808
    25  C    6.531886   5.880763   6.785155   7.684305   4.513910
    26  O    7.657848   7.085166   8.089431   8.950330   5.809096
    27  C    8.050702   7.732485   8.827860   9.671207   6.538435
    28  O    9.335189   8.997243  10.126956  10.945498   7.843555
    29  H   10.008760   9.621637  10.680282  11.536552   8.385714
    30  H    8.255106   8.002525   9.014862   9.899892   6.741775
    31  H    7.136784   6.949818   8.238180   8.940461   6.073982
    32  H    6.090141   6.101367   7.160267   7.997003   5.007415
    33  H    6.788465   6.208832   6.987285   7.936159   4.764108
    34  H    5.129234   4.596526   5.788171   6.540162   3.592521
    35  H    6.350736   5.328412   6.157003   6.959190   4.124518
    36  H    6.085129   5.052846   5.609285   6.532124   3.608749
    37  H    2.743624   4.115631   4.875947   5.151249   4.513183
    38  H    2.743529   4.176567   5.067417   5.082374   4.983153
    39  H    2.112357   2.775524   4.113859   4.368390   3.328441
    40  H    1.070000   2.124445   2.448966   2.745608   2.889125
    41  H    1.070000   2.124445   2.730329   2.555413   3.465920
    42  H    2.148982   1.070000   2.071328   2.309114   2.148328
    43  H    3.312919   2.775450   4.083774   4.745571   2.141351
    44  H    2.825936   2.102514   2.385394   3.360242   1.070000
                    6          7          8          9         10
     6  O    0.000000
     7  H    1.000145   0.000000
     8  C    5.768227   6.157210   0.000000
     9  O    6.612206   7.144683   1.434994   0.000000
    10  H    7.538790   8.041948   2.029803   0.999661   0.000000
    11  C    4.308774   4.706333   1.520371   2.527185   3.386990
    12  O    3.667031   4.310160   2.470374   3.037488   3.946621
    13  C    2.444357   3.247752   3.815541   4.361826   5.313683
    14  O    3.027397   3.980289   4.681699   4.953072   5.846967
    15  C    3.850224   4.841184   5.465022   5.431788   6.337063
    16  C    5.219396   6.191341   5.304096   4.889347   5.681228
    17  O    5.571450   6.459339   4.244012   3.620321   4.401437
    18  H    5.007890   5.836816   3.339783   2.931762   3.795452
    19  C    6.388919   7.364592   6.511662   5.887097   6.614357
    20  O    7.675427   8.641156   6.865552   5.973106   6.531551
    21  H    7.505273   8.437775   6.030774   5.053014   5.576022
    22  C    3.621961   4.489079   7.547019   7.762720   8.699195
    23  O    4.652517   5.381560   8.977486   9.188427  10.119869
    24  H    4.973460   5.679754   9.317311   9.555366  10.454543
    25  C    4.320994   5.296868   6.933450   6.915692   7.795886
    26  O    5.613267   6.576336   7.774425   7.528353   8.371543
    27  C    6.609683   7.600757   7.705538   7.212481   7.952848
    28  O    7.820375   8.792501   8.910040   8.306060   9.011632
    29  H    8.290302   9.259931   9.649259   9.076160   9.767454
    30  H    6.887720   7.884721   7.842151   7.351830   8.028690
    31  H    6.307236   7.243436   6.610454   6.017757   6.799035
    32  H    5.581754   6.551857   5.499516   5.085592   5.778617
    33  H    4.659252   5.619317   7.138094   7.135473   7.954555
    34  H    3.698467   4.632641   5.458965   5.454963   6.411470
    35  H    3.393127   4.212496   7.335959   7.567926   8.539790
    36  H    2.880221   3.720469   7.231922   7.617456   8.542949
    37  H    5.944447   6.312441   1.070000   2.034875   2.332579
    38  H    6.323394   6.582012   1.070000   2.034875   2.333804
    39  H    4.448615   4.840834   2.110785   2.770753   3.677069
    40  H    4.214098   4.282155   2.728112   4.093479   4.674128
    41  H    4.595928   4.532057   2.818620   4.158347   4.767768
    42  H    2.679727   2.563487   4.317788   5.373320   6.236686
    43  H    2.690215   3.453569   4.121349   4.532780   5.527776
    44  H    2.027948   2.431984   4.534187   5.489451   6.297019
                   11         12         13         14         15
    11  C    0.000000
    12  O    1.435132   0.000000
    13  C    2.491433   1.434795   0.000000
    14  O    3.623510   2.250288   1.434800   0.000000
    15  C    4.468846   3.209815   2.396328   1.434817   0.000000
    16  C    4.690168   3.502100   3.289040   2.402590   1.520371
    17  O    3.874835   2.999108   3.278730   2.949664   2.488441
    18  H    2.923777   2.043425   2.593195   2.545778   2.590647
    19  C    5.968677   4.909356   4.632999   3.799001   2.579376
    20  O    6.621818   5.688438   5.709793   4.938935   3.890695
    21  H    5.922945   5.118577   5.350949   4.761557   3.901706
    22  C    6.302563   5.115182   3.838990   3.034899   2.496396
    23  O    7.717989   6.537850   5.244235   4.427366   3.850166
    24  H    8.105069   6.852973   5.618972   4.665557   4.263056
    25  C    5.901444   4.598302   3.617440   2.470014   1.520301
    26  O    6.851122   5.614811   4.759033   3.693337   2.416709
    27  C    7.031897   5.819064   5.286531   4.187488   2.921070
    28  O    8.268838   7.132469   6.587102   5.569123   4.232136
    29  H    8.997499   7.792720   7.204616   6.079524   4.812341
    30  H    7.263925   5.968604   5.542980   4.286817   3.265752
    31  H    5.963059   5.052746   4.661717   4.078155   2.761808
    32  H    5.034249   3.749288   3.695586   2.581018   2.110928
    33  H    6.207503   4.813322   3.975055   2.620579   2.109485
    34  H    4.343002   3.320692   2.375936   2.041186   1.070000
    35  H    6.018494   4.994155   3.655306   3.210905   2.578237
    36  H    5.954195   4.766198   3.467858   2.730002   2.739495
    37  H    2.109208   2.714854   4.102331   4.806601   5.765154
    38  H    2.109208   3.360913   4.588017   5.604528   6.369752
    39  H    1.070000   2.038295   2.703574   3.925563   4.487689
    40  H    2.124824   2.668045   3.372519   4.410638   5.648975
    41  H    2.124824   3.280643   3.849079   5.179006   6.163521
    42  H    2.907896   3.280672   2.855396   4.228857   5.030493
    43  H    2.753317   2.065048   1.070000   2.066106   2.399972
    44  H    3.341584   2.617759   2.103420   2.646106   3.994627
                   16         17         18         19         20
    16  C    0.000000
    17  O    1.434446   0.000000
    18  H    2.002005   1.000080   0.000000
    19  C    1.518993   2.286988   3.186449   0.000000
    20  O    2.536382   2.748758   3.727552   1.435782   0.000000
    21  H    2.458576   2.141039   3.085750   1.873568   0.999916
    22  C    3.830103   4.960300   5.047638   4.333558   5.749232
    23  O    5.042516   6.263886   6.433506   5.283281   6.650625
    24  H    5.387124   6.679664   6.815143   5.710124   7.022212
    25  C    2.486630   3.789399   4.043018   2.973858   4.341862
    26  O    2.731202   4.043322   4.599969   2.403981   3.679206
    27  C    2.407456   3.614665   4.379696   1.519779   2.444041
    28  O    3.698953   4.706347   5.573760   2.421648   2.825658
    29  H    4.366619   5.482667   6.312205   3.231926   3.574461
    30  H    2.643876   3.903880   4.590767   2.134733   2.739645
    31  H    2.101351   2.547699   3.412055   1.070000   2.027114
    32  H    1.070000   2.038995   2.419644   2.112325   2.795322
    33  H    2.787921   4.147677   4.339691   3.408017   4.612811
    34  H    2.116502   2.675307   2.777603   2.848848   4.171457
    35  H    3.957022   4.878356   4.953856   4.392608   5.826665
    36  H    4.162674   5.198957   5.089579   4.964693   6.352331
    37  H    5.604293   4.688206   3.755903   6.910962   7.251389
    38  H    6.261330   5.143700   4.280104   7.407536   7.737832
    39  H    4.725213   3.821547   3.014765   5.827180   6.492566
    40  H    6.135035   5.618829   4.628281   7.571422   8.324278
    41  H    6.667642   5.953881   5.021853   7.948038   8.693282
    42  H    5.984494   5.666192   4.906570   7.157390   8.204771
    43  H    3.313816   3.205491   2.696012   4.420569   5.535255
    44  H    4.981657   5.132743   4.352351   6.415723   7.492107
                   21         22         23         24         25
    21  H    0.000000
    22  C    6.056138   0.000000
    23  O    7.108790   1.434040   0.000000
    24  H    7.502503   1.996851   0.999621   0.000000
    25  C    4.675676   1.520778   2.586377   2.911438   0.000000
    26  O    4.267755   2.470619   3.024117   3.444326   1.434907
    27  C    3.197710   3.811175   4.424814   4.730536   2.478958
    28  O    3.765924   4.781903   5.096658   5.451739   3.681165
    29  H    4.541708   5.042084   5.138262   5.356397   4.017785
    30  H    3.460567   4.158348   4.731514   4.819414   2.746459
    31  H    2.321625   4.337447   5.270309   5.862678   3.230014
    32  H    2.764250   4.186199   5.324122   5.476805   2.758938
    33  H    4.962484   2.108914   2.929537   2.884194   1.070000
    34  H    4.128138   2.641457   3.973092   4.593699   2.115587
    35  H    6.059830   1.070000   2.020479   2.840307   2.095690
    36  H    6.549979   1.070000   2.020479   2.221718   2.095690
    37  H    6.448048   7.787819   9.198928   9.429616   7.152937
    38  H    6.872337   8.372638   9.797197  10.180213   7.850699
    39  H    5.794380   6.290383   7.689203   8.196809   5.944377
    40  H    7.698951   6.998522   8.315337   8.528170   6.849273
    41  H    8.013380   7.510242   8.832276   9.218342   7.462292
    42  H    7.743761   5.754556   6.950026   7.433520   6.082134
    43  H    5.190512   3.785074   5.167355   5.716337   3.650513
    44  H    7.169347   4.629571   5.819976   5.926879   4.764519
                   26         27         28         29         30
    26  O    0.000000
    27  C    1.434503   0.000000
    28  O    2.328453   1.435303   0.000000
    29  H    2.687629   1.974915   0.960000   0.000000
    30  H    2.059844   1.070000   2.060602   2.208206   0.000000
    31  H    2.584062   2.104594   2.646999   3.570435   2.993613
    32  H    3.103358   2.621094   3.970140   4.465612   2.403128
    33  H    2.034324   2.747070   4.008898   4.165483   2.583206
    34  H    2.746430   3.369363   4.475502   5.162332   3.969706
    35  H    2.810258   4.124519   4.994381   5.399903   4.685988
    36  H    3.344494   4.562103   5.670185   5.913270   4.747958
    37  H    8.083249   8.001522   9.274747   9.945498   8.000861
    38  H    8.682086   8.645337   9.808789  10.580598   8.839025
    39  H    6.762109   6.967532   8.097504   8.889701   7.350144
    40  H    8.047578   8.399217   9.745313  10.360378   8.471958
    41  H    8.536439   8.922146  10.157884  10.873174   9.186241
    42  H    7.177749   7.882354   9.051048   9.723127   8.285561
    43  H    4.591876   5.165196   6.334819   7.031929   5.620726
    44  H    6.137328   6.804711   8.176347   8.642395   6.841888
                   31         32         33         34         35
    31  H    0.000000
    32  H    2.976178   0.000000
    33  H    3.930857   2.633517   0.000000
    34  H    2.611559   2.983154   2.978282   0.000000
    35  H    4.144329   4.548572   2.956407   2.271306   0.000000
    36  H    5.064480   4.379163   2.321346   3.010178   1.722516
    37  H    7.152498   5.603416   7.202588   5.933308   7.708913
    38  H    7.411904   6.525429   8.114451   6.247966   8.074454
    39  H    5.635619   5.274672   6.421218   4.118562   5.840522
    40  H    7.691381   6.242448   6.943548   5.702435   6.867538
    41  H    7.842120   7.023812   7.785289   5.913274   7.131799
    42  H    6.900890   6.516369   6.572748   4.578197   5.229731
    43  H    4.207582   3.993015   4.266664   1.905218   3.322959
    44  H    6.594941   5.045866   4.774979   4.219961   4.697460
                   36         37         38         39         40
    36  H    0.000000
    37  H    7.368121   0.000000
    38  H    8.049317   1.730877   0.000000
    39  H    6.078692   2.980121   2.413062   0.000000
    40  H    6.347544   2.490771   3.003053   2.990144   0.000000
    41  H    6.997063   3.145113   2.589800   2.386770   1.742327
    42  H    5.272678   4.761100   4.469306   2.757989   3.002186
    43  H    3.649291   4.641727   4.774405   2.528813   4.012305
    44  H    3.806448   4.403008   5.196748   3.953480   2.730768
                   41         42         43         44
    41  H    0.000000
    42  H    2.370050   0.000000
    43  H    4.046280   2.746461   0.000000
    44  H    3.802005   2.993033   2.996669   0.000000
 Stoichiometry    C12H22O10
 Framework group  C1[X(C12H22O10)]
 Deg. of freedom   126
 Full point group                 C1      NOp   1
 Largest Abelian subgroup         C1      NOp   1
 Largest concise Abelian subgroup C1      NOp   1
                         Standard orientation:                         
 ---------------------------------------------------------------------
 Center     Atomic      Atomic             Coordinates (Angstroms)
 Number     Number       Type             X           Y           Z
 ---------------------------------------------------------------------
      1          6           0        4.120908   -0.157195   -0.132735
      2          6           0        3.583859    1.221128   -0.481442
      3          8           0        4.488137    2.166531    0.108535
      4          1           0        5.369412    2.111205   -0.360922
      5          6           0        2.265264    1.596844    0.174618
      6          8           0        1.734459    2.861403   -0.248169
      7          1           0        2.530357    3.437901   -0.433875
      8          6           0        3.508738   -2.611856    0.161480
      9          8           0        2.572588   -3.691540    0.030657
     10          1           0        2.951972   -4.552908    0.367457
     11          6           0        3.064952   -1.236336   -0.310250
     12          8           0        1.899642   -0.749172    0.371166
     13          6           0        1.269145    0.470272   -0.046046
     14          8           0        0.094083    0.531717    0.774993
     15          6           0       -1.118831    0.293117    0.046563
     16          6           0       -1.581416   -1.129092    0.320179
     17          8           0       -0.697629   -2.150456   -0.162907
     18          1           0        0.244998   -1.909370    0.068376
     19          6           0       -2.895989   -1.539962   -0.320465
     20          8           0       -3.344251   -2.892561   -0.144386
     21          1           0       -2.463404   -3.360024   -0.217999
     22          6           0       -1.879077    2.666632   -0.096436
     23          8           0       -2.832150    3.738137   -0.095405
     24          1           0       -2.969767    4.049589    0.844436
     25          6           0       -2.231579    1.269983    0.391293
     26          8           0       -3.478860    0.784134   -0.125618
     27          6           0       -3.913414   -0.541853    0.207129
     28          8           0       -5.190116   -0.769438   -0.407958
     29          1           0       -5.881404   -0.390824    0.140105
     30          1           0       -3.999997   -0.639225    1.269165
     31          1           0       -2.800941   -1.374789   -1.373358
     32          1           0       -1.677234   -1.245546    1.379498
     33          1           0       -2.313829    1.308683    1.457425
     34          1           0       -0.905886    0.382558   -0.998212
     35          1           0       -1.535237    2.562350   -1.104305
     36          1           0       -1.046441    2.995586    0.489573
     37          1           0        3.773229   -2.532705    1.195250
     38          1           0        4.389813   -2.875810   -0.385269
     39          1           0        2.834211   -1.305191   -1.352804
     40          1           0        4.449441   -0.155567    0.885579
     41          1           0        4.953828   -0.377217   -0.767349
     42          1           0        3.534543    1.355696   -1.541800
     43          1           0        0.997391    0.411251   -1.079277
     44          1           0        2.442351    1.664221    1.227709
 ---------------------------------------------------------------------
 Rotational constants (GHZ):      0.3737207      0.1749477      0.1219101
 Standard basis: 6-31+G(d,p) (6D, 7F)
 There are   528 symmetry adapted basis functions of A   symmetry.
 Integral buffers will be    131072 words long.
 Raffenetti 2 integral format.
 Two-electron integral symmetry is turned on.
   528 basis functions,   858 primitive gaussians,   528 cartesian basis functions
    87 alpha electrons       87 beta electrons
       nuclear repulsion energy      2108.2917795397 Hartrees.
 NAtoms=   44 NActive=   44 NUniq=   44 SFac= 1.00D+00 NAtFMM=   50 NAOKFM=F Big=F
 One-electron integrals computed using PRISM.
 NBasis=   528 RedAO= T  NBF=   528
 NBsUse=   528 1.00D-06 NBFU=   528
 Harris functional with IExCor=  402 diagonalized for initial guess.
 ExpMin= 4.38D-02 ExpMax= 5.48D+03 ExpMxC= 8.25D+02 IAcc=2 IRadAn=         0 AccDes= 0.00D+00
 HarFok:  IExCor=  402 AccDes= 0.00D+00 IRadAn=         0 IDoV= 1
 ScaDFX=  1.000000  1.000000  1.000000  1.000000
 FoFCou: FMM=F IPFlag=           0 FMFlag=      100000 FMFlg1=           0
         NFxFlg=           0 DoJE=T BraDBF=F KetDBF=T FulRan=T
         Omega=  0.000000  0.000000  1.000000  0.000000  0.000000 ICntrl=     500 IOpCl=  0
         NMat0=    1 NMatS0=    1 NMatT0=    0 NMatD0=    1 NMtDS0=    0 NMtDT0=    0
         I1Cent=           4 NGrid=           0.
 Petite list used in FoFCou.
 Initial guess orbital symmetries:
       Occupied  (A) (A) (A) (A) (A) (A) (A) (A) (A) (A) (A) (A)
                 (A) (A) (A) (A) (A) (A) (A) (A) (A) (A) (A) (A)
                 (A) (A) (A) (A) (A) (A) (A) (A) (A) (A) (A) (A)
                 (A) (A) (A) (A) (A) (A) (A) (A) (A) (A) (A) (A)
                 (A) (A) (A) (A) (A) (A) (A) (A) (A) (A) (A) (A)
                 (A) (A) (A) (A) (A) (A) (A) (A) (A) (A) (A) (A)
                 (A) (A) (A) (A) (A) (A) (A) (A) (A) (A) (A) (A)
                 (A) (A) (A)
       Virtual   (A) (A) (A) (A) (A) (A) (A) (A) (A) (A) (A) (A)
                 (A) (A) (A) (A) (A) (A) (A) (A) (A) (A) (A) (A)
                 (A) (A) (A) (A) (A) (A) (A) (A) (A) (A) (A) (A)
                 (A) (A) (A) (A) (A) (A) (A) (A) (A) (A) (A) (A)
                 (A) (A) (A) (A) (A) (A) (A) (A) (A) (A) (A) (A)
                 (A) (A) (A) (A) (A) (A) (A) (A) (A) (A) (A) (A)
                 (A) (A) (A) (A) (A) (A) (A) (A) (A) (A) (A) (A)
                 (A) (A) (A) (A) (A) (A) (A) (A) (A) (A) (A) (A)
                 (A) (A) (A) (A) (A) (A) (A) (A) (A) (A) (A) (A)
                 (A) (A) (A) (A) (A) (A) (A) (A) (A) (A) (A) (A)
                 (A) (A) (A) (A) (A) (A) (A) (A) (A) (A) (A) (A)
                 (A) (A) (A) (A) (A) (A) (A) (A) (A) (A) (A) (A)
                 (A) (A) (A) (A) (A) (A) (A) (A) (A) (A) (A) (A)
                 (A) (A) (A) (A) (A) (A) (A) (A) (A) (A) (A) (A)
                 (A) (A) (A) (A) (A) (A) (A) (A) (A) (A) (A) (A)
                 (A) (A) (A) (A) (A) (A) (A) (A) (A) (A) (A) (A)
                 (A) (A) (A) (A) (A) (A) (A) (A) (A) (A) (A) (A)
                 (A) (A) (A) (A) (A) (A) (A) (A) (A) (A) (A) (A)
                 (A) (A) (A) (A) (A) (A) (A) (A) (A) (A) (A) (A)
                 (A) (A) (A) (A) (A) (A) (A) (A) (A) (A) (A) (A)
                 (A) (A) (A) (A) (A) (A) (A) (A) (A) (A) (A) (A)
                 (A) (A) (A) (A) (A) (A) (A) (A) (A) (A) (A) (A)
                 (A) (A) (A) (A) (A) (A) (A) (A) (A) (A) (A) (A)
                 (A) (A) (A) (A) (A) (A) (A) (A) (A) (A) (A) (A)
                 (A) (A) (A) (A) (A) (A) (A) (A) (A) (A) (A) (A)
                 (A) (A) (A) (A) (A) (A) (A) (A) (A) (A) (A) (A)
                 (A) (A) (A) (A) (A) (A) (A) (A) (A) (A) (A) (A)
                 (A) (A) (A) (A) (A) (A) (A) (A) (A) (A) (A) (A)
                 (A) (A) (A) (A) (A) (A) (A) (A) (A) (A) (A) (A)
                 (A) (A) (A) (A) (A) (A) (A) (A) (A) (A) (A) (A)
                 (A) (A) (A) (A) (A) (A) (A) (A) (A) (A) (A) (A)
                 (A) (A) (A) (A) (A) (A) (A) (A) (A) (A) (A) (A)
                 (A) (A) (A) (A) (A) (A) (A) (A) (A) (A) (A) (A)
                 (A) (A) (A) (A) (A) (A) (A) (A) (A) (A) (A) (A)
                 (A) (A) (A) (A) (A) (A) (A) (A) (A) (A) (A) (A)
                 (A) (A) (A) (A) (A) (A) (A) (A) (A) (A) (A) (A)
                 (A) (A) (A) (A) (A) (A) (A) (A) (A)
 The electronic state of the initial guess is 1-A.
 Requested convergence on RMS density matrix=1.00D-08 within 128 cycles.
 Requested convergence on MAX density matrix=1.00D-06.
 Requested convergence on             energy=1.00D-06.
 No special actions if energy rises.
 SCF Done:  E(RB3LYP) =  -1222.73466569     A.U. after   14 cycles
             Convg  =    0.2173D-08             -V/T =  2.0088
 Range of M.O.s used for correlation:     1   528
 NBasis=   528 NAE=    87 NBE=    87 NFC=     0 NFV=     0
 NROrb=    528 NOA=    87 NOB=    87 NVA=   441 NVB=   441

 **** Warning!!: The largest alpha MO coefficient is  0.64998532D+02

          Differentiating once with respect to electric field.
                with respect to dipole field.
          Electric field/nuclear overlap derivatives assumed to be zero.
          There are     3 degrees of freedom in the 1st order CPHF.  IDoFFX=0.
      3 vectors produced by pass  0 Test12= 1.28D-12 3.33D-08 XBig12= 1.16D+02 1.08D+00.
 AX will form     3 AO Fock derivatives at one time.
      3 vectors produced by pass  1 Test12= 1.28D-12 3.33D-08 XBig12= 1.98D+01 3.62D-01.
      3 vectors produced by pass  2 Test12= 1.28D-12 3.33D-08 XBig12= 8.27D+00 2.23D-01.
      3 vectors produced by pass  3 Test12= 1.28D-12 3.33D-08 XBig12= 8.53D-01 6.51D-02.
      3 vectors produced by pass  4 Test12= 1.28D-12 3.33D-08 XBig12= 2.24D-01 3.72D-02.
      3 vectors produced by pass  5 Test12= 1.28D-12 3.33D-08 XBig12= 4.61D-02 1.34D-02.
      3 vectors produced by pass  6 Test12= 1.28D-12 3.33D-08 XBig12= 1.54D-02 1.23D-02.
      3 vectors produced by pass  7 Test12= 1.28D-12 3.33D-08 XBig12= 3.26D-03 7.50D-03.
      3 vectors produced by pass  8 Test12= 1.28D-12 3.33D-08 XBig12= 9.67D-04 3.89D-03.
      3 vectors produced by pass  9 Test12= 1.28D-12 3.33D-08 XBig12= 1.79D-04 2.23D-03.
      3 vectors produced by pass 10 Test12= 1.28D-12 3.33D-08 XBig12= 3.33D-05 8.78D-04.
      3 vectors produced by pass 11 Test12= 1.28D-12 3.33D-08 XBig12= 1.01D-05 5.33D-04.
      3 vectors produced by pass 12 Test12= 1.28D-12 3.33D-08 XBig12= 7.94D-07 1.62D-04.
      3 vectors produced by pass 13 Test12= 1.28D-12 3.33D-08 XBig12= 1.93D-07 5.14D-05.
      3 vectors produced by pass 14 Test12= 1.28D-12 3.33D-08 XBig12= 2.50D-08 1.98D-05.
      3 vectors produced by pass 15 Test12= 1.28D-12 3.33D-08 XBig12= 2.35D-09 6.76D-06.
      3 vectors produced by pass 16 Test12= 1.28D-12 3.33D-08 XBig12= 5.72D-10 2.92D-06.
      3 vectors produced by pass 17 Test12= 1.28D-12 3.33D-08 XBig12= 5.91D-11 1.05D-06.
      3 vectors produced by pass 18 Test12= 1.28D-12 3.33D-08 XBig12= 1.61D-11 3.30D-07.
      3 vectors produced by pass 19 Test12= 1.28D-12 3.33D-08 XBig12= 7.50D-12 2.68D-07.
      2 vectors produced by pass 20 Test12= 1.28D-12 3.33D-08 XBig12= 1.86D-12 1.02D-07.
      1 vectors produced by pass 21 Test12= 1.28D-12 3.33D-08 XBig12= 4.79D-13 5.19D-08.
 Inverted reduced A of dimension    63 with in-core refinement.
 End of Minotr Frequency-dependent properties file   721 does not exist.
 End of Minotr Frequency-dependent properties file   722 does not exist.
 Symmetrizing basis deriv contribution to polar:
 IMax=3 JMax=2 DiffMx= 0.00D+00
 G2DrvN: will do    23 centers at a time, making    2 passes doing MaxLOS=2.
 Calling FoFCou, ICntrl=  3107 FMM=F I1Cent=   0 AccDes= 0.00D+00.
 Calling FoFCou, ICntrl=  3107 FMM=F I1Cent=   0 AccDes= 0.00D+00.
 FoFDir/FoFCou used for L=0 through L=2.
 End of G2Drv Frequency-dependent properties file   721 does not exist.
 End of G2Drv Frequency-dependent properties file   722 does not exist.
          IDoAtm=11111111111111111111111111111111111111111111
          Differentiating once with respect to electric field.
                with respect to dipole field.
          Differentiating once with respect to nuclear coordinates.
          There are   135 degrees of freedom in the 1st order CPHF.  IDoFFX=5.
 Will reuse    3 saved solutions.
    132 vectors produced by pass  0 Test12= 3.84D-14 1.00D-09 XBig12= 2.72D-01 9.27D-02.
 AX will form    66 AO Fock derivatives at one time.
    132 vectors produced by pass  1 Test12= 3.84D-14 1.00D-09 XBig12= 2.84D-02 1.58D-02.
    129 vectors produced by pass  2 Test12= 3.84D-14 1.00D-09 XBig12= 1.99D-04 1.50D-03.
    129 vectors produced by pass  3 Test12= 3.84D-14 1.00D-09 XBig12= 8.07D-07 6.72D-05.
    129 vectors produced by pass  4 Test12= 3.84D-14 1.00D-09 XBig12= 1.14D-09 2.50D-06.
    129 vectors produced by pass  5 Test12= 3.84D-14 1.00D-09 XBig12= 2.28D-12 1.36D-07.
     75 vectors produced by pass  6 Test12= 3.84D-14 1.00D-09 XBig12= 7.07D-14 1.66D-08.
 Inverted reduced A of dimension   855 with in-core refinement.
 Isotropic polarizability for W=    0.000000      183.29 Bohr**3.
 End of Minotr Frequency-dependent properties file   721 does not exist.
 End of Minotr Frequency-dependent properties file   722 does not exist.

 **********************************************************************

            Population analysis using the SCF density.

 **********************************************************************

 Orbital symmetries:
       Occupied  (A) (A) (A) (A) (A) (A) (A) (A) (A) (A) (A) (A)
                 (A) (A) (A) (A) (A) (A) (A) (A) (A) (A) (A) (A)
                 (A) (A) (A) (A) (A) (A) (A) (A) (A) (A) (A) (A)
                 (A) (A) (A) (A) (A) (A) (A) (A) (A) (A) (A) (A)
                 (A) (A) (A) (A) (A) (A) (A) (A) (A) (A) (A) (A)
                 (A) (A) (A) (A) (A) (A) (A) (A) (A) (A) (A) (A)
                 (A) (A) (A) (A) (A) (A) (A) (A) (A) (A) (A) (A)
                 (A) (A) (A)
       Virtual   (A) (A) (A) (A) (A) (A) (A) (A) (A) (A) (A) (A)
                 (A) (A) (A) (A) (A) (A) (A) (A) (A) (A) (A) (A)
                 (A) (A) (A) (A) (A) (A) (A) (A) (A) (A) (A) (A)
                 (A) (A) (A) (A) (A) (A) (A) (A) (A) (A) (A) (A)
                 (A) (A) (A) (A) (A) (A) (A) (A) (A) (A) (A) (A)
                 (A) (A) (A) (A) (A) (A) (A) (A) (A) (A) (A) (A)
                 (A) (A) (A) (A) (A) (A) (A) (A) (A) (A) (A) (A)
                 (A) (A) (A) (A) (A) (A) (A) (A) (A) (A) (A) (A)
                 (A) (A) (A) (A) (A) (A) (A) (A) (A) (A) (A) (A)
                 (A) (A) (A) (A) (A) (A) (A) (A) (A) (A) (A) (A)
                 (A) (A) (A) (A) (A) (A) (A) (A) (A) (A) (A) (A)
                 (A) (A) (A) (A) (A) (A) (A) (A) (A) (A) (A) (A)
                 (A) (A) (A) (A) (A) (A) (A) (A) (A) (A) (A) (A)
                 (A) (A) (A) (A) (A) (A) (A) (A) (A) (A) (A) (A)
                 (A) (A) (A) (A) (A) (A) (A) (A) (A) (A) (A) (A)
                 (A) (A) (A) (A) (A) (A) (A) (A) (A) (A) (A) (A)
                 (A) (A) (A) (A) (A) (A) (A) (A) (A) (A) (A) (A)
                 (A) (A) (A) (A) (A) (A) (A) (A) (A) (A) (A) (A)
                 (A) (A) (A) (A) (A) (A) (A) (A) (A) (A) (A) (A)
                 (A) (A) (A) (A) (A) (A) (A) (A) (A) (A) (A) (A)
                 (A) (A) (A) (A) (A) (A) (A) (A) (A) (A) (A) (A)
                 (A) (A) (A) (A) (A) (A) (A) (A) (A) (A) (A) (A)
                 (A) (A) (A) (A) (A) (A) (A) (A) (A) (A) (A) (A)
                 (A) (A) (A) (A) (A) (A) (A) (A) (A) (A) (A) (A)
                 (A) (A) (A) (A) (A) (A) (A) (A) (A) (A) (A) (A)
                 (A) (A) (A) (A) (A) (A) (A) (A) (A) (A) (A) (A)
                 (A) (A) (A) (A) (A) (A) (A) (A) (A) (A) (A) (A)
                 (A) (A) (A) (A) (A) (A) (A) (A) (A) (A) (A) (A)
                 (A) (A) (A) (A) (A) (A) (A) (A) (A) (A) (A) (A)
                 (A) (A) (A) (A) (A) (A) (A) (A) (A) (A) (A) (A)
                 (A) (A) (A) (A) (A) (A) (A) (A) (A) (A) (A) (A)
                 (A) (A) (A) (A) (A) (A) (A) (A) (A) (A) (A) (A)
                 (A) (A) (A) (A) (A) (A) (A) (A) (A) (A) (A) (A)
                 (A) (A) (A) (A) (A) (A) (A) (A) (A) (A) (A) (A)
                 (A) (A) (A) (A) (A) (A) (A) (A) (A) (A) (A) (A)
                 (A) (A) (A) (A) (A) (A) (A) (A) (A) (A) (A) (A)
                 (A) (A) (A) (A) (A) (A) (A) (A) (A)
 The electronic state is 1-A.
 Alpha  occ. eigenvalues --  -19.19647 -19.19259 -19.18950 -19.18165 -19.17939
 Alpha  occ. eigenvalues --  -19.16107 -19.15983 -19.15885 -19.15621 -19.15060
 Alpha  occ. eigenvalues --  -10.31892 -10.28760 -10.27601 -10.27553 -10.26226
 Alpha  occ. eigenvalues --  -10.26137 -10.25676 -10.24930 -10.24013 -10.23015
 Alpha  occ. eigenvalues --  -10.22998 -10.21765  -1.10032  -1.06558  -1.06295
 Alpha  occ. eigenvalues --   -1.04543  -1.03447  -1.03318  -1.02610  -1.01504
 Alpha  occ. eigenvalues --   -1.00388  -0.99709  -0.83485  -0.81712  -0.79077
 Alpha  occ. eigenvalues --   -0.77869  -0.72773  -0.69927  -0.67890  -0.64873
 Alpha  occ. eigenvalues --   -0.64284  -0.62353  -0.61650  -0.59592  -0.56563
 Alpha  occ. eigenvalues --   -0.55190  -0.54695  -0.53890  -0.53744  -0.52917
 Alpha  occ. eigenvalues --   -0.52715  -0.51390  -0.49678  -0.49440  -0.48648
 Alpha  occ. eigenvalues --   -0.47259  -0.46865  -0.46272  -0.45637  -0.44982
 Alpha  occ. eigenvalues --   -0.44073  -0.43830  -0.42507  -0.42423  -0.41498
 Alpha  occ. eigenvalues --   -0.39747  -0.39658  -0.39010  -0.37179  -0.36854
 Alpha  occ. eigenvalues --   -0.36494  -0.36169  -0.35685  -0.34989  -0.34226
 Alpha  occ. eigenvalues --   -0.34154  -0.32032  -0.31957  -0.30975  -0.30218
 Alpha  occ. eigenvalues --   -0.29910  -0.29877  -0.29398  -0.28775  -0.27084
 Alpha  occ. eigenvalues --   -0.26712  -0.26327
 Alpha virt. eigenvalues --   -0.03064  -0.02190  -0.00690  -0.00250   0.00070
 Alpha virt. eigenvalues --    0.01270   0.01921   0.02330   0.02582   0.03161
 Alpha virt. eigenvalues --    0.03786   0.04358   0.05214   0.05570   0.05776
 Alpha virt. eigenvalues --    0.06113   0.06620   0.06980   0.07319   0.08367
 Alpha virt. eigenvalues --    0.08529   0.08612   0.09467   0.09771   0.10175
 Alpha virt. eigenvalues --    0.10661   0.10755   0.10998   0.11475   0.11999
 Alpha virt. eigenvalues --    0.12118   0.12704   0.13168   0.13325   0.13920
 Alpha virt. eigenvalues --    0.14099   0.14533   0.14693   0.15023   0.15511
 Alpha virt. eigenvalues --    0.15849   0.16243   0.16582   0.16678   0.16865
 Alpha virt. eigenvalues --    0.17707   0.17827   0.18106   0.18219   0.18556
 Alpha virt. eigenvalues --    0.19093   0.19478   0.19723   0.19967   0.20217
 Alpha virt. eigenvalues --    0.20633   0.20997   0.21575   0.21925   0.22135
 Alpha virt. eigenvalues --    0.22225   0.22478   0.22644   0.22927   0.23339
 Alpha virt. eigenvalues --    0.23946   0.24215   0.24359   0.24715   0.24970
 Alpha virt. eigenvalues --    0.25504   0.25750   0.25880   0.26021   0.26382
 Alpha virt. eigenvalues --    0.26736   0.27012   0.27306   0.27701   0.28115
 Alpha virt. eigenvalues --    0.28439   0.28595   0.28961   0.29308   0.29535
 Alpha virt. eigenvalues --    0.29831   0.29969   0.30857   0.31468   0.31530
 Alpha virt. eigenvalues --    0.31663   0.32457   0.32820   0.32881   0.33201
 Alpha virt. eigenvalues --    0.34030   0.34337   0.34374   0.34901   0.35148
 Alpha virt. eigenvalues --    0.35319   0.35575   0.36065   0.36595   0.37297
 Alpha virt. eigenvalues --    0.37376   0.38078   0.38262   0.38453   0.38845
 Alpha virt. eigenvalues --    0.39238   0.39356   0.40000   0.40264   0.41115
 Alpha virt. eigenvalues --    0.41450   0.41742   0.42360   0.42460   0.42922
 Alpha virt. eigenvalues --    0.43490   0.44378   0.44832   0.45180   0.45996
 Alpha virt. eigenvalues --    0.46610   0.46887   0.47803   0.49641   0.50386
 Alpha virt. eigenvalues --    0.51749   0.53023   0.53860   0.59994   0.62719
 Alpha virt. eigenvalues --    0.63951   0.65178   0.66331   0.67406   0.67570
 Alpha virt. eigenvalues --    0.69185   0.70586   0.71749   0.72546   0.74112
 Alpha virt. eigenvalues --    0.74786   0.75362   0.75931   0.76135   0.78005
 Alpha virt. eigenvalues --    0.79053   0.79872   0.81073   0.82408   0.83562
 Alpha virt. eigenvalues --    0.84614   0.85323   0.86405   0.86786   0.87816
 Alpha virt. eigenvalues --    0.90253   0.91689   0.92474   0.93330   0.93719
 Alpha virt. eigenvalues --    0.95208   0.97524   0.98541   0.98711   1.00303
 Alpha virt. eigenvalues --    1.01174   1.01591   1.02437   1.03193   1.03952
 Alpha virt. eigenvalues --    1.04138   1.04540   1.05301   1.05891   1.07204
 Alpha virt. eigenvalues --    1.07403   1.07717   1.09347   1.09511   1.10415
 Alpha virt. eigenvalues --    1.11310   1.12817   1.13084   1.14017   1.15048
 Alpha virt. eigenvalues --    1.16315   1.16770   1.18607   1.19891   1.21877
 Alpha virt. eigenvalues --    1.22474   1.23721   1.24357   1.25097   1.25810
 Alpha virt. eigenvalues --    1.26444   1.27053   1.27368   1.28268   1.28573
 Alpha virt. eigenvalues --    1.29491   1.29626   1.30097   1.31619   1.32293
 Alpha virt. eigenvalues --    1.32699   1.33386   1.33990   1.34454   1.34994
 Alpha virt. eigenvalues --    1.35600   1.36179   1.38502   1.38678   1.39833
 Alpha virt. eigenvalues --    1.41641   1.42032   1.42159   1.43921   1.44868
 Alpha virt. eigenvalues --    1.45237   1.47412   1.49286   1.50009   1.51807
 Alpha virt. eigenvalues --    1.52248   1.53412   1.55105   1.55626   1.55763
 Alpha virt. eigenvalues --    1.57432   1.57784   1.59376   1.59793   1.60193
 Alpha virt. eigenvalues --    1.60375   1.61547   1.62650   1.63087   1.63516
 Alpha virt. eigenvalues --    1.64064   1.64644   1.65139   1.66391   1.67093
 Alpha virt. eigenvalues --    1.68608   1.69590   1.70858   1.71444   1.72373
 Alpha virt. eigenvalues --    1.72802   1.74166   1.75441   1.76072   1.77259
 Alpha virt. eigenvalues --    1.78433   1.79382   1.80649   1.81022   1.81799
 Alpha virt. eigenvalues --    1.82793   1.84369   1.84923   1.85464   1.87217
 Alpha virt. eigenvalues --    1.87377   1.88056   1.88960   1.89506   1.90921
 Alpha virt. eigenvalues --    1.90980   1.91641   1.92698   1.93482   1.95128
 Alpha virt. eigenvalues --    1.96186   1.96843   1.97365   1.97868   1.98964
 Alpha virt. eigenvalues --    1.99558   2.00245   2.00645   2.03745   2.04052
 Alpha virt. eigenvalues --    2.04682   2.05133   2.05784   2.08139   2.09123
 Alpha virt. eigenvalues --    2.09765   2.10355   2.11174   2.11583   2.12158
 Alpha virt. eigenvalues --    2.13142   2.14302   2.14977   2.16600   2.17398
 Alpha virt. eigenvalues --    2.18076   2.19000   2.20113   2.21626   2.23006
 Alpha virt. eigenvalues --    2.23946   2.24418   2.25288   2.27259   2.27981
 Alpha virt. eigenvalues --    2.29122   2.29689   2.30812   2.31677   2.33314
 Alpha virt. eigenvalues --    2.35174   2.35893   2.37331   2.38290   2.38603
 Alpha virt. eigenvalues --    2.39781   2.40098   2.41495   2.42662   2.43835
 Alpha virt. eigenvalues --    2.45012   2.47496   2.48493   2.48729   2.50387
 Alpha virt. eigenvalues --    2.50976   2.51502   2.54685   2.55189   2.55341
 Alpha virt. eigenvalues --    2.56078   2.57622   2.59240   2.60063   2.60958
 Alpha virt. eigenvalues --    2.62241   2.63064   2.63568   2.64301   2.65461
 Alpha virt. eigenvalues --    2.66193   2.66989   2.68373   2.70192   2.70843
 Alpha virt. eigenvalues --    2.73077   2.73789   2.74952   2.75641   2.76524
 Alpha virt. eigenvalues --    2.77513   2.78268   2.79241   2.79518   2.82458
 Alpha virt. eigenvalues --    2.83020   2.84471   2.86016   2.87293   2.87924
 Alpha virt. eigenvalues --    2.89292   2.90014   2.90506   2.91457   2.92380
 Alpha virt. eigenvalues --    2.93007   2.93150   2.94516   2.95856   2.97211
 Alpha virt. eigenvalues --    2.98644   2.99188   3.00734   3.01427   3.01907
 Alpha virt. eigenvalues --    3.04269   3.05782   3.07496   3.08680   3.09553
 Alpha virt. eigenvalues --    3.12501   3.13716   3.17033   3.17829   3.23888
 Alpha virt. eigenvalues --    3.27319   3.30324   3.35716   3.36649   3.37597
 Alpha virt. eigenvalues --    3.39290   3.40805   3.42283   3.43681   3.44631
 Alpha virt. eigenvalues --    3.46544   3.47687   3.50117   3.50491   3.51441
 Alpha virt. eigenvalues --    3.51943   3.54594   3.56676   3.59290   3.60307
 Alpha virt. eigenvalues --    3.62001   3.62600   3.65350   3.70476   4.30059
 Alpha virt. eigenvalues --    4.30597   4.32018   4.33594   4.36602   4.43557
 Alpha virt. eigenvalues --    4.45081   4.47157   4.47587   4.48801   4.52102
 Alpha virt. eigenvalues --    4.54670   4.56863   4.60352   4.61434   4.69279
 Alpha virt. eigenvalues --    4.74477   4.79918   4.82987   4.84216   4.88029
 Alpha virt. eigenvalues --    4.92338
          Condensed to atoms (all electrons):
              1          2          3          4          5          6
     1  C    7.847804  -0.990617  -0.100473  -0.066887  -1.007745   0.021341
     2  C   -0.990617   7.095763  -0.029242   0.111232   0.351248   0.001250
     3  O   -0.100473  -0.029242   8.338831   0.194544   0.239343  -0.033493
     4  H   -0.066887   0.111232   0.194544   0.439459  -0.051799   0.002150
     5  C   -1.007745   0.351248   0.239343  -0.051799  11.219483   0.171428
     6  O    0.021341   0.001250  -0.033493   0.002150   0.171428   8.274060
     7  H    0.021111  -0.064842   0.017067  -0.001328   0.087939   0.184830
     8  C    0.439237  -0.333071  -0.002738  -0.003148   0.173232  -0.004079
     9  O    0.031694   0.000185   0.000080  -0.000001  -0.015450  -0.000026
    10  H   -0.006435   0.002016   0.000000   0.000000   0.001139   0.000000
    11  C   -1.486172   0.492540   0.040062   0.011743   0.437104   0.007268
    12  O   -0.035159   0.021575  -0.002419  -0.000093   0.037375   0.009364
    13  C    0.535383  -0.907707  -0.066700   0.020796  -3.609422  -0.099167
    14  O    0.002295  -0.011278  -0.000848   0.000075  -0.051905   0.005918
    15  C    0.209148   0.063195  -0.012912   0.000995  -0.572095  -0.008388
    16  C    0.002048  -0.052969   0.001603   0.000018  -0.038151  -0.000166
    17  O   -0.004339  -0.001268  -0.000008   0.000000   0.011703   0.000274
    18  H    0.001377   0.001761  -0.000001   0.000000   0.007655  -0.000103
    19  C    0.011855  -0.003094  -0.000004   0.000002  -0.050675   0.000951
    20  O    0.000060  -0.000032   0.000000   0.000000   0.000087   0.000000
    21  H   -0.000011   0.000010   0.000000   0.000000   0.000426   0.000000
    22  C    0.006010  -0.003504  -0.000490  -0.000011  -0.215404   0.017015
    23  O    0.000048  -0.000760   0.000002   0.000000  -0.003534  -0.000405
    24  H   -0.000007  -0.000221   0.000000   0.000000   0.001919   0.000201
    25  C    0.012412  -0.032912   0.001085   0.000011  -0.723172  -0.025587
    26  O    0.000070   0.001009   0.000000   0.000000  -0.004605  -0.000161
    27  C    0.000874   0.001078   0.000005   0.000000   0.028018   0.000439
    28  O   -0.000016   0.000015   0.000000   0.000000  -0.000043  -0.000003
    29  H    0.000000   0.000000   0.000000   0.000000   0.000010   0.000000
    30  H    0.000000   0.000001   0.000000   0.000000  -0.000006   0.000000
    31  H    0.000029  -0.000048   0.000000   0.000000  -0.000736   0.000005
    32  H   -0.000132   0.000123  -0.000001   0.000000   0.005495   0.000036
    33  H   -0.000009  -0.000100   0.000000   0.000000   0.002022   0.000177
    34  H    0.000389   0.000775   0.000008   0.000000   0.009266   0.000202
    35  H    0.000073  -0.000636   0.000001   0.000000   0.017092   0.001576
    36  H   -0.000453   0.004280   0.000001   0.000000  -0.017307  -0.002548
    37  H    0.034018  -0.018539  -0.000235   0.000001   0.009149  -0.000001
    38  H    0.032593  -0.000487   0.000086  -0.000001  -0.008238  -0.000005
    39  H    0.005466  -0.046452  -0.000761   0.000009  -0.016614   0.000135
    40  H    0.494980  -0.106143  -0.000806  -0.001361  -0.021539   0.000263
    41  H    0.395575  -0.014369  -0.007022   0.003347  -0.009824  -0.000184
    42  H    0.053265   0.312789  -0.045299  -0.008150  -0.165193   0.005029
    43  H    0.023123  -0.015795  -0.000644   0.000015  -0.176816   0.010619
    44  H    0.055915  -0.007224  -0.009210   0.000301   0.365615  -0.050094
              7          8          9         10         11         12
     1  C    0.021111   0.439237   0.031694  -0.006435  -1.486172  -0.035159
     2  C   -0.064842  -0.333071   0.000185   0.002016   0.492540   0.021575
     3  O    0.017067  -0.002738   0.000080   0.000000   0.040062  -0.002419
     4  H   -0.001328  -0.003148  -0.000001   0.000000   0.011743  -0.000093
     5  C    0.087939   0.173232  -0.015450   0.001139   0.437104   0.037375
     6  O    0.184830  -0.004079  -0.000026   0.000000   0.007268   0.009364
     7  H    0.421712   0.000811   0.000000   0.000000  -0.003488  -0.000700
     8  C    0.000811   6.135253   0.169859  -0.029572  -1.202956   0.001551
     9  O    0.000000   0.169859   8.326226   0.205635  -0.072915   0.012081
    10  H    0.000000  -0.029572   0.205635   0.427879   0.048205  -0.000797
    11  C   -0.003488  -1.202956  -0.072915   0.048205   8.658737  -0.098752
    12  O   -0.000700   0.001551   0.012081  -0.000797  -0.098752   8.498069
    13  C   -0.024615  -0.146521  -0.009863   0.000068  -0.565971   0.150133
    14  O    0.000011  -0.010549  -0.001568   0.000005  -0.010465  -0.029161
    15  C    0.002172  -0.125134   0.017315  -0.000745   0.027501  -0.048349
    16  C   -0.000281   0.022855  -0.007570  -0.000012  -0.248189   0.003968
    17  O   -0.000001   0.005709  -0.001771   0.000235  -0.000582   0.008812
    18  H    0.000000  -0.004709   0.005534  -0.000123  -0.000336   0.020640
    19  C   -0.000115   0.002528   0.001188  -0.000122  -0.029763  -0.011274
    20  O    0.000000  -0.000030   0.000003  -0.000001   0.000739   0.000180
    21  H    0.000000  -0.000049  -0.000018   0.000000   0.000026  -0.000033
    22  C   -0.002138  -0.001876  -0.000035  -0.000002   0.009060   0.004652
    23  O   -0.000012   0.000020   0.000000   0.000000   0.000060  -0.000007
    24  H    0.000000   0.000001   0.000000   0.000000   0.000028   0.000001
    25  C    0.000313   0.000253   0.000534  -0.000037   0.001219  -0.022785
    26  O   -0.000002  -0.000128   0.000004   0.000000   0.000116   0.000244
    27  C    0.000020  -0.002083   0.000260  -0.000001  -0.001174   0.001234
    28  O    0.000000  -0.000001   0.000000   0.000000   0.000092   0.000003
    29  H    0.000000   0.000000   0.000000   0.000000   0.000000   0.000000
    30  H    0.000000  -0.000001   0.000000   0.000000   0.000064   0.000028
    31  H    0.000000  -0.000002   0.000000   0.000000   0.001257   0.000335
    32  H    0.000000   0.000326  -0.000033   0.000000   0.003091   0.002199
    33  H    0.000000   0.000062   0.000000   0.000000   0.000721   0.000010
    34  H    0.000006  -0.000015  -0.000006   0.000000   0.008599   0.003586
    35  H    0.000041   0.000050   0.000000   0.000000   0.000819   0.000259
    36  H   -0.000072  -0.000042   0.000000   0.000000  -0.000493  -0.000347
    37  H    0.000000   0.602012  -0.055189  -0.005231  -0.278315   0.000174
    38  H    0.000000   0.387546  -0.061552  -0.004566  -0.052987   0.004670
    39  H   -0.000001   0.066081   0.003158  -0.000065   0.208016  -0.064519
    40  H    0.000002   0.017182   0.000411  -0.000003  -0.111677   0.000245
    41  H   -0.000026  -0.024653  -0.000546   0.000002  -0.062419   0.008219
    42  H   -0.001136   0.010220   0.000027   0.000000  -0.017360   0.002509
    43  H   -0.000094   0.005616  -0.000233  -0.000001  -0.015081  -0.063660
    44  H   -0.000973   0.008711  -0.000022   0.000000  -0.010843   0.007549
             13         14         15         16         17         18
     1  C    0.535383   0.002295   0.209148   0.002048  -0.004339   0.001377
     2  C   -0.907707  -0.011278   0.063195  -0.052969  -0.001268   0.001761
     3  O   -0.066700  -0.000848  -0.012912   0.001603  -0.000008  -0.000001
     4  H    0.020796   0.000075   0.000995   0.000018   0.000000   0.000000
     5  C   -3.609422  -0.051905  -0.572095  -0.038151   0.011703   0.007655
     6  O   -0.099167   0.005918  -0.008388  -0.000166   0.000274  -0.000103
     7  H   -0.024615   0.000011   0.002172  -0.000281  -0.000001   0.000000
     8  C   -0.146521  -0.010549  -0.125134   0.022855   0.005709  -0.004709
     9  O   -0.009863  -0.001568   0.017315  -0.007570  -0.001771   0.005534
    10  H    0.000068   0.000005  -0.000745  -0.000012   0.000235  -0.000123
    11  C   -0.565971  -0.010465   0.027501  -0.248189  -0.000582  -0.000336
    12  O    0.150133  -0.029161  -0.048349   0.003968   0.008812   0.020640
    13  C   12.278950   0.202034  -0.952769  -0.642975  -0.007948  -0.012651
    14  O    0.202034   8.204954   0.169139  -0.073710  -0.006903   0.014848
    15  C   -0.952769   0.169139  18.775781  -4.795123  -0.108523  -0.077175
    16  C   -0.642975  -0.073710  -4.795123  11.561159   0.185612   0.086665
    17  O   -0.007948  -0.006903  -0.108523   0.185612   8.322931   0.189031
    18  H   -0.012651   0.014848  -0.077175   0.086665   0.189031   0.352631
    19  C   -0.407071   0.049048  -2.847332   0.353455  -0.053616  -0.001316
    20  O    0.001991  -0.000390   0.008406  -0.062197  -0.011158   0.001215
    21  H    0.006394   0.000003   0.059563  -0.113519   0.030398  -0.000963
    22  C   -0.007423  -0.023018  -0.340441  -0.414189   0.001987  -0.003239
    23  O    0.009457  -0.000891  -0.032002   0.003022   0.000173   0.000001
    24  H    0.001626  -0.000088   0.043905   0.003361   0.000004   0.000000
    25  C   -0.957481  -0.010127  -5.720634   0.689863   0.036226   0.004772
    26  O   -0.025495   0.006120  -0.112175  -0.000547   0.001431  -0.000094
    27  C    0.084555   0.001355   1.427689  -0.659008   0.021920   0.000517
    28  O    0.002771   0.000133   0.012092   0.012776  -0.000477   0.000052
    29  H    0.000589   0.000006   0.006358  -0.001348   0.000009   0.000000
    30  H    0.006147  -0.000187   0.144155  -0.044193  -0.000203   0.000001
    31  H    0.004242  -0.002086   0.182006  -0.137700   0.000258  -0.000189
    32  H    0.072272  -0.010917   0.046613   0.298461  -0.045792  -0.004789
    33  H    0.073493   0.004291   0.088735  -0.035797  -0.000357   0.000011
    34  H    0.066587  -0.070652   0.329291  -0.091708   0.003163  -0.000720
    35  H    0.036181  -0.004249   0.167819  -0.000681   0.000279   0.000000
    36  H   -0.008692   0.003256   0.030560  -0.002229  -0.000096  -0.000001
    37  H    0.005752   0.000086  -0.001945   0.001537   0.000249   0.000046
    38  H    0.002162  -0.000077   0.001221  -0.000177  -0.000194   0.000028
    39  H    0.056447  -0.000967   0.003760   0.012271   0.000517   0.000245
    40  H    0.041173  -0.000731  -0.000964   0.000866   0.000021  -0.000001
    41  H    0.032774   0.000134   0.001518  -0.000126   0.000014  -0.000008
    42  H    0.077283  -0.000867   0.004250   0.002210   0.000022  -0.000003
    43  H    0.332198  -0.057192   0.061020   0.062769  -0.000560  -0.000443
    44  H   -0.140715  -0.005131   0.029989   0.009997   0.000043  -0.000012
             19         20         21         22         23         24
     1  C    0.011855   0.000060  -0.000011   0.006010   0.000048  -0.000007
     2  C   -0.003094  -0.000032   0.000010  -0.003504  -0.000760  -0.000221
     3  O   -0.000004   0.000000   0.000000  -0.000490   0.000002   0.000000
     4  H    0.000002   0.000000   0.000000  -0.000011   0.000000   0.000000
     5  C   -0.050675   0.000087   0.000426  -0.215404  -0.003534   0.001919
     6  O    0.000951   0.000000   0.000000   0.017015  -0.000405   0.000201
     7  H   -0.000115   0.000000   0.000000  -0.002138  -0.000012   0.000000
     8  C    0.002528  -0.000030  -0.000049  -0.001876   0.000020   0.000001
     9  O    0.001188   0.000003  -0.000018  -0.000035   0.000000   0.000000
    10  H   -0.000122  -0.000001   0.000000  -0.000002   0.000000   0.000000
    11  C   -0.029763   0.000739   0.000026   0.009060   0.000060   0.000028
    12  O   -0.011274   0.000180  -0.000033   0.004652  -0.000007   0.000001
    13  C   -0.407071   0.001991   0.006394  -0.007423   0.009457   0.001626
    14  O    0.049048  -0.000390   0.000003  -0.023018  -0.000891  -0.000088
    15  C   -2.847332   0.008406   0.059563  -0.340441  -0.032002   0.043905
    16  C    0.353455  -0.062197  -0.113519  -0.414189   0.003022   0.003361
    17  O   -0.053616  -0.011158   0.030398   0.001987   0.000173   0.000004
    18  H   -0.001316   0.001215  -0.000963  -0.003239   0.000001   0.000000
    19  C    8.372469   0.382767   0.005145   0.084141  -0.013072  -0.002383
    20  O    0.382767   8.194983   0.208518  -0.000116  -0.000016   0.000001
    21  H    0.005145   0.208518   0.409341   0.000453   0.000000   0.000000
    22  C    0.084141  -0.000116   0.000453   6.021577   0.212761   0.009701
    23  O   -0.013072  -0.000016   0.000000   0.212761   8.209004   0.235092
    24  H   -0.002383   0.000001   0.000000   0.009701   0.235092   0.435330
    25  C    1.313309   0.032544  -0.016487  -0.061522  -0.022802  -0.063372
    26  O   -0.140451   0.004589  -0.000234  -0.040161   0.002346  -0.002968
    27  C   -0.767361  -0.250160   0.045047  -0.118102   0.008232   0.001573
    28  O   -0.132469  -0.000094  -0.000455  -0.005169   0.000175  -0.000017
    29  H    0.031686  -0.001500   0.000027  -0.000341   0.000011   0.000000
    30  H   -0.181212   0.011185  -0.000224   0.002622  -0.000250   0.000004
    31  H    0.278601  -0.048891  -0.001844   0.014461  -0.000037   0.000000
    32  H   -0.141206   0.001529   0.000116   0.007968   0.000024   0.000000
    33  H   -0.031590   0.000152  -0.000004  -0.029043  -0.003804   0.002638
    34  H   -0.001022  -0.000200   0.000012  -0.000620   0.000658   0.000007
    35  H   -0.014134   0.000016   0.000000   0.475561  -0.053096   0.007684
    36  H    0.002455  -0.000009   0.000000   0.427855  -0.046430  -0.011226
    37  H   -0.000028   0.000000   0.000000   0.000004   0.000000   0.000000
    38  H    0.000080   0.000000   0.000000   0.000001   0.000000   0.000000
    39  H    0.000144   0.000001   0.000000  -0.000132   0.000000   0.000000
    40  H    0.000003   0.000000   0.000000   0.000044   0.000000   0.000000
    41  H    0.000029   0.000000   0.000000   0.000024   0.000000   0.000000
    42  H    0.000019   0.000000   0.000000   0.000587   0.000000   0.000000
    43  H    0.012534  -0.000004   0.000000  -0.002262   0.000039   0.000000
    44  H    0.000604   0.000000   0.000000  -0.000233   0.000010   0.000000
             25         26         27         28         29         30
     1  C    0.012412   0.000070   0.000874  -0.000016   0.000000   0.000000
     2  C   -0.032912   0.001009   0.001078   0.000015   0.000000   0.000001
     3  O    0.001085   0.000000   0.000005   0.000000   0.000000   0.000000
     4  H    0.000011   0.000000   0.000000   0.000000   0.000000   0.000000
     5  C   -0.723172  -0.004605   0.028018  -0.000043   0.000010  -0.000006
     6  O   -0.025587  -0.000161   0.000439  -0.000003   0.000000   0.000000
     7  H    0.000313  -0.000002   0.000020   0.000000   0.000000   0.000000
     8  C    0.000253  -0.000128  -0.002083  -0.000001   0.000000  -0.000001
     9  O    0.000534   0.000004   0.000260   0.000000   0.000000   0.000000
    10  H   -0.000037   0.000000  -0.000001   0.000000   0.000000   0.000000
    11  C    0.001219   0.000116  -0.001174   0.000092   0.000000   0.000064
    12  O   -0.022785   0.000244   0.001234   0.000003   0.000000   0.000028
    13  C   -0.957481  -0.025495   0.084555   0.002771   0.000589   0.006147
    14  O   -0.010127   0.006120   0.001355   0.000133   0.000006  -0.000187
    15  C   -5.720634  -0.112175   1.427689   0.012092   0.006358   0.144155
    16  C    0.689863  -0.000547  -0.659008   0.012776  -0.001348  -0.044193
    17  O    0.036226   0.001431   0.021920  -0.000477   0.000009  -0.000203
    18  H    0.004772  -0.000094   0.000517   0.000052   0.000000   0.000001
    19  C    1.313309  -0.140451  -0.767361  -0.132469   0.031686  -0.181212
    20  O    0.032544   0.004589  -0.250160  -0.000094  -0.001500   0.011185
    21  H   -0.016487  -0.000234   0.045047  -0.000455   0.000027  -0.000224
    22  C   -0.061522  -0.040161  -0.118102  -0.005169  -0.000341   0.002622
    23  O   -0.022802   0.002346   0.008232   0.000175   0.000011  -0.000250
    24  H   -0.063372  -0.002968   0.001573  -0.000017   0.000000   0.000004
    25  C   12.964254   0.344402  -1.260838  -0.035824  -0.011109  -0.059737
    26  O    0.344402   8.402414   0.037241  -0.044162  -0.004884  -0.072681
    27  C   -1.260838   0.037241   6.210195   0.340931  -0.006752   0.470772
    28  O   -0.035824  -0.044162   0.340931   8.173210   0.229680  -0.049948
    29  H   -0.011109  -0.004884  -0.006752   0.229680   0.421797  -0.009540
    30  H   -0.059737  -0.072681   0.470772  -0.049948  -0.009540   0.656484
    31  H    0.006557   0.004470  -0.065620  -0.001564  -0.000003   0.006085
    32  H   -0.035706   0.003173   0.013561  -0.000363   0.000010   0.004312
    33  H    0.173932  -0.059352   0.036162  -0.000657  -0.000013   0.005933
    34  H   -0.059760   0.001714   0.016207  -0.000503   0.000002   0.000028
    35  H   -0.341129  -0.003568   0.009510  -0.000068   0.000001   0.000005
    36  H   -0.077228   0.008495  -0.000213   0.000033   0.000000   0.000011
    37  H   -0.000040   0.000000  -0.000007   0.000000   0.000000   0.000000
    38  H    0.000064   0.000000   0.000001   0.000000   0.000000   0.000000
    39  H    0.000919   0.000000  -0.000030   0.000000   0.000000   0.000000
    40  H   -0.000231   0.000000  -0.000001   0.000000   0.000000   0.000000
    41  H    0.000053   0.000000  -0.000001   0.000000   0.000000   0.000000
    42  H   -0.000922   0.000000   0.000000   0.000000   0.000000   0.000000
    43  H    0.033380   0.000248   0.000607  -0.000007   0.000000   0.000000
    44  H   -0.003174   0.000007   0.000071   0.000000   0.000000   0.000000
             31         32         33         34         35         36
     1  C    0.000029  -0.000132  -0.000009   0.000389   0.000073  -0.000453
     2  C   -0.000048   0.000123  -0.000100   0.000775  -0.000636   0.004280
     3  O    0.000000  -0.000001   0.000000   0.000008   0.000001   0.000001
     4  H    0.000000   0.000000   0.000000   0.000000   0.000000   0.000000
     5  C   -0.000736   0.005495   0.002022   0.009266   0.017092  -0.017307
     6  O    0.000005   0.000036   0.000177   0.000202   0.001576  -0.002548
     7  H    0.000000   0.000000   0.000000   0.000006   0.000041  -0.000072
     8  C   -0.000002   0.000326   0.000062  -0.000015   0.000050  -0.000042
     9  O    0.000000  -0.000033   0.000000  -0.000006   0.000000   0.000000
    10  H    0.000000   0.000000   0.000000   0.000000   0.000000   0.000000
    11  C    0.001257   0.003091   0.000721   0.008599   0.000819  -0.000493
    12  O    0.000335   0.002199   0.000010   0.003586   0.000259  -0.000347
    13  C    0.004242   0.072272   0.073493   0.066587   0.036181  -0.008692
    14  O   -0.002086  -0.010917   0.004291  -0.070652  -0.004249   0.003256
    15  C    0.182006   0.046613   0.088735   0.329291   0.167819   0.030560
    16  C   -0.137700   0.298461  -0.035797  -0.091708  -0.000681  -0.002229
    17  O    0.000258  -0.045792  -0.000357   0.003163   0.000279  -0.000096
    18  H   -0.000189  -0.004789   0.000011  -0.000720   0.000000  -0.000001
    19  C    0.278601  -0.141206  -0.031590  -0.001022  -0.014134   0.002455
    20  O   -0.048891   0.001529   0.000152  -0.000200   0.000016  -0.000009
    21  H   -0.001844   0.000116  -0.000004   0.000012   0.000000   0.000000
    22  C    0.014461   0.007968  -0.029043  -0.000620   0.475561   0.427855
    23  O   -0.000037   0.000024  -0.003804   0.000658  -0.053096  -0.046430
    24  H    0.000000   0.000000   0.002638   0.000007   0.007684  -0.011226
    25  C    0.006557  -0.035706   0.173932  -0.059760  -0.341129  -0.077228
    26  O    0.004470   0.003173  -0.059352   0.001714  -0.003568   0.008495
    27  C   -0.065620   0.013561   0.036162   0.016207   0.009510  -0.000213
    28  O   -0.001564  -0.000363  -0.000657  -0.000503  -0.000068   0.000033
    29  H   -0.000003   0.000010  -0.000013   0.000002   0.000001   0.000000
    30  H    0.006085   0.004312   0.005933   0.000028   0.000005   0.000011
    31  H    0.606820   0.006514  -0.000022   0.002921  -0.000013   0.000000
    32  H    0.006514   0.625129   0.002701   0.006896   0.000010  -0.000015
    33  H   -0.000022   0.002701   0.641575   0.006897   0.007408  -0.007723
    34  H    0.002921   0.006896   0.006897   0.634904   0.008795  -0.000511
    35  H   -0.000013   0.000010   0.007408   0.008795   0.587548  -0.038705
    36  H    0.000000  -0.000015  -0.007723  -0.000511  -0.038705   0.575309
    37  H    0.000000   0.000000   0.000000   0.000000   0.000000   0.000000
    38  H    0.000000   0.000000   0.000000   0.000000   0.000000   0.000000
    39  H    0.000000  -0.000002   0.000000  -0.000033   0.000000   0.000000
    40  H    0.000000   0.000000   0.000000   0.000000   0.000000   0.000000
    41  H    0.000000   0.000000   0.000000   0.000000   0.000000   0.000000
    42  H    0.000000   0.000000   0.000000  -0.000007   0.000000   0.000000
    43  H   -0.000038  -0.000086  -0.000019   0.012847  -0.000056   0.000043
    44  H    0.000000  -0.000003  -0.000004  -0.000005  -0.000003   0.000034
             37         38         39         40         41         42
     1  C    0.034018   0.032593   0.005466   0.494980   0.395575   0.053265
     2  C   -0.018539  -0.000487  -0.046452  -0.106143  -0.014369   0.312789
     3  O   -0.000235   0.000086  -0.000761  -0.000806  -0.007022  -0.045299
     4  H    0.000001  -0.000001   0.000009  -0.001361   0.003347  -0.008150
     5  C    0.009149  -0.008238  -0.016614  -0.021539  -0.009824  -0.165193
     6  O   -0.000001  -0.000005   0.000135   0.000263  -0.000184   0.005029
     7  H    0.000000   0.000000  -0.000001   0.000002  -0.000026  -0.001136
     8  C    0.602012   0.387546   0.066081   0.017182  -0.024653   0.010220
     9  O   -0.055189  -0.061552   0.003158   0.000411  -0.000546   0.000027
    10  H   -0.005231  -0.004566  -0.000065  -0.000003   0.000002   0.000000
    11  C   -0.278315  -0.052987   0.208016  -0.111677  -0.062419  -0.017360
    12  O    0.000174   0.004670  -0.064519   0.000245   0.008219   0.002509
    13  C    0.005752   0.002162   0.056447   0.041173   0.032774   0.077283
    14  O    0.000086  -0.000077  -0.000967  -0.000731   0.000134  -0.000867
    15  C   -0.001945   0.001221   0.003760  -0.000964   0.001518   0.004250
    16  C    0.001537  -0.000177   0.012271   0.000866  -0.000126   0.002210
    17  O    0.000249  -0.000194   0.000517   0.000021   0.000014   0.000022
    18  H    0.000046   0.000028   0.000245  -0.000001  -0.000008  -0.000003
    19  C   -0.000028   0.000080   0.000144   0.000003   0.000029   0.000019
    20  O    0.000000   0.000000   0.000001   0.000000   0.000000   0.000000
    21  H    0.000000   0.000000   0.000000   0.000000   0.000000   0.000000
    22  C    0.000004   0.000001  -0.000132   0.000044   0.000024   0.000587
    23  O    0.000000   0.000000   0.000000   0.000000   0.000000   0.000000
    24  H    0.000000   0.000000   0.000000   0.000000   0.000000   0.000000
    25  C   -0.000040   0.000064   0.000919  -0.000231   0.000053  -0.000922
    26  O    0.000000   0.000000   0.000000   0.000000   0.000000   0.000000
    27  C   -0.000007   0.000001  -0.000030  -0.000001  -0.000001   0.000000
    28  O    0.000000   0.000000   0.000000   0.000000   0.000000   0.000000
    29  H    0.000000   0.000000   0.000000   0.000000   0.000000   0.000000
    30  H    0.000000   0.000000   0.000000   0.000000   0.000000   0.000000
    31  H    0.000000   0.000000   0.000000   0.000000   0.000000   0.000000
    32  H    0.000000   0.000000  -0.000002   0.000000   0.000000   0.000000
    33  H    0.000000   0.000000   0.000000   0.000000   0.000000   0.000000
    34  H    0.000000   0.000000  -0.000033   0.000000   0.000000  -0.000007
    35  H    0.000000   0.000000   0.000000   0.000000   0.000000   0.000000
    36  H    0.000000   0.000000   0.000000   0.000000   0.000000   0.000000
    37  H    0.613677  -0.055663   0.007259   0.004654  -0.000121  -0.000003
    38  H   -0.055663   0.632569  -0.007583  -0.000576   0.001745  -0.000006
    39  H    0.007259  -0.007583   0.632398   0.005857  -0.003490   0.001788
    40  H    0.004654  -0.000576   0.005857   0.527673  -0.033236   0.005042
    41  H   -0.000121   0.001745  -0.003490  -0.033236   0.578259  -0.008830
    42  H   -0.000003  -0.000006   0.001788   0.005042  -0.008830   0.615752
    43  H    0.000014   0.000005   0.007323   0.000050   0.000057   0.002487
    44  H   -0.000008   0.000000   0.000008   0.001791  -0.000183   0.005647
             43         44
     1  C    0.023123   0.055915
     2  C   -0.015795  -0.007224
     3  O   -0.000644  -0.009210
     4  H    0.000015   0.000301
     5  C   -0.176816   0.365615
     6  O    0.010619  -0.050094
     7  H   -0.000094  -0.000973
     8  C    0.005616   0.008711
     9  O   -0.000233  -0.000022
    10  H   -0.000001   0.000000
    11  C   -0.015081  -0.010843
    12  O   -0.063660   0.007549
    13  C    0.332198  -0.140715
    14  O   -0.057192  -0.005131
    15  C    0.061020   0.029989
    16  C    0.062769   0.009997
    17  O   -0.000560   0.000043
    18  H   -0.000443  -0.000012
    19  C    0.012534   0.000604
    20  O   -0.000004   0.000000
    21  H    0.000000   0.000000
    22  C   -0.002262  -0.000233
    23  O    0.000039   0.000010
    24  H    0.000000   0.000000
    25  C    0.033380  -0.003174
    26  O    0.000248   0.000007
    27  C    0.000607   0.000071
    28  O   -0.000007   0.000000
    29  H    0.000000   0.000000
    30  H    0.000000   0.000000
    31  H   -0.000038   0.000000
    32  H   -0.000086  -0.000003
    33  H   -0.000019  -0.000004
    34  H    0.012847  -0.000005
    35  H   -0.000056  -0.000003
    36  H    0.000043   0.000034
    37  H    0.000014  -0.000008
    38  H    0.000005   0.000000
    39  H    0.007323   0.000008
    40  H    0.000050   0.001791
    41  H    0.000057  -0.000183
    42  H    0.002487   0.005647
    43  H    0.653546   0.005911
    44  H    0.005911   0.578060
 Mulliken atomic charges:
              1
     1  C   -0.539738
     2  C    0.180468
     3  O   -0.519413
     4  H    0.348082
     5  C   -0.416476
     6  O   -0.490120
     7  H    0.363786
     8  C   -0.157759
     9  O   -0.547396
    10  H    0.362526
    11  C    0.312869
    12  O   -0.421610
    13  C    0.491729
    14  O   -0.279756
    15  C   -0.157492
    16  C    0.108051
    17  O   -0.577225
    18  H    0.419844
    19  C   -0.073704
    20  O   -0.474169
    21  H    0.368362
    22  C   -0.027012
    23  O   -0.504015
    24  H    0.337206
    25  C   -0.073486
    26  O   -0.306427
    27  C    0.373277
    28  O   -0.500123
    29  H    0.345303
    30  H    0.110346
    31  H    0.144233
    32  H    0.138485
    33  H    0.121576
    34  H    0.112002
    35  H    0.135612
    36  H    0.162006
    37  H    0.136692
    38  H    0.129343
    39  H    0.128851
    40  H    0.177012
    41  H    0.143288
    42  H    0.148851
    43  H    0.108544
    44  H    0.157576
 Sum of Mulliken atomic charges =   0.00000
 Mulliken charges with hydrogens summed into heavy atoms:
              1
     1  C   -0.219438
     2  C    0.329319
     3  O   -0.171331
     5  C   -0.258900
     6  O   -0.126334
     8  C    0.108276
     9  O   -0.184870
    11  C    0.441720
    12  O   -0.421610
    13  C    0.600273
    14  O   -0.279756
    15  C   -0.045490
    16  C    0.246536
    17  O   -0.157381
    19  C    0.070529
    20  O   -0.105806
    22  C    0.270606
    23  O   -0.166810
    25  C    0.048091
    26  O   -0.306427
    27  C    0.483622
    28  O   -0.154820
 Sum of Mulliken charges with hydrogens summed into heavy atoms =   0.00000
 APT atomic charges:
              1
     1  C   -0.017337
     2  C    0.452026
     3  O   -0.625012
     4  H    0.233753
     5  C    0.334047
     6  O   -0.592342
     7  H    0.267637
     8  C    0.481365
     9  O   -0.621438
    10  H    0.257548
    11  C    0.518246
    12  O   -0.893752
    13  C    0.957895
    14  O   -0.859513
    15  C    0.449133
    16  C    0.329742
    17  O   -0.698443
    18  H    0.362234
    19  C    0.382573
    20  O   -0.599587
    21  H    0.291222
    22  C    0.485013
    23  O   -0.610517
    24  H    0.235621
    25  C    0.425245
    26  O   -0.820988
    27  C    0.959898
    28  O   -0.664438
    29  H    0.256895
    30  H   -0.092786
    31  H   -0.044231
    32  H   -0.055216
    33  H   -0.076768
    34  H   -0.032201
    35  H   -0.019675
    36  H   -0.018340
    37  H   -0.049859
    38  H   -0.057160
    39  H   -0.069118
    40  H    0.008452
    41  H   -0.031923
    42  H   -0.061002
    43  H   -0.057572
    44  H   -0.019328
 Sum of APT charges=   0.00000
 APT Atomic charges with hydrogens summed into heavy atoms:
              1
     1  C   -0.040808
     2  C    0.391024
     3  O   -0.391260
     4  H    0.000000
     5  C    0.314719
     6  O   -0.324705
     7  H    0.000000
     8  C    0.374346
     9  O   -0.363890
    10  H    0.000000
    11  C    0.449128
    12  O   -0.893752
    13  C    0.900323
    14  O   -0.859513
    15  C    0.416932
    16  C    0.274525
    17  O   -0.336209
    18  H    0.000000
    19  C    0.338342
    20  O   -0.308365
    21  H    0.000000
    22  C    0.446998
    23  O   -0.374896
    24  H    0.000000
    25  C    0.348477
    26  O   -0.820988
    27  C    0.867112
    28  O   -0.407543
    29  H    0.000000
    30  H    0.000000
    31  H    0.000000
    32  H    0.000000
    33  H    0.000000
    34  H    0.000000
    35  H    0.000000
    36  H    0.000000
    37  H    0.000000
    38  H    0.000000
    39  H    0.000000
    40  H    0.000000
    41  H    0.000000
    42  H    0.000000
    43  H    0.000000
    44  H    0.000000
 Sum of APT charges=   0.00000
 Electronic spatial extent (au):  <R**2>=           8424.1069
 Charge=              0.0000 electrons
 Dipole moment (field-independent basis, Debye):
    X=             10.0081    Y=              0.2567    Z=              1.4152  Tot=             10.1109
 Quadrupole moment (field-independent basis, Debye-Ang):
   XX=           -113.5175   YY=           -138.0824   ZZ=           -130.5073
   XY=            -12.9633   XZ=            -22.4272   YZ=             -0.0338
 Traceless Quadrupole moment (field-independent basis, Debye-Ang):
   XX=             13.8516   YY=            -10.7134   ZZ=             -3.1382
   XY=            -12.9633   XZ=            -22.4272   YZ=             -0.0338
 Octapole moment (field-independent basis, Debye-Ang**2):
  XXX=            192.1210  YYY=            -49.5221  ZZZ=              1.3549  XYY=            100.1128
[...]
 7348544,0.03976334,0.06592146,-0.15347202,0.01890145,-0.15068645,-0.00
 431703,0.00193251,-0.00572577,0.00038615,0.00018873,0.00116187,-0.0004
 8979,-0.00099476,-0.00005689,0.00098919,-0.00107415,0.00089761,-0.0001
 1448,-0.00036142,-0.00064770,0.00006313,0.00010927,-0.00009760,-0.0000
 6812,-0.00023723,-0.00038940,0.00007263,0.00030881,0.00010584,-0.00002
 373,0.00004209,-0.00007935,0.00939220,-0.00058173,0.01270880,0.0008184
 0,-0.00176335,0.00437676,-0.00031751,-0.00066379,0.00004159,0.00015125
 ,0.00020337,0.00002722,-0.00000083,0.00000417,0.00004385,-0.00000484,-
 0.00000975,-0.00002533,-0.00005499,0.00000405,0.00005358,0.00011267,0.
 00001463,-0.00005546,-0.00000746,-0.00000558,0.00000962,0.00001125,0.0
 0001523,-0.00001021,-0.00000375,-0.00000391,0.00000429,0.00000614,0.00
 001894,0.00003083,-0.00000994,-0.00001643,-0.00003304,0.00000206,0.000
 00213,0.00000775,-0.00001586,-0.00000531,0.00002343,0.00001436,0.00002
 130,-0.00003074,-0.00000988,-0.00001826,0.00003370,0.00000872,0.000001
 24,-0.00002528,-0.00000059,-0.00000143,0.00000496,0.00000005,0.0000018
 8,-0.00000133,-0.00000104,0.00000113,-0.00000032,-0.00000164,0.0000006
 6,-0.00000032,-0.00000055,0.00000026,-0.00000211,-0.00000257,0.0000018
 0,-0.00000068,-0.00000930,0.00000154,0.00000496,0.00001471,-0.00000200
 ,0.00000456,0.00004815,-0.00006141,-0.00006438,0.00031214,-0.00023063,
 0.00021567,0.00064399,0.00064917,-0.00036576,-0.01380447,0.00168241,-0
 .02389743,0.15865619,0.01825862,-0.04381484,0.02568815,-0.02081750,-0.
 00019241,-0.03019844,0.00249734,0.00177285,-0.00032433,-0.00029838,-0.
 00015446,0.00080188,-0.00010302,-0.00498610,0.00171589,-0.00104510,-0.
 00110226,-0.00205896,0.00020942,0.00032814,-0.00020433,0.00049030,-0.0
 0005501,0.00042548,-0.00021115,0.00019085,-0.00039896,0.00001803,-0.00
 005731,0.00001278,0.01339988,-0.00107191,0.01187822,-0.00150080,-0.000
 43122,0.00624909,-0.00063317,-0.00189999,-0.00006393,0.00021436,0.0003
 5796,0.00017920,0.00006430,0.00002866,-0.00008162,-0.00007715,-0.00006
 296,-0.00009908,-0.00007423,-0.00003991,0.00027779,0.00020916,0.000181
 71,-0.00032546,0.00002570,0.00001402,-0.00000415,-0.00000870,-0.000003
 69,0.00002783,0.00001753,0.00001757,-0.00002800,-0.00002068,-0.0000162
 5,0.00003039,0.00001197,0.00002544,-0.00002358,-0.00000321,-0.00000808
 ,0.00001055,-0.00002886,-0.00002702,-0.00000976,0.00001807,0.00003538,
 0.00001636,-0.00001775,-0.00002563,-0.00002190,0.00000133,0.00000973,0
 .00002543,-0.00000085,0.00000039,-0.00000133,0.00000065,0.00000254,0.0
 0000134,0.00000002,-0.00000110,-0.00000052,0.00001136,0.00000479,0.000
 00183,0.00000286,0.00000292,-0.00000226,-0.00001519,-0.00000744,0.0000
 0121,-0.00001399,0.00000019,0.00000867,0.00002155,-0.00001241,0.000017
 69,-0.00008393,-0.00001890,0.00012422,-0.00045778,-0.00052828,-0.00010
 015,-0.00011108,0.00068457,-0.00058829,0.00756334,-0.00166126,0.013441
 38,-0.01776653,0.05041518,-0.14792759,0.02485543,-0.24736671,-0.006545
 90,0.00142619,-0.01167355,0.00061201,0.00004292,0.00193019,-0.00060194
 ,-0.00037716,0.00023740,0.00100277,-0.00152474,0.00101913,-0.00044622,
 -0.00055693,-0.00052814,0.00004730,0.00008354,-0.00007564,-0.00060973,
 -0.00058008,-0.00073445,0.00027847,-0.00014210,0.00051123,0.00001499,0
 .00008240,0.00000831,-0.01586124,0.00038576,-0.01680710,0.00238118,0.0
 0277726,-0.00726732,0.00015877,0.00156988,0.00150208,-0.00014230,-0.00
 023783,-0.00074060,-0.00026768,0.00003035,0.00030422,0.00010842,0.0000
 2468,0.00006262,0.00016346,0.00012038,-0.00035753,-0.00035903,-0.00030
 246,0.00046484,-0.00007226,-0.00002078,0.00004133,0.00005921,0.0000563
 3,-0.00006856,-0.00004347,-0.00003809,0.00004263,0.00001694,0.00008038
 ,0.00005459,-0.00003589,-0.00007625,-0.00007351,0.00001070,0.00001040,
 0.00001129,0.00003696,0.00000617,0.00007761,0.00002760,0.00002997,-0.0
 0014219,-0.00001090,-0.00004797,0.00011772,0.00002620,-0.00000243,-0.0
 0009870,0.00000020,-0.00000580,0.00001363,0.00000010,0.00000447,-0.000
 00416,-0.00000029,0.00000022,-0.00000221,-0.00001023,-0.00000419,-0.00
 000214,-0.00000321,-0.00000070,-0.00000458,0.00001760,0.00000151,-0.00
 000834,-0.00001068,0.00000518,0.00000715,0.00002839,0.00000397,0.00000
 245,0.00008390,-0.00001008,0.00000943,0.00030341,0.00033591,0.00079876
 ,0.00035608,-0.00061545,0.00064588,0.00571622,-0.00068488,0.00883233,0
 .16111247,-0.02659701,0.26878703,0.00872376,-0.00653467,-0.00160559,-0
 .23849759,0.15190413,-0.00882350,-0.02709928,0.00656844,0.01035092,0.0
 0046915,-0.00036178,-0.00070142,-0.01053285,0.01012665,-0.00184770,0.0
 0232143,-0.00078859,0.00129696,-0.00132605,-0.00016321,0.00001948,0.00
 026876,-0.00001573,-0.00027623,-0.00007987,0.00006443,0.00007144,0.000
 01388,0.00001743,-0.00001095,0.00035537,0.00087366,-0.00039195,0.00019
 828,0.00017431,0.00005074,-0.00108619,-0.00053606,0.00074684,0.0003911
 1,-0.00006815,-0.00041790,-0.00010245,0.00011867,0.00002404,0.00001595
 ,-0.00001845,-0.00006054,0.00002971,-0.00000893,0.00001506,-0.00003080
 ,0.00000493,0.00001145,-0.00001056,0.00002245,0.00000845,0.00001318,-0
 .00000182,-0.00000516,-0.00000710,0.00000163,-0.00000207,-0.00004703,0
 .00002125,-0.00000906,0.00001749,-0.00001238,0.00000978,-0.00000109,0.
 00000213,0.00000425,0.00001507,0.00001757,0.00000976,0.00000878,-0.000
 01739,-0.00001562,-0.00000614,0.00000408,0.00000241,0.00000296,-0.0000
 0469,-0.00000304,-0.00000011,0.00000211,0.00000052,0.00000318,-0.00000
 151,0.00000133,0.00000502,-0.00000364,-0.00000218,0.00000290,-0.000009
 06,0.00000826,0.00000774,-0.00001063,0.00001092,0.00002908,-0.00000876
 ,-0.00003009,0.00002146,-0.00000253,-0.00000938,-0.00000583,0.00001168
 ,-0.00000344,-0.00012841,-0.00005460,0.00004333,0.00000352,0.00000767,
 -0.00000670,0.00006051,0.00019703,0.00000637,0.00005854,-0.00255634,-0
 .00050815,0.00076852,0.00035386,0.00044327,0.26493571,0.02423276,-0.01
 893418,-0.00047345,0.15567997,-0.16399499,0.00615364,-0.01789751,0.010
 80832,0.00282710,0.00030749,0.00073242,-0.00126384,0.00030378,-0.00078
 825,-0.00199989,-0.00070959,0.00192951,0.00058047,-0.00020312,0.000072
 04,0.00014442,-0.00018721,0.00005212,0.00005824,-0.00026640,-0.0002254
 4,0.00009829,0.00000183,-0.00000845,0.00002445,0.00179446,0.00050146,-
 0.00096703,-0.00057497,-0.00014491,0.00049385,0.00093800,-0.00039461,-
 0.00056647,-0.00017861,0.00007494,0.00008481,0.00006264,-0.00003779,-0
 .00000574,-0.00002473,-0.00002020,-0.00000983,-0.00002765,0.00003659,0
 .00005118,0.00005308,-0.00001275,-0.00008301,0.00001321,-0.00001311,0.
 00000270,-0.00000889,0.00001222,0.00000372,0.00000947,-0.00000438,-0.0
 0000761,0.00001722,-0.00001057,-0.00000451,-0.00000595,0.00000495,0.00
 000576,0.00000056,-0.00000108,-0.00000474,-0.00000215,0.00000889,-0.00
 000179,-0.00000795,0.00000349,0.00000645,0.00000219,-0.00000434,-0.000
 00161,-0.00000249,0.00000443,0.00000780,-0.00000007,-0.00000149,-0.000
 00134,-0.00000293,0.00000066,-0.00000146,-0.00000435,0.00000331,0.0000
 0155,-0.00000131,0.00000753,-0.00000458,-0.00000643,-0.00000004,-0.000
 00768,-0.00001532,0.00001158,0.00001901,-0.00000095,0.00000440,-0.0000
 0187,-0.00000735,0.00000101,-0.00000460,-0.00014153,0.00027783,0.00009
 502,0.00002061,-0.00001057,-0.00002005,-0.00087493,0.00010801,0.000618
 99,-0.00164435,-0.00469246,-0.00165308,-0.00035389,0.00161807,0.000002
 40,-0.15942560,0.17261525,0.00677031,-0.00976816,0.00133788,-0.0133061
 5,0.00652253,-0.04635690,0.02809322,-0.00807695,-0.00575664,0.00092847
 ,-0.00100108,0.00142209,-0.02729190,0.02041405,-0.00019381,0.00319292,
 0.00013033,0.00276717,-0.00045658,-0.00065034,-0.00004282,-0.00005721,
 0.00003579,0.00018502,-0.00008830,-0.00013855,0.00002561,-0.00001551,-
 0.00001218,0.00001365,-0.00017958,-0.00050573,-0.00057120,0.00051590,0
 .00049468,-0.00021514,-0.00181997,-0.00080941,0.00206110,0.00050991,-0
 .00012912,-0.00054500,-0.00007525,0.00010453,0.00009790,0.00002314,-0.
 00003839,-0.00006549,0.00003807,0.00002091,-0.00000251,-0.00004632,-0.
 00002799,0.00002139,-0.00002027,0.00001475,0.00001836,0.00002333,0.000
 01769,-0.00001853,-0.00001008,-0.00000577,0.00000243,-0.00002978,0.000
 03796,0.00001544,0.00000168,-0.00003403,-0.00001427,0.00000378,0.00000
 692,0.00000562,0.00001629,0.00001563,0.00003599,0.00001605,-0.00000050
 ,-0.00005509,-0.00001054,-0.00001755,0.00003201,0.00000945,-0.00000076
 ,-0.00002340,-0.00000078,-0.00000004,0.00000357,0.00000147,0.00000100,
 0.00000023,0.00000218,-0.00000127,-0.00000127,0.00000075,-0.00000491,0
 .00000571,0.00000491,-0.00000832,0.00000806,0.00003515,-0.00000803,-0.
 00004891,0.00001476,-0.00000273,-0.00000753,0.00000063,0.00002146,0.,-
 0.00002056,0.00007359,0.00000362,0.00000368,0.00000838,-0.00001991,-0.
 00002612,0.00006326,0.00018557,0.00009880,-0.00197459,-0.00014548,0.00
 090672,0.00025319,0.00059218,0.00382587,-0.00478192,0.05108807,-0.0001
 8516,0.00006157,0.00005212,-0.00074288,0.00016287,-0.00084338,0.000404
 89,-0.00033430,0.00019253,0.00004082,-0.00004098,0.00022175,-0.0152965
 5,0.00910930,0.00607142,0.00178067,-0.00037000,-0.00130381,0.00005598,
 -0.00002867,-0.00007692,0.00018050,-0.00020442,0.00003837,0.00001491,0
 .00000108,0.00000608,-0.00000333,0.00000039,-0.00000295,0.00257312,-0.
 00035984,0.00112395,0.01087222,-0.00374796,-0.00261780,-0.29374149,0.1
 1242730,0.05766579,-0.01744302,0.01005668,-0.00819259,-0.00086062,-0.0
 0015591,0.00559542,0.00055418,-0.00002898,-0.00027401,0.00010181,-0.00
 036942,-0.00008420,-0.00026286,0.00004920,0.00017267,0.00002861,0.0001
 2486,0.00007683,0.00005806,0.00001972,-0.00006044,-0.00002261,-0.00000
 070,-0.00001557,-0.00034875,0.00010354,-0.00012402,0.00011820,-0.00005
 041,0.00006429,0.00000266,0.00001541,0.00003671,0.00070962,-0.00030404
 ,0.00008373,-0.00002123,-0.00011314,-0.00023955,-0.00002856,-0.0000047
 5,0.00005010,0.00001615,-0.00000864,-0.00002519,-0.00000246,0.00000491
 ,0.00000236,0.00001253,-0.00000169,0.00000228,0.00003522,-0.00000984,-
 0.00002686,-0.00009048,-0.00028828,0.00017691,0.00018572,0.00008606,0.
 00036063,0.00200388,-0.00095455,-0.00044844,0.00012906,-0.00007142,-0.
 00000855,0.00004575,0.00008856,-0.00000004,-0.00010327,-0.00003738,-0.
 00006126,-0.00004599,0.00005039,0.00002732,0.00001205,0.00096258,0.001
 20763,-0.00005913,-0.00010128,-0.00011483,0.00002225,0.00009391,0.0000
 0696,0.00059644,-0.00033742,0.00065689,0.30925139,-0.00038955,-0.00009
 397,-0.00023276,-0.00042809,0.00013394,-0.00111369,0.00014605,-0.00003
 420,0.00031491,0.00015731,-0.00013075,0.00012800,-0.01792575,0.0099953
 8,0.00559264,0.00167731,0.00186286,-0.00096083,0.00019569,0.00025166,-
 0.00003356,-0.00037486,0.00024650,-0.00030378,-0.00011768,-0.00010224,
 0.00006084,0.00001617,0.00003803,-0.00000275,0.00410683,0.00055353,0.0
 0395988,0.02241866,-0.03007652,-0.01809725,0.10871253,-0.09381487,-0.0
 2172011,0.00962472,-0.00007240,0.00367382,0.00039271,0.00018019,-0.002
 24718,0.00003838,-0.00005574,0.00026892,-0.00040104,0.00053699,-0.0000
 4048,0.00084806,-0.00060721,-0.00080832,-0.00001481,-0.00004811,0.0000
 2427,0.00000958,0.00004142,-0.00004449,-0.00001342,-0.00003616,0.00003
 250,0.00003842,0.00005436,-0.00005538,-0.00002037,-0.00003380,0.000010
 77,0.00000571,0.00000591,-0.00000500,-0.00036068,0.00025740,-0.0000212
 9,-0.00001069,0.00001343,0.00005792,0.00002511,0.00002307,0.00004638,-
 0.00000036,-0.00000965,-0.00003872,0.00000170,-0.00000267,0.00000391,-
 0.00001033,-0.00000194,-0.00000728,-0.00002876,0.00001975,0.00002630,-
 0.00000620,0.00011937,-0.00011119,-0.00011527,-0.00007984,-0.00016980,
 -0.00071567,0.00067139,0.00049333,-0.00004608,0.00001857,0.00001228,0.
 00003865,-0.00001958,0.00005159,-0.00001200,0.00024362,0.00017044,-0.0
 0017533,-0.00016513,-0.00003581,-0.00147452,0.00055766,-0.00071212,-0.
 00004448,-0.00006968,0.00014417,0.00002815,0.00023309,-0.00016560,0.00
 014429,0.00004451,0.00018355,-0.12393904,0.11166946,-0.00014833,0.0000
 5414,-0.00028441,0.00086827,-0.00078406,0.00084187,-0.00031368,0.00019
 993,0.00013065,-0.00015570,-0.00000420,-0.00007592,0.02176932,-0.00794
 974,-0.00230353,-0.00177864,0.00025304,0.00073414,-0.00000062,-0.00000
 756,0.00004918,-0.00026578,0.00001279,-0.00007620,-0.00004474,-0.00002
 742,0.00000470,0.00001075,0.00000876,-0.00000544,0.00283933,-0.0002106
 3,0.00273376,0.00910026,-0.01481427,-0.00431371,0.06598716,-0.02681349
 ,-0.05785980,-0.02874714,0.01470657,-0.01219864,-0.00871307,0.00364848
 ,0.00113355,0.00004297,0.00007604,-0.00054923,0.00015479,-0.00002093,0
 .00035393,-0.00002854,0.00010908,-0.00030173,0.00000087,0.00005585,0.0
 0006137,0.00006106,0.00004521,-0.00000809,-0.00000455,0.00000318,-0.00
 003554,-0.00004777,0.00009758,0.00004881,0.00002218,-0.00006869,-0.000
 05134,0.00001307,0.00002203,0.00001223,-0.00014168,-0.00007282,-0.0001
 8037,0.00018187,-0.00000376,-0.00023540,-0.00007660,-0.00011091,0.0000
 8873,0.00003344,0.00001572,-0.00004127,-0.00000293,-0.00000257,0.00001
 100,0.00000569,0.00000807,0.00000943,0.00004997,-0.00001461,-0.0000453
 0,0.00017041,-0.00021401,0.00002410,0.00025935,-0.00007738,0.00003031,
 0.00024712,-0.00035909,-0.00206158,-0.00001843,-0.00008535,0.00003617,
 0.00010144,0.00005243,-0.00002371,-0.00004397,0.00017619,0.00006364,-0
 .00006122,-0.00005917,-0.00000724,-0.00089579,0.00063096,-0.00006946,-
 0.00007163,0.00005503,0.00012584,-0.00003093,0.00000273,-0.00009609,-0
 .00040294,0.00032124,-0.00039365,-0.06155105,0.02895907,0.07723070,-0.
 00012579,0.00057281,0.00030106,-0.01650517,0.00716610,0.00032428,0.001
 68761,-0.00121257,0.00211417,0.00054981,-0.00030890,0.00053317,-0.3060
 6201,0.11836407,0.02908005,0.01253231,-0.00329885,-0.00122422,0.000295
 39,-0.00009697,0.00031284,-0.00006687,0.00001299,0.00006062,0.00006052
 ,0.00000230,-0.00002308,-0.00001826,-0.00000642,-0.00000057,-0.0002920
 9,-0.00021433,-0.00027282,0.00225752,0.00000073,-0.00087356,-0.0195036
 3,0.00776257,0.00359381,0.00167089,-0.00033305,-0.00094764,0.00004981,
 0.00019360,0.00015382,0.00011219,0.00000077,-0.00009563,0.00005228,-0.
 00009390,-0.00006487,-0.00009713,0.00003704,0.00012680,-0.00000906,0.0
 0004100,0.00001161,0.00000994,-0.00001311,-0.00001233,-0.00000758,0.00
 000430,0.00000016,-0.00004664,0.00001478,-0.00002014,0.00001144,-0.000
 01237,0.00001797,0.00000240,0.00000628,-0.00000644,0.00005896,-0.00000
 330,0.00001435,-0.00001368,-0.00003660,-0.00000593,0.00000338,0.000025
 07,-0.00000218,-0.00000019,-0.00000977,0.00000212,-0.00000052,0.000003
 39,-0.00000179,0.00000411,-0.00000322,0.00000155,0.00000908,-0.0000063
 1,-0.00000411,-0.00000597,-0.00003058,0.00002489,0.00001233,0.00000190
 ,0.00002947,0.00017485,-0.00007897,-0.00019929,0.00001693,-0.00001354,
 -0.00000652,0.00000480,0.00002088,-0.00001701,0.00001776,-0.00006486,-
 0.00002873,0.00002179,0.00000129,0.00000230,0.00020621,0.00006538,0.00
 004946,0.00010884,-0.00065339,-0.00034075,0.00023624,-0.00019448,-0.00
 006499,-0.00037615,-0.00052366,-0.00223942,-0.00054830,-0.00200104,0.0
 0162643,0.32351165,-0.00015755,0.00004833,0.00047966,0.00180580,0.0020
 1502,0.00110170,0.00036886,0.00009591,-0.00008895,-0.00037702,0.000048
 68,-0.00020158,0.11720517,-0.08868369,-0.00898564,0.02326861,-0.037763
 23,-0.01400966,0.00155675,-0.00073755,-0.00113529,-0.00002148,0.000060
 34,0.00001114,0.00000078,-0.00002398,-0.00000129,0.00000175,-0.0000005
 2,0.00000100,-0.00024145,-0.00001715,-0.00008354,0.00078889,0.00166331
 ,0.00021413,-0.01862393,0.00740119,0.00315361,0.00097969,0.00029266,-0
 .00102564,-0.00011670,0.00029472,-0.00007159,0.00000925,-0.00003987,-0
 .00013447,0.00004411,-0.00009493,0.00009699,-0.00004747,0.00013446,0.0
 0003085,0.00000766,0.00001372,-0.00000853,-0.00000134,0.00000518,0.000
 02002,0.00001007,0.00000929,-0.00001930,0.00004000,-0.00004110,0.00005
 277,-0.00001247,0.00006014,-0.00008621,0.00000115,-0.00001988,0.000010
 69,0.00004643,-0.00011328,-0.00003568,0.00001840,0.00007862,-0.0000149
 4,-0.00001985,-0.00005094,-0.00001076,0.00000552,0.00001817,0.00001045
 ,0.00000031,-0.00000476,0.00000162,-0.00000032,0.00000706,0.00000087,0
 .00000475,-0.00000236,-0.00000644,0.00000775,-0.00002035,0.00001648,0.
 00000750,0.00005090,0.00001649,0.00013449,-0.00013571,0.00006439,-0.00
 010521,-0.00000758,0.00005803,0.00010141,-0.00007704,0.00003178,-0.000
 00038,-0.00003164,-0.00001106,-0.00000099,-0.00001095,-0.00000878,0.00
 009091,-0.00004210,0.00001946,-0.00012029,0.00019723,-0.00009349,0.000
 01666,0.00025439,0.00005484,-0.00003389,0.00036606,-0.00042188,-0.0015
 5525,-0.00231761,0.00218653,-0.12508706,0.11712082,0.00023808,0.000215
 69,0.00095135,-0.03162319,0.01335912,-0.00135073,-0.00011376,-0.000382
 15,0.00196413,-0.00002977,-0.00009984,0.00080067,0.03071259,-0.0091646
 6,-0.04594555,0.00786254,-0.01534546,0.00011627,0.00016360,0.00014202,
 -0.00058277,-0.00006197,0.00002628,0.00006288,-0.00001968,-0.00004127,
 -0.00000307,-0.00000019,-0.00000116,0.00000974,-0.00021231,-0.00006732
 ,-0.00041346,-0.00227529,-0.00048739,0.00065230,0.02792403,-0.00839755
 ,-0.00409952,-0.00135858,-0.00063586,0.00256690,0.00037666,-0.00053232
 ,-0.00037602,-0.00008925,0.00004793,0.00024199,-0.00007281,0.00009805,
 -0.00003431,0.00008183,-0.00009012,-0.00004729,0.00000347,-0.00005873,
 -0.00002653,-0.00003093,-0.00001480,0.00001895,0.00000717,-0.00000134,
 0.00001108,0.00010314,-0.00003697,-0.00005147,-0.00003255,0.00004630,0
 .00001122,0.00000177,-0.00001469,-0.00002181,-0.00008767,0.00003060,-0
 .00004815,-0.00003638,0.00001080,0.00008223,0.00002914,0.00002445,-0.0
 0002397,-0.00001440,-0.00000039,0.00001454,0.00000243,-0.00000131,-0.0
 0000373,-0.00000515,-0.00000054,-0.00000277,-0.00001133,0.00000570,0.0
 0000789,-0.00000737,0.00005296,-0.00002797,-0.00004256,0.00000852,-0.0
 0007751,-0.00031735,0.00017844,0.00000331,-0.00005916,0.00001630,0.000
 03698,0.00002710,-0.00009106,-0.00001794,0.00000386,-0.00001461,0.0000
 0494,0.00000750,-0.00000335,0.00000443,0.00000038,-0.00000769,-0.00014
 094,0.00008414,-0.00051143,-0.00021671,0.00045035,-0.00005923,-0.00002
 251,-0.00182784,0.00026501,-0.00545112,0.00217868,0.00271186,-0.002506
 46,-0.03192894,0.01882121,0.05393050\\0.01193854,0.00906620,-0.0139070
 2,-0.02638378,0.00604814,0.01103864,0.01208931,-0.02014455,0.03420233,
 -0.01251479,0.00346656,-0.02593825,0.00031522,0.00015413,-0.01661916,0
 .00905721,-0.00929937,0.02853541,0.00103172,0.01458223,-0.02359269,-0.
 00632402,0.01650461,-0.00901137,0.00613419,0.00819034,-0.00304950,-0.0
 0716137,-0.03180087,-0.00650399,-0.00139701,-0.01232690,-0.01330526,0.
 00225021,0.02340451,-0.01153040,-0.01890800,0.02124553,-0.00255762,0.0
 0769626,-0.02148791,0.01745333,0.00701633,0.01159530,-0.00456142,0.024
 30840,0.02858668,0.00607305,-0.01208695,-0.01030301,0.03227804,0.00656
 017,0.00730451,-0.01955676,-0.00659794,-0.01759767,-0.02764305,-0.0129
 6883,0.00185538,0.04484055,-0.00137674,0.00022515,-0.02492132,-0.00172
 405,-0.01066291,-0.00755902,-0.02203894,0.01730990,-0.01096593,0.02920
 741,-0.00432607,0.00518877,-0.00490679,0.00706689,-0.01708677,0.006488
 00,-0.01413252,-0.00125290,0.02366768,-0.01127940,-0.01925932,-0.00626
 065,0.00069623,0.02817581,-0.00534856,-0.00230844,-0.00265998,-0.01853
 320,0.01093067,-0.00393642,0.01512880,-0.01456212,0.00194214,-0.019747
 65,0.01197606,-0.00109989,-0.02080782,0.01250258,-0.00346614,0.0157358
 2,-0.01058921,0.00219717,0.01375103,-0.01314211,0.00256362,-0.00725341
 ,0.00498674,0.01764468,-0.01948040,0.00672460,0.00572187,0.00813572,-0
 .00649272,0.01845917,0.02141012,-0.00842336,-0.00605012,-0.01551804,0.
 00629977,0.00479922,0.00819161,-0.00252170,0.01782876,0.01603486,-0.01
 274620,-0.00181289,0.01730048,-0.00810295,-0.00460370,-0.01611018,0.01
 152728,0.00350832\\\@


 IF YOU DON'T HAVE THE LAW - ARGUE THE FACTS.
 IF YOU DON'T HAVE THE FACTS - ARGUE THE LAW.
 IF YOU DON'T HAVE EITHER - POUND THE TABLE.
 Job cpu time:  0 days 11 hours 29 minutes 32.6 seconds.
 File lengths (MBytes):  RWF=   1203 Int=      0 D2E=      0 Chk=     18 Scr=      1
 Normal termination of Gaussian 09 at Thu Oct 22 01:09:09 2015.
Gaussian '09 finished on node031 at Thu Oct 22 01:09:10 EDT 2015.
