Gaussian '09 started on node003 at Fri Feb 12 11:03:03 EST 2016.
 Entering Gaussian System, Link 0=/usr/local/gaussian/g09/g09
 Initial command:
 /usr/local/gaussian/g09/l1.exe /home/srmcgrat/thesis/gaussian/cellobiose/450/6000/1/2dfp/gaussian23721/Gau-23757.inp -scrdir=/home/srmcgrat/thesis/gaussian/cellobiose/450/6000/1/2dfp/gaussian23721/
 Entering Link 1 = /usr/local/gaussian/g09/l1.exe PID=     23759.
  
 Copyright (c) 1988,1990,1992,1993,1995,1998,2003,2009,2010,
            Gaussian, Inc.  All Rights Reserved.
  
 This is part of the Gaussian(R) 09 program.  It is based on
 the Gaussian(R) 03 system (copyright 2003, Gaussian, Inc.),
 the Gaussian(R) 98 system (copyright 1998, Gaussian, Inc.),
 the Gaussian(R) 94 system (copyright 1995, Gaussian, Inc.),
 the Gaussian 92(TM) system (copyright 1992, Gaussian, Inc.),
 the Gaussian 90(TM) system (copyright 1990, Gaussian, Inc.),
 the Gaussian 88(TM) system (copyright 1988, Gaussian, Inc.),
 the Gaussian 86(TM) system (copyright 1986, Carnegie Mellon
 University), and the Gaussian 82(TM) system (copyright 1983,
 Carnegie Mellon University). Gaussian is a federally registered
 trademark of Gaussian, Inc.
  
 This software contains proprietary and confidential information,
 including trade secrets, belonging to Gaussian, Inc.
  
 This software is provided under written license and may be
 used, copied, transmitted, or stored only in accord with that
 written license.
  
 The following legend is applicable only to US Government
 contracts under FAR:
  
                    RESTRICTED RIGHTS LEGEND
  
 Use, reproduction and disclosure by the US Government is
 subject to restrictions as set forth in subparagraphs (a)
 and (c) of the Commercial Computer Software - Restricted
 Rights clause in FAR 52.227-19.
  
 Gaussian, Inc.
 340 Quinnipiac St., Bldg. 40, Wallingford CT 06492
  
  
 ---------------------------------------------------------------
 Warning -- This program may not be used in any manner that
 competes with the business of Gaussian, Inc. or will provide
 assistance to any competitor of Gaussian, Inc.  The licensee
 of this program is prohibited from giving any competitor of
 Gaussian, Inc. access to this program.  By using this program,
 the user acknowledges that Gaussian, Inc. is engaged in the
 business of creating and licensing software in the field of
 computational chemistry and represents and warrants to the
 licensee that it is not a competitor of Gaussian, Inc. and that
 it will not use this program in any manner prohibited above.
 ---------------------------------------------------------------
  

 Cite this work as:
 Gaussian 09, Revision B.01,
 M. J. Frisch, G. W. Trucks, H. B. Schlegel, G. E. Scuseria, 
 M. A. Robb, J. R. Cheeseman, G. Scalmani, V. Barone, B. Mennucci, 
 G. A. Petersson, H. Nakatsuji, M. Caricato, X. Li, H. P. Hratchian, 
 A. F. Izmaylov, J. Bloino, G. Zheng, J. L. Sonnenberg, M. Hada, 
 M. Ehara, K. Toyota, R. Fukuda, J. Hasegawa, M. Ishida, T. Nakajima, 
 Y. Honda, O. Kitao, H. Nakai, T. Vreven, J. A. Montgomery, Jr., 
 J. E. Peralta, F. Ogliaro, M. Bearpark, J. J. Heyd, E. Brothers, 
 K. N. Kudin, V. N. Staroverov, T. Keith, R. Kobayashi, J. Normand, 
 K. Raghavachari, A. Rendell, J. C. Burant, S. S. Iyengar, J. Tomasi, 
 M. Cossi, N. Rega, J. M. Millam, M. Klene, J. E. Knox, J. B. Cross, 
 V. Bakken, C. Adamo, J. Jaramillo, R. Gomperts, R. E. Stratmann, 
 O. Yazyev, A. J. Austin, R. Cammi, C. Pomelli, J. W. Ochterski, 
 R. L. Martin, K. Morokuma, V. G. Zakrzewski, G. A. Voth, 
 P. Salvador, J. J. Dannenberg, S. Dapprich, A. D. Daniels, 
 O. Farkas, J. B. Foresman, J. V. Ortiz, J. Cioslowski, 
 and D. J. Fox, Gaussian, Inc., Wallingford CT, 2010.
 
 ******************************************
 Gaussian 09:  EM64L-G09RevB.01 12-Aug-2010
                12-Feb-2016 
 ******************************************
 --------------------------------------------------
 # freq=raman b3lyp/6-31+g(2df,p) geom=connectivity
 --------------------------------------------------
 1/10=4,30=1,38=1,57=2/1,3;
 2/12=2,17=6,18=5,40=1/2;
 3/5=1,6=6,7=114,11=2,16=1,25=1,30=1,71=2,74=-5/1,2,3;
 4//1;
 5/5=2,38=5,98=1/2;
 8/6=4,10=90,11=11/1;
 10/13=10,15=4/2;
 11/6=3,8=1,9=11,15=111,16=1/1,2,10;
 10/6=1/2;
 6/7=2,8=2,9=2,10=2,18=1,28=1/1;
 7/8=1,10=1,25=1/1,2,3,16;
 1/10=4,30=1/3;
 99//99;
 ------------
 450 6000.com
 ------------
 Symbolic Z-matrix:
 Charge =  0 Multiplicity = 1
 O                     10.357    7.849     11.52 
 C                     11.227    7.917     12.659 
 C                     11.596    9.291     13.193 
 O                     12.588    9.744     12.261 
 H                     12.252    9.737     11.319 
 C                     12.259    9.554     14.535 
 O                     12.333    10.879    15.082 
 H                     12.593    11.51     14.352 
 C                     10.031    5.901     13.743 
 O                     11.162    5.073     13.436 
 H                     10.777    4.178     13.212 
 C                     10.567    7.316     13.889 
 O                     11.494    7.384     14.983 
 C                     11.507    8.704     15.546 
 O                     12.116    8.463     16.822 
 C                     11.399    8.658     18.05 
 C                     10.815    7.29      18.363 
 O                     10.095    6.632     17.311 
 H                     10.583    6.864     16.47 
 C                     10.142    7.268     19.726 
 O                     9.179     6.284     20.13 
 H                     8.34      6.547     19.651 
 C                     12.935    10.197    19.011 
 O                     11.977    11.265    19.005 
 H                     12.269    12.014    18.411 
 C                     12.28     8.851     19.274 
 O                     11.757    8.749     20.606 
 C                     11.071    7.524     20.902 
 O                     10.49     8.024     22.115 
 H                     11.18801   8.27517   22.72434 
 H                     11.75224   6.71752   21.07637 
 H                     9.55089   8.15916   19.68962 
 H                     11.67835   6.6721    18.49617 
 H                     10.64085   9.4087    17.96909 
 H                     13.05355   8.11497   19.20481 
 H                     13.66164   10.38545   19.77348 
 H                     13.4268   10.16517   18.06125 
 H                     10.88272   7.80113   10.71817 
 H                     9.57991   5.58229   14.65943 
 H                     9.31727   5.85847   12.94696 
 H                     9.73579   7.94227   14.13756 
 H                     12.12388   7.37459   12.44386 
 H                     10.73721   9.92421   13.1128 
 H                     13.25921   9.1787    14.4747 
 H                     10.50729   9.06471   15.66999 
 

 GradGradGradGradGradGradGradGradGradGradGradGradGradGradGradGradGradGrad
 Berny optimization.
 Initialization pass.
 Trust Radius=3.00D-01 FncErr=1.00D-07 GrdErr=1.00D-07
 Number of steps in this run=      2 maximum allowed number of steps=      2.
 GradGradGradGradGradGradGradGradGradGradGradGradGradGradGradGradGradGrad

                          Input orientation:                          
 ---------------------------------------------------------------------
 Center     Atomic      Atomic             Coordinates (Angstroms)
 Number     Number       Type             X           Y           Z
 ---------------------------------------------------------------------
      1          8           0       10.357000    7.849000   11.520000
      2          6           0       11.227000    7.917000   12.659000
      3          6           0       11.596000    9.291000   13.193000
      4          8           0       12.588000    9.744000   12.261000
      5          1           0       12.252000    9.737000   11.319000
      6          6           0       12.259000    9.554000   14.535000
      7          8           0       12.333000   10.879000   15.082000
      8          1           0       12.593000   11.510000   14.352000
      9          6           0       10.031000    5.901000   13.743000
     10          8           0       11.162000    5.073000   13.436000
     11          1           0       10.777000    4.178000   13.212000
     12          6           0       10.567000    7.316000   13.889000
     13          8           0       11.494000    7.384000   14.983000
     14          6           0       11.507000    8.704000   15.546000
     15          8           0       12.116000    8.463000   16.822000
     16          6           0       11.399000    8.658000   18.050000
     17          6           0       10.815000    7.290000   18.363000
     18          8           0       10.095000    6.632000   17.311000
     19          1           0       10.583000    6.864000   16.470000
     20          6           0       10.142000    7.268000   19.726000
     21          8           0        9.179000    6.284000   20.130000
     22          1           0        8.340000    6.547000   19.651000
     23          6           0       12.935000   10.197000   19.011000
     24          8           0       11.977000   11.265000   19.005000
     25          1           0       12.269000   12.014000   18.411000
     26          6           0       12.280000    8.851000   19.274000
     27          8           0       11.757000    8.749000   20.606000
     28          6           0       11.071000    7.524000   20.902000
     29          8           0       10.490000    8.024000   22.115000
     30          1           0       11.188012    8.275170   22.724338
     31          1           0       11.752241    6.717523   21.076371
     32          1           0        9.550892    8.159161   19.689621
     33          1           0       11.678349    6.672104   18.496166
     34          1           0       10.640846    9.408704   17.969088
     35          1           0       13.053547    8.114971   19.204810
     36          1           0       13.661644   10.385447   19.773480
     37          1           0       13.426799   10.165170   18.061252
     38          1           0       10.882721    7.801130   10.718174
     39          1           0        9.579914    5.582286   14.659429
     40          1           0        9.317271    5.858468   12.946959
     41          1           0        9.735793    7.942269   14.137559
     42          1           0       12.123884    7.374586   12.443860
     43          1           0       10.737211    9.924205   13.112800
     44          1           0       13.259205    9.178696   14.474695
     45          1           0       10.507292    9.064706   15.669992
 ---------------------------------------------------------------------
                    Distance matrix (angstroms):
                    1          2          3          4          5
     1  O    0.000000
     2  C    1.434868   0.000000
     3  C    2.532472   1.519603   0.000000
     4  O    3.019514   2.312716   1.434537   0.000000
     5  H    2.682531   2.481658   2.034976   1.000154   0.000000
     6  C    3.951563   2.695212   1.519770   2.305519   3.221210
     7  O    5.076743   3.983417   2.575507   3.051441   3.933306
     8  H    5.140315   4.200221   2.694671   2.736980   3.529717
     9  C    2.973669   2.582582   3.774099   4.848012   5.052080
    10  O    3.467745   2.948947   4.247226   5.023180   5.236667
    11  H    4.063927   3.806367   5.178213   5.929964   6.054879
    12  C    2.437283   1.519770   2.333213   3.553872   3.912207
    13  O    3.674420   2.399240   2.617471   3.765066   4.419963
    14  C    4.273430   3.005418   2.426747   3.611286   4.414708
    15  O    5.619811   4.291737   3.758407   4.760931   5.650184
    16  C    6.661918   5.444405   4.902035   6.008797   6.870095
    17  C    6.881053   5.753129   5.598470   6.811758   7.594124
    18  O    5.923294   4.957192   5.126520   6.434446   7.085036
    19  H    5.052109   4.005904   4.201812   5.479973   6.129640
    20  C    8.229351   7.179200   6.991905   8.236487   9.012531
    21  O    8.830006   7.916870   7.937626   9.247380   9.949887
    22  H    8.478010   7.687635   7.735427   9.103758   9.741769
    23  C    8.262825   6.961578   6.038450   6.774077   7.735952
    24  O    8.385623   7.214106   6.149893   6.940338   7.841237
    25  H    8.275799   7.138395   5.924119   6.563319   7.448589
    26  C    8.051487   6.763090   6.135146   7.076333   8.004237
    27  O    9.237175   8.007992   7.434531   8.445094   9.352515
    28  C    9.414741   8.253838   7.926323   9.049672   9.905858
    29  O   10.597280   9.485281   9.079130  10.220632  11.072156
    30  H   11.243193  10.071784   9.593997  10.658277  11.547760
    31  H    9.723743   8.518613   8.294259   9.357822  10.226108
    32  H    8.215152   7.231709   6.904319   8.180474   8.936043
    33  H    7.197078   5.985481   5.915147   7.010086   7.825240
    34  H    6.641083   5.546692   4.872083   6.040373   6.850348
    35  H    8.148522   6.798757   6.296773   7.147515   8.090702
    36  H    9.245224   7.914326   6.983367   7.615873   8.595686
    37  H    7.587904   6.251217   5.274076   5.875704   6.857219
    38  H    0.960000   1.974528   2.975440   3.010487   2.446121
    39  H    3.949414   3.487908   4.468733   5.667531   5.963234
    40  H    2.660727   2.822683   4.127399   5.124995   5.128928
    41  H    2.691879   2.100113   2.484278   3.860414   4.182898
    42  H    2.049504   1.070000   2.124268   2.421356   2.619680
    43  H    2.643492   2.115349   1.070000   2.045350   2.355282
    44  H    4.349840   3.003079   2.102762   2.381288   3.359253
    45  H    4.327004   3.301709   2.715140   4.051174   4.735727
                    6          7          8          9         10
     6  C    0.000000
     7  O    1.435378   0.000000
     8  H    1.992732   0.999330   0.000000
     9  C    4.351512   5.645583   6.196419   0.000000
    10  O    4.742422   6.147373   6.657461   1.434920   0.000000
    11  H    5.731320   7.128916   7.639089   1.951206   0.999713
    12  C    2.879032   4.151743   4.680671   1.520144   2.364378
    13  O    2.344105   3.595657   4.316230   2.424306   2.800742
    14  C    1.519910   2.372382   3.237077   3.645023   4.213702
    15  O    2.537932   2.985255   3.951283   4.515674   4.885408
    16  C    3.727954   3.822855   4.820243   5.293649   5.847853
    17  C    4.675940   5.094134   6.087512   4.887574   5.413947
    18  O    4.574621   5.292834   6.228208   3.642675   4.310985
    19  H    3.713395   4.594482   5.487380   2.944249   3.570445
    20  C    6.054252   6.277463   7.271990   6.138184   6.739624
    21  O    7.175188   7.519577   8.505984   6.454949   7.085792
    22  H    7.111545   7.455604   8.414201   6.179099   6.983021
    23  C    4.572199   4.032936   4.852547   7.391932   7.776859
    24  O    4.794575   3.957987   4.699988   7.761962   8.367727
    25  H    4.590760   3.517750   4.102983   8.010470   8.611246
    26  C    4.790905   4.657087   5.603065   6.659764   7.043114
    27  O    6.144678   5.948382   6.887273   7.628299   8.079350
    28  C    6.787557   6.835281   7.817108   7.413974   7.858552
    29  O    7.932633   7.810939   8.765784   8.649173   9.191574
    30  H    8.357492   8.154524   9.084831   9.361613   9.824856
    31  H    7.147863   7.320359   8.300113   7.576788   7.837609
    32  H    5.987449   6.030574   6.998053   6.379036   7.157362
    33  H    4.932881   5.457387   6.435522   5.089297   5.331888
    34  H    3.799013   3.655193   4.616241   5.525913   6.294348
    35  H    4.950680   5.015636   5.940378   6.623355   6.790487
    36  H    5.486382   4.900906   5.639066   8.346169   8.639095
    37  H    3.764537   3.252982   4.032659   6.954272   7.242408
    38  H    4.419826   5.533496   5.466760   3.672260   3.860993
    39  H    4.792442   5.984416   6.656650   1.070000   2.063770
    40  H    4.983232   6.233680   6.681643   1.070000   2.063770
    41  H    3.020300   4.032598   4.575841   2.099906   3.280085
    42  H    3.023403   4.391404   4.578506   2.870433   2.684560
    43  H    2.115549   2.708491   2.737574   4.133046   4.880481
    44  H    1.070000   2.029214   2.427728   4.658323   4.725875
    45  H    2.143851   2.640191   3.473722   3.734861   4.620940
                   11         12         13         14         15
    11  H    0.000000
    12  C    3.217060   0.000000
    13  O    3.732153   1.435545   0.000000
    14  C    5.144427   2.357073   1.435109   0.000000
    15  O    5.760750   3.509629   2.221046   1.434273   0.000000
    16  C    6.622955   4.450518   3.322437   2.506750   1.435304
    17  C    6.018205   4.480944   3.448808   3.227034   2.333069
    18  O    4.825872   3.521466   2.818207   3.066293   2.770582
    19  H    4.226913   2.620328   1.819750   2.256801   2.242943
    20  C    7.237646   5.852649   4.933296   4.625767   3.709167
    21  O    7.405914   6.476237   5.749855   5.682345   4.931214
    22  H    7.280924   6.225073   5.695481   5.615475   5.092394
    23  C    8.632133   6.335808   5.119984   4.034161   2.910196
    24  O    9.231707   6.614844   5.609985   4.329469   3.554717
    25  H    9.521479   6.739176   5.812806   4.443531   3.893319
    26  C    7.800242   5.855666   4.602452   3.810134   2.487920
    27  O    8.747896   6.970486   5.792281   5.066372   3.811736
    28  C    8.391558   7.034163   5.935747   5.501748   4.315107
    29  O    9.702448   8.256771   7.230701   6.681950   5.554498
    30  H   10.365342   8.908920   7.798470   7.198207   5.977795
    31  H    8.321575   7.308986   6.135149   5.881432   4.612882
    32  H    7.701465   5.949000   5.150614   4.614413   3.859449
    33  H    5.912309   4.782852   3.589306   3.586285   2.490317
    34  H    7.071682   4.586064   3.707293   2.667993   2.094337
    35  H    7.523043   5.922762   4.559626   4.015676   2.584164
    36  H    9.481909   7.322939   6.054425   5.034019   3.846564
    37  H    8.147569   5.805507   4.576708   3.485275   2.480186
    38  H    4.399706   3.223224   4.328557   4.951041   6.262247
    39  H    2.345226   2.138613   2.648508   3.774224   4.405333
    40  H    2.241658   2.138613   3.348263   4.432492   5.443567
    41  H    4.013788   1.070000   2.029218   2.387701   3.625296
    42  H    3.552787   2.125029   2.616118   3.430912   4.511409
    43  H    5.747199   2.726572   3.243921   2.828770   4.218334
    44  H    5.723871   3.325754   2.568123   2.107902   2.707208
    45  H    5.476711   2.496692   2.066477   1.070000   2.068119
                   16         17         18         19         20
    16  C    0.000000
    17  C    1.520016   0.000000
    18  O    2.520161   1.434597   0.000000
    19  H    2.526003   1.954162   0.999624   0.000000
    20  C    2.514185   1.520257   2.497785   3.310473   0.000000
    21  O    3.858844   2.609755   2.984447   3.962728   1.434866
    22  H    4.046851   2.887320   2.926235   3.905163   1.942336
    23  C    2.377254   3.655811   4.864651   4.805983   4.109880
    24  O    2.835940   4.190827   5.279796   5.266713   4.456801
    25  H    3.485679   4.942934   5.907808   5.756090   5.364501
    26  C    1.520390   2.326557   3.681244   3.832805   2.698377
    27  O    2.582553   2.836740   4.254522   4.694465   2.361353
    28  C    3.086656   2.562579   3.826685   4.507368   1.520379
    29  O    4.213367   3.836911   5.017181   5.763703   2.529814
    30  H    4.694732   4.486755   5.761850   6.440045   3.331451
    31  H    3.612361   2.927206   4.114825   4.754707   2.172419
    32  H    2.520457   2.028136   2.878561   3.620587   1.070000
    33  H    2.054479   1.070000   1.978186   2.311268   2.056198
    34  H    1.070000   2.162036   2.905359   2.954002   2.813929
    35  H    2.089496   2.529884   3.812967   3.892007   3.076703
    36  H    3.327764   4.435609   5.733509   5.726397   4.701981
    37  H    2.526590   3.896043   4.913965   4.638642   4.685604
    38  H    7.399760   7.662193   6.741864   5.835371   9.053940
    39  H    4.925958   4.261239   2.897937   2.434572   5.369144
    40  H    6.181586   5.798791   4.499786   3.876207   6.972973
    41  H    4.311116   4.409591   3.452037   2.705680   5.643608
    42  H    5.796673   6.062718   5.325115   4.341063   7.547767
    43  H    5.139765   5.874495   5.373633   4.545265   7.151511
    44  H    4.063778   4.965906   4.954037   4.062158   6.398744
    45  H    2.573906   3.239840   2.963267   2.342830   4.451157
                   21         22         23         24         25
    21  O    0.000000
    22  H    1.001265   0.000000
    23  C    5.538164   5.903061   0.000000
    24  O    5.822782   5.992045   1.434721   0.000000
    25  H    6.733198   6.845636   2.026091   0.999550   0.000000
    26  C    4.115632   4.579754   1.519839   2.447768   3.278637
    27  O    3.598456   4.175730   2.455283   2.990294   3.967417
    28  C    2.390240   3.158780   3.767666   4.291215   5.272607
    29  O    2.947295   3.588220   4.509409   4.731527   5.727526
    30  H    3.838161   4.532455   4.531476   4.836844   5.809671
    31  H    2.775812   3.701912   4.215618   5.002064   5.951799
    32  H    1.961751   2.016634   4.008180   4.000118   4.887000
    33  H    3.011110   3.534666   3.777449   4.630637   5.375126
    34  H    4.070664   4.038820   2.640101   2.510828   3.103827
    35  H    4.384124   4.987498   2.094388   3.334900   4.055623
    36  H    6.086302   6.562665   1.070000   2.049927   2.539290
    37  H    6.114490   6.441582   1.070000   2.049927   2.209297
    38  H    9.684360   9.371961   8.872599   9.048057   8.879731
    39  H    5.529944   5.232957   7.175539   7.544750   7.916591
    40  H    7.196963   6.809795   8.287546   8.544274   8.744085
    41  H    6.242533   5.856026   6.250533   6.305199   6.423273
    42  H    8.302919   8.182026   7.193835   7.629250   7.559893
    43  H    8.057308   7.739522   6.300274   6.168697   5.897842
    44  H    7.550484   7.610423   4.660484   5.149794   4.951156
    45  H    5.421103   5.185019   4.282312   4.257184   4.394892
                   26         27         28         29         30
    26  C    0.000000
    27  O    1.434628   0.000000
    28  C    2.423426   1.434865   0.000000
    29  O    3.458224   2.099523   1.434897   0.000000
    30  H    3.664540   2.244018   1.974554   0.960000   0.000000
    31  H    2.842322   2.085227   1.070000   2.092578   2.336753
    32  H    2.845947   2.460604   2.045488   2.604353   3.450091
    33  H    2.390523   2.961602   2.623478   4.041752   4.548372
    34  H    2.168099   2.938420   3.512707   4.373642   4.919013
    35  H    1.070000   2.011556   2.675853   3.879336   3.986597
    36  H    2.124370   2.645509   4.021551   4.595484   4.390864
    37  H    2.124370   3.357009   4.538217   5.444471   5.507144
    38  H    8.732513   9.971556  10.189336  11.405768  12.019397
    39  H    6.266516   7.080218   6.705466   7.897832   8.653344
    40  H    7.600294   8.542152   8.314580   9.493040  10.243889
    41  H    5.803603   6.824721   6.907633   8.013431   8.715075
    42  H    6.989634   8.285176   8.524730   9.829662  10.362197
    43  H    6.441456   7.653047   8.157453   9.203885   9.762387
    44  H    4.909130   6.327255   6.988312   8.208293   8.553526
    45  H    4.022069   5.101531   5.483197   6.528514   7.130957
                   31         32         33         34         35
    31  H    0.000000
    32  H    2.974447   0.000000
    33  H    2.581663   2.856877   0.000000
    34  H    4.258269   2.389475   2.973752   0.000000
    35  H    2.673761   3.536324   2.115470   3.003644   0.000000
    36  H    4.335552   4.675646   4.399308   3.651723   2.418311
    37  H    4.876613   4.658145   3.930362   2.888298   2.377048
    38  H   10.450958   9.076829   7.899676   7.430919   8.765499
    39  H    6.869128   5.651899   4.506848   5.169225   6.256285
    40  H    8.529619   7.128202   6.085260   6.291090   7.629697
    41  H    7.328928   5.559373   4.938046   4.201210   6.059237
    42  H    8.665454   7.728965   6.109205   6.071671   6.864611
    43  H    8.644742   6.912113   6.359444   4.884523   6.763973
    44  H    7.204890   6.479698   4.995432   4.372584   4.852607
    45  H    6.023961   4.229910   3.883707   2.328522   4.458739
                   36         37         38         39         40
    36  H    0.000000
    37  H    1.742240   0.000000
    38  H    9.818334   8.122919   0.000000
    39  H    8.116920   6.882859   4.706811   0.000000
    40  H    9.271921   7.848051   3.345453   1.754370   0.000000
    41  H    7.290064   5.827537   3.609371   2.422017   2.436168
    42  H    8.071761   6.406250   2.168045   3.820062   3.229366
    43  H    7.289013   5.637298   3.203570   4.752227   4.309751
    44  H    5.449342   3.723521   4.653689   5.148347   5.375569
    45  H    5.341621   3.930988   5.124263   3.742796   4.371616
                   41         42         43         44         45
    41  H    0.000000
    42  H    2.982258   0.000000
    43  H    2.445617   2.978406   0.000000
    44  H    3.749246   2.944156   2.961587   0.000000
    45  H    2.050226   3.984696   2.707551   3.002458   0.000000
 Stoichiometry    C12H22O11
 Framework group  C1[X(C12H22O11)]
 Deg. of freedom   129
 Full point group                 C1      NOp   1
 Largest Abelian subgroup         C1      NOp   1
 Largest concise Abelian subgroup C1      NOp   1
                         Standard orientation:                         
 ---------------------------------------------------------------------
 Center     Atomic      Atomic             Coordinates (Angstroms)
 Number     Number       Type             X           Y           Z
 ---------------------------------------------------------------------
      1          8           0        5.041708   -0.674284   -0.853244
      2          6           0        3.928720   -0.218250   -0.070853
      3          6           0        3.358019    1.156470   -0.376856
      4          8           0        4.303844    2.042899    0.237601
      5          1           0        5.234551    1.891915   -0.096010
      6          6           0        2.028870    1.681832    0.139921
      7          8           0        1.437717    2.872592   -0.401317
      8          1           0        2.152597    3.563052   -0.505590
      9          6           0        2.880229   -2.578024   -0.113994
     10          8           0        3.251602   -2.761277    1.259867
     11          1           0        3.495133   -3.727750    1.337635
     12          6           0        2.700849   -1.081284   -0.310031
     13          8           0        1.634590   -0.597331    0.520433
     14          6           0        1.025729    0.559682   -0.071299
     15          8           0       -0.221274    0.617454    0.634949
     16          6           0       -1.477206    0.426797   -0.033169
     17          6           0       -1.759481   -1.059037    0.118705
     18          8           0       -0.707753   -1.963453   -0.247309
     19          1           0        0.139295   -1.513088    0.033635
     20          6           0       -3.141180   -1.421619   -0.401512
     21          8           0       -3.539825   -2.752226   -0.761243
     22          1           0       -3.096891   -2.913387   -1.644627
     23          6           0       -2.443868    2.496080    0.626353
     24          8           0       -2.505719    2.977870   -0.723639
     25          1           0       -1.929880    3.785065   -0.849919
     26          6           0       -2.679197    0.996537    0.703174
     27          8           0       -4.022406    0.635694    0.351410
     28          6           0       -4.295964   -0.772837    0.344886
     29          8           0       -5.543504   -0.630355   -0.349572
     30          1           0       -6.139299   -0.086709    0.171080
     31          1           0       -4.420225   -1.159540    1.334795
     32          1           0       -3.154952   -0.919768   -1.346423
     33          1           0       -1.843599   -1.192493    1.177012
     34          1           0       -1.446719    0.726277   -1.059952
     35          1           0       -2.559791    0.719749    1.729834
     36          1           0       -3.189511    2.995755    1.208798
     37          1           0       -1.478702    2.718182    1.031354
     38          1           0        5.860746   -0.452521   -0.404249
     39          1           0        1.962069   -3.088224   -0.317903
     40          1           0        3.654614   -2.942760   -0.756018
     41          1           0        2.404375   -0.931386   -1.327151
     42          1           0        4.190883   -0.263682    0.965538
     43          1           0        3.388829    1.304688   -1.436093
     44          1           0        2.133658    1.829999    1.194419
     45          1           0        0.857859    0.397882   -1.115588
 ---------------------------------------------------------------------
 Rotational constants (GHZ):      0.4291542      0.1444746      0.1137782
 Standard basis: 6-31+G(2df,p) (6D, 7F)
 There are   846 symmetry adapted basis functions of A   symmetry.
 Integral buffers will be    131072 words long.
 Raffenetti 2 integral format.
 Two-electron integral symmetry is turned on.
   846 basis functions,  1258 primitive gaussians,   915 cartesian basis functions
    91 alpha electrons       91 beta electrons
       nuclear repulsion energy      2294.5911720259 Hartrees.
 NAtoms=   45 NActive=   45 NUniq=   45 SFac= 1.00D+00 NAtFMM=   50 NAOKFM=F Big=F
 One-electron integrals computed using PRISM.
 NBasis=   846 RedAO= T  NBF=   846
 NBsUse=   846 1.00D-06 NBFU=   846
 Harris functional with IExCor=  402 diagonalized for initial guess.
 ExpMin= 4.38D-02 ExpMax= 5.48D+03 ExpMxC= 8.25D+02 IAcc=2 IRadAn=         0 AccDes= 0.00D+00
 HarFok:  IExCor=  402 AccDes= 0.00D+00 IRadAn=         0 IDoV= 1
 ScaDFX=  1.000000  1.000000  1.000000  1.000000
 FoFCou: FMM=F IPFlag=           0 FMFlag=      100000 FMFlg1=           0
         NFxFlg=           0 DoJE=T BraDBF=F KetDBF=T FulRan=T
         Omega=  0.000000  0.000000  1.000000  0.000000  0.000000 ICntrl=     500 IOpCl=  0
         NMat0=    1 NMatS0=    1 NMatT0=    0 NMatD0=    1 NMtDS0=    0 NMtDT0=    0
         I1Cent=           4 NGrid=           0.
 Petite list used in FoFCou.
 Initial guess orbital symmetries:
       Occupied  (A) (A) (A) (A) (A) (A) (A) (A) (A) (A) (A) (A)
                 (A) (A) (A) (A) (A) (A) (A) (A) (A) (A) (A) (A)
                 (A) (A) (A) (A) (A) (A) (A) (A) (A) (A) (A) (A)
                 (A) (A) (A) (A) (A) (A) (A) (A) (A) (A) (A) (A)
                 (A) (A) (A) (A) (A) (A) (A) (A) (A) (A) (A) (A)
                 (A) (A) (A) (A) (A) (A) (A) (A) (A) (A) (A) (A)
                 (A) (A) (A) (A) (A) (A) (A) (A) (A) (A) (A) (A)
                 (A) (A) (A) (A) (A) (A) (A)
       Virtual   (A) (A) (A) (A) (A) (A) (A) (A) (A) (A) (A) (A)
                 (A) (A) (A) (A) (A) (A) (A) (A) (A) (A) (A) (A)
                 (A) (A) (A) (A) (A) (A) (A) (A) (A) (A) (A) (A)
                 (A) (A) (A) (A) (A) (A) (A) (A) (A) (A) (A) (A)
                 (A) (A) (A) (A) (A) (A) (A) (A) (A) (A) (A) (A)
                 (A) (A) (A) (A) (A) (A) (A) (A) (A) (A) (A) (A)
                 (A) (A) (A) (A) (A) (A) (A) (A) (A) (A) (A) (A)
                 (A) (A) (A) (A) (A) (A) (A) (A) (A) (A) (A) (A)
                 (A) (A) (A) (A) (A) (A) (A) (A) (A) (A) (A) (A)
                 (A) (A) (A) (A) (A) (A) (A) (A) (A) (A) (A) (A)
                 (A) (A) (A) (A) (A) (A) (A) (A) (A) (A) (A) (A)
                 (A) (A) (A) (A) (A) (A) (A) (A) (A) (A) (A) (A)
                 (A) (A) (A) (A) (A) (A) (A) (A) (A) (A) (A) (A)
                 (A) (A) (A) (A) (A) (A) (A) (A) (A) (A) (A) (A)
                 (A) (A) (A) (A) (A) (A) (A) (A) (A) (A) (A) (A)
                 (A) (A) (A) (A) (A) (A) (A) (A) (A) (A) (A) (A)
                 (A) (A) (A) (A) (A) (A) (A) (A) (A) (A) (A) (A)
                 (A) (A) (A) (A) (A) (A) (A) (A) (A) (A) (A) (A)
                 (A) (A) (A) (A) (A) (A) (A) (A) (A) (A) (A) (A)
                 (A) (A) (A) (A) (A) (A) (A) (A) (A) (A) (A) (A)
                 (A) (A) (A) (A) (A) (A) (A) (A) (A) (A) (A) (A)
                 (A) (A) (A) (A) (A) (A) (A) (A) (A) (A) (A) (A)
                 (A) (A) (A) (A) (A) (A) (A) (A) (A) (A) (A) (A)
                 (A) (A) (A) (A) (A) (A) (A) (A) (A) (A) (A) (A)
                 (A) (A) (A) (A) (A) (A) (A) (A) (A) (A) (A) (A)
                 (A) (A) (A) (A) (A) (A) (A) (A) (A) (A) (A) (A)
                 (A) (A) (A) (A) (A) (A) (A) (A) (A) (A) (A) (A)
                 (A) (A) (A) (A) (A) (A) (A) (A) (A) (A) (A) (A)
                 (A) (A) (A) (A) (A) (A) (A) (A) (A) (A) (A) (A)
                 (A) (A) (A) (A) (A) (A) (A) (A) (A) (A) (A) (A)
                 (A) (A) (A) (A) (A) (A) (A) (A) (A) (A) (A) (A)
                 (A) (A) (A) (A) (A) (A) (A) (A) (A) (A) (A) (A)
                 (A) (A) (A) (A) (A) (A) (A) (A) (A) (A) (A) (A)
                 (A) (A) (A) (A) (A) (A) (A) (A) (A) (A) (A) (A)
                 (A) (A) (A) (A) (A) (A) (A) (A) (A) (A) (A) (A)
                 (A) (A) (A) (A) (A) (A) (A) (A) (A) (A) (A) (A)
                 (A) (A) (A) (A) (A) (A) (A) (A) (A) (A) (A) (A)
                 (A) (A) (A) (A) (A) (A) (A) (A) (A) (A) (A) (A)
                 (A) (A) (A) (A) (A) (A) (A) (A) (A) (A) (A) (A)
                 (A) (A) (A) (A) (A) (A) (A) (A) (A) (A) (A) (A)
                 (A) (A) (A) (A) (A) (A) (A) (A) (A) (A) (A) (A)
                 (A) (A) (A) (A) (A) (A) (A) (A) (A) (A) (A) (A)
                 (A) (A) (A) (A) (A) (A) (A) (A) (A) (A) (A) (A)
                 (A) (A) (A) (A) (A) (A) (A) (A) (A) (A) (A) (A)
                 (A) (A) (A) (A) (A) (A) (A) (A) (A) (A) (A) (A)
                 (A) (A) (A) (A) (A) (A) (A) (A) (A) (A) (A) (A)
                 (A) (A) (A) (A) (A) (A) (A) (A) (A) (A) (A) (A)
                 (A) (A) (A) (A) (A) (A) (A) (A) (A) (A) (A) (A)
                 (A) (A) (A) (A) (A) (A) (A) (A) (A) (A) (A) (A)
                 (A) (A) (A) (A) (A) (A) (A) (A) (A) (A) (A) (A)
                 (A) (A) (A) (A) (A) (A) (A) (A) (A) (A) (A) (A)
                 (A) (A) (A) (A) (A) (A) (A) (A) (A) (A) (A) (A)
                 (A) (A) (A) (A) (A) (A) (A) (A) (A) (A) (A) (A)
                 (A) (A) (A) (A) (A) (A) (A) (A) (A) (A) (A) (A)
                 (A) (A) (A) (A) (A) (A) (A) (A) (A) (A) (A) (A)
                 (A) (A) (A) (A) (A) (A) (A) (A) (A) (A) (A) (A)
                 (A) (A) (A) (A) (A) (A) (A) (A) (A) (A) (A) (A)
                 (A) (A) (A) (A) (A) (A) (A) (A) (A) (A) (A) (A)
                 (A) (A) (A) (A) (A) (A) (A) (A) (A) (A) (A) (A)
                 (A) (A) (A) (A) (A) (A) (A) (A) (A) (A) (A) (A)
                 (A) (A) (A) (A) (A) (A) (A) (A) (A) (A) (A) (A)
                 (A) (A) (A) (A) (A) (A) (A) (A) (A) (A) (A) (A)
                 (A) (A) (A) (A) (A) (A) (A) (A) (A) (A) (A)
 The electronic state of the initial guess is 1-A.
 Requested convergence on RMS density matrix=1.00D-08 within 128 cycles.
 Requested convergence on MAX density matrix=1.00D-06.
 Requested convergence on             energy=1.00D-06.
 No special actions if energy rises.
 SCF Done:  E(RB3LYP) =  -1297.96189696     A.U. after   14 cycles
             Convg  =    0.1138D-08             -V/T =  2.0064
 Range of M.O.s used for correlation:     1   846
 NBasis=   846 NAE=    91 NBE=    91 NFC=     0 NFV=     0
 NROrb=    846 NOA=    91 NOB=    91 NVA=   755 NVB=   755

 **** Warning!!: The largest alpha MO coefficient is  0.82294218D+02

          Differentiating once with respect to electric field.
                with respect to dipole field.
          Electric field/nuclear overlap derivatives assumed to be zero.
          There are     3 degrees of freedom in the 1st order CPHF.  IDoFFX=0.
      3 vectors produced by pass  0 Test12= 2.29D-12 3.33D-08 XBig12= 1.24D+02 1.07D+00.
 AX will form     3 AO Fock derivatives at one time.
      3 vectors produced by pass  1 Test12= 2.29D-12 3.33D-08 XBig12= 2.71D+01 3.71D-01.
      3 vectors produced by pass  2 Test12= 2.29D-12 3.33D-08 XBig12= 1.02D+01 1.99D-01.
      3 vectors produced by pass  3 Test12= 2.29D-12 3.33D-08 XBig12= 1.14D+00 9.95D-02.
      3 vectors produced by pass  4 Test12= 2.29D-12 3.33D-08 XBig12= 3.25D-01 3.50D-02.
      3 vectors produced by pass  5 Test12= 2.29D-12 3.33D-08 XBig12= 6.43D-02 2.00D-02.
      3 vectors produced by pass  6 Test12= 2.29D-12 3.33D-08 XBig12= 1.91D-02 1.29D-02.
      3 vectors produced by pass  7 Test12= 2.29D-12 3.33D-08 XBig12= 3.02D-03 6.66D-03.
      3 vectors produced by pass  8 Test12= 2.29D-12 3.33D-08 XBig12= 7.59D-04 2.18D-03.
      3 vectors produced by pass  9 Test12= 2.29D-12 3.33D-08 XBig12= 2.01D-04 1.28D-03.
      3 vectors produced by pass 10 Test12= 2.29D-12 3.33D-08 XBig12= 4.29D-05 4.41D-04.
      3 vectors produced by pass 11 Test12= 2.29D-12 3.33D-08 XBig12= 1.02D-05 2.69D-04.
      3 vectors produced by pass 12 Test12= 2.29D-12 3.33D-08 XBig12= 1.29D-06 1.18D-04.
      3 vectors produced by pass 13 Test12= 2.29D-12 3.33D-08 XBig12= 3.45D-07 4.78D-05.
      3 vectors produced by pass 14 Test12= 2.29D-12 3.33D-08 XBig12= 7.88D-08 2.72D-05.
      3 vectors produced by pass 15 Test12= 2.29D-12 3.33D-08 XBig12= 1.87D-08 1.58D-05.
      3 vectors produced by pass 16 Test12= 2.29D-12 3.33D-08 XBig12= 3.94D-09 7.38D-06.
      3 vectors produced by pass 17 Test12= 2.29D-12 3.33D-08 XBig12= 3.14D-10 2.27D-06.
      3 vectors produced by pass 18 Test12= 2.29D-12 3.33D-08 XBig12= 3.61D-11 7.49D-07.
      3 vectors produced by pass 19 Test12= 2.29D-12 3.33D-08 XBig12= 1.37D-11 2.54D-07.
      2 vectors produced by pass 20 Test12= 2.29D-12 3.33D-08 XBig12= 1.06D-11 2.38D-07.
      2 vectors produced by pass 21 Test12= 2.29D-12 3.33D-08 XBig12= 8.73D-12 1.81D-07.
      2 vectors produced by pass 22 Test12= 2.29D-12 3.33D-08 XBig12= 2.21D-12 7.58D-08.
      1 vectors produced by pass 23 Test12= 2.29D-12 3.33D-08 XBig12= 3.24D-13 3.45D-08.
 Inverted reduced A of dimension    67 with in-core refinement.
 End of Minotr Frequency-dependent properties file   721 does not exist.
 End of Minotr Frequency-dependent properties file   722 does not exist.
 Symmetrizing basis deriv contribution to polar:
 IMax=3 JMax=2 DiffMx= 0.00D+00
 G2DrvN: will do     8 centers at a time, making    6 passes doing MaxLOS=3.
 Calling FoFCou, ICntrl=  3107 FMM=F I1Cent=   0 AccDes= 0.00D+00.
 Calling FoFCou, ICntrl=  3107 FMM=F I1Cent=   0 AccDes= 0.00D+00.
 Calling FoFCou, ICntrl=  3107 FMM=F I1Cent=   0 AccDes= 0.00D+00.
 Calling FoFCou, ICntrl=  3107 FMM=F I1Cent=   0 AccDes= 0.00D+00.
 Calling FoFCou, ICntrl=  3107 FMM=F I1Cent=   0 AccDes= 0.00D+00.
 Calling FoFCou, ICntrl=  3107 FMM=F I1Cent=   0 AccDes= 0.00D+00.
 FoFDir/FoFCou used for L=0 through L=3.
 End of G2Drv Frequency-dependent properties file   721 does not exist.
 End of G2Drv Frequency-dependent properties file   722 does not exist.
          IDoAtm=111111111111111111111111111111111111111111111
          Differentiating once with respect to electric field.
                with respect to dipole field.
          Differentiating once with respect to nuclear coordinates.
          There are   138 degrees of freedom in the 1st order CPHF.  IDoFFX=5.
 Will reuse    3 saved solutions.
    135 vectors produced by pass  0 Test12= 6.87D-14 1.00D-09 XBig12= 1.62D-01 5.55D-02.
 AX will form    27 AO Fock derivatives at one time.
    135 vectors produced by pass  1 Test12= 6.87D-14 1.00D-09 XBig12= 1.96D-02 1.86D-02.
    132 vectors produced by pass  2 Test12= 6.87D-14 1.00D-09 XBig12= 2.08D-04 1.58D-03.
    132 vectors produced by pass  3 Test12= 6.87D-14 1.00D-09 XBig12= 1.09D-06 9.05D-05.
    132 vectors produced by pass  4 Test12= 6.87D-14 1.00D-09 XBig12= 2.79D-09 3.50D-06.
    132 vectors produced by pass  5 Test12= 6.87D-14 1.00D-09 XBig12= 7.97D-12 1.48D-07.
     93 vectors produced by pass  6 Test12= 6.87D-14 1.00D-09 XBig12= 3.17D-13 2.62D-08.
      3 vectors produced by pass  7 Test12= 6.87D-14 1.00D-09 XBig12= 2.63D-15 3.20D-09.
 Inverted reduced A of dimension   894 with in-core refinement.
 Isotropic polarizability for W=    0.000000      191.22 Bohr**3.
 End of Minotr Frequency-dependent properties file   721 does not exist.
 End of Minotr Frequency-dependent properties file   722 does not exist.

 **********************************************************************

            Population analysis using the SCF density.

 **********************************************************************

 Orbital symmetries:
       Occupied  (A) (A) (A) (A) (A) (A) (A) (A) (A) (A) (A) (A)
                 (A) (A) (A) (A) (A) (A) (A) (A) (A) (A) (A) (A)
                 (A) (A) (A) (A) (A) (A) (A) (A) (A) (A) (A) (A)
                 (A) (A) (A) (A) (A) (A) (A) (A) (A) (A) (A) (A)
                 (A) (A) (A) (A) (A) (A) (A) (A) (A) (A) (A) (A)
                 (A) (A) (A) (A) (A) (A) (A) (A) (A) (A) (A) (A)
                 (A) (A) (A) (A) (A) (A) (A) (A) (A) (A) (A) (A)
                 (A) (A) (A) (A) (A) (A) (A)
       Virtual   (A) (A) (A) (A) (A) (A) (A) (A) (A) (A) (A) (A)
                 (A) (A) (A) (A) (A) (A) (A) (A) (A) (A) (A) (A)
                 (A) (A) (A) (A) (A) (A) (A) (A) (A) (A) (A) (A)
                 (A) (A) (A) (A) (A) (A) (A) (A) (A) (A) (A) (A)
                 (A) (A) (A) (A) (A) (A) (A) (A) (A) (A) (A) (A)
                 (A) (A) (A) (A) (A) (A) (A) (A) (A) (A) (A) (A)
                 (A) (A) (A) (A) (A) (A) (A) (A) (A) (A) (A) (A)
                 (A) (A) (A) (A) (A) (A) (A) (A) (A) (A) (A) (A)
                 (A) (A) (A) (A) (A) (A) (A) (A) (A) (A) (A) (A)
                 (A) (A) (A) (A) (A) (A) (A) (A) (A) (A) (A) (A)
                 (A) (A) (A) (A) (A) (A) (A) (A) (A) (A) (A) (A)
                 (A) (A) (A) (A) (A) (A) (A) (A) (A) (A) (A) (A)
                 (A) (A) (A) (A) (A) (A) (A) (A) (A) (A) (A) (A)
                 (A) (A) (A) (A) (A) (A) (A) (A) (A) (A) (A) (A)
                 (A) (A) (A) (A) (A) (A) (A) (A) (A) (A) (A) (A)
                 (A) (A) (A) (A) (A) (A) (A) (A) (A) (A) (A) (A)
                 (A) (A) (A) (A) (A) (A) (A) (A) (A) (A) (A) (A)
                 (A) (A) (A) (A) (A) (A) (A) (A) (A) (A) (A) (A)
                 (A) (A) (A) (A) (A) (A) (A) (A) (A) (A) (A) (A)
                 (A) (A) (A) (A) (A) (A) (A) (A) (A) (A) (A) (A)
                 (A) (A) (A) (A) (A) (A) (A) (A) (A) (A) (A) (A)
                 (A) (A) (A) (A) (A) (A) (A) (A) (A) (A) (A) (A)
                 (A) (A) (A) (A) (A) (A) (A) (A) (A) (A) (A) (A)
                 (A) (A) (A) (A) (A) (A) (A) (A) (A) (A) (A) (A)
                 (A) (A) (A) (A) (A) (A) (A) (A) (A) (A) (A) (A)
                 (A) (A) (A) (A) (A) (A) (A) (A) (A) (A) (A) (A)
                 (A) (A) (A) (A) (A) (A) (A) (A) (A) (A) (A) (A)
                 (A) (A) (A) (A) (A) (A) (A) (A) (A) (A) (A) (A)
                 (A) (A) (A) (A) (A) (A) (A) (A) (A) (A) (A) (A)
                 (A) (A) (A) (A) (A) (A) (A) (A) (A) (A) (A) (A)
                 (A) (A) (A) (A) (A) (A) (A) (A) (A) (A) (A) (A)
                 (A) (A) (A) (A) (A) (A) (A) (A) (A) (A) (A) (A)
                 (A) (A) (A) (A) (A) (A) (A) (A) (A) (A) (A) (A)
                 (A) (A) (A) (A) (A) (A) (A) (A) (A) (A) (A) (A)
                 (A) (A) (A) (A) (A) (A) (A) (A) (A) (A) (A) (A)
                 (A) (A) (A) (A) (A) (A) (A) (A) (A) (A) (A) (A)
                 (A) (A) (A) (A) (A) (A) (A) (A) (A) (A) (A) (A)
                 (A) (A) (A) (A) (A) (A) (A) (A) (A) (A) (A) (A)
                 (A) (A) (A) (A) (A) (A) (A) (A) (A) (A) (A) (A)
                 (A) (A) (A) (A) (A) (A) (A) (A) (A) (A) (A) (A)
                 (A) (A) (A) (A) (A) (A) (A) (A) (A) (A) (A) (A)
                 (A) (A) (A) (A) (A) (A) (A) (A) (A) (A) (A) (A)
                 (A) (A) (A) (A) (A) (A) (A) (A) (A) (A) (A) (A)
                 (A) (A) (A) (A) (A) (A) (A) (A) (A) (A) (A) (A)
                 (A) (A) (A) (A) (A) (A) (A) (A) (A) (A) (A) (A)
                 (A) (A) (A) (A) (A) (A) (A) (A) (A) (A) (A) (A)
                 (A) (A) (A) (A) (A) (A) (A) (A) (A) (A) (A) (A)
                 (A) (A) (A) (A) (A) (A) (A) (A) (A) (A) (A) (A)
                 (A) (A) (A) (A) (A) (A) (A) (A) (A) (A) (A) (A)
                 (A) (A) (A) (A) (A) (A) (A) (A) (A) (A) (A) (A)
                 (A) (A) (A) (A) (A) (A) (A) (A) (A) (A) (A) (A)
                 (A) (A) (A) (A) (A) (A) (A) (A) (A) (A) (A) (A)
                 (A) (A) (A) (A) (A) (A) (A) (A) (A) (A) (A) (A)
                 (A) (A) (A) (A) (A) (A) (A) (A) (A) (A) (A) (A)
                 (A) (A) (A) (A) (A) (A) (A) (A) (A) (A) (A) (A)
                 (A) (A) (A) (A) (A) (A) (A) (A) (A) (A) (A) (A)
                 (A) (A) (A) (A) (A) (A) (A) (A) (A) (A) (A) (A)
                 (A) (A) (A) (A) (A) (A) (A) (A) (A) (A) (A) (A)
                 (A) (A) (A) (A) (A) (A) (A) (A) (A) (A) (A) (A)
                 (A) (A) (A) (A) (A) (A) (A) (A) (A) (A) (A) (A)
                 (A) (A) (A) (A) (A) (A) (A) (A) (A) (A) (A) (A)
                 (A) (A) (A) (A) (A) (A) (A) (A) (A) (A) (A) (A)
                 (A) (A) (A) (A) (A) (A) (A) (A) (A) (A) (A)
 The electronic state is 1-A.
 Alpha  occ. eigenvalues --  -19.19277 -19.18786 -19.18322 -19.17799 -19.17552
 Alpha  occ. eigenvalues --  -19.16330 -19.16034 -19.15104 -19.14759 -19.14511
 Alpha  occ. eigenvalues --  -19.14021 -10.31282 -10.29001 -10.26452 -10.26382
 Alpha  occ. eigenvalues --  -10.26257 -10.25788 -10.24825 -10.24107 -10.24077
 Alpha  occ. eigenvalues --  -10.23812 -10.23070 -10.22407  -1.10508  -1.07729
 Alpha  occ. eigenvalues --   -1.06973  -1.05234  -1.04305  -1.03577  -1.02686
 Alpha  occ. eigenvalues --   -1.02015  -1.01244  -1.00279  -0.99109  -0.82504
 Alpha  occ. eigenvalues --   -0.81481  -0.79030  -0.77574  -0.72090  -0.69741
 Alpha  occ. eigenvalues --   -0.67665  -0.64595  -0.63277  -0.62100  -0.60800
 Alpha  occ. eigenvalues --   -0.59752  -0.56994  -0.56126  -0.55132  -0.54106
 Alpha  occ. eigenvalues --   -0.53435  -0.53303  -0.52651  -0.52207  -0.50510
 Alpha  occ. eigenvalues --   -0.49972  -0.49741  -0.48699  -0.48043  -0.46413
 Alpha  occ. eigenvalues --   -0.45911  -0.45052  -0.44366  -0.43340  -0.43145
 Alpha  occ. eigenvalues --   -0.42357  -0.42090  -0.41029  -0.39927  -0.39236
 Alpha  occ. eigenvalues --   -0.38749  -0.37534  -0.37027  -0.36316  -0.35801
 Alpha  occ. eigenvalues --   -0.35291  -0.35057  -0.34377  -0.33796  -0.33486
 Alpha  occ. eigenvalues --   -0.32888  -0.31412  -0.30938  -0.30361  -0.29258
 Alpha  occ. eigenvalues --   -0.28897  -0.28379  -0.27568  -0.27519  -0.26987
 Alpha  occ. eigenvalues --   -0.25517
 Alpha virt. eigenvalues --   -0.03616  -0.01467  -0.00794  -0.00333   0.00752
 Alpha virt. eigenvalues --    0.01078   0.01249   0.02518   0.02804   0.03129
 Alpha virt. eigenvalues --    0.03600   0.04352   0.04549   0.04835   0.05808
 Alpha virt. eigenvalues --    0.06235   0.06432   0.06926   0.07518   0.07948
 Alpha virt. eigenvalues --    0.08157   0.08861   0.09575   0.09914   0.10247
 Alpha virt. eigenvalues --    0.10576   0.11064   0.11167   0.11432   0.11874
 Alpha virt. eigenvalues --    0.12092   0.12260   0.12670   0.13067   0.13952
 Alpha virt. eigenvalues --    0.14184   0.14465   0.14632   0.14669   0.15203
 Alpha virt. eigenvalues --    0.15599   0.16067   0.16360   0.16587   0.16867
 Alpha virt. eigenvalues --    0.17159   0.17476   0.18082   0.18102   0.18554
 Alpha virt. eigenvalues --    0.18860   0.19113   0.19812   0.19883   0.20050
 Alpha virt. eigenvalues --    0.20234   0.20674   0.20926   0.21568   0.21685
 Alpha virt. eigenvalues --    0.21907   0.22167   0.22476   0.22747   0.23148
 Alpha virt. eigenvalues --    0.23355   0.23404   0.23720   0.24281   0.24564
 Alpha virt. eigenvalues --    0.24967   0.25104   0.25211   0.25716   0.25956
 Alpha virt. eigenvalues --    0.26288   0.26628   0.26997   0.27328   0.27546
 Alpha virt. eigenvalues --    0.27620   0.28298   0.28416   0.28879   0.29144
 Alpha virt. eigenvalues --    0.29346   0.29584   0.30000   0.30396   0.30511
 Alpha virt. eigenvalues --    0.30786   0.30879   0.31643   0.32125   0.32408
 Alpha virt. eigenvalues --    0.32735   0.32973   0.33440   0.33659   0.34107
 Alpha virt. eigenvalues --    0.34607   0.34777   0.35116   0.35489   0.35591
 Alpha virt. eigenvalues --    0.36189   0.36524   0.37001   0.37134   0.37481
 Alpha virt. eigenvalues --    0.37878   0.38092   0.38754   0.39016   0.39555
 Alpha virt. eigenvalues --    0.39744   0.40124   0.40908   0.41089   0.41658
 Alpha virt. eigenvalues --    0.41972   0.42385   0.42893   0.43148   0.43608
 Alpha virt. eigenvalues --    0.43872   0.44459   0.45135   0.45411   0.45968
 Alpha virt. eigenvalues --    0.47701   0.48252   0.49160   0.49268   0.50204
 Alpha virt. eigenvalues --    0.51910   0.55181   0.56112   0.57298   0.57887
 Alpha virt. eigenvalues --    0.58654   0.59584   0.60669   0.61056   0.61381
 Alpha virt. eigenvalues --    0.62210   0.62905   0.63234   0.65310   0.65976
 Alpha virt. eigenvalues --    0.66740   0.67528   0.67912   0.68004   0.69137
 Alpha virt. eigenvalues --    0.69576   0.70559   0.70988   0.71728   0.72981
 Alpha virt. eigenvalues --    0.73990   0.74577   0.75145   0.76214   0.77583
 Alpha virt. eigenvalues --    0.77669   0.78427   0.79084   0.79621   0.81190
 Alpha virt. eigenvalues --    0.81890   0.82416   0.83549   0.83721   0.85232
 Alpha virt. eigenvalues --    0.85585   0.86653   0.87609   0.88546   0.88783
 Alpha virt. eigenvalues --    0.88968   0.89576   0.89927   0.90275   0.90919
 Alpha virt. eigenvalues --    0.91571   0.91977   0.92692   0.92996   0.93375
 Alpha virt. eigenvalues --    0.94002   0.94334   0.95083   0.95633   0.96101
 Alpha virt. eigenvalues --    0.96254   0.97057   0.97236   0.97782   0.98138
 Alpha virt. eigenvalues --    0.98820   0.99344   1.00080   1.00134   1.01131
 Alpha virt. eigenvalues --    1.01550   1.02200   1.02757   1.03906   1.04419
 Alpha virt. eigenvalues --    1.04901   1.05268   1.06810   1.06995   1.07071
 Alpha virt. eigenvalues --    1.08776   1.09858   1.09876   1.10858   1.11047
 Alpha virt. eigenvalues --    1.11699   1.12092   1.12176   1.12965   1.14144
 Alpha virt. eigenvalues --    1.14508   1.15289   1.15798   1.16180   1.16812
 Alpha virt. eigenvalues --    1.17141   1.17986   1.18370   1.19247   1.19741
 Alpha virt. eigenvalues --    1.20235   1.20687   1.21032   1.21593   1.22308
 Alpha virt. eigenvalues --    1.22478   1.23538   1.23662   1.24209   1.24435
 Alpha virt. eigenvalues --    1.24910   1.25537   1.26508   1.27021   1.27585
 Alpha virt. eigenvalues --    1.28008   1.28345   1.28610   1.29282   1.29519
 Alpha virt. eigenvalues --    1.30772   1.30970   1.32027   1.33018   1.33636
 Alpha virt. eigenvalues --    1.34686   1.35018   1.35618   1.36314   1.36970
 Alpha virt. eigenvalues --    1.37481   1.38083   1.39507   1.40183   1.40836
 Alpha virt. eigenvalues --    1.41287   1.42472   1.42669   1.43099   1.43521
 Alpha virt. eigenvalues --    1.44758   1.45419   1.45916   1.46573   1.47926
 Alpha virt. eigenvalues --    1.48693   1.49177   1.50031   1.50396   1.50885
 Alpha virt. eigenvalues --    1.51871   1.53456   1.53904   1.54642   1.55850
 Alpha virt. eigenvalues --    1.56354   1.56772   1.58795   1.59275   1.59341
 Alpha virt. eigenvalues --    1.60577   1.61502   1.62457   1.62595   1.63395
 Alpha virt. eigenvalues --    1.64895   1.64936   1.65637   1.66306   1.67309
 Alpha virt. eigenvalues --    1.67947   1.69315   1.70314   1.70662   1.71398
 Alpha virt. eigenvalues --    1.72153   1.74685   1.75283   1.75560   1.77291
 Alpha virt. eigenvalues --    1.77499   1.79255   1.79490   1.79769   1.81652
 Alpha virt. eigenvalues --    1.82676   1.83086   1.84833   1.85067   1.85920
 Alpha virt. eigenvalues --    1.88273   1.88717   1.89606   1.90463   1.91234
 Alpha virt. eigenvalues --    1.92506   1.93577   1.94074   1.95279   1.95647
 Alpha virt. eigenvalues --    1.97915   1.99397   1.99854   2.00349   2.00856
 Alpha virt. eigenvalues --    2.03091   2.03581   2.04567   2.06275   2.07876
 Alpha virt. eigenvalues --    2.08214   2.09724   2.10329   2.12825   2.13179
 Alpha virt. eigenvalues --    2.15014   2.16041   2.16638   2.18958   2.19844
 Alpha virt. eigenvalues --    2.21806   2.22491   2.22650   2.24723   2.25893
 Alpha virt. eigenvalues --    2.26798   2.28689   2.30494   2.31797   2.32285
 Alpha virt. eigenvalues --    2.34093   2.35550   2.37527   2.41393   2.43844
 Alpha virt. eigenvalues --    2.46502   2.47510   2.48720   2.49728   2.50263
 Alpha virt. eigenvalues --    2.50755   2.52957   2.53284   2.54161   2.54798
 Alpha virt. eigenvalues --    2.55288   2.57148   2.57912   2.58523   2.58933
 Alpha virt. eigenvalues --    2.59309   2.60409   2.62568   2.63228   2.63864
 Alpha virt. eigenvalues --    2.64806   2.66973   2.67346   2.68408   2.70989
 Alpha virt. eigenvalues --    2.72172   2.72683   2.74255   2.75768   2.76777
 Alpha virt. eigenvalues --    2.77223   2.79740   2.81262   2.81698   2.84289
 Alpha virt. eigenvalues --    2.84542   2.86643   2.87317   2.88156   2.88910
 Alpha virt. eigenvalues --    2.89656   2.90292   2.92057   2.93303   2.94465
 Alpha virt. eigenvalues --    2.95765   2.96232   2.96944   2.98439   2.99583
 Alpha virt. eigenvalues --    3.00179   3.01200   3.02000   3.02415   3.03102
 Alpha virt. eigenvalues --    3.03582   3.04021   3.04257   3.05111   3.06118
 Alpha virt. eigenvalues --    3.06204   3.07796   3.08446   3.08944   3.10186
 Alpha virt. eigenvalues --    3.12196   3.13241   3.14030   3.16395   3.16941
 Alpha virt. eigenvalues --    3.19046   3.20057   3.21392   3.21836   3.23139
 Alpha virt. eigenvalues --    3.24609   3.25411   3.25906   3.26143   3.26665
 Alpha virt. eigenvalues --    3.28522   3.30259   3.31140   3.33335   3.34006
 Alpha virt. eigenvalues --    3.34881   3.37293   3.37929   3.39030   3.39846
 Alpha virt. eigenvalues --    3.40814   3.41921   3.43229   3.43598   3.45418
 Alpha virt. eigenvalues --    3.46605   3.47471   3.48717   3.51004   3.51984
 Alpha virt. eigenvalues --    3.53753   3.54516   3.56001   3.57276   3.59328
 Alpha virt. eigenvalues --    3.60393   3.61875   3.63050   3.64167   3.64858
 Alpha virt. eigenvalues --    3.65930   3.68383   3.70785   3.71206   3.72480
 Alpha virt. eigenvalues --    3.75588   3.75827   3.77578   3.80145   3.80651
 Alpha virt. eigenvalues --    3.81163   3.83208   3.84047   3.86232   3.88323
 Alpha virt. eigenvalues --    3.90685   3.91920   3.92911   3.93474   3.94070
 Alpha virt. eigenvalues --    3.97843   4.00443   4.01239   4.03389   4.05409
 Alpha virt. eigenvalues --    4.06773   4.07675   4.10132   4.13649   4.14625
 Alpha virt. eigenvalues --    4.15243   4.16532   4.17110   4.18084   4.19750
 Alpha virt. eigenvalues --    4.19812   4.21992   4.22564   4.23145   4.25371
 Alpha virt. eigenvalues --    4.26268   4.26759   4.27682   4.27959   4.29326
 Alpha virt. eigenvalues --    4.31387   4.32914   4.33058   4.33876   4.35287
 Alpha virt. eigenvalues --    4.35800   4.35872   4.37729   4.37854   4.38679
 Alpha virt. eigenvalues --    4.38927   4.40236   4.41749   4.42059   4.42352
 Alpha virt. eigenvalues --    4.43435   4.43966   4.45297   4.45696   4.46052
 Alpha virt. eigenvalues --    4.47004   4.48553   4.49964   4.50758   4.51826
 Alpha virt. eigenvalues --    4.51982   4.52917   4.53778   4.54362   4.55349
 Alpha virt. eigenvalues --    4.55959   4.56310   4.57626   4.58110   4.58594
 Alpha virt. eigenvalues --    4.58723   4.59136   4.60367   4.61404   4.62413
 Alpha virt. eigenvalues --    4.62746   4.63417   4.63557   4.63996   4.64771
 Alpha virt. eigenvalues --    4.66485   4.67263   4.67763   4.68329   4.68486
 Alpha virt. eigenvalues --    4.69679   4.69710   4.70579   4.71616   4.72466
 Alpha virt. eigenvalues --    4.73086   4.73456   4.73953   4.75944   4.76049
 Alpha virt. eigenvalues --    4.76637   4.77387   4.78210   4.78565   4.79350
 Alpha virt. eigenvalues --    4.80168   4.80683   4.81146   4.82288   4.82537
 Alpha virt. eigenvalues --    4.84240   4.84504   4.85150   4.86769   4.87427
 Alpha virt. eigenvalues --    4.88197   4.88608   4.89087   4.90575   4.92191
 Alpha virt. eigenvalues --    4.93729   4.94401   4.95065   4.95825   4.96779
 Alpha virt. eigenvalues --    4.98343   4.99263   4.99838   5.02822   5.03511
 Alpha virt. eigenvalues --    5.04905   5.06192   5.08636   5.09141   5.11158
 Alpha virt. eigenvalues --    5.12753   5.13925   5.15767   5.16616   5.17909
 Alpha virt. eigenvalues --    5.18676   5.20572   5.21536   5.23516   5.24271
 Alpha virt. eigenvalues --    5.25942   5.26129   5.27749   5.29039   5.30104
 Alpha virt. eigenvalues --    5.31158   5.32370   5.33730   5.33882   5.35386
 Alpha virt. eigenvalues --    5.37171   5.38168   5.38848   5.39189   5.39891
 Alpha virt. eigenvalues --    5.40164   5.40906   5.41334   5.42366   5.43100
 Alpha virt. eigenvalues --    5.43525   5.43902   5.45569   5.46029   5.47571
 Alpha virt. eigenvalues --    5.47774   5.49651   5.49949   5.50918   5.52848
 Alpha virt. eigenvalues --    5.53154   5.54516   5.56254   5.57194   5.59962
 Alpha virt. eigenvalues --    5.60557   5.61980   5.62437   5.63155   5.67299
 Alpha virt. eigenvalues --    5.67858   5.70125   5.72192   5.74863   5.76087
 Alpha virt. eigenvalues --    5.79410   5.80131   5.81548   5.82026   5.85054
 Alpha virt. eigenvalues --    5.85835   5.86959   5.88472   5.88870   5.91301
 Alpha virt. eigenvalues --    5.91787   5.92788   5.93791   5.95008   5.95733
 Alpha virt. eigenvalues --    5.96552   5.98002   5.98922   6.00066   6.00863
 Alpha virt. eigenvalues --    6.01178   6.02983   6.03930   6.04765   6.05188
 Alpha virt. eigenvalues --    6.06133   6.06681   6.09212   6.10492   6.12299
 Alpha virt. eigenvalues --    6.12820   6.14432   6.16578   6.18295   6.20353
 Alpha virt. eigenvalues --    6.21278   6.28883   6.34175   6.34525   6.36438
 Alpha virt. eigenvalues --    6.52746   6.66057   6.97244   7.06277   7.09806
 Alpha virt. eigenvalues --    7.14021   7.16295   7.18323   7.22848   7.25759
 Alpha virt. eigenvalues --    7.37529   7.47067   7.49577   7.76217   7.83197
 Alpha virt. eigenvalues --    7.89164   7.94032  12.10876  12.13234  12.21716
 Alpha virt. eigenvalues --   12.25705  12.48551  12.54280  12.83364  12.92707
 Alpha virt. eigenvalues --   13.02320  13.13093  13.17380  13.31168  13.39178
 Alpha virt. eigenvalues --   13.46793  13.49806  13.51183  13.65453  13.66770
 Alpha virt. eigenvalues --   13.74251  13.77508  14.11596  14.17858  14.34747
          Condensed to atoms (all electrons):
              1          2          3          4          5          6
     1  O    8.061771   0.277366  -0.011140  -0.004610   0.012111  -0.013156
     2  C    0.277366   8.264226  -1.209108   0.069017  -0.042168  -0.798910
     3  C   -0.011140  -1.209108   7.202227  -0.015281   0.017673   0.102049
     4  O   -0.004610   0.069017  -0.015281   8.172795   0.235772   0.093792
     5  H    0.012111  -0.042168   0.017673   0.235772   0.437856  -0.015459
     6  C   -0.013156  -0.798910   0.102049   0.093792  -0.015459   9.236652
     7  O    0.000257   0.031164   0.027430  -0.014515   0.000495   0.074261
     8  H   -0.000046   0.000483  -0.041250   0.006694  -0.000378   0.042327
     9  C   -0.051502  -0.094003  -0.204665   0.003120  -0.003037   0.304645
    10  O    0.004768  -0.008498   0.014700  -0.000098   0.000031   0.006829
    11  H   -0.000053   0.010595  -0.003205   0.000006   0.000000  -0.000829
    12  C   -0.043714  -1.716002   0.323985   0.002845   0.017249   0.662261
    13  O    0.003822   0.030528  -0.038744  -0.005073   0.000330  -0.055438
    14  C   -0.014378   0.896222  -0.524690  -0.026004   0.011418  -2.880654
    15  O    0.000009  -0.001523   0.023732  -0.000082   0.000026  -0.142548
    16  C    0.001437   0.240248  -0.050742  -0.002864   0.000252  -0.273319
    17  C   -0.000640  -0.085396   0.026102   0.000387   0.000072  -0.103586
    18  O    0.000034   0.004008  -0.001574   0.000003   0.000000   0.010964
    19  H   -0.000097  -0.003659   0.006336  -0.000001   0.000000   0.010831
    20  C    0.000085   0.017392  -0.004356  -0.000065   0.000002   0.027421
    21  O    0.000000   0.000042  -0.000011   0.000000   0.000000  -0.001019
    22  H    0.000000  -0.000006   0.000016   0.000000   0.000000   0.000176
    23  C    0.000031   0.012974  -0.032147   0.000019  -0.000010  -0.001007
    24  O    0.000000  -0.001114  -0.006310  -0.000005   0.000000   0.018851
    25  H    0.000000  -0.000145  -0.000757  -0.000001   0.000000   0.001473
    26  C    0.000001  -0.024091   0.074368   0.000139  -0.000006  -0.207114
    27  O    0.000000   0.000116  -0.000208   0.000000   0.000000  -0.000811
    28  C   -0.000003   0.000089   0.000647   0.000003   0.000000  -0.003466
    29  O    0.000000  -0.000007   0.000003   0.000000   0.000000   0.000013
    30  H    0.000000   0.000000   0.000000   0.000000   0.000000   0.000017
    31  H    0.000000  -0.000005  -0.000002   0.000000   0.000000  -0.000271
    32  H    0.000000   0.000076  -0.000018   0.000000   0.000000  -0.001134
    33  H    0.000000  -0.000079   0.000993   0.000000   0.000000   0.007823
    34  H    0.000000  -0.002495   0.005227   0.000001   0.000000  -0.003522
    35  H    0.000000  -0.000242  -0.000088   0.000000   0.000000  -0.001851
    36  H    0.000000   0.000009  -0.000558   0.000000   0.000000   0.001631
    37  H    0.000000   0.000761   0.003596   0.000008   0.000000  -0.020247
    38  H    0.264432   0.028815  -0.040894  -0.000427   0.000263  -0.008128
    39  H   -0.000008  -0.003805   0.007320  -0.000003   0.000000   0.003867
    40  H   -0.000060  -0.032286  -0.001294  -0.000032  -0.000001   0.005365
    41  H    0.000105   0.115007  -0.052638   0.000918  -0.000015  -0.103786
    42  H   -0.024281   0.441310  -0.106780   0.003272  -0.001303  -0.020870
    43  H   -0.000961   0.007491   0.276506  -0.016937  -0.005714  -0.085683
    44  H   -0.000142  -0.051194  -0.047146  -0.001837  -0.000029   0.560891
    45  H    0.000151  -0.038406  -0.017053   0.000173   0.000009  -0.011683
              7          8          9         10         11         12
     1  O    0.000257  -0.000046  -0.051502   0.004768  -0.000053  -0.043714
     2  C    0.031164   0.000483  -0.094003  -0.008498   0.010595  -1.716002
     3  C    0.027430  -0.041250  -0.204665   0.014700  -0.003205   0.323985
     4  O   -0.014515   0.006694   0.003120  -0.000098   0.000006   0.002845
     5  H    0.000495  -0.000378  -0.003037   0.000031   0.000000   0.017249
     6  C    0.074261   0.042327   0.304645   0.006829  -0.000829   0.662261
     7  O    8.145686   0.228615  -0.001847  -0.000036   0.000000  -0.020155
     8  H    0.228615   0.413693   0.000736   0.000002   0.000000   0.003125
     9  C   -0.001847   0.000736   7.087442   0.259043  -0.054072  -0.916778
    10  O   -0.000036   0.000002   0.259043   8.119008   0.235053  -0.144542
    11  H    0.000000   0.000000  -0.054072   0.235053   0.435223   0.042269
    12  C   -0.020155   0.003125  -0.916778  -0.144542   0.042269   8.627546
    13  O    0.004553  -0.000758  -0.076514   0.002550   0.001383   0.113578
    14  C    0.026952  -0.009481  -0.582540   0.005039   0.003666  -1.134332
    15  O    0.008922   0.000349   0.002048  -0.001190   0.000029  -0.041335
    16  C    0.005086  -0.001109  -0.097583  -0.006000   0.000346  -0.129225
    17  C   -0.004087  -0.000426   0.003746   0.004955  -0.000272  -0.110781
    18  O    0.000241  -0.000003  -0.028405  -0.000605   0.000068   0.031190
    19  H   -0.000117   0.000001   0.002613   0.000022  -0.000012  -0.004199
    20  C    0.003312  -0.000067   0.005960   0.000634  -0.000039  -0.050078
    21  O   -0.000004   0.000000  -0.000136  -0.000004   0.000000   0.001237
    22  H    0.000000   0.000000   0.000269   0.000000   0.000000  -0.000583
    23  C    0.002218   0.001139  -0.003101   0.000138   0.000000  -0.004136
    24  O    0.002656   0.000194   0.000256   0.000000   0.000000   0.002471
    25  H    0.000369  -0.000002   0.000017   0.000000   0.000000   0.000406
    26  C   -0.006928  -0.000381   0.015948  -0.000787  -0.000015   0.013316
    27  O   -0.000067   0.000001  -0.000035   0.000001   0.000000   0.000225
    28  C   -0.000357  -0.000006  -0.001745  -0.000028   0.000003   0.009102
    29  O    0.000000   0.000000   0.000001   0.000000   0.000000   0.000028
    30  H    0.000000   0.000000   0.000001   0.000000   0.000000  -0.000001
    31  H    0.000000   0.000000  -0.000008   0.000000   0.000000   0.000157
    32  H   -0.000001   0.000000  -0.000197   0.000000   0.000000   0.001693
    33  H    0.000011   0.000000  -0.000147   0.000006   0.000000   0.000146
    34  H   -0.001489  -0.000003   0.000014   0.000001   0.000000   0.005492
    35  H   -0.000063   0.000000   0.000232  -0.000001   0.000000   0.001093
    36  H    0.000165   0.000000   0.000013   0.000000   0.000000   0.000121
    37  H   -0.000041  -0.000042  -0.000160   0.000000   0.000000  -0.001107
    38  H   -0.000014   0.000000   0.007714   0.000362   0.000004   0.002360
    39  H   -0.000001   0.000000   0.546040  -0.032394  -0.002893  -0.177513
    40  H   -0.000003   0.000000   0.455656  -0.029664  -0.006755  -0.064725
    41  H    0.000190   0.000006  -0.016886   0.007439  -0.000209   0.124839
    42  H   -0.000021   0.000006  -0.048371   0.003521  -0.000073  -0.041320
    43  H    0.002366  -0.000100   0.002337  -0.000037   0.000000   0.039053
    44  H   -0.038319  -0.001618   0.013761  -0.000230   0.000000   0.097903
    45  H    0.001750  -0.000420   0.037548  -0.000220   0.000001   0.082341
             13         14         15         16         17         18
     1  O    0.003822  -0.014378   0.000009   0.001437  -0.000640   0.000034
     2  C    0.030528   0.896222  -0.001523   0.240248  -0.085396   0.004008
     3  C   -0.038744  -0.524690   0.023732  -0.050742   0.026102  -0.001574
     4  O   -0.005073  -0.026004  -0.000082  -0.002864   0.000387   0.000003
     5  H    0.000330   0.011418   0.000026   0.000252   0.000072   0.000000
     6  C   -0.055438  -2.880654  -0.142548  -0.273319  -0.103586   0.010964
     7  O    0.004553   0.026952   0.008922   0.005086  -0.004087   0.000241
     8  H   -0.000758  -0.009481   0.000349  -0.001109  -0.000426  -0.000003
     9  C   -0.076514  -0.582540   0.002048  -0.097583   0.003746  -0.028405
    10  O    0.002550   0.005039  -0.001190  -0.006000   0.004955  -0.000605
    11  H    0.001383   0.003666   0.000029   0.000346  -0.000272   0.000068
    12  C    0.113578  -1.134332  -0.041335  -0.129225  -0.110781   0.031190
    13  O    7.796485   0.249584  -0.005515   0.017059   0.041368  -0.014324
    14  C    0.249584  10.247591   0.265265  -0.832122   0.258104   0.038135
    15  O   -0.005515   0.265265   7.805444   0.249269  -0.035945  -0.010415
    16  C    0.017059  -0.832122   0.249269  10.743413  -1.528104  -0.044535
    17  C    0.041368   0.258104  -0.035945  -1.528104   8.313104   0.217744
    18  O   -0.014324   0.038135  -0.010415  -0.044535   0.217744   8.160842
    19  H    0.037874  -0.004967   0.007527  -0.022350  -0.014123   0.218615
    20  C   -0.010100  -0.245703   0.014524  -0.735722  -0.584897  -0.061985
    21  O    0.000208  -0.004652   0.000135   0.023653  -0.154011   0.006352
    22  H   -0.000031   0.002629   0.000003  -0.031622   0.021241   0.002197
    23  C    0.002542   0.128763  -0.082341   0.514271  -0.599569   0.020130
    24  O   -0.000074  -0.017066  -0.000817  -0.056054  -0.011388   0.000316
    25  H   -0.000003   0.015130   0.001083  -0.010555   0.003718  -0.000018
    26  C   -0.012549  -0.448513   0.084432  -3.136108   0.427583  -0.019974
    27  O    0.000242  -0.010702   0.000742   0.063501  -0.036050  -0.000518
    28  C    0.000336   0.085604   0.003204   0.774070  -0.172345   0.006410
    29  O    0.000005   0.001431  -0.000023  -0.012412   0.003054   0.000142
    30  H    0.000000   0.000160   0.000012   0.007786   0.001565   0.000000
    31  H    0.000018   0.001073   0.000137   0.036482   0.004607   0.000254
    32  H    0.000011   0.001288   0.003262   0.108369  -0.231119   0.004440
    33  H   -0.001366   0.031265   0.001405  -0.140840   0.186845  -0.023903
    34  H   -0.001547   0.038540  -0.012157   0.141396  -0.023382   0.000510
    35  H   -0.000593   0.037941  -0.006912   0.002341  -0.018079   0.001156
    36  H   -0.000003   0.002955  -0.001164   0.062309  -0.007308   0.000043
    37  H    0.000264   0.000788  -0.001444   0.048101  -0.012801   0.000070
    38  H   -0.000589   0.002092   0.000010   0.000069   0.000002  -0.000002
    39  H   -0.002499  -0.013956   0.000640  -0.000900   0.003042  -0.000374
    40  H    0.003597  -0.001787  -0.000051  -0.001610   0.000903   0.000120
    41  H   -0.017124   0.165778   0.001543   0.015554   0.006122  -0.001073
    42  H   -0.001141   0.074983  -0.001107  -0.000465   0.000600   0.000021
    43  H    0.000716   0.026120  -0.000238  -0.006262   0.001497   0.000039
    44  H    0.001530  -0.231375  -0.005979  -0.033454   0.000395   0.000028
    45  H   -0.020509   0.259774  -0.011142  -0.046520   0.013236  -0.002780
             19         20         21         22         23         24
     1  O   -0.000097   0.000085   0.000000   0.000000   0.000031   0.000000
     2  C   -0.003659   0.017392   0.000042  -0.000006   0.012974  -0.001114
     3  C    0.006336  -0.004356  -0.000011   0.000016  -0.032147  -0.006310
     4  O   -0.000001  -0.000065   0.000000   0.000000   0.000019  -0.000005
     5  H    0.000000   0.000002   0.000000   0.000000  -0.000010   0.000000
     6  C    0.010831   0.027421  -0.001019   0.000176  -0.001007   0.018851
     7  O   -0.000117   0.003312  -0.000004   0.000000   0.002218   0.002656
     8  H    0.000001  -0.000067   0.000000   0.000000   0.001139   0.000194
     9  C    0.002613   0.005960  -0.000136   0.000269  -0.003101   0.000256
    10  O    0.000022   0.000634  -0.000004   0.000000   0.000138   0.000000
    11  H   -0.000012  -0.000039   0.000000   0.000000   0.000000   0.000000
    12  C   -0.004199  -0.050078   0.001237  -0.000583  -0.004136   0.002471
    13  O    0.037874  -0.010100   0.000208  -0.000031   0.002542  -0.000074
    14  C   -0.004967  -0.245703  -0.004652   0.002629   0.128763  -0.017066
    15  O    0.007527   0.014524   0.000135   0.000003  -0.082341  -0.000817
    16  C   -0.022350  -0.735722   0.023653  -0.031622   0.514271  -0.056054
    17  C   -0.014123  -0.584897  -0.154011   0.021241  -0.599569  -0.011388
    18  O    0.218615  -0.061985   0.006352   0.002197   0.020130   0.000316
    19  H    0.351014   0.001235  -0.000219  -0.000004  -0.003028   0.000019
    20  C    0.001235   7.186389   0.389004  -0.011255   0.097040   0.030732
    21  O   -0.000219   0.389004   8.074397   0.245710  -0.002177  -0.000209
    22  H   -0.000004  -0.011255   0.245710   0.427014  -0.000810  -0.000004
    23  C   -0.003028   0.097040  -0.002177  -0.000810   6.823247   0.307619
    24  O    0.000019   0.030732  -0.000209  -0.000004   0.307619   8.091831
    25  H    0.000000  -0.002458   0.000001   0.000000  -0.044037   0.255123
    26  C   -0.001779   0.578973   0.012137  -0.000185  -1.604883  -0.111114
    27  O   -0.000061  -0.012700   0.004579  -0.000189  -0.078627   0.003807
    28  C    0.001398  -0.435985  -0.153910   0.019432  -0.068242  -0.014139
    29  O    0.000002  -0.049872  -0.005144   0.000418  -0.001310  -0.000710
    30  H    0.000000   0.001461  -0.001114   0.000017  -0.001406   0.000062
    31  H   -0.000002  -0.153822   0.008098  -0.000214   0.011772  -0.000036
    32  H   -0.000201   0.303293  -0.024461  -0.011819   0.024346   0.000553
    33  H   -0.002707   0.038179  -0.002400  -0.000096   0.022694   0.000084
    34  H    0.000258   0.015726  -0.000540   0.000029  -0.000035   0.000264
    35  H    0.000045  -0.065923   0.000070   0.000001   0.036741   0.004639
    36  H    0.000000   0.007123  -0.000017   0.000000   0.586205  -0.044108
    37  H   -0.000004  -0.001412   0.000001   0.000000   0.457754  -0.024664
    38  H    0.000000   0.000000   0.000000   0.000000  -0.000001   0.000000
    39  H    0.001949  -0.000898   0.000003   0.000000  -0.000095   0.000000
    40  H    0.000005   0.000059   0.000000   0.000000   0.000002   0.000000
    41  H   -0.001393   0.002159  -0.000001   0.000000   0.000107  -0.000004
    42  H   -0.000031   0.000020   0.000000   0.000000   0.000119   0.000000
    43  H   -0.000001  -0.000024   0.000000   0.000000   0.000412  -0.000002
    44  H    0.000000  -0.000104   0.000000   0.000000   0.001028  -0.000013
    45  H   -0.002155   0.006707   0.000022   0.000000  -0.004517  -0.000075
             25         26         27         28         29         30
     1  O    0.000000   0.000001   0.000000  -0.000003   0.000000   0.000000
     2  C   -0.000145  -0.024091   0.000116   0.000089  -0.000007   0.000000
     3  C   -0.000757   0.074368  -0.000208   0.000647   0.000003   0.000000
     4  O   -0.000001   0.000139   0.000000   0.000003   0.000000   0.000000
     5  H    0.000000  -0.000006   0.000000   0.000000   0.000000   0.000000
     6  C    0.001473  -0.207114  -0.000811  -0.003466   0.000013   0.000017
     7  O    0.000369  -0.006928  -0.000067  -0.000357   0.000000   0.000000
     8  H   -0.000002  -0.000381   0.000001  -0.000006   0.000000   0.000000
     9  C    0.000017   0.015948  -0.000035  -0.001745   0.000001   0.000001
    10  O    0.000000  -0.000787   0.000001  -0.000028   0.000000   0.000000
    11  H    0.000000  -0.000015   0.000000   0.000003   0.000000   0.000000
    12  C    0.000406   0.013316   0.000225   0.009102   0.000028  -0.000001
    13  O   -0.000003  -0.012549   0.000242   0.000336   0.000005   0.000000
    14  C    0.015130  -0.448513  -0.010702   0.085604   0.001431   0.000160
    15  O    0.001083   0.084432   0.000742   0.003204  -0.000023   0.000012
    16  C   -0.010555  -3.136108   0.063501   0.774070  -0.012412   0.007786
    17  C    0.003718   0.427583  -0.036050  -0.172345   0.003054   0.001565
    18  O   -0.000018  -0.019974  -0.000518   0.006410   0.000142   0.000000
    19  H    0.000000  -0.001779  -0.000061   0.001398   0.000002   0.000000
    20  C   -0.002458   0.578973  -0.012700  -0.435985  -0.049872   0.001461
    21  O    0.000001   0.012137   0.004579  -0.153910  -0.005144  -0.001114
    22  H    0.000000  -0.000185  -0.000189   0.019432   0.000418   0.000017
    23  C   -0.044037  -1.604883  -0.078627  -0.068242  -0.001310  -0.001406
    24  O    0.255123  -0.111114   0.003807  -0.014139  -0.000710   0.000062
    25  H    0.424810   0.022279   0.000986   0.001493   0.000022   0.000000
    26  C    0.022279  11.076018   0.180851  -0.950418   0.032838  -0.024772
    27  O    0.000986   0.180851   8.002645   0.153663  -0.081269   0.003152
    28  C    0.001493  -0.950418   0.153663   5.804531   0.277967   0.007863
    29  O    0.000022   0.032838  -0.081269   0.277967   8.022298   0.258869
    30  H    0.000000  -0.024772   0.003152   0.007863   0.258869   0.413265
    31  H    0.000000   0.031985  -0.049550   0.393831  -0.025781  -0.005632
    32  H    0.000002  -0.000173  -0.007121   0.044983  -0.005083  -0.000088
    33  H    0.000001   0.105978  -0.003532  -0.018930   0.000637  -0.000004
    34  H   -0.000128   0.099218  -0.001838   0.003609  -0.000157   0.000000
    35  H   -0.000154   0.246663  -0.041104   0.048938  -0.000967  -0.000001
    36  H    0.001019  -0.284921   0.001490  -0.009241   0.000048   0.000000
    37  H   -0.010434  -0.117963   0.002835   0.004565  -0.000016   0.000001
    38  H    0.000000   0.000000   0.000000   0.000000   0.000000   0.000000
    39  H    0.000000   0.001048   0.000000  -0.000134   0.000000   0.000000
    40  H    0.000000  -0.000023   0.000000  -0.000003   0.000000   0.000000
    41  H    0.000000   0.001773   0.000001  -0.000108   0.000000   0.000000
    42  H    0.000000  -0.000316   0.000000  -0.000003   0.000000   0.000000
    43  H    0.000000  -0.001157   0.000000   0.000000   0.000000   0.000000
    44  H    0.000000  -0.005100   0.000003   0.000026   0.000000   0.000000
    45  H    0.000004   0.018411   0.000093   0.000140  -0.000001   0.000000
             31         32         33         34         35         36
     1  O    0.000000   0.000000   0.000000   0.000000   0.000000   0.000000
     2  C   -0.000005   0.000076  -0.000079  -0.002495  -0.000242   0.000009
     3  C   -0.000002  -0.000018   0.000993   0.005227  -0.000088  -0.000558
     4  O    0.000000   0.000000   0.000000   0.000001   0.000000   0.000000
     5  H    0.000000   0.000000   0.000000   0.000000   0.000000   0.000000
     6  C   -0.000271  -0.001134   0.007823  -0.003522  -0.001851   0.001631
     7  O    0.000000  -0.000001   0.000011  -0.001489  -0.000063   0.000165
     8  H    0.000000   0.000000   0.000000  -0.000003   0.000000   0.000000
     9  C   -0.000008  -0.000197  -0.000147   0.000014   0.000232   0.000013
    10  O    0.000000   0.000000   0.000006   0.000001  -0.000001   0.000000
    11  H    0.000000   0.000000   0.000000   0.000000   0.000000   0.000000
    12  C    0.000157   0.001693   0.000146   0.005492   0.001093   0.000121
    13  O    0.000018   0.000011  -0.001366  -0.001547  -0.000593  -0.000003
    14  C    0.001073   0.001288   0.031265   0.038540   0.037941   0.002955
    15  O    0.000137   0.003262   0.001405  -0.012157  -0.006912  -0.001164
    16  C    0.036482   0.108369  -0.140840   0.141396   0.002341   0.062309
    17  C    0.004607  -0.231119   0.186845  -0.023382  -0.018079  -0.007308
    18  O    0.000254   0.004440  -0.023903   0.000510   0.001156   0.000043
    19  H   -0.000002  -0.000201  -0.002707   0.000258   0.000045   0.000000
    20  C   -0.153822   0.303293   0.038179   0.015726  -0.065923   0.007123
    21  O    0.008098  -0.024461  -0.002400  -0.000540   0.000070  -0.000017
    22  H   -0.000214  -0.011819  -0.000096   0.000029   0.000001   0.000000
    23  C    0.011772   0.024346   0.022694  -0.000035   0.036741   0.586205
    24  O   -0.000036   0.000553   0.000084   0.000264   0.004639  -0.044108
    25  H    0.000000   0.000002   0.000001  -0.000128  -0.000154   0.001019
    26  C    0.031985  -0.000173   0.105978   0.099218   0.246663  -0.284921
    27  O   -0.049550  -0.007121  -0.003532  -0.001838  -0.041104   0.001490
    28  C    0.393831   0.044983  -0.018930   0.003609   0.048938  -0.009241
    29  O   -0.025781  -0.005083   0.000637  -0.000157  -0.000967   0.000048
    30  H   -0.005632  -0.000088  -0.000004   0.000000  -0.000001   0.000000
    31  H    0.604854   0.006317   0.003919  -0.000023   0.002916  -0.000010
    32  H    0.006317   0.648779   0.009427   0.003638   0.000166   0.000001
    33  H    0.003919   0.009427   0.674067   0.006200   0.002893  -0.000006
    34  H   -0.000023   0.003638   0.006200   0.563141   0.005451   0.000071
    35  H    0.002916   0.000166   0.002893   0.005451   0.622105  -0.000252
    36  H   -0.000010   0.000001  -0.000006   0.000071  -0.000252   0.598204
    37  H   -0.000001  -0.000001  -0.000050  -0.000268  -0.001515  -0.046005
    38  H    0.000000   0.000000   0.000000   0.000000   0.000000   0.000000
    39  H    0.000000   0.000000   0.000006   0.000000   0.000000   0.000000
    40  H    0.000000   0.000000   0.000000   0.000000   0.000000   0.000000
    41  H    0.000000   0.000000  -0.000006  -0.000015   0.000000   0.000000
    42  H    0.000000   0.000000   0.000000   0.000000   0.000000   0.000000
    43  H    0.000000   0.000000   0.000000  -0.000001   0.000000   0.000000
    44  H    0.000000   0.000000   0.000000   0.000006   0.000001   0.000000
    45  H    0.000000  -0.000007  -0.000072   0.003565  -0.000002  -0.000001
[...]
 00004300,0.00012075,-0.00000775,-0.00008461,-0.00004760,0.00002294,0.0
 0000798,0.00000859,-0.00000107,-0.00000679,0.00005684,-0.00001944,-0.0
 0005564,-0.00008753,0.00000131,0.00008210,-0.00001306,0.00000174,0.000
 00706,0.00001287,0.00000217,-0.00000849,-0.00000648,0.00000280,-0.0000
 0008,-0.00000262,0.00000581,0.00000381,0.00000287,-0.00000815,-0.00000
 813,-0.00000086,0.00000543,0.00000712,0.00000576,-0.00000079,0.0000039
 8,0.00000371,0.00000452,-0.00001544,-0.00000564,-0.00000369,0.00001137
 ,0.00000448,-0.00000235,-0.00001255,-0.00000003,-0.00000012,0.00000313
 ,0.00000147,0.00000018,-0.00000013,0.00000187,-0.00000287,-0.00000123,
 0.00000594,0.00000094,0.00000644,0.00000192,-0.00000467,-0.00000096,0.
 00000161,-0.00000053,0.00000151,-0.00000017,-0.00000130,-0.00000293,0.
 00000513,-0.00000014,0.00000141,0.00063120,-0.00045575,0.00009630,0.00
 016368,-0.00008442,-0.00005549,0.00012066,0.00000813,-0.00000856,-0.00
 051167,-0.00112803,0.00175896,0.28593586,-0.00283449,0.00342724,-0.000
 21367,0.13571971,-0.12424246,-0.03401639,0.02453702,-0.02180455,-0.010
 42964,0.00109119,0.00490996,-0.00019920,0.00026408,-0.00093547,0.00040
 738,0.00125193,-0.00020197,0.00111210,-0.00082535,-0.00015513,-0.00046
 068,0.00023181,0.00003308,-0.00004175,-0.00040592,0.00076061,-0.000390
 75,0.00002658,-0.00102711,-0.00007995,0.00011614,0.00010155,-0.0000499
 6,-0.01445340,0.01020888,0.00503624,-0.00004554,0.00011119,-0.00148923
 ,-0.00009639,-0.00040571,0.00000888,0.00007468,0.00001163,-0.00006800,
 -0.00001524,0.00002606,-0.00000315,-0.00001690,-0.00001971,-0.00003360
 ,0.00004722,-0.00002939,0.00003212,-0.00006945,0.00004956,-0.00003941,
 0.00000659,0.00000519,0.00000284,0.00000083,-0.00000292,-0.00000097,0.
 00000017,0.00000219,-0.00000216,0.00000918,-0.00001102,0.00000762,-0.0
 0001220,0.00000981,-0.00001345,0.00000590,0.00000507,0.00001372,0.0000
 0573,0.00000063,-0.00000166,-0.00000112,0.00000200,-0.00000281,-0.0000
 0441,-0.00000172,0.00000129,0.00000150,0.00000011,-0.00000087,0.000000
 10,0.00000004,0.00000100,0.00000098,0.00000039,0.00000039,-0.00000015,
 -0.00000120,-0.00000077,0.00000881,0.00000335,0.00000649,-0.00000358,-
 0.00000509,0.00000328,-0.00000002,0.00000255,-0.00000070,-0.00000133,0
 .00000187,-0.00000394,0.00000442,-0.00000336,0.00000427,0.00013065,0.0
 0078740,0.00064797,0.00029823,0.00003694,-0.00011869,0.00007145,-0.000
 10565,-0.00007849,-0.00157607,-0.00075056,0.00291347,-0.14122149,0.133
 65986,-0.03858371,0.01294106,-0.00863917,0.06237034,-0.03854496,-0.059
 99922,0.01040250,-0.00372543,-0.00051188,-0.00061594,0.00211542,0.0008
 5345,-0.00034196,0.00010106,0.00007390,0.00051033,0.00023119,0.0003013
 1,-0.00026436,0.00008033,-0.00001395,0.00007312,0.00000802,0.00001628,
 -0.00014775,-0.00115482,0.00040716,-0.00053765,0.00051796,0.00032982,-
 0.00032286,-0.00005569,0.00011469,0.02274108,-0.01337241,-0.00751104,-
 0.00057123,0.00026634,0.00234276,0.00025862,-0.00053917,-0.00009630,-0
 .00006280,0.00007964,-0.00014681,-0.00002576,-0.00001725,0.00003376,0.
 00004229,0.00002333,0.00005686,-0.00012795,0.00002252,-0.00002923,0.00
 019249,-0.00003263,-0.00005088,-0.00001258,-0.00000361,0.00001013,0.00
 000876,0.00001009,-0.00001550,-0.00000455,-0.00000337,0.00001077,0.000
 01183,-0.00000268,-0.00000170,-0.00001666,-0.00000281,-0.00001314,0.00
 000642,0.00000487,0.00000760,0.00001768,-0.00000388,0.00002234,-0.0000
 0957,0.00000669,-0.00001743,0.00000996,-0.00000888,0.00002437,-0.00000
 051,0.00000003,-0.00002077,0.00000118,-0.00000230,0.00000495,-0.000002
 89,0.00000147,-0.00000325,-0.00000298,0.00000393,0.00000368,-0.0000220
 9,0.00000058,-0.00002204,-0.00000182,0.00001177,0.00000847,-0.00000521
 ,0.00000377,-0.00000469,-0.00000479,-0.00000361,-0.00000507,0.00000456
 ,0.00000060,0.00000267,-0.00150018,0.00094724,0.00334644,-0.00014697,-
 0.00000512,0.00005722,0.00007847,0.00020792,-0.00002925,0.00181251,0.0
 0222889,-0.00412641,-0.05385726,0.03938080,0.07373764,0.00109091,0.000
 54428,0.00096409,0.00561345,-0.00558615,-0.00065594,-0.22975996,0.1477
 3594,-0.02598636,-0.02883778,0.00677341,0.01188049,0.00043274,-0.00039
 737,-0.00064914,-0.01185199,0.01039666,-0.00430972,0.00211100,-0.00092
 680,0.00143253,-0.00087125,-0.00027617,-0.00018898,0.00026150,0.000340
 45,-0.00024775,-0.00000903,-0.00026632,-0.00000923,-0.00000245,-0.0000
 4852,0.00004273,0.00021925,0.00053007,-0.00037947,0.00044614,-0.000083
 90,0.00025366,-0.00135432,-0.00057454,0.00057789,0.00039592,-0.0000679
 6,-0.00047686,-0.00007739,0.00014760,0.00001996,0.00000005,-0.00002659
 ,-0.00008554,0.00003930,-0.00000966,0.00004858,-0.00004014,0.00001383,
 -0.00000898,-0.00000517,0.00001872,0.00001010,0.00001448,0.00000311,-0
 .00000418,-0.00000293,0.00000348,-0.00000514,-0.00004551,0.00004604,0.
 00000954,0.00005280,-0.00004361,0.00002411,-0.00002538,0.00000070,-0.0
 0002305,0.00000887,0.00000338,0.00000050,0.00000917,-0.00000102,-0.000
 01115,-0.00001216,-0.00000322,-0.00000161,0.00000647,-0.00000184,0.000
 00061,-0.00000162,0.00000163,-0.00000047,0.00000253,-0.00000103,0.0000
 0134,0.00000396,-0.00000435,-0.00000202,0.00000845,-0.00000911,0.00000
 844,0.00001577,-0.00000803,-0.00002289,0.00000429,-0.00000948,0.000007
 63,0.00000907,-0.00000535,0.00000407,-0.00000128,0.00000911,-0.0000054
 2,-0.00002818,-0.00008606,-0.00014330,0.00002431,0.00003133,0.00000409
 ,-0.00000524,-0.00000531,0.00001105,0.00041338,-0.00019074,-0.00019290
 ,-0.00019594,-0.00177302,-0.00083825,0.26168599,-0.00112461,0.00421768
 ,0.00109459,0.02745442,-0.02391718,0.00228992,0.15010197,-0.15894793,0
 .01812632,-0.01628632,0.01088311,0.00120400,0.00051901,0.00064859,-0.0
 0094640,-0.00158307,0.00141141,-0.00252751,-0.00049242,0.00169155,0.00
 089393,-0.00021080,-0.00004195,0.00007079,-0.00026673,-0.00016888,0.00
 009926,-0.00024024,0.00008354,0.00015302,-0.00009902,0.00001171,0.0000
 9047,0.00255408,0.00088671,-0.00189137,-0.00079617,-0.00015878,0.00051
 069,0.00073127,-0.00040074,-0.00031724,-0.00013832,0.00005635,-0.00001
 719,0.00004267,-0.00001774,0.00000732,-0.00001100,-0.00002174,-0.00001
 268,-0.00005724,0.00003722,0.00007504,0.00009682,-0.00001645,-0.000124
 94,0.00001416,-0.00000199,-0.00000084,-0.00000891,0.00000222,0.0000033
 5,0.00000617,-0.00000458,0.00000036,0.00000392,-0.00000460,-0.00000432
 ,-0.00000941,0.00000345,0.00000422,0.00000546,-0.00000346,-0.00001005,
 0.00000206,0.00000974,0.00000310,-0.00000746,-0.00000223,0.00000329,0.
 00000506,-0.00000080,-0.00000252,-0.00000369,0.00000281,0.00000617,0.0
 0000047,-0.00000045,-0.00000103,-0.00000208,0.00000048,-0.00000076,-0.
 00000362,0.00000469,0.00000210,-0.00000435,0.00000294,-0.00000450,-0.0
 0000178,0.00000884,0.00000796,-0.00000419,0.00000178,-0.00000301,-0.00
 000108,-0.00000051,0.00000031,-0.00000361,0.00000314,-0.00000124,0.000
 03841,0.00009939,0.00016139,-0.00004567,-0.00012607,-0.00000256,-0.000
 03653,-0.00000936,-0.00001563,-0.00089906,0.00010441,0.00077900,-0.001
 89475,-0.00448110,-0.00172053,-0.15627109,0.16787682,0.00098995,0.0012
 9880,0.00097661,0.00523587,-0.00898237,0.00206556,-0.02962194,0.018281
 10,-0.04461214,0.03090841,-0.00864390,-0.00629140,0.00076109,-0.000905
 04,0.00129008,-0.02921256,0.01926331,-0.00463815,0.00318582,-0.0001012
 0,0.00295264,-0.00041969,-0.00053524,-0.00006521,-0.00006106,-0.000129
 87,0.00016802,-0.00004805,0.00000745,0.00004371,-0.00000786,0.00000278
 ,0.00000867,-0.00060324,0.00020313,-0.00063531,0.00052748,0.00055022,-
 0.00068505,-0.00185945,-0.00046122,0.00210945,0.00046451,-0.00016307,-
 0.00058811,-0.00005003,0.00012534,0.00010048,0.00002641,-0.00001951,-0
 .00005588,0.00005401,0.00000904,-0.00003421,-0.00008729,-0.00001447,0.
 00007548,-0.00002275,0.00001368,0.00001376,0.00002836,0.00001405,-0.00
 001950,-0.00000831,0.00000201,0.00000030,-0.00004992,0.00005606,0.0000
 2170,0.00004782,-0.00005742,0.00001144,-0.00001636,0.00000339,-0.00001
 960,0.00002124,-0.00000298,0.00002913,0.00000682,0.00000754,-0.0000390
 0,-0.00000841,-0.00001383,0.00002441,0.00000852,-0.00000234,-0.0000243
 4,-0.00000027,-0.00000056,0.00000592,0.00000120,0.00000071,-0.00000112
 ,0.00000302,-0.00000186,-0.00000077,0.00000006,-0.00000673,0.00000661,
 0.00002681,-0.00000236,-0.00004467,0.00000275,-0.00000896,0.00000843,0
 .00000659,-0.00000996,-0.00000706,0.00000685,0.00002137,0.00000014,0.0
 0020067,-0.00008947,-0.00005397,-0.00002673,-0.00007333,-0.00000697,-0
 .00000388,0.00002867,0.00000954,0.00000084,0.00041680,0.00009370,0.000
 02999,-0.00130951,-0.00041206,0.02106295,-0.01793220,0.05388461,0.0001
 7785,-0.00031312,-0.00026242,-0.00021870,0.00115445,0.00011932,-0.0173
 8897,0.00426696,-0.00094302,0.00189012,-0.00063722,0.00243899,0.000627
 36,-0.00017575,0.00058354,-0.32392586,0.09642980,0.01296802,0.00928533
 ,0.00103594,0.00021625,0.00024992,0.00019901,0.00038417,0.00001870,0.0
 0009530,0.00010179,0.00004822,-0.00005696,-0.00000778,0.00001664,-0.00
 000576,0.00000037,-0.00036661,0.00007873,-0.00040956,0.00243581,0.0000
 9831,-0.00043772,-0.01907280,0.00488189,0.00216385,0.00166854,-0.00018
 784,-0.00091148,0.00007387,0.00019519,0.00011764,0.00006085,0.00000956
 ,-0.00016740,0.00011967,-0.00009547,-0.00010030,-0.00016179,0.00005079
 ,0.00021178,-0.00000599,0.00004135,0.00002286,0.00002319,0.00000475,-0
 .00002271,-0.00000755,0.00000543,-0.00000250,-0.00006534,0.00005664,0.
 00001135,0.00005162,-0.00006038,0.00002915,-0.00000601,-0.00000358,-0.
 00003096,-0.00001577,-0.00000675,0.00004186,0.00000754,-0.00000547,-0.
 00001577,-0.00000501,0.00000448,0.00001100,0.00000476,-0.00000671,-0.0
 0001137,-0.00000040,0.00000226,0.00000190,0.00000295,-0.00000158,0.000
 00094,0.00000697,-0.00000583,-0.00000263,0.00000572,-0.00002158,0.0000
 2276,0.00007116,-0.00002764,-0.00014612,0.00000787,-0.00001256,0.00001
 696,0.00001111,-0.00000891,-0.00000794,0.00001843,0.00003581,-0.000004
 67,-0.00007163,-0.00005589,-0.00002081,-0.00000713,-0.00003044,-0.0000
 1021,0.00001823,0.00002920,0.00001685,0.00025526,0.00003509,0.00005890
 ,0.00006189,-0.00051422,-0.00027103,-0.00035402,-0.00085082,-0.0021082
 1,0.34476123,0.00017275,0.00012632,0.00014294,0.00000520,-0.00037312,0
 .00054156,-0.00171944,0.00480779,0.00119783,0.00028977,-0.00018877,-0.
 00016612,-0.00025146,0.00007252,-0.00016074,0.09464759,-0.06986255,-0.
 00004428,0.02900862,-0.03484356,-0.01436884,0.00142218,-0.00014342,-0.
 00067395,-0.00004918,0.00014968,0.00004429,0.00005188,-0.00007832,-0.0
 0002065,0.00001101,0.00000051,0.00000152,-0.00037694,-0.00008098,-0.00
 013313,0.00036197,0.00174512,0.00020762,-0.01955878,0.00545886,0.00110
 247,0.00123222,0.00036728,-0.00093176,0.00009111,0.00019788,-0.0000932
 8,-0.00007072,-0.00004343,-0.00024556,0.00009994,-0.00017041,0.0001646
 5,-0.00012785,0.00023134,0.00005760,0.00002200,0.00000859,0.00000222,0
 .00000093,0.00000651,0.00001447,0.00000835,-0.00000145,-0.00001376,0.0
 0014595,-0.00017143,0.00000093,-0.00014080,0.00015779,-0.00012753,0.00
 007584,0.00003263,0.00015660,-0.00001246,-0.00002810,-0.00001731,0.000
 01052,0.00002588,0.00001932,-0.00001935,-0.00001865,-0.00001822,0.0000
 0303,0.00001266,0.00001903,-0.00000127,-0.00000378,-0.00000110,0.00000
 163,0.00000386,0.00000227,-0.00000025,-0.00000086,-0.00000459,0.000025
 73,-0.00000351,0.00002532,0.00002629,-0.00010050,0.00000433,0.00000922
 ,0.00002017,0.00000751,-0.00001971,0.00002850,-0.00000670,0.00001840,-
 0.00003217,0.00000232,0.00004033,0.00004365,-0.00002372,-0.00000014,-0
 .00001182,0.00000450,0.00000049,-0.00002180,-0.00000346,0.00020430,-0.
 00001156,0.00003205,-0.00004114,0.00006784,-0.00018457,-0.00010195,0.0
 0030003,-0.00104477,-0.10394745,0.09471314,0.00020177,-0.00058032,-0.0
 0065986,-0.00033951,0.00141456,0.00065469,-0.03281825,0.00821189,-0.00
 380821,-0.00010165,-0.00029934,0.00226214,0.00008569,-0.00005480,0.000
 68153,0.01474169,-0.00046304,-0.04122854,0.00871609,-0.01451301,-0.000
 27250,-0.00008535,0.00039531,-0.00038695,-0.00013317,0.00005779,0.0000
 3172,0.00003641,-0.00002291,-0.00000293,0.00000133,0.00001029,0.000002
 09,-0.00028982,-0.00020083,-0.00031533,-0.00189552,-0.00110329,0.00012
 427,0.02843155,-0.00546389,-0.00255397,-0.00156961,-0.00078979,0.00259
 657,0.00017691,-0.00045349,-0.00030640,0.00000382,0.00005679,0.0003267
 4,-0.00014074,0.00016143,-0.00010624,0.00015375,-0.00018339,-0.0000643
 9,-0.00000147,-0.00004500,-0.00003417,-0.00004607,-0.00002244,0.000025
 47,0.00000467,-0.00000421,0.00000899,0.00015820,-0.00014017,-0.0001094
 7,-0.00013620,0.00012427,-0.00003004,0.00004519,-0.00001531,0.00004922
 ,-0.00002394,0.00005302,-0.00001821,-0.00003929,-0.00003504,0.00007181
 ,0.00004702,0.00004527,-0.00002948,-0.00002498,-0.00000487,0.00003250,
 0.00000250,0.00000162,-0.00001152,-0.00000520,-0.00000390,-0.00000056,
 -0.00000706,0.00000393,0.00000631,-0.00002314,0.00003717,-0.00002964,-
 0.00016022,0.00010054,0.00008343,-0.00002455,0.00002807,-0.00004261,-0
 .00002384,0.00001088,0.00002038,-0.00001843,-0.00007603,-0.00008382,-0
 .00009559,-0.00012012,-0.00007521,0.00000081,-0.00004410,0.00000945,0.
 00000546,-0.00000956,-0.00001856,-0.00000529,0.00003297,-0.00016440,0.
 00003761,-0.00052958,-0.00020924,-0.00179569,-0.00038210,-0.00521056,-
 0.01515871,0.01215554,0.05131557,0.00012378,0.00006672,0.00012998,-0.0
 0001234,0.00001205,0.00003345,-0.00066577,0.00013809,-0.00073959,0.000
 39674,-0.00023930,0.00013444,0.00005127,-0.00001792,0.00020660,-0.0168
 0606,0.00739303,0.00418193,0.00183089,-0.00010734,-0.00104607,0.000153
 14,-0.00009775,-0.00013258,0.00094033,-0.00000962,0.00014286,-0.000054
 90,-0.00042399,-0.00013412,0.00005286,-0.00009495,-0.00002357,0.001942
 92,-0.00250897,-0.00115471,0.00329750,0.00233294,-0.00048756,-0.321007
 43,0.09093578,0.03972529,-0.01395902,0.00690065,-0.00889355,-0.0000390
 0,-0.00006260,0.00334276,0.00004586,-0.00005362,-0.00066705,0.00045535
 ,-0.00080173,0.00008796,-0.00060525,0.00040523,0.00054944,0.00005360,0
 .00009480,0.00006962,0.00009161,0.00005042,-0.00006224,-0.00001379,0.0
 0000740,-0.00001926,-0.00022873,0.00024230,0.00001715,0.00024595,-0.00
 017936,0.00013645,-0.00009308,-0.00003415,-0.00007445,0.00020303,-0.00
 030209,-0.00003321,0.00000397,0.00000315,-0.00013783,-0.00008280,-0.00
 006886,0.00005429,0.00004353,0.00000764,-0.00005083,-0.00000404,-0.000
 00066,0.00001739,0.00001146,0.00000588,-0.00000047,0.00002217,-0.00000
 340,-0.00001962,-0.00000592,-0.00016678,0.00014458,0.00097088,-0.00041
 387,-0.00104478,0.00012769,-0.00002804,0.00023918,0.00003213,-0.000034
 79,-0.00001004,0.00004435,0.00008290,-0.00002045,0.00001059,-0.0000095
 3,-0.00000600,-0.00002471,-0.00003692,0.00000510,-0.00001760,0.0001364
 3,0.00002760,0.00102417,-0.00014862,0.00042003,-0.00004337,-0.00003461
 ,-0.00024285,0.00061194,-0.00022191,0.00060799,-0.00030726,-0.00154833
 ,0.00211283,0.34118334,0.00008290,0.00023989,-0.00027682,-0.00063860,-
 0.00016773,-0.00000362,-0.00025511,0.00049400,-0.00086978,0.00014998,-
 0.00004462,0.00027236,0.00014151,-0.00007216,0.00012509,-0.01954410,0.
 00763112,0.00408063,0.00148173,0.00223604,-0.00062612,0.00026142,0.000
 28662,-0.00008494,0.00005997,-0.00007341,0.00010429,-0.00019114,0.0000
 5415,-0.00004287,-0.00012150,0.00002176,-0.00006771,0.00573758,-0.0002
 1802,0.00397477,0.02668590,-0.02673724,-0.01521325,0.08409061,-0.07125
 763,-0.00906470,0.00622450,0.00212211,0.00315895,-0.00046848,0.0002822
 3,-0.00079040,0.00031075,0.00012259,0.00070684,-0.00066514,0.00054348,
 -0.00024142,0.00141159,-0.00152575,-0.00084423,-0.00004151,-0.00003086
 ,0.00001143,-0.00000636,-0.00001098,-0.00002701,-0.00001722,-0.0000045
 6,0.00003396,-0.00001365,0.00004633,-0.00005812,0.00002398,-0.00002147
 ,0.00004167,-0.00003387,-0.00001572,-0.00001600,-0.00004659,0.00003640
 ,0.00005274,-0.00001046,-0.00001193,0.00000394,0.00005944,0.00004021,0
 .00002958,-0.00001757,-0.00001940,-0.00002629,0.00000336,0.00000159,-0
 .00000025,-0.00000728,-0.00000440,-0.00000517,0.00000190,0.00000807,0.
 00000358,-0.00007653,0.00000377,-0.00010934,-0.00009858,0.00001262,0.0
 0037141,-0.00002150,-0.00001547,-0.00006851,-0.00000703,-0.00002168,0.
 00001565,-0.00002624,-0.00003100,0.00001491,-0.00003429,-0.00001012,-0
 .00005375,-0.00000021,-0.00003045,0.00002403,-0.00004252,-0.00007394,-
 0.00002019,-0.00156012,0.00082826,-0.00061721,-0.00011630,-0.00004088,
 0.00018820,0.00017950,-0.00002210,0.00020669,-0.00167900,-0.00238836,0
 .00265915,-0.10116571,0.08783863,-0.00009325,-0.00004842,-0.00017668,-
 0.00013342,0.00041945,-0.00027688,0.00091699,-0.00073114,0.00086602,-0
 .00038520,0.00007944,0.00013833,-0.00014630,-0.00000628,-0.00005424,0.
 02265159,-0.00497943,-0.00093513,-0.00159856,-0.00015495,0.00060517,-0
 .00009476,0.00001542,0.00004502,-0.00001239,-0.00016931,-0.00012543,-0
 .00009317,-0.00000715,-0.00005227,-0.00004829,0.00000408,-0.00004572,0
 .00401394,-0.00280014,0.00172865,0.00696223,-0.01090365,-0.00369684,0.
 04299543,-0.01107915,-0.04918640,-0.03460961,0.01387447,-0.01362713,-0
 .00449019,0.00162055,0.00490611,-0.00033194,0.00020273,-0.00065286,0.0
 0022708,-0.00001996,0.00044767,-0.00006431,0.00047181,-0.00032213,0.00
 003437,0.00004444,0.00004122,0.00008699,0.00003675,-0.00002467,0.00000
 208,0.00000904,-0.00002274,-0.00016983,0.00015026,0.00010264,0.0001579
 2,-0.00011075,0.00002034,-0.00001354,0.00000700,-0.00002293,0.00005747
 ,-0.00024756,-0.00024017,0.00010196,-0.00001313,-0.00020900,-0.0001167
 6,-0.00011327,0.00006416,0.00005338,0.00002389,-0.00006049,-0.00000372
 ,-0.00000654,0.00002452,0.00001200,0.00001334,0.00000601,0.00003671,-0
 .00001779,-0.00005801,0.00014664,-0.00020802,0.00003673,0.00082493,-0.
 00085857,-0.00038209,0.00028304,-0.00011033,0.00011634,0.00003673,-0.0
 0001195,-0.00005267,0.00010308,0.00011526,-0.00005146,-0.00001033,0.00
 001308,-0.00000332,0.00001804,0.00002696,0.00000683,-0.00004782,-0.000
 07012,-0.00002321,-0.00095118,-0.00021648,-0.00057975,-0.00011470,-0.0
 0000087,0.00011276,-0.00032033,0.00033202,-0.00045533,0.00151307,0.002
 37712,-0.00253007,-0.03738610,0.01304784,0.06459909\\-0.00250152,-0.01
 618130,-0.01501476,0.01048868,0.02077430,-0.03507154,-0.02034503,-0.03
 255552,0.05530112,-0.00597292,-0.02378139,0.03695982,-0.00621915,-0.00
 168944,-0.03309324,-0.00265785,0.01499080,-0.03776514,0.00526251,-0.01
 526993,0.04192471,0.00598900,0.01934021,-0.02125263,-0.03309860,-0.004
 50939,0.00164178,0.02041997,0.03402051,0.00977484,-0.01800002,-0.02644
 873,-0.00718613,0.00885967,0.02764959,0.00413711,0.01654584,-0.0020211
 1,0.00601620,-0.02358371,0.02695566,-0.02558619,-0.01758075,-0.0309930
 5,0.01062289,0.03884138,0.05059514,-0.00299105,-0.00522274,0.04773325,
 0.00905301,0.00489975,-0.02306192,0.00496067,0.00866332,0.01364015,-0.
 02064913,0.05520941,-0.02161677,-0.02693146,0.01531182,0.00230233,0.03
 253591,-0.02738941,0.01589318,-0.01667864,0.00455536,-0.01590054,-0.01
 794011,-0.00179548,-0.02036335,0.01500699,0.00590546,0.02910707,-0.019
 15741,-0.03115084,-0.03930042,0.01092664,-0.01496036,-0.00506394,0.049
 64370,-0.00482504,-0.05984903,-0.01755788,0.03104816,0.04130342,0.0108
 4135,-0.00623865,0.00159761,0.00391384,-0.01306596,0.01515585,-0.00497
 978,0.01036384,-0.02315934,-0.00547617,-0.02264940,0.01261636,0.002186
 38,0.00827347,-0.01443305,0.00327081,-0.01758004,0.01159818,0.00592187
 ,-0.01438827,-0.00512623,-0.01374858,-0.00832561,0.00575244,0.01365813
 ,-0.00182842,0.00171623,0.00076628,0.00878195,0.00426745,-0.01595541,0
 .01282662,-0.00313617,0.01242685,0.01975032,-0.00956240,-0.00330554,-0
 .01378398,0.00756118,0.00143945,0.01978190,-0.01166153,0.00055809,-0.0
 1667940,0.00862085,0.00210986,0.01806474,-0.00750717,-0.00525753\\\@


 LAWS OF PROGRAMMING DEFINITION:  A WORKING PROGRAM
                                  IS ONE THAT HAS
                                  ONLY UNOBSERVED
                                  BUGS.
 Job cpu time:  3 days 22 hours 45 minutes 34.6 seconds.
 File lengths (MBytes):  RWF=   2351 Int=      0 D2E=      0 Chk=     43 Scr=      1
 Normal termination of Gaussian 09 at Tue Feb 16 09:49:30 2016.
Gaussian '09 finished on node003 at Tue Feb 16 09:49:30 EST 2016.
