Gaussian '09 started on node017 at Tue Mar  1 03:26:01 EST 2016.
 Entering Gaussian System, Link 0=/usr/local/gaussian/g09/g09
 Initial command:
 /usr/local/gaussian/g09/l1.exe /home/srmcgrat/thesis/gaussian/cellobiose/450/7000/2/gdp/gaussian17816/Gau-17852.inp -scrdir=/home/srmcgrat/thesis/gaussian/cellobiose/450/7000/2/gdp/gaussian17816/
 Entering Link 1 = /usr/local/gaussian/g09/l1.exe PID=     17854.
  
 Copyright (c) 1988,1990,1992,1993,1995,1998,2003,2009,2010,
            Gaussian, Inc.  All Rights Reserved.
  
 This is part of the Gaussian(R) 09 program.  It is based on
 the Gaussian(R) 03 system (copyright 2003, Gaussian, Inc.),
 the Gaussian(R) 98 system (copyright 1998, Gaussian, Inc.),
 the Gaussian(R) 94 system (copyright 1995, Gaussian, Inc.),
 the Gaussian 92(TM) system (copyright 1992, Gaussian, Inc.),
 the Gaussian 90(TM) system (copyright 1990, Gaussian, Inc.),
 the Gaussian 88(TM) system (copyright 1988, Gaussian, Inc.),
 the Gaussian 86(TM) system (copyright 1986, Carnegie Mellon
 University), and the Gaussian 82(TM) system (copyright 1983,
 Carnegie Mellon University). Gaussian is a federally registered
 trademark of Gaussian, Inc.
  
 This software contains proprietary and confidential information,
 including trade secrets, belonging to Gaussian, Inc.
  
 This software is provided under written license and may be
 used, copied, transmitted, or stored only in accord with that
 written license.
  
 The following legend is applicable only to US Government
 contracts under FAR:
  
                    RESTRICTED RIGHTS LEGEND
  
 Use, reproduction and disclosure by the US Government is
 subject to restrictions as set forth in subparagraphs (a)
 and (c) of the Commercial Computer Software - Restricted
 Rights clause in FAR 52.227-19.
  
 Gaussian, Inc.
 340 Quinnipiac St., Bldg. 40, Wallingford CT 06492
  
  
 ---------------------------------------------------------------
 Warning -- This program may not be used in any manner that
 competes with the business of Gaussian, Inc. or will provide
 assistance to any competitor of Gaussian, Inc.  The licensee
 of this program is prohibited from giving any competitor of
 Gaussian, Inc. access to this program.  By using this program,
 the user acknowledges that Gaussian, Inc. is engaged in the
 business of creating and licensing software in the field of
 computational chemistry and represents and warrants to the
 licensee that it is not a competitor of Gaussian, Inc. and that
 it will not use this program in any manner prohibited above.
 ---------------------------------------------------------------
  

 Cite this work as:
 Gaussian 09, Revision B.01,
 M. J. Frisch, G. W. Trucks, H. B. Schlegel, G. E. Scuseria, 
 M. A. Robb, J. R. Cheeseman, G. Scalmani, V. Barone, B. Mennucci, 
 G. A. Petersson, H. Nakatsuji, M. Caricato, X. Li, H. P. Hratchian, 
 A. F. Izmaylov, J. Bloino, G. Zheng, J. L. Sonnenberg, M. Hada, 
 M. Ehara, K. Toyota, R. Fukuda, J. Hasegawa, M. Ishida, T. Nakajima, 
 Y. Honda, O. Kitao, H. Nakai, T. Vreven, J. A. Montgomery, Jr., 
 J. E. Peralta, F. Ogliaro, M. Bearpark, J. J. Heyd, E. Brothers, 
 K. N. Kudin, V. N. Staroverov, T. Keith, R. Kobayashi, J. Normand, 
 K. Raghavachari, A. Rendell, J. C. Burant, S. S. Iyengar, J. Tomasi, 
 M. Cossi, N. Rega, J. M. Millam, M. Klene, J. E. Knox, J. B. Cross, 
 V. Bakken, C. Adamo, J. Jaramillo, R. Gomperts, R. E. Stratmann, 
 O. Yazyev, A. J. Austin, R. Cammi, C. Pomelli, J. W. Ochterski, 
 R. L. Martin, K. Morokuma, V. G. Zakrzewski, G. A. Voth, 
 P. Salvador, J. J. Dannenberg, S. Dapprich, A. D. Daniels, 
 O. Farkas, J. B. Foresman, J. V. Ortiz, J. Cioslowski, 
 and D. J. Fox, Gaussian, Inc., Wallingford CT, 2010.
 
 ******************************************
 Gaussian 09:  EM64L-G09RevB.01 12-Aug-2010
                 1-Mar-2016 
 ******************************************
 ------------------------------------------------
 # freq=raman b3lyp/6-31+g(d,p) geom=connectivity
 ------------------------------------------------
 1/10=4,30=1,38=1,57=2/1,3;
 2/12=2,17=6,18=5,40=1/2;
 3/5=1,6=6,7=111,11=2,16=1,25=1,30=1,71=2,74=-5/1,2,3;
 4//1;
 5/5=2,38=5,98=1/2;
 8/6=4,10=90,11=11/1;
 10/13=10,15=4/2;
 11/6=3,8=1,9=11,15=111,16=1/1,2,10;
 10/6=1/2;
 6/7=2,8=2,9=2,10=2,18=1,28=1/1;
 7/8=1,10=1,25=1/1,2,3,16;
 1/10=4,30=1/3;
 99//99;
 ------------
 450 7000.com
 ------------
 Symbolic Z-matrix:
 Charge =  0 Multiplicity = 1
 O                     10.645    7.857     21.674 
 C                     11.418    7.874     22.883 
 C                     11.663    9.25      23.481 
 O                     12.259    10.076    22.47 
 H                     12.509    9.62      21.616 
 C                     12.521    9.173     24.733 
 O                     12.905    10.465    25.226 
 H                     13.37     10.997    24.518 
 C                     10.692    5.603     23.606 
 O                     10.302    4.606     24.562 
 H                     10.293    3.695     24.149 
 C                     10.806    7.063     24.014 
 O                     11.573    7.031     25.226 
 C                     11.787    8.341     25.772 
 O                     12.368    8.071     27.056 
 C                     11.401    8.315     28.088 
 C                     10.731    7.015     28.504 
 O                     9.719     6.658     27.551 
 H                     10.147    6.706     26.649 
 C                     9.991     7.273     29.807 
 O                     9.259     6.096     30.178 
 H                     8.691     5.852     29.392 
 C                     12.737    10.268    28.91 
 O                     13.533    10.816    29.97 
 H                     14.398    10.379    30.214 
 C                     12.13     8.923     29.275 
 O                     11.423    8.961     30.523 
 C                     10.889    7.702     30.956 
 O                     10.268    7.847     32.242 
 H                     11.23521   7.84635   20.91694 
 H                     10.94557   7.9232    32.91779 
 H                     13.35223   10.14595   28.04311 
 H                     11.94755   10.95292   28.68075 
 H                     12.96395   8.27574   29.4496 
 H                     10.66161   9.00137   27.73148 
 H                     11.44843   6.22933   28.61769 
 H                     9.28512   8.05802   29.63268 
 H                     11.69205   7.0002    31.04253 
 H                     11.64539   5.31015   23.21846 
 H                     9.98991   5.55638   22.7999 
 H                     9.82935   7.44402   24.2282 
 H                     12.37228   7.44568   22.65765 
 H                     10.71757   9.67417   23.74771 
 H                     13.41794   8.64898   24.47647 
 H                     10.83093   8.7931    25.93458 
 

 GradGradGradGradGradGradGradGradGradGradGradGradGradGradGradGradGradGrad
 Berny optimization.
 Initialization pass.
 Trust Radius=3.00D-01 FncErr=1.00D-07 GrdErr=1.00D-07
 Number of steps in this run=      2 maximum allowed number of steps=      2.
 GradGradGradGradGradGradGradGradGradGradGradGradGradGradGradGradGradGrad

                          Input orientation:                          
 ---------------------------------------------------------------------
 Center     Atomic      Atomic             Coordinates (Angstroms)
 Number     Number       Type             X           Y           Z
 ---------------------------------------------------------------------
      1          8           0       10.645000    7.857000   21.674000
      2          6           0       11.418000    7.874000   22.883000
      3          6           0       11.663000    9.250000   23.481000
      4          8           0       12.259000   10.076000   22.470000
      5          1           0       12.509000    9.620000   21.616000
      6          6           0       12.521000    9.173000   24.733000
      7          8           0       12.905000   10.465000   25.226000
      8          1           0       13.370000   10.997000   24.518000
      9          6           0       10.692000    5.603000   23.606000
     10          8           0       10.302000    4.606000   24.562000
     11          1           0       10.293000    3.695000   24.149000
     12          6           0       10.806000    7.063000   24.014000
     13          8           0       11.573000    7.031000   25.226000
     14          6           0       11.787000    8.341000   25.772000
     15          8           0       12.368000    8.071000   27.056000
     16          6           0       11.401000    8.315000   28.088000
     17          6           0       10.731000    7.015000   28.504000
     18          8           0        9.719000    6.658000   27.551000
     19          1           0       10.147000    6.706000   26.649000
     20          6           0        9.991000    7.273000   29.807000
     21          8           0        9.259000    6.096000   30.178000
     22          1           0        8.691000    5.852000   29.392000
     23          6           0       12.737000   10.268000   28.910000
     24          8           0       13.533000   10.816000   29.970000
     25          1           0       14.398000   10.379000   30.214000
     26          6           0       12.130000    8.923000   29.275000
     27          8           0       11.423000    8.961000   30.523000
     28          6           0       10.889000    7.702000   30.956000
     29          8           0       10.268000    7.847000   32.242000
     30          1           0       11.235212    7.846355   20.916942
     31          1           0       10.945573    7.923197   32.917787
     32          1           0       13.352229   10.145949   28.043111
     33          1           0       11.947552   10.952922   28.680754
     34          1           0       12.963950    8.275744   29.449603
     35          1           0       10.661614    9.001368   27.731478
     36          1           0       11.448429    6.229335   28.617693
     37          1           0        9.285123    8.058016   29.632680
     38          1           0       11.692052    7.000202   31.042530
     39          1           0       11.645388    5.310151   23.218456
     40          1           0        9.989915    5.556381   22.799896
     41          1           0        9.829350    7.444017   24.228197
     42          1           0       12.372282    7.445676   22.657645
     43          1           0       10.717566    9.674169   23.747712
     44          1           0       13.417938    8.648981   24.476473
     45          1           0       10.830927    8.793097   25.934582
 ---------------------------------------------------------------------
                    Distance matrix (angstroms):
                    1          2          3          4          5
     1  O    0.000000
     2  C    1.435095   0.000000
     3  C    2.498404   1.520199   0.000000
     4  O    2.857022   2.393043   1.435135   0.000000
     5  H    2.566326   2.417454   2.081067   0.999876   0.000000
     6  C    3.822135   2.515255   1.519736   2.450555   3.148911
     7  O    4.952370   3.796590   2.462481   2.857302   3.728665
     8  H    5.037218   4.029474   2.653531   2.505367   3.325516
     9  C    2.969065   2.491435   3.776119   4.873778   4.837135
    10  O    4.362017   3.839833   4.958590   6.174724   6.220125
    11  H    4.855077   4.509149   5.760308   6.884864   6.814130
    12  C    2.476279   1.520337   2.408632   3.684198   3.897289
    13  O    3.762999   2.494859   2.824374   4.163911   4.539947
    14  C    4.281591   2.949673   2.467861   3.759816   4.407886
    15  O    5.655126   4.284301   3.829842   5.006326   5.657993
    16  C    6.474619   5.223676   4.708218   5.949723   6.694585
    17  C    6.882242   5.727608   5.576233   6.936401   7.575741
    18  O    6.069119   5.114243   5.202163   6.629546   7.195955
    19  H    5.130636   4.142755   4.336636   5.769011   6.277064
    20  C    8.180126   7.095020   6.835378   8.175096   8.884887
    21  O    8.794324   7.812784   7.783106   9.178979   9.812692
    22  H    8.210095   7.341123   7.437682   8.859282   9.446752
    23  C    7.908798   6.617834   5.627063   6.460569   7.326276
    24  O    9.269296   7.959533   6.932271   7.643342   8.501077
    25  H    9.663182   8.300541   7.354465   8.039693   8.835723
    26  C    7.817722   6.516518   5.821980   6.903193   7.699983
    27  O    8.951475   7.716942   7.052013   8.172694   8.997129
    28  C    9.286500   8.092141   7.672744   8.917678   9.671542
    29  O   10.574727   9.429428   8.981623  10.218831  11.003522
    30  H    0.960000   1.974730   2.954254   2.903696   2.292823
    31  H   11.247999  10.046022   9.556572  10.747833  11.534897
    32  H    7.289304   5.960683   4.946623   5.679754   6.503492
    33  H    7.770198   6.585905   5.478901   6.280084   7.211287
    34  H    8.124831   6.758080   6.185942   7.242426   7.961115
    35  H    6.164648   5.034959   4.373917   5.602644   6.418303
    36  H    7.177023   5.965949   5.962891   7.297122   7.851441
    37  H    8.076526   7.081046   6.702111   8.013750   8.780680
    38  H    9.465716   8.210759   7.889181   9.125253   9.817852
    39  H    3.142063   2.595681   3.948626   4.863129   4.678514
    40  H    2.643790   2.723544   4.111683   5.067991   4.925485
    41  H    2.712888   2.125617   2.679953   3.990212   4.328856
    42  H    2.029839   1.070000   2.106319   2.639441   2.414830
    43  H    2.758197   2.116351   1.070000   2.042066   2.785025
    44  H    4.021228   2.671985   2.105231   2.721296   3.154576
    45  H    4.366166   3.240609   2.630812   3.960879   4.706363
                    6          7          8          9         10
     6  C    0.000000
     7  O    1.435190   0.000000
     8  H    2.023364   1.000256   0.000000
     9  C    4.166566   5.582187   6.090867   0.000000
    10  O    5.080422   6.445493   7.089389   1.435286   0.000000
    11  H    5.942518   7.335896   7.932420   2.023491   1.000285
    12  C    2.812523   4.177122   4.722761   1.520217   2.567327
    13  O    2.393725   3.683284   4.411307   2.332326   2.817261
    14  C    1.520033   2.461588   3.336576   3.658856   4.197565
    15  O    2.575683   3.060801   4.000865   4.560976   4.742849
    16  C    3.639586   3.882726   4.880060   5.286393   5.234229
    17  C    4.699096   5.232023   6.221643   5.097614   4.639686
    18  O    4.702930   5.481740   6.430848   4.197949   3.672154
    19  H    3.923394   4.874584   5.774216   3.282298   2.964725
    20  C    5.979664   6.298081   7.297900   6.460085   5.892337
    21  O    7.053836   7.543459   8.541412   6.744459   5.903169
    22  H    6.885072   7.509535   8.492346   6.127299   5.241826
    23  C    4.323541   3.693087   4.496865   7.353684   7.542717
    24  O    5.581197   4.798241   5.457438   8.703284   8.845899
    25  H    5.917679   5.207359   5.820921   8.956019   9.058137
    26  C    4.565648   4.401453   5.335553   6.725162   6.647589
    27  O    5.897003   5.702328   6.632958   7.723692   7.467007
    28  C    6.599469   6.673180   7.645929   7.646379   7.128325
    29  O    7.951061   7.939266   8.899724   8.932850   8.335924
    30  H    4.239757   5.311636   5.239418   3.543833   4.965605
    31  H    8.428210   8.334489   9.267283   9.599843   9.013166
    32  H    3.548860   2.870178   3.626432   6.884995   7.218938
    33  H    4.368264   3.618025   4.399298   7.480054   7.743087
    34  H    4.821579   4.757641   5.647196   6.815645   6.666458
    35  H    3.532371   3.667754   4.652348   5.345034   5.430853
    36  H    4.990633   5.618367   6.574994   5.107009   4.516432
    37  H    5.976701   6.189985   7.175222   6.657874   6.217898
    38  H    6.724461   6.878088   7.833224   7.632448   7.047107
    39  H    4.240536   5.673564   6.083038   1.070000   2.026236
    40  H    4.819047   6.203083   6.631530   1.070000   2.026236
    41  H    3.238702   4.425107   5.024329   2.126179   2.896405
    42  H    2.704231   3.999569   4.131376   2.667991   3.997048
    43  H    2.115263   2.756015   3.062455   4.073715   5.149961
    44  H    1.070000   2.030473   2.348875   4.179290   5.105104
    45  H    2.108192   2.756652   3.648395   3.952001   4.437964
                   11         12         13         14         15
    11  H    0.000000
    12  C    3.409519   0.000000
    13  O    3.731920   1.434663   0.000000
    14  C    5.143100   2.384577   1.435274   0.000000
    15  O    5.648509   3.565063   2.250006   1.434962   0.000000
    16  C    6.171530   4.303371   3.141542   2.348090   1.435148
    17  C    5.493657   4.490883   3.384450   3.215157   2.427264
    18  O    4.547796   3.722360   2.997010   3.205301   3.042827
    19  H    3.916304   2.739517   2.040596   2.476278   2.638506
    20  C    6.701213   5.853817   4.852510   4.543948   3.722222
    21  O    6.571362   6.428312   5.545370   5.553706   4.828394
    22  H    5.891358   5.904458   5.201108   5.374452   4.888884
    23  C    8.476119   6.162110   5.040329   3.803008   2.898325
    24  O    9.751425   7.549535   6.377567   5.176615   4.169370
    25  H    9.915196   7.895462   6.638514   5.540950   4.406896
    26  C    7.548671   5.735041   4.503811   3.567546   2.388830
    27  O    8.344791   6.808096   5.639646   4.805091   3.702055
    28  C    7.921270   6.971842   5.809561   5.299866   4.187314
    29  O    9.095954   8.282758   7.182836   6.664255   5.599533
    30  H    5.344877   3.223296   4.398509   4.911286   6.246736
    31  H    9.756799   8.946331   7.768737   7.207276   6.033713
    32  H    8.132510   5.676406   4.561214   3.296320   2.499701
    33  H    8.715031   6.181685   5.239951   3.912641   3.334978
    34  H    7.497572   5.972711   4.617679   3.861896   2.475159
    35  H    6.413077   4.194968   3.315176   2.354173   2.057573
    36  H    5.265651   4.722468   3.487372   3.559737   2.583840
    37  H    7.079723   5.905311   5.070303   4.609156   4.017908
    38  H    7.771902   7.084438   5.817830   5.439232   4.182814
    39  H    2.302950   2.099986   2.645145   3.965689   4.782384
    40  H    2.318767   2.099986   3.250637   4.451631   5.485710
    41  H    3.778409   1.070000   2.050978   2.649585   3.851536
    42  H    4.540388   2.106983   2.721627   3.292926   4.442586
    43  H    6.007641   2.626201   3.146974   2.649296   4.029746
    44  H    5.866379   3.090540   2.565824   2.105517   2.844362
    45  H    5.428467   2.585051   2.039055   1.070000   2.035091
                   16         17         18         19         20
    16  C    0.000000
    17  C    1.520512   0.000000
    18  O    2.421393   1.435201   0.000000
    19  H    2.496421   1.969153   0.999546   0.000000
    20  C    2.455367   1.520517   2.354091   3.212287   0.000000
    21  O    3.725617   2.411145   2.725541   3.689781   1.434850
    22  H    3.887272   2.510520   2.257366   3.220761   1.970144
    23  C    2.504953   3.843290   4.897684   4.950562   4.161148
    24  O    3.787129   4.944488   6.138984   6.275838   5.012503
    25  H    4.214497   5.261890   6.544498   6.653657   5.406897
    26  C    1.519893   2.488394   3.730325   3.967777   2.753333
    27  O    2.519330   2.888276   4.127979   4.660588   2.326505
    28  C    2.977136   2.551321   3.748715   4.482503   1.520081
    29  O    4.331100   3.857361   4.870380   5.709481   2.517028
    30  H    7.188267   7.649106   6.908098   5.944838   8.994995
    31  H    4.867008   4.511361   5.648682   6.435603   3.318277
    32  H    2.676132   4.109270   5.060466   4.904109   4.760567
    33  H    2.758389   4.125345   4.968817   5.040472   4.317215
    34  H    2.073239   2.733077   4.092859   4.271146   3.157794
    35  H    1.070000   2.132431   2.532285   2.589459   2.782943
    36  H    2.152400   1.070000   2.076659   2.407629   2.151229
    37  H    2.632302   2.110062   2.545916   3.387201   1.070000
    38  H    3.246945   2.714402   4.025024   4.666567   2.120031
    39  H    5.727242   5.628463   4.929362   3.995271   7.070975
    40  H    6.129044   5.934103   4.884664   4.020186   7.214311
    41  H    4.257556   4.390846   3.416288   2.550659   5.583765
    42  H    5.584610   6.087623   5.621855   4.629245   7.537479
    43  H    4.599187   5.449187   4.955745   4.189635   6.558085
    44  H    4.150025   5.109844   5.205657   4.381106   6.484732
    45  H    2.278326   3.126263   2.899625   2.309572   4.244030
                   21         22         23         24         25
    21  O    0.000000
    22  H    0.999978   0.000000
    23  C    5.577624   6.008618   0.000000
    24  O    6.370929   6.958473   1.434406   0.000000
    25  H    6.689896   7.330707   2.114630   0.999365   0.000000
    26  C    4.129162   4.612098   1.520098   2.456600   2.854029
    27  O    3.606958   4.290555   2.456952   2.863378   3.310110
    28  C    2.416903   3.271055   3.766374   4.202372   4.475486
    29  O    2.888629   3.819614   4.802023   4.963584   5.251734
    30  H    9.629971   9.070671   8.485795   9.800841  10.141637
    31  H    3.699948   4.669490   4.976914   4.873657   5.026001
    32  H    6.141202   6.479549   1.070000   2.048060   2.420890
    33  H    5.749760   6.093472   1.070000   2.048060   2.947020
    34  H    4.359874   4.912836   2.076478   2.654719   2.657910
    35  H    4.048945   4.069296   2.701943   4.068013   4.692693
    36  H    2.691827   2.888831   4.249315   5.216481   5.335531
    37  H    2.036556   2.297262   4.161941   5.075896   5.645035
    38  H    2.735825   3.612331   4.039567   4.370323   4.407368
    39  H    7.399166   6.865468   7.626635   8.914079   9.066848
    40  H    7.433831   6.725355   8.190189   9.572222   9.882196
    41  H    6.127202   5.522248   6.192624   7.619423   8.081865
    42  H    8.250447   7.838569   6.869532   8.134917   8.355024
    43  H    7.501954   7.111535   5.574941   6.924400   7.473638
    44  H    7.504791   7.370852   4.768759   5.906611   6.072290
    45  H    5.268005   5.018274   3.829043   5.260982   5.792454
                   26         27         28         29         30
    26  C    0.000000
    27  O    1.434851   0.000000
    28  C    2.420058   1.434478   0.000000
    29  O    3.664411   2.351591   1.435431   0.000000
    30  H    8.474488   9.672334  10.046063  11.366285   0.000000
    31  H    3.958835   2.653296   1.975029   0.960000  12.004586
    32  H    2.122969   3.357957   4.530486   5.694585   7.781528
    33  H    2.122969   2.763472   4.106795   5.014989   8.392554
    34  H    1.070000   1.999071   2.627514   3.905054   8.716606
    35  H    2.131844   2.893775   3.483906   4.672505   6.935486
    36  H    2.855245   3.330591   2.819465   4.140755   7.871580
    37  H    2.994906   2.485673   2.109584   2.796270   8.933742
    38  H    2.648228   2.046223   1.070000   2.045414  10.171146
    39  H    7.068893   8.169120   8.134043   9.474025   3.449281
    40  H    7.605331   8.561045   8.481395   9.719958   3.215628
    41  H    5.740262   6.668246   6.815626   8.035910   3.619769
    42  H    6.784583   8.066049   8.433772   9.820841   2.117433
    43  H    5.754141   6.849144   7.475176   8.700206   3.409123
    44  H    4.975915   6.374765   7.019727   8.418355   4.251913
    45  H    3.586483   4.629505   5.138920   6.402773   5.122156
                   31         32         33         34         35
    31  H    0.000000
    32  H    5.873252   0.000000
    33  H    5.304304   1.740952   0.000000
    34  H    4.028205   2.372055   2.965042   0.000000
    35  H    5.304799   2.940508   2.522563   2.962978   0.000000
    36  H    4.648962   4.392547   4.750303   2.678931   3.014734
    37  H    3.683368   4.840201   4.046625   3.689810   2.529667
    38  H    2.219400   4.652787   4.611644   2.404610   4.003690
    39  H   10.069497   7.040990   7.859317   7.025706   5.912720
    40  H   10.434884   7.736962   8.218241   7.775501   6.053066
    41  H    8.774084   5.853605   6.051815   6.146591   3.923135
    42  H   10.369862   6.103688   6.982765   6.868026   5.575871
    43  H    9.338531   5.061075   5.242421   6.285969   4.040567
    44  H    8.825822   3.868609   5.014595   5.007738   4.279784
    45  H    7.038112   3.554303   3.667855   4.144010   1.816832
                   36         37         38         39         40
    36  H    0.000000
    37  H    3.009014   0.000000
    38  H    2.556057   2.983279   0.000000
    39  H    5.480461   7.366403   8.004660   0.000000
    40  H    6.035469   7.310393   8.539491   1.725229   0.000000
    41  H    4.833689   5.466409   7.078261   2.978415   2.372549
    42  H    6.152654   7.652230   8.424218   2.324510   3.043902
    43  H    6.009805   6.268708   7.830332   4.492841   4.287657
    44  H    5.184917   6.634446   6.986434   3.984009   4.911866
    45  H    3.762083   4.075020   5.481527   4.491280   4.583654
                   41         42         43         44         45
    41  H    0.000000
    42  H    2.988835   0.000000
    43  H    2.448136   2.982031   0.000000
    44  H    3.793619   2.418569   2.978945   0.000000
    45  H    2.394770   3.863888   2.360411   2.973126   0.000000
 Stoichiometry    C12H22O11
 Framework group  C1[X(C12H22O11)]
 Deg. of freedom   129
 Full point group                 C1      NOp   1
 Largest Abelian subgroup         C1      NOp   1
 Largest concise Abelian subgroup C1      NOp   1
                         Standard orientation:                         
 ---------------------------------------------------------------------
 Center     Atomic      Atomic             Coordinates (Angstroms)
 Number     Number       Type             X           Y           Z
 ---------------------------------------------------------------------
      1          8           0        5.075098   -0.487872   -0.793404
      2          6           0        3.901330   -0.064864   -0.084299
      3          6           0        3.257695    1.214795   -0.593428
      4          8           0        4.258393    2.243429   -0.604825
      5          1           0        5.140774    2.007560   -0.197979
      6          6           0        2.048637    1.605023    0.240537
      7          8           0        1.519382    2.891420   -0.112792
      8          1           0        2.224184    3.598880   -0.055635
      9          6           0        3.242729   -2.371583    0.588408
     10          8           0        2.313056   -3.430307    0.862011
     11          1           0        2.762924   -4.193648    1.326230
     12          6           0        2.779526   -1.091009   -0.087336
     13          8           0        1.604545   -0.712351    0.643620
     14          6           0        1.014217    0.495674    0.141426
     15          8           0       -0.230818    0.572592    0.850713
     16          6           0       -1.313318    0.237273   -0.029858
     17          6           0       -1.703552   -1.222163    0.142533
     18          8           0       -0.781559   -2.063341   -0.566092
     19          1           0        0.135471   -1.779314   -0.287746
     20          6           0       -3.047235   -1.424780   -0.539695
     21          8           0       -3.400390   -2.814560   -0.488841
     22          1           0       -2.630430   -3.320430   -0.877704
     23          6           0       -2.157008    2.593642    0.072617
     24          8           0       -3.203202    3.475621    0.502862
     25          1           0       -3.390772    3.579369    1.478969
     26          6           0       -2.491708    1.131495    0.319194
     27          8           0       -3.769871    0.763251   -0.218851
     28          6           0       -4.172850   -0.587748    0.045979
     29          8           0       -5.489655   -0.819821   -0.476159
     30          1           0        5.856977   -0.165974   -0.338819
     31          1           0       -6.137819   -0.393419    0.089231
     32          1           0       -1.259758    2.837118    0.602298
     33          1           0       -1.991213    2.738649   -0.974467
     34          1           0       -2.602589    1.042953    1.379744
     35          1           0       -1.018354    0.412253   -1.043406
     36          1           0       -1.752944   -1.489601    1.177394
     37          1           0       -2.936796   -1.150902   -1.568138
     38          1           0       -4.194891   -0.737870    1.105167
     39          1           0        3.683393   -2.091789    1.522448
     40          1           0        4.018667   -2.785150   -0.021332
     41          1           0        2.507199   -1.307733   -1.099151
     42          1           0        4.185792    0.100144    0.933912
     43          1           0        2.932510    1.050680   -1.599520
     44          1           0        2.365705    1.658905    1.261058
     45          1           0        0.791343    0.350298   -0.894959
 ---------------------------------------------------------------------
 Rotational constants (GHZ):      0.3865301      0.1496647      0.1128026
 Standard basis: 6-31+G(d,p) (6D, 7F)
 There are   547 symmetry adapted basis functions of A   symmetry.
 Integral buffers will be    131072 words long.
 Raffenetti 2 integral format.
 Two-electron integral symmetry is turned on.
   547 basis functions,   890 primitive gaussians,   547 cartesian basis functions
    91 alpha electrons       91 beta electrons
       nuclear repulsion energy      2281.4515811777 Hartrees.
 NAtoms=   45 NActive=   45 NUniq=   45 SFac= 1.00D+00 NAtFMM=   50 NAOKFM=F Big=F
 One-electron integrals computed using PRISM.
 NBasis=   547 RedAO= T  NBF=   547
 NBsUse=   547 1.00D-06 NBFU=   547
 Harris functional with IExCor=  402 diagonalized for initial guess.
 ExpMin= 4.38D-02 ExpMax= 5.48D+03 ExpMxC= 8.25D+02 IAcc=2 IRadAn=         0 AccDes= 0.00D+00
 HarFok:  IExCor=  402 AccDes= 0.00D+00 IRadAn=         0 IDoV= 1
 ScaDFX=  1.000000  1.000000  1.000000  1.000000
 FoFCou: FMM=F IPFlag=           0 FMFlag=      100000 FMFlg1=           0
         NFxFlg=           0 DoJE=T BraDBF=F KetDBF=T FulRan=T
         Omega=  0.000000  0.000000  1.000000  0.000000  0.000000 ICntrl=     500 IOpCl=  0
         NMat0=    1 NMatS0=    1 NMatT0=    0 NMatD0=    1 NMtDS0=    0 NMtDT0=    0
         I1Cent=           4 NGrid=           0.
 Petite list used in FoFCou.
 Initial guess orbital symmetries:
       Occupied  (A) (A) (A) (A) (A) (A) (A) (A) (A) (A) (A) (A)
                 (A) (A) (A) (A) (A) (A) (A) (A) (A) (A) (A) (A)
                 (A) (A) (A) (A) (A) (A) (A) (A) (A) (A) (A) (A)
                 (A) (A) (A) (A) (A) (A) (A) (A) (A) (A) (A) (A)
                 (A) (A) (A) (A) (A) (A) (A) (A) (A) (A) (A) (A)
                 (A) (A) (A) (A) (A) (A) (A) (A) (A) (A) (A) (A)
                 (A) (A) (A) (A) (A) (A) (A) (A) (A) (A) (A) (A)
                 (A) (A) (A) (A) (A) (A) (A)
       Virtual   (A) (A) (A) (A) (A) (A) (A) (A) (A) (A) (A) (A)
                 (A) (A) (A) (A) (A) (A) (A) (A) (A) (A) (A) (A)
                 (A) (A) (A) (A) (A) (A) (A) (A) (A) (A) (A) (A)
                 (A) (A) (A) (A) (A) (A) (A) (A) (A) (A) (A) (A)
                 (A) (A) (A) (A) (A) (A) (A) (A) (A) (A) (A) (A)
                 (A) (A) (A) (A) (A) (A) (A) (A) (A) (A) (A) (A)
                 (A) (A) (A) (A) (A) (A) (A) (A) (A) (A) (A) (A)
                 (A) (A) (A) (A) (A) (A) (A) (A) (A) (A) (A) (A)
                 (A) (A) (A) (A) (A) (A) (A) (A) (A) (A) (A) (A)
                 (A) (A) (A) (A) (A) (A) (A) (A) (A) (A) (A) (A)
                 (A) (A) (A) (A) (A) (A) (A) (A) (A) (A) (A) (A)
                 (A) (A) (A) (A) (A) (A) (A) (A) (A) (A) (A) (A)
                 (A) (A) (A) (A) (A) (A) (A) (A) (A) (A) (A) (A)
                 (A) (A) (A) (A) (A) (A) (A) (A) (A) (A) (A) (A)
                 (A) (A) (A) (A) (A) (A) (A) (A) (A) (A) (A) (A)
                 (A) (A) (A) (A) (A) (A) (A) (A) (A) (A) (A) (A)
                 (A) (A) (A) (A) (A) (A) (A) (A) (A) (A) (A) (A)
                 (A) (A) (A) (A) (A) (A) (A) (A) (A) (A) (A) (A)
                 (A) (A) (A) (A) (A) (A) (A) (A) (A) (A) (A) (A)
                 (A) (A) (A) (A) (A) (A) (A) (A) (A) (A) (A) (A)
                 (A) (A) (A) (A) (A) (A) (A) (A) (A) (A) (A) (A)
                 (A) (A) (A) (A) (A) (A) (A) (A) (A) (A) (A) (A)
                 (A) (A) (A) (A) (A) (A) (A) (A) (A) (A) (A) (A)
                 (A) (A) (A) (A) (A) (A) (A) (A) (A) (A) (A) (A)
                 (A) (A) (A) (A) (A) (A) (A) (A) (A) (A) (A) (A)
                 (A) (A) (A) (A) (A) (A) (A) (A) (A) (A) (A) (A)
                 (A) (A) (A) (A) (A) (A) (A) (A) (A) (A) (A) (A)
                 (A) (A) (A) (A) (A) (A) (A) (A) (A) (A) (A) (A)
                 (A) (A) (A) (A) (A) (A) (A) (A) (A) (A) (A) (A)
                 (A) (A) (A) (A) (A) (A) (A) (A) (A) (A) (A) (A)
                 (A) (A) (A) (A) (A) (A) (A) (A) (A) (A) (A) (A)
                 (A) (A) (A) (A) (A) (A) (A) (A) (A) (A) (A) (A)
                 (A) (A) (A) (A) (A) (A) (A) (A) (A) (A) (A) (A)
                 (A) (A) (A) (A) (A) (A) (A) (A) (A) (A) (A) (A)
                 (A) (A) (A) (A) (A) (A) (A) (A) (A) (A) (A) (A)
                 (A) (A) (A) (A) (A) (A) (A) (A) (A) (A) (A) (A)
                 (A) (A) (A) (A) (A) (A) (A) (A) (A) (A) (A) (A)
                 (A) (A) (A) (A) (A) (A) (A) (A) (A) (A) (A) (A)
 The electronic state of the initial guess is 1-A.
 Requested convergence on RMS density matrix=1.00D-08 within 128 cycles.
 Requested convergence on MAX density matrix=1.00D-06.
 Requested convergence on             energy=1.00D-06.
 No special actions if energy rises.
 SCF Done:  E(RB3LYP) =  -1297.92947094     A.U. after   13 cycles
             Convg  =    0.6822D-08             -V/T =  2.0088
 Range of M.O.s used for correlation:     1   547
 NBasis=   547 NAE=    91 NBE=    91 NFC=     0 NFV=     0
 NROrb=    547 NOA=    91 NOB=    91 NVA=   456 NVB=   456

 **** Warning!!: The largest alpha MO coefficient is  0.92207149D+02

          Differentiating once with respect to electric field.
                with respect to dipole field.
          Electric field/nuclear overlap derivatives assumed to be zero.
          There are     3 degrees of freedom in the 1st order CPHF.  IDoFFX=0.
      3 vectors produced by pass  0 Test12= 1.38D-12 3.33D-08 XBig12= 1.20D+02 1.37D+00.
 AX will form     3 AO Fock derivatives at one time.
      3 vectors produced by pass  1 Test12= 1.38D-12 3.33D-08 XBig12= 2.18D+01 3.71D-01.
      3 vectors produced by pass  2 Test12= 1.38D-12 3.33D-08 XBig12= 8.96D+00 2.23D-01.
      3 vectors produced by pass  3 Test12= 1.38D-12 3.33D-08 XBig12= 9.12D-01 7.11D-02.
      3 vectors produced by pass  4 Test12= 1.38D-12 3.33D-08 XBig12= 2.34D-01 3.54D-02.
      3 vectors produced by pass  5 Test12= 1.38D-12 3.33D-08 XBig12= 4.88D-02 1.64D-02.
      3 vectors produced by pass  6 Test12= 1.38D-12 3.33D-08 XBig12= 1.67D-02 1.10D-02.
      3 vectors produced by pass  7 Test12= 1.38D-12 3.33D-08 XBig12= 2.72D-03 6.34D-03.
      3 vectors produced by pass  8 Test12= 1.38D-12 3.33D-08 XBig12= 6.04D-04 2.17D-03.
      3 vectors produced by pass  9 Test12= 1.38D-12 3.33D-08 XBig12= 1.38D-04 1.27D-03.
      3 vectors produced by pass 10 Test12= 1.38D-12 3.33D-08 XBig12= 4.22D-05 6.04D-04.
      3 vectors produced by pass 11 Test12= 1.38D-12 3.33D-08 XBig12= 6.94D-06 4.04D-04.
      3 vectors produced by pass 12 Test12= 1.38D-12 3.33D-08 XBig12= 1.24D-06 1.09D-04.
      3 vectors produced by pass 13 Test12= 1.38D-12 3.33D-08 XBig12= 2.41D-07 5.41D-05.
      3 vectors produced by pass 14 Test12= 1.38D-12 3.33D-08 XBig12= 4.55D-08 2.11D-05.
      3 vectors produced by pass 15 Test12= 1.38D-12 3.33D-08 XBig12= 8.84D-09 9.30D-06.
      3 vectors produced by pass 16 Test12= 1.38D-12 3.33D-08 XBig12= 8.93D-10 2.53D-06.
      3 vectors produced by pass 17 Test12= 1.38D-12 3.33D-08 XBig12= 7.81D-11 8.50D-07.
      3 vectors produced by pass 18 Test12= 1.38D-12 3.33D-08 XBig12= 1.85D-11 4.02D-07.
      3 vectors produced by pass 19 Test12= 1.38D-12 3.33D-08 XBig12= 1.12D-11 2.44D-07.
      3 vectors produced by pass 20 Test12= 1.38D-12 3.33D-08 XBig12= 3.29D-12 1.55D-07.
      2 vectors produced by pass 21 Test12= 1.38D-12 3.33D-08 XBig12= 1.69D-12 8.25D-08.
      1 vectors produced by pass 22 Test12= 1.38D-12 3.33D-08 XBig12= 3.86D-13 3.86D-08.
 Inverted reduced A of dimension    66 with in-core refinement.
 End of Minotr Frequency-dependent properties file   721 does not exist.
 End of Minotr Frequency-dependent properties file   722 does not exist.
 Symmetrizing basis deriv contribution to polar:
 IMax=3 JMax=2 DiffMx= 0.00D+00
 G2DrvN: will do    23 centers at a time, making    2 passes doing MaxLOS=2.
 Calling FoFCou, ICntrl=  3107 FMM=F I1Cent=   0 AccDes= 0.00D+00.
 Calling FoFCou, ICntrl=  3107 FMM=F I1Cent=   0 AccDes= 0.00D+00.
 FoFDir/FoFCou used for L=0 through L=2.
 End of G2Drv Frequency-dependent properties file   721 does not exist.
 End of G2Drv Frequency-dependent properties file   722 does not exist.
          IDoAtm=111111111111111111111111111111111111111111111
          Differentiating once with respect to electric field.
                with respect to dipole field.
          Differentiating once with respect to nuclear coordinates.
          There are   138 degrees of freedom in the 1st order CPHF.  IDoFFX=5.
 Will reuse    3 saved solutions.
    135 vectors produced by pass  0 Test12= 4.15D-14 1.00D-09 XBig12= 2.89D-01 1.07D-01.
 AX will form    68 AO Fock derivatives at one time.
    135 vectors produced by pass  1 Test12= 4.15D-14 1.00D-09 XBig12= 3.40D-02 1.90D-02.
    132 vectors produced by pass  2 Test12= 4.15D-14 1.00D-09 XBig12= 1.78D-04 1.96D-03.
    132 vectors produced by pass  3 Test12= 4.15D-14 1.00D-09 XBig12= 7.30D-07 7.29D-05.
    132 vectors produced by pass  4 Test12= 4.15D-14 1.00D-09 XBig12= 1.45D-09 2.92D-06.
    131 vectors produced by pass  5 Test12= 4.15D-14 1.00D-09 XBig12= 8.47D-12 2.47D-07.
     78 vectors produced by pass  6 Test12= 4.15D-14 1.00D-09 XBig12= 1.91D-13 3.36D-08.
 Inverted reduced A of dimension   875 with in-core refinement.
 Isotropic polarizability for W=    0.000000      186.51 Bohr**3.
 End of Minotr Frequency-dependent properties file   721 does not exist.
 End of Minotr Frequency-dependent properties file   722 does not exist.

 **********************************************************************

            Population analysis using the SCF density.

 **********************************************************************

 Orbital symmetries:
       Occupied  (A) (A) (A) (A) (A) (A) (A) (A) (A) (A) (A) (A)
                 (A) (A) (A) (A) (A) (A) (A) (A) (A) (A) (A) (A)
                 (A) (A) (A) (A) (A) (A) (A) (A) (A) (A) (A) (A)
                 (A) (A) (A) (A) (A) (A) (A) (A) (A) (A) (A) (A)
                 (A) (A) (A) (A) (A) (A) (A) (A) (A) (A) (A) (A)
                 (A) (A) (A) (A) (A) (A) (A) (A) (A) (A) (A) (A)
                 (A) (A) (A) (A) (A) (A) (A) (A) (A) (A) (A) (A)
                 (A) (A) (A) (A) (A) (A) (A)
       Virtual   (A) (A) (A) (A) (A) (A) (A) (A) (A) (A) (A) (A)
                 (A) (A) (A) (A) (A) (A) (A) (A) (A) (A) (A) (A)
                 (A) (A) (A) (A) (A) (A) (A) (A) (A) (A) (A) (A)
                 (A) (A) (A) (A) (A) (A) (A) (A) (A) (A) (A) (A)
                 (A) (A) (A) (A) (A) (A) (A) (A) (A) (A) (A) (A)
                 (A) (A) (A) (A) (A) (A) (A) (A) (A) (A) (A) (A)
                 (A) (A) (A) (A) (A) (A) (A) (A) (A) (A) (A) (A)
                 (A) (A) (A) (A) (A) (A) (A) (A) (A) (A) (A) (A)
                 (A) (A) (A) (A) (A) (A) (A) (A) (A) (A) (A) (A)
                 (A) (A) (A) (A) (A) (A) (A) (A) (A) (A) (A) (A)
                 (A) (A) (A) (A) (A) (A) (A) (A) (A) (A) (A) (A)
                 (A) (A) (A) (A) (A) (A) (A) (A) (A) (A) (A) (A)
                 (A) (A) (A) (A) (A) (A) (A) (A) (A) (A) (A) (A)
                 (A) (A) (A) (A) (A) (A) (A) (A) (A) (A) (A) (A)
                 (A) (A) (A) (A) (A) (A) (A) (A) (A) (A) (A) (A)
                 (A) (A) (A) (A) (A) (A) (A) (A) (A) (A) (A) (A)
                 (A) (A) (A) (A) (A) (A) (A) (A) (A) (A) (A) (A)
                 (A) (A) (A) (A) (A) (A) (A) (A) (A) (A) (A) (A)
                 (A) (A) (A) (A) (A) (A) (A) (A) (A) (A) (A) (A)
                 (A) (A) (A) (A) (A) (A) (A) (A) (A) (A) (A) (A)
                 (A) (A) (A) (A) (A) (A) (A) (A) (A) (A) (A) (A)
                 (A) (A) (A) (A) (A) (A) (A) (A) (A) (A) (A) (A)
                 (A) (A) (A) (A) (A) (A) (A) (A) (A) (A) (A) (A)
                 (A) (A) (A) (A) (A) (A) (A) (A) (A) (A) (A) (A)
                 (A) (A) (A) (A) (A) (A) (A) (A) (A) (A) (A) (A)
                 (A) (A) (A) (A) (A) (A) (A) (A) (A) (A) (A) (A)
                 (A) (A) (A) (A) (A) (A) (A) (A) (A) (A) (A) (A)
                 (A) (A) (A) (A) (A) (A) (A) (A) (A) (A) (A) (A)
                 (A) (A) (A) (A) (A) (A) (A) (A) (A) (A) (A) (A)
                 (A) (A) (A) (A) (A) (A) (A) (A) (A) (A) (A) (A)
                 (A) (A) (A) (A) (A) (A) (A) (A) (A) (A) (A) (A)
                 (A) (A) (A) (A) (A) (A) (A) (A) (A) (A) (A) (A)
                 (A) (A) (A) (A) (A) (A) (A) (A) (A) (A) (A) (A)
                 (A) (A) (A) (A) (A) (A) (A) (A) (A) (A) (A) (A)
                 (A) (A) (A) (A) (A) (A) (A) (A) (A) (A) (A) (A)
                 (A) (A) (A) (A) (A) (A) (A) (A) (A) (A) (A) (A)
                 (A) (A) (A) (A) (A) (A) (A) (A) (A) (A) (A) (A)
                 (A) (A) (A) (A) (A) (A) (A) (A) (A) (A) (A) (A)
 The electronic state is 1-A.
 Alpha  occ. eigenvalues --  -19.21021 -19.20678 -19.19766 -19.19645 -19.18558
 Alpha  occ. eigenvalues --  -19.17417 -19.16656 -19.16330 -19.16249 -19.15027
 Alpha  occ. eigenvalues --  -19.14606 -10.32365 -10.29374 -10.28782 -10.27933
 Alpha  occ. eigenvalues --  -10.27706 -10.27433 -10.25522 -10.25332 -10.24450
 Alpha  occ. eigenvalues --  -10.24391 -10.23705 -10.23111  -1.11274  -1.08328
 Alpha  occ. eigenvalues --   -1.06774  -1.05713  -1.05271  -1.03614  -1.03143
 Alpha  occ. eigenvalues --   -1.02817  -1.01330  -1.00045  -0.99918  -0.83907
 Alpha  occ. eigenvalues --   -0.82481  -0.79445  -0.77622  -0.72379  -0.69846
 Alpha  occ. eigenvalues --   -0.68291  -0.65536  -0.64656  -0.63757  -0.62194
 Alpha  occ. eigenvalues --   -0.60099  -0.58197  -0.56294  -0.55753  -0.54784
 Alpha  occ. eigenvalues --   -0.54341  -0.53623  -0.53130  -0.52539  -0.51424
 Alpha  occ. eigenvalues --   -0.50583  -0.49798  -0.49532  -0.48507  -0.47132
 Alpha  occ. eigenvalues --   -0.46356  -0.45351  -0.44866  -0.44533  -0.44402
 Alpha  occ. eigenvalues --   -0.43545  -0.42713  -0.41181  -0.40063  -0.39779
 Alpha  occ. eigenvalues --   -0.38684  -0.37874  -0.37626  -0.37216  -0.36198
 Alpha  occ. eigenvalues --   -0.35786  -0.35199  -0.34846  -0.33579  -0.33367
 Alpha  occ. eigenvalues --   -0.32765  -0.31351  -0.31202  -0.30753  -0.30376
 Alpha  occ. eigenvalues --   -0.29976  -0.29258  -0.29027  -0.27069  -0.26268
 Alpha  occ. eigenvalues --   -0.26187
 Alpha virt. eigenvalues --   -0.05411  -0.02085  -0.00825  -0.00602   0.00134
 Alpha virt. eigenvalues --    0.01147   0.01448   0.01852   0.02869   0.02999
 Alpha virt. eigenvalues --    0.03422   0.04450   0.04619   0.05242   0.05637
 Alpha virt. eigenvalues --    0.05990   0.06320   0.06625   0.07412   0.07889
 Alpha virt. eigenvalues --    0.08367   0.08478   0.09289   0.09673   0.09871
 Alpha virt. eigenvalues --    0.10152   0.10672   0.10887   0.11519   0.11987
 Alpha virt. eigenvalues --    0.12120   0.12510   0.12826   0.13402   0.13606
 Alpha virt. eigenvalues --    0.13860   0.13943   0.14659   0.14829   0.15068
 Alpha virt. eigenvalues --    0.15545   0.15715   0.15772   0.16203   0.16731
 Alpha virt. eigenvalues --    0.17293   0.17412   0.17808   0.18496   0.18535
 Alpha virt. eigenvalues --    0.18957   0.19294   0.19475   0.19601   0.20195
 Alpha virt. eigenvalues --    0.20418   0.20573   0.20848   0.21005   0.21275
 Alpha virt. eigenvalues --    0.21673   0.21790   0.22233   0.22646   0.23092
 Alpha virt. eigenvalues --    0.23303   0.23627   0.23713   0.24052   0.24353
 Alpha virt. eigenvalues --    0.24807   0.24978   0.25260   0.25437   0.25621
 Alpha virt. eigenvalues --    0.26353   0.26591   0.26668   0.26955   0.27268
 Alpha virt. eigenvalues --    0.27530   0.27962   0.28298   0.28362   0.29047
 Alpha virt. eigenvalues --    0.29387   0.29572   0.29735   0.30031   0.30165
 Alpha virt. eigenvalues --    0.30241   0.31425   0.31580   0.32139   0.32426
 Alpha virt. eigenvalues --    0.32542   0.32815   0.33272   0.33704   0.34203
 Alpha virt. eigenvalues --    0.34308   0.34366   0.34621   0.35049   0.35415
 Alpha virt. eigenvalues --    0.35671   0.36104   0.36445   0.36947   0.37346
 Alpha virt. eigenvalues --    0.37516   0.38104   0.38289   0.38810   0.39313
 Alpha virt. eigenvalues --    0.39576   0.40014   0.40425   0.41117   0.41409
 Alpha virt. eigenvalues --    0.41818   0.42158   0.42580   0.42856   0.43412
 Alpha virt. eigenvalues --    0.44530   0.45035   0.45707   0.45899   0.46470
 Alpha virt. eigenvalues --    0.47037   0.47623   0.48407   0.48720   0.49786
 Alpha virt. eigenvalues --    0.51011   0.55024   0.55985   0.61886   0.63151
 Alpha virt. eigenvalues --    0.64630   0.65525   0.66440   0.68303   0.69084
 Alpha virt. eigenvalues --    0.70707   0.71453   0.72139   0.72950   0.73816
 Alpha virt. eigenvalues --    0.74722   0.75336   0.76891   0.77849   0.78523
 Alpha virt. eigenvalues --    0.79020   0.80631   0.80851   0.83286   0.84370
 Alpha virt. eigenvalues --    0.85266   0.87053   0.87402   0.88530   0.89751
 Alpha virt. eigenvalues --    0.90608   0.91295   0.93251   0.93426   0.94755
 Alpha virt. eigenvalues --    0.97119   0.97283   0.98167   0.99300   1.00295
 Alpha virt. eigenvalues --    1.01498   1.01969   1.02585   1.03173   1.04358
 Alpha virt. eigenvalues --    1.04626   1.04715   1.05087   1.06404   1.06874
 Alpha virt. eigenvalues --    1.07585   1.08194   1.08526   1.08950   1.09500
 Alpha virt. eigenvalues --    1.10479   1.11749   1.12615   1.12901   1.13929
 Alpha virt. eigenvalues --    1.15261   1.15769   1.17995   1.20449   1.21301
 Alpha virt. eigenvalues --    1.22050   1.23945   1.24353   1.25412   1.25841
 Alpha virt. eigenvalues --    1.26368   1.26884   1.27584   1.28095   1.28576
 Alpha virt. eigenvalues --    1.28998   1.29573   1.30000   1.30122   1.31178
 Alpha virt. eigenvalues --    1.31558   1.31821   1.32539   1.32923   1.33924
 Alpha virt. eigenvalues --    1.34350   1.34934   1.35501   1.37690   1.38662
 Alpha virt. eigenvalues --    1.38872   1.39932   1.41009   1.42527   1.43243
 Alpha virt. eigenvalues --    1.43819   1.44035   1.45172   1.46226   1.46711
 Alpha virt. eigenvalues --    1.48397   1.49687   1.51348   1.52311   1.53331
 Alpha virt. eigenvalues --    1.54072   1.54891   1.55672   1.57109   1.57568
 Alpha virt. eigenvalues --    1.58434   1.59033   1.59436   1.60108   1.60992
 Alpha virt. eigenvalues --    1.61810   1.62786   1.62858   1.63230   1.63794
 Alpha virt. eigenvalues --    1.64715   1.65029   1.66654   1.68240   1.68898
 Alpha virt. eigenvalues --    1.69247   1.70774   1.71198   1.71656   1.72443
 Alpha virt. eigenvalues --    1.72837   1.73487   1.74815   1.75809   1.76568
 Alpha virt. eigenvalues --    1.77420   1.78879   1.79104   1.79674   1.80931
 Alpha virt. eigenvalues --    1.82329   1.83396   1.83687   1.85092   1.86413
 Alpha virt. eigenvalues --    1.87725   1.88177   1.88764   1.90562   1.91187
 Alpha virt. eigenvalues --    1.91341   1.92470   1.92531   1.93394   1.94075
 Alpha virt. eigenvalues --    1.94706   1.97008   1.97424   1.97937   1.98359
 Alpha virt. eigenvalues --    1.98477   1.99397   1.99507   2.00278   2.02905
 Alpha virt. eigenvalues --    2.03359   2.04816   2.05300   2.06605   2.07661
 Alpha virt. eigenvalues --    2.08587   2.09612   2.10849   2.11133   2.11281
 Alpha virt. eigenvalues --    2.12353   2.13307   2.14815   2.15363   2.16091
 Alpha virt. eigenvalues --    2.16661   2.17798   2.18230   2.19852   2.20449
 Alpha virt. eigenvalues --    2.21402   2.23306   2.25120   2.25936   2.27572
 Alpha virt. eigenvalues --    2.28792   2.29702   2.32040   2.32681   2.33638
 Alpha virt. eigenvalues --    2.35272   2.35712   2.36264   2.36887   2.37311
 Alpha virt. eigenvalues --    2.37757   2.39217   2.40736   2.41599   2.43235
 Alpha virt. eigenvalues --    2.45422   2.46660   2.46956   2.47764   2.49018
 Alpha virt. eigenvalues --    2.49477   2.50431   2.51412   2.52337   2.53806
 Alpha virt. eigenvalues --    2.54959   2.55993   2.57114   2.58143   2.59328
 Alpha virt. eigenvalues --    2.60036   2.61422   2.62043   2.63182   2.63869
 Alpha virt. eigenvalues --    2.65059   2.65293   2.67301   2.68166   2.68764
 Alpha virt. eigenvalues --    2.69285   2.70989   2.71310   2.73617   2.74357
 Alpha virt. eigenvalues --    2.75588   2.75813   2.78369   2.78577   2.79538
 Alpha virt. eigenvalues --    2.80585   2.82099   2.82791   2.84453   2.85197
 Alpha virt. eigenvalues --    2.85630   2.87340   2.87509   2.88160   2.89039
 Alpha virt. eigenvalues --    2.90977   2.91832   2.92245   2.92673   2.93700
 Alpha virt. eigenvalues --    2.94227   2.95844   2.96496   2.97524   2.98752
 Alpha virt. eigenvalues --    3.00808   3.02372   3.03278   3.04652   3.06101
 Alpha virt. eigenvalues --    3.06973   3.09262   3.10317   3.12191   3.15192
 Alpha virt. eigenvalues --    3.18481   3.21409   3.23427   3.25105   3.30224
 Alpha virt. eigenvalues --    3.31228   3.35972   3.37384   3.39888   3.40718
 Alpha virt. eigenvalues --    3.41533   3.43733   3.45201   3.45850   3.47238
 Alpha virt. eigenvalues --    3.49182   3.49385   3.50687   3.51347   3.52390
 Alpha virt. eigenvalues --    3.53788   3.56157   3.58183   3.59394   3.61952
 Alpha virt. eigenvalues --    3.63534   3.65029   3.71555   4.27529   4.32024
 Alpha virt. eigenvalues --    4.33205   4.34327   4.39768   4.42951   4.45486
 Alpha virt. eigenvalues --    4.46347   4.48850   4.49725   4.50887   4.51950
 Alpha virt. eigenvalues --    4.54399   4.59362   4.63284   4.63502   4.71059
 Alpha virt. eigenvalues --    4.79498   4.80268   4.83678   4.85154   4.89791
 Alpha virt. eigenvalues --    4.93198
          Condensed to atoms (all electrons):
              1          2          3          4          5          6
     1  O    8.247915   0.311137  -0.176153   0.022478   0.002085   0.085025
     2  C    0.311137  11.001370  -1.829684  -0.064235   0.061312  -2.618147
     3  C   -0.176153  -1.829684  10.165212   0.326715  -0.065208   0.186482
     4  O    0.022478  -0.064235   0.326715   8.216422   0.236261  -0.240503
     5  H    0.002085   0.061312  -0.065208   0.236261   0.423030  -0.047215
     6  C    0.085025  -2.618147   0.186482  -0.240503  -0.047215  17.198408
     7  O    0.001209  -0.014303  -0.146232  -0.021089   0.000630   0.490198
     8  H   -0.000081   0.014822  -0.079895   0.020544  -0.000158  -0.012245
     9  C   -0.069554   0.987481  -0.528819   0.005349   0.000552  -0.301832
    10  O   -0.000386   0.020466   0.005052   0.000022  -0.000003  -0.017226
    11  H    0.000011  -0.010414   0.002931   0.000000   0.000000   0.001363
    12  C   -0.114054  -4.042944  -0.571188   0.025913   0.016293   1.329940
    13  O    0.004754   0.167117  -0.056522   0.000478  -0.000133  -0.010745
    14  C    0.003358   1.580017  -1.716474   0.067655   0.025754  -6.774643
    15  O    0.000477  -0.029786  -0.000788  -0.001942   0.000005  -0.030055
    16  C    0.001840   0.222729   0.249016  -0.003643  -0.000842  -1.420410
    17  C   -0.001609  -0.127661  -0.018400   0.002172   0.000122  -0.299052
    18  O    0.000072  -0.001455  -0.003905   0.000017   0.000000   0.025953
    19  H   -0.000039   0.008810   0.001481   0.000002   0.000000   0.017760
    20  C    0.000042   0.009477   0.006275   0.000026   0.000002  -0.294212
    21  O    0.000000   0.000161  -0.000176   0.000000   0.000000   0.000286
    22  H    0.000000   0.000032  -0.000016   0.000000   0.000000   0.000474
    23  C    0.000223  -0.003406  -0.012115  -0.001517  -0.000033   0.020610
    24  O    0.000000   0.000161  -0.001115   0.000005   0.000000   0.001494
    25  H    0.000000  -0.000009  -0.000164   0.000000   0.000000   0.001880
    26  C   -0.000174  -0.009810   0.034250   0.000997  -0.000017  -0.930100
    27  O    0.000000   0.000200   0.000812  -0.000001   0.000000  -0.002804
    28  C   -0.000002   0.003398  -0.006920   0.000052   0.000000   0.024648
    29  O    0.000000   0.000006   0.000011   0.000000   0.000000   0.000332
    30  H    0.223519   0.060226  -0.045870  -0.000700   0.001347  -0.003024
    31  H    0.000000   0.000000   0.000000   0.000000   0.000000   0.000011
    32  H    0.000000  -0.000677   0.005638  -0.000009   0.000000  -0.019599
    33  H    0.000000   0.000160  -0.002022   0.000006   0.000000   0.001993
    34  H    0.000000  -0.000021  -0.001318   0.000000   0.000000   0.002807
    35  H    0.000001   0.000685  -0.007179   0.000044   0.000000  -0.000595
    36  H    0.000000   0.000729  -0.000949   0.000000   0.000000   0.015192
    37  H    0.000000   0.000120  -0.000211   0.000000   0.000000   0.000814
    38  H    0.000000   0.000006  -0.000023   0.000000   0.000000   0.000142
    39  H   -0.001049   0.062296  -0.005723  -0.000024  -0.000001  -0.004914
    40  H    0.005170   0.043181  -0.018688  -0.000070  -0.000002  -0.005678
    41  H    0.003862   0.061343  -0.053597  -0.000057  -0.000009  -0.061090
    42  H   -0.055132   0.498410  -0.135392   0.001024   0.000292  -0.047013
    43  H   -0.008926   0.030879   0.405715  -0.044280   0.004455  -0.262858
    44  H   -0.001879   0.076295  -0.061148   0.002520   0.000545   0.305920
    45  H   -0.000491  -0.000339  -0.003586  -0.000038  -0.000011  -0.258453
              7          8          9         10         11         12
     1  O    0.001209  -0.000081  -0.069554  -0.000386   0.000011  -0.114054
     2  C   -0.014303   0.014822   0.987481   0.020466  -0.010414  -4.042944
     3  C   -0.146232  -0.079895  -0.528819   0.005052   0.002931  -0.571188
     4  O   -0.021089   0.020544   0.005349   0.000022   0.000000   0.025913
     5  H    0.000630  -0.000158   0.000552  -0.000003   0.000000   0.016293
     6  C    0.490198  -0.012245  -0.301832  -0.017226   0.001363   1.329940
     7  O    8.246542   0.197480  -0.000965  -0.000039   0.000000   0.044652
     8  H    0.197480   0.400165   0.000651   0.000000   0.000000  -0.005028
     9  C   -0.000965   0.000651   6.552565   0.271241  -0.063226  -1.949764
    10  O   -0.000039   0.000000   0.271241   8.319094   0.209590  -0.136932
    11  H    0.000000   0.000000  -0.063226   0.209590   0.428040   0.082069
    12  C    0.044652  -0.005028  -1.949764  -0.136932   0.082069  12.979530
    13  O    0.008267  -0.000691   0.029772   0.012145  -0.001367  -0.239707
    14  C   -0.217515   0.082013   0.075275  -0.038516   0.002126  -1.065628
    15  O    0.004427   0.000138  -0.011895  -0.001382  -0.000008  -0.010270
    16  C   -0.034589   0.007222  -0.041243   0.037317  -0.002309  -0.073445
    17  C    0.000403  -0.000133   0.023720  -0.018462   0.001297  -0.198726
    18  O    0.000514  -0.000004  -0.005890  -0.000378   0.000131   0.017669
    19  H   -0.000119   0.000000  -0.007596   0.004790  -0.000078  -0.002059
    20  C   -0.000704  -0.000034   0.019879   0.003911  -0.000336  -0.061398
    21  O    0.000001   0.000000  -0.000218   0.000069   0.000000   0.001612
    22  H    0.000000   0.000000  -0.000356  -0.000031   0.000000   0.000173
    23  C    0.003956  -0.001863  -0.002624  -0.000216  -0.000004  -0.010258
    24  O    0.000356  -0.000004   0.000071   0.000000   0.000000  -0.000096
    25  H    0.000120   0.000000   0.000004   0.000000   0.000000   0.000006
    26  C   -0.036304   0.004574  -0.004165  -0.000214  -0.000034  -0.020643
    27  O   -0.000146  -0.000001  -0.000019   0.000006   0.000000   0.001018
    28  C    0.000208   0.000024   0.002558   0.000252  -0.000006   0.006968
    29  O   -0.000002   0.000000  -0.000016   0.000000   0.000000   0.000076
    30  H   -0.000066   0.000001   0.001782   0.000005  -0.000001   0.006922
    31  H    0.000000   0.000000   0.000000   0.000000   0.000000  -0.000002
    32  H   -0.002809  -0.000097  -0.000136   0.000000   0.000000   0.000355
    33  H    0.001329   0.000017   0.000099   0.000000   0.000000   0.000816
    34  H    0.000153   0.000000   0.000202   0.000001   0.000000   0.001106
    35  H    0.000327   0.000005   0.001354   0.000003   0.000000   0.011242
    36  H    0.000043   0.000000   0.002089  -0.000044  -0.000001  -0.000388
    37  H    0.000006   0.000000   0.000059   0.000005   0.000000   0.001212
    38  H    0.000000   0.000000   0.000001   0.000001   0.000000   0.000108
    39  H    0.000001   0.000000   0.562563  -0.056803  -0.005857  -0.307990
    40  H   -0.000006   0.000000   0.494314  -0.060914  -0.005256  -0.142914
    41  H   -0.000010   0.000001   0.072555   0.004366  -0.000126   0.110737
    42  H   -0.000137   0.000034   0.040413   0.000245  -0.000008  -0.148627
    43  H   -0.000607  -0.000059   0.021540   0.000024   0.000000  -0.020799
    44  H   -0.048190  -0.004987   0.024857  -0.000074   0.000000   0.015239
    45  H    0.008814  -0.000158   0.025321  -0.000270  -0.000001   0.034271
             13         14         15         16         17         18
     1  O    0.004754   0.003358   0.000477   0.001840  -0.001609   0.000072
     2  C    0.167117   1.580017  -0.029786   0.222729  -0.127661  -0.001455
     3  C   -0.056522  -1.716474  -0.000788   0.249016  -0.018400  -0.003905
     4  O    0.000478   0.067655  -0.001942  -0.003643   0.002172   0.000017
     5  H   -0.000133   0.025754   0.000005  -0.000842   0.000122   0.000000
     6  C   -0.010745  -6.774643  -0.030055  -1.420410  -0.299052   0.025953
     7  O    0.008267  -0.217515   0.004427  -0.034589   0.000403   0.000514
     8  H   -0.000691   0.082013   0.000138   0.007222  -0.000133  -0.000004
     9  C    0.029772   0.075275  -0.011895  -0.041243   0.023720  -0.005890
    10  O    0.012145  -0.038516  -0.001382   0.037317  -0.018462  -0.000378
    11  H   -0.001367   0.002126  -0.000008  -0.002309   0.001297   0.000131
    12  C   -0.239707  -1.065628  -0.010270  -0.073445  -0.198726   0.017669
    13  O    8.456892   0.227570  -0.030234  -0.120517   0.047812   0.007490
    14  C    0.227570  15.153593   0.199185  -1.285804   0.463570   0.082429
    15  O   -0.030234   0.199185   8.202617   0.114576  -0.025413  -0.017530
    16  C   -0.120517  -1.285804   0.114576  20.259565  -5.245352  -0.114837
    17  C    0.047812   0.463570  -0.025413  -5.245352  11.310242   0.195643
    18  O    0.007490   0.082429  -0.017530  -0.114837   0.195643   8.322708
    19  H    0.025084  -0.008852   0.007331  -0.057779   0.066537   0.168074
    20  C   -0.016714  -0.803635   0.045628  -4.155795   0.023376  -0.139085
    21  O    0.000469  -0.001979  -0.000872   0.075267  -0.118479  -0.002793
    22  H   -0.000063   0.004816  -0.000046   0.023799  -0.098812   0.022218
    23  C    0.000931  -0.289851  -0.043691  -0.137592  -0.425996   0.016099
    24  O   -0.000099   0.015056  -0.003674  -0.012268   0.011905   0.000180
    25  H   -0.000005  -0.000864  -0.000578   0.040397   0.007488   0.000003
    26  C   -0.059161  -1.141438   0.053337  -5.422146   0.755863  -0.003491
    27  O    0.000588  -0.019374   0.002902  -0.018301  -0.071977   0.001674
    28  C    0.002344   0.192762  -0.001102   1.879555  -0.558069   0.028231
    29  O    0.000011   0.003085   0.000157   0.024221   0.009609  -0.000170
    30  H   -0.000538   0.001133   0.000004   0.000200  -0.000007  -0.000002
    31  H    0.000000   0.000490   0.000006  -0.004900  -0.005952  -0.000001
    32  H   -0.000092   0.014061   0.006557   0.004857  -0.016322  -0.000103
    33  H    0.000073   0.029068  -0.004542   0.124681   0.016844   0.000174
    34  H    0.000083   0.083353   0.002372   0.046755   0.023037  -0.000103
    35  H    0.000921   0.061519  -0.059995   0.369455  -0.015484   0.000781
    36  H   -0.000668   0.090684  -0.007043   0.078169   0.373585  -0.032639
    37  H    0.000220   0.006953  -0.001140   0.296663  -0.111617   0.005695
    38  H    0.000043   0.006901  -0.000240   0.163792   0.006067   0.000057
    39  H    0.002864   0.032440   0.000226  -0.000208   0.002847  -0.000055
    40  H    0.005967  -0.004864  -0.000068   0.002844  -0.001876   0.000015
    41  H   -0.046694   0.100289  -0.000569   0.012558   0.018853   0.000476
    42  H    0.009838   0.066248  -0.000756  -0.004166   0.002058   0.000014
    43  H    0.006580   0.116748  -0.002076  -0.009250   0.005246   0.000086
    44  H    0.013401  -0.088169  -0.009785  -0.007018   0.008383  -0.000011
    45  H   -0.058998   0.371226  -0.062141   0.005384   0.059233  -0.000357
             19         20         21         22         23         24
     1  O   -0.000039   0.000042   0.000000   0.000000   0.000223   0.000000
     2  C    0.008810   0.009477   0.000161   0.000032  -0.003406   0.000161
     3  C    0.001481   0.006275  -0.000176  -0.000016  -0.012115  -0.001115
     4  O    0.000002   0.000026   0.000000   0.000000  -0.001517   0.000005
     5  H    0.000000   0.000002   0.000000   0.000000  -0.000033   0.000000
     6  C    0.017760  -0.294212   0.000286   0.000474   0.020610   0.001494
     7  O   -0.000119  -0.000704   0.000001   0.000000   0.003956   0.000356
     8  H    0.000000  -0.000034   0.000000   0.000000  -0.001863  -0.000004
     9  C   -0.007596   0.019879  -0.000218  -0.000356  -0.002624   0.000071
    10  O    0.004790   0.003911   0.000069  -0.000031  -0.000216   0.000000
    11  H   -0.000078  -0.000336   0.000000   0.000000  -0.000004   0.000000
    12  C   -0.002059  -0.061398   0.001612   0.000173  -0.010258  -0.000096
    13  O    0.025084  -0.016714   0.000469  -0.000063   0.000931  -0.000099
    14  C   -0.008852  -0.803635  -0.001979   0.004816  -0.289851   0.015056
    15  O    0.007331   0.045628  -0.000872  -0.000046  -0.043691  -0.003674
    16  C   -0.057779  -4.155795   0.075267   0.023799  -0.137592  -0.012268
    17  C    0.066537   0.023376  -0.118479  -0.098812  -0.425996   0.011905
    18  O    0.168074  -0.139085  -0.002793   0.022218   0.016099   0.000180
    19  H    0.363282   0.001717   0.000768  -0.000433  -0.004269   0.000002
    20  C    0.001717  10.721821   0.297173   0.040840   0.153082  -0.013959
    21  O    0.000768   0.297173   8.209652   0.214997  -0.000832  -0.000028
    22  H   -0.000433   0.040840   0.214997   0.404447   0.000776   0.000001
    23  C   -0.004269   0.153082  -0.000832   0.000776   6.887823   0.154611
    24  O    0.000002  -0.013959  -0.000028   0.000001   0.154611   8.235480
    25  H    0.000000  -0.005165   0.000001   0.000000  -0.021413   0.251829
    26  C    0.004142   2.584154   0.011001  -0.003837  -1.126625   0.019626
    27  O   -0.000041  -0.185493   0.007171  -0.000364  -0.007245  -0.013934
    28  C   -0.003238  -1.607991  -0.189499   0.030454  -0.090253  -0.000713
    29  O    0.000023  -0.135989   0.004515  -0.000495  -0.006134   0.000371
    30  H    0.000000   0.000000   0.000000   0.000000  -0.000003   0.000000
    31  H    0.000000   0.055131  -0.001580   0.000015   0.000841   0.000097
    32  H    0.000000   0.007476  -0.000009   0.000000   0.410896  -0.049029
    33  H   -0.000002  -0.017775   0.000003   0.000000   0.437395  -0.046447
    34  H   -0.000008  -0.079210  -0.000045  -0.000003  -0.035959  -0.006073
    35  H   -0.001219  -0.042010  -0.000334   0.000026  -0.007042   0.000636
    36  H   -0.005296  -0.216375   0.002792  -0.000126   0.014083   0.000031
    37  H   -0.000229   0.125102  -0.039221  -0.005978   0.015402  -0.000129
    38  H   -0.000002  -0.296777   0.013151  -0.000266  -0.000739  -0.000486
    39  H    0.000085   0.000064   0.000000   0.000000   0.000018   0.000000
    40  H   -0.000020   0.000129   0.000000   0.000000   0.000002   0.000000
    41  H   -0.000545   0.001671   0.000000   0.000000  -0.000038   0.000000
    42  H   -0.000005   0.000024   0.000000   0.000000  -0.000009   0.000000
    43  H    0.000002   0.000188   0.000000   0.000000  -0.001095   0.000001
    44  H   -0.000011   0.000639   0.000000   0.000000   0.000137   0.000008
    45  H   -0.001881   0.020155   0.000000  -0.000001  -0.004118   0.000017
             25         26         27         28         29         30
     1  O    0.000000  -0.000174   0.000000  -0.000002   0.000000   0.223519
     2  C   -0.000009  -0.009810   0.000200   0.003398   0.000006   0.060226
     3  C   -0.000164   0.034250   0.000812  -0.006920   0.000011  -0.045870
     4  O    0.000000   0.000997  -0.000001   0.000052   0.000000  -0.000700
     5  H    0.000000  -0.000017   0.000000   0.000000   0.000000   0.001347
     6  C    0.001880  -0.930100  -0.002804   0.024648   0.000332  -0.003024
     7  O    0.000120  -0.036304  -0.000146   0.000208  -0.000002  -0.000066
     8  H    0.000000   0.004574  -0.000001   0.000024   0.000000   0.000001
     9  C    0.000004  -0.004165  -0.000019   0.002558  -0.000016   0.001782
    10  O    0.000000  -0.000214   0.000006   0.000252   0.000000   0.000005
    11  H    0.000000  -0.000034   0.000000  -0.000006   0.000000  -0.000001
    12  C    0.000006  -0.020643   0.001018   0.006968   0.000076   0.006922
    13  O   -0.000005  -0.059161   0.000588   0.002344   0.000011  -0.000538
    14  C   -0.000864  -1.141438  -0.019374   0.192762   0.003085   0.001133
    15  O   -0.000578   0.053337   0.002902  -0.001102   0.000157   0.000004
    16  C    0.040397  -5.422146  -0.018301   1.879555   0.024221   0.000200
    17  C    0.007488   0.755863  -0.071977  -0.558069   0.009609  -0.000007
    18  O    0.000003  -0.003491   0.001674   0.028231  -0.000170  -0.000002
    19  H    0.000000   0.004142  -0.000041  -0.003238   0.000023   0.000000
    20  C   -0.005165   2.584154  -0.185493  -1.607991  -0.135989   0.000000
    21  O    0.000001   0.011001   0.007171  -0.189499   0.004515   0.000000
    22  H    0.000000  -0.003837  -0.000364   0.030454  -0.000495   0.000000
    23  C   -0.021413  -1.126625  -0.007245  -0.090253  -0.006134  -0.000003
    24  O    0.251829   0.019626  -0.013934  -0.000713   0.000371   0.000000
    25  H    0.411942  -0.034673  -0.005133   0.005872  -0.000053   0.000000
    26  C   -0.034673  13.341174   0.297356  -1.498494  -0.045352   0.000004
    27  O   -0.005133   0.297356   8.423338   0.059460  -0.034179   0.000000
    28  C    0.005872  -1.498494   0.059460   6.342304   0.350606   0.000000
    29  O   -0.000053  -0.045352  -0.034179   0.350606   8.153617   0.000000
    30  H    0.000000   0.000004   0.000000   0.000000   0.000000   0.413833
    31  H    0.000000  -0.001476  -0.004055  -0.024107   0.228804   0.000000
    32  H   -0.006678  -0.037176   0.006854  -0.005815   0.000041   0.000000
    33  H    0.005898  -0.243912  -0.006539   0.012304  -0.000102   0.000000
    34  H    0.003459   0.182593  -0.062342   0.057473  -0.000411   0.000000
    35  H    0.000010  -0.119656   0.003544   0.028371  -0.000248   0.000000
    36  H    0.000000  -0.121206   0.004728   0.050070  -0.000097   0.000000
    37  H    0.000000  -0.098998   0.007844   0.025434  -0.001042   0.000000
    38  H    0.000005  -0.088254  -0.066827   0.532817  -0.051441   0.000000
    39  H    0.000000   0.000030   0.000000  -0.000003   0.000000   0.000014
    40  H    0.000000   0.000028   0.000000   0.000000   0.000000  -0.000268
    41  H    0.000000   0.002661   0.000000  -0.000134   0.000000  -0.000168
    42  H    0.000000  -0.000136   0.000000   0.000000   0.000000  -0.011529
    43  H    0.000000  -0.000554   0.000000   0.000036   0.000000   0.000227
    44  H    0.000000  -0.004670   0.000001  -0.000020   0.000000   0.000029
    45  H    0.000000   0.050871   0.000056  -0.000256  -0.000006   0.000002
             31         32         33         34         35         36
     1  O    0.000000   0.000000   0.000000   0.000000   0.000001   0.000000
     2  C    0.000000  -0.000677   0.000160  -0.000021   0.000685   0.000729
     3  C    0.000000   0.005638  -0.002022  -0.001318  -0.007179  -0.000949
     4  O    0.000000  -0.000009   0.000006   0.000000   0.000044   0.000000
     5  H    0.000000   0.000000   0.000000   0.000000   0.000000   0.000000
     6  C    0.000011  -0.019599   0.001993   0.002807  -0.000595   0.015192
     7  O    0.000000  -0.002809   0.001329   0.000153   0.000327   0.000043
     8  H    0.000000  -0.000097   0.000017   0.000000   0.000005   0.000000
     9  C    0.000000  -0.000136   0.000099   0.000202   0.001354   0.002089
    10  O    0.000000   0.000000   0.000000   0.000001   0.000003  -0.000044
    11  H    0.000000   0.000000   0.000000   0.000000   0.000000  -0.000001
    12  C   -0.000002   0.000355   0.000816   0.001106   0.011242  -0.000388
    13  O    0.000000  -0.000092   0.000073   0.000083   0.000921  -0.000668
    14  C    0.000490   0.014061   0.029068   0.083353   0.061519   0.090684
    15  O    0.000006   0.006557  -0.004542   0.002372  -0.059995  -0.007043
    16  C   -0.004900   0.004857   0.124681   0.046755   0.369455   0.078169
    17  C   -0.005952  -0.016322   0.016844   0.023037  -0.015484   0.373585
    18  O   -0.000001  -0.000103   0.000174  -0.000103   0.000781  -0.032639
    19  H    0.000000   0.000000  -0.000002  -0.000008  -0.001219  -0.005296
    20  C    0.055131   0.007476  -0.017775  -0.079210  -0.042010  -0.216375
    21  O   -0.001580  -0.000009   0.000003  -0.000045  -0.000334   0.002792
    22  H    0.000015   0.000000   0.000000  -0.000003   0.000026  -0.000126
    23  C    0.000841   0.410896   0.437395  -0.035959  -0.007042   0.014083
    24  O    0.000097  -0.049029  -0.046447  -0.006073   0.000636   0.000031
    25  H    0.000000  -0.006678   0.005898   0.003459   0.000010   0.000000
    26  C   -0.001476  -0.037176  -0.243912   0.182593  -0.119656  -0.121206
    27  O   -0.004055   0.006854  -0.006539  -0.062342   0.003544   0.004728
    28  C   -0.024107  -0.005815   0.012304   0.057473   0.028371   0.050070
    29  O    0.228804   0.000041  -0.000102  -0.000411  -0.000248  -0.000097
    30  H    0.000000   0.000000   0.000000   0.000000   0.000000   0.000000
    31  H    0.414910   0.000000   0.000001  -0.000034   0.000002   0.000003
    32  H    0.000000   0.562622  -0.039493  -0.007061  -0.000774  -0.000014
    33  H    0.000001  -0.039493   0.571315   0.006852   0.006053   0.000002
    34  H   -0.000034  -0.007061   0.006852   0.648087   0.007431   0.002085
    35  H    0.000002  -0.000774   0.006053   0.007431   0.613197   0.004808
    36  H    0.000003  -0.000014   0.000002   0.002085   0.004808   0.582184
    37  H   -0.000104   0.000000  -0.000018   0.000124   0.001359   0.005638
    38  H   -0.009915   0.000014   0.000001   0.008118  -0.000001   0.002883
    39  H    0.000000   0.000000   0.000000   0.000000   0.000000   0.000000
    40  H    0.000000   0.000000   0.000000   0.000000   0.000000   0.000000
    41  H    0.000000   0.000000   0.000000   0.000000  -0.000042  -0.000008
    42  H    0.000000   0.000000   0.000000   0.000000   0.000000   0.000000
    43  H    0.000000   0.000002   0.000000   0.000000  -0.000025   0.000000
    44  H    0.000000   0.000040  -0.000001  -0.000002  -0.000022  -0.000001
    45  H    0.000000   0.000104  -0.000011  -0.000031   0.013384  -0.000100
             37         38         39         40         41         42
     1  O    0.000000   0.000000  -0.001049   0.005170   0.003862  -0.055132
     2  C    0.000120   0.000006   0.062296   0.043181   0.061343   0.498410
     3  C   -0.000211  -0.000023  -0.005723  -0.018688  -0.053597  -0.135392
     4  O    0.000000   0.000000  -0.000024  -0.000070  -0.000057   0.001024
     5  H    0.000000   0.000000  -0.000001  -0.000002  -0.000009   0.000292
     6  C    0.000814   0.000142  -0.004914  -0.005678  -0.061090  -0.047013
     7  O    0.000006   0.000000   0.000001  -0.000006  -0.000010  -0.000137
     8  H    0.000000   0.000000   0.000000   0.000000   0.000001   0.000034
     9  C    0.000059   0.000001   0.562563   0.494314   0.072555   0.040413
    10  O    0.000005   0.000001  -0.056803  -0.060914   0.004366   0.000245
    11  H    0.000000   0.000000  -0.005857  -0.005256  -0.000126  -0.000008
    12  C    0.001212   0.000108  -0.307990  -0.142914   0.110737  -0.148627
    13  O    0.000220   0.000043   0.002864   0.005967  -0.046694   0.009838
    14  C    0.006953   0.006901   0.032440  -0.004864   0.100289   0.066248
    15  O   -0.001140  -0.000240   0.000226  -0.000068  -0.000569  -0.000756
    16  C    0.296663   0.163792  -0.000208   0.002844   0.012558  -0.004166
    17  C   -0.111617   0.006067   0.002847  -0.001876   0.018853   0.002058
    18  O    0.005695   0.000057  -0.000055   0.000015   0.000476   0.000014
    19  H   -0.000229  -0.000002   0.000085  -0.000020  -0.000545  -0.000005
    20  C    0.125102  -0.296777   0.000064   0.000129   0.001671   0.000024
    21  O   -0.039221   0.013151   0.000000   0.000000   0.000000   0.000000
    22  H   -0.005978  -0.000266   0.000000   0.000000   0.000000   0.000000
    23  C    0.015402  -0.000739   0.000018   0.000002  -0.000038  -0.000009
    24  O   -0.000129  -0.000486   0.000000   0.000000   0.000000   0.000000
    25  H    0.000000   0.000005   0.000000   0.000000   0.000000   0.000000
    26  C   -0.098998  -0.088254   0.000030   0.000028   0.002661  -0.000136
    27  O    0.007844  -0.066827   0.000000   0.000000   0.000000   0.000000
    28  C    0.025434   0.532817  -0.000003   0.000000  -0.000134   0.000000
    29  O   -0.001042  -0.051441   0.000000   0.000000   0.000000   0.000000
    30  H    0.000000   0.000000   0.000014  -0.000268  -0.000168  -0.011529
    31  H   -0.000104  -0.009915   0.000000   0.000000   0.000000   0.000000
    32  H    0.000000   0.000014   0.000000   0.000000   0.000000   0.000000
    33  H   -0.000018   0.000001   0.000000   0.000000   0.000000   0.000000
    34  H    0.000124   0.008118   0.000000   0.000000   0.000000   0.000000
    35  H    0.001359  -0.000001   0.000000   0.000000  -0.000042   0.000000
    36  H    0.005638   0.002883   0.000000   0.000000  -0.000008   0.000000
    37  H    0.614231   0.006431   0.000000   0.000000   0.000000   0.000000
    38  H    0.006431   0.666095   0.000000   0.000000   0.000000   0.000000
    39  H    0.000000   0.000000   0.640650  -0.053870   0.007324   0.006393
    40  H    0.000000   0.000000  -0.053870   0.599027  -0.007599  -0.000145
    41  H    0.000000   0.000000   0.007324  -0.007599   0.605903   0.006341
    42  H    0.000000   0.000000   0.006393  -0.000145   0.006341   0.627306
    43  H    0.000000   0.000000   0.000002  -0.000017   0.003316   0.006426
    44  H    0.000000   0.000000  -0.000059  -0.000001  -0.000040   0.003786
    45  H   -0.000068  -0.000001   0.000009   0.000010   0.008341   0.000089
             43         44         45
     1  O   -0.008926  -0.001879  -0.000491
     2  C    0.030879   0.076295  -0.000339
     3  C    0.405715  -0.061148  -0.003586
     4  O   -0.044280   0.002520  -0.000038
     5  H    0.004455   0.000545  -0.000011
     6  C   -0.262858   0.305920  -0.258453
     7  O   -0.000607  -0.048190   0.008814
     8  H   -0.000059  -0.004987  -0.000158
     9  C    0.021540   0.024857   0.025321
    10  O    0.000024  -0.000074  -0.000270
    11  H    0.000000   0.000000  -0.000001
    12  C   -0.020799   0.015239   0.034271
    13  O    0.006580   0.013401  -0.058998
    14  C    0.116748  -0.088169   0.371226
    15  O   -0.002076  -0.009785  -0.062141
    16  C   -0.009250  -0.007018   0.005384
    17  C    0.005246   0.008383   0.059233
    18  O    0.000086  -0.000011  -0.000357
    19  H    0.000002  -0.000011  -0.001881
    20  C    0.000188   0.000639   0.020155
    21  O    0.000000   0.000000   0.000000
    22  H    0.000000   0.000000  -0.000001
    23  C   -0.001095   0.000137  -0.004118
    24  O    0.000001   0.000008   0.000017
    25  H    0.000000   0.000000   0.000000
    26  C   -0.000554  -0.004670   0.050871
    27  O    0.000000   0.000001   0.000056
    28  C    0.000036  -0.000020  -0.000256
    29  O    0.000000   0.000000  -0.000006
    30  H    0.000227   0.000029   0.000002
    31  H    0.000000   0.000000   0.000000
    32  H    0.000002   0.000040   0.000104
    33  H    0.000000  -0.000001  -0.000011
    34  H    0.000000  -0.000002  -0.000031
    35  H   -0.000025  -0.000022   0.013384
    36  H    0.000000  -0.000001  -0.000100
    37  H    0.000000   0.000000  -0.000068
    38  H    0.000000   0.000000  -0.000001
    39  H    0.000002  -0.000059   0.000009
    40  H   -0.000017  -0.000001   0.000010
    41  H    0.003316  -0.000040   0.008341
    42  H    0.006426   0.003786   0.000089
    43  H    0.583409   0.006735   0.005781
    44  H    0.006735   0.624878   0.006945
    45  H    0.005781   0.006945   0.681153
 Mulliken atomic charges:
              1
     1  O   -0.483650
     2  C   -0.470135
     3  C    0.159891
     4  O   -0.550596
     5  H    0.340947
     6  C   -0.049322
     7  O   -0.485804
     8  H    0.377747
     9  C   -0.227952
    10  O   -0.556713
    11  H    0.361475
    12  C    0.434932
    13  O   -0.388766
    14  C    0.298232
    15  O   -0.282323
    16  C    0.131553
    17  C   -0.076517
    18  O   -0.573594
    19  H    0.423830
    20  C   -0.045322
    21  O   -0.483025
    22  H    0.367758
    23  C    0.118054
    24  O   -0.543887
    25  H    0.345821
    26  C   -0.289944
    27  O   -0.318774
    28  C    0.350423
    29  O   -0.499749
    30  H    0.352927
    31  H    0.351817
    32  H    0.166375
    33  H    0.145781
    34  H    0.116531
    35  H    0.129469
    36  H    0.155158
    37  H    0.145445
    38  H    0.108340
    39  H    0.118733
    40  H    0.151567
    41  H    0.150129
    42  H    0.134113
    43  H    0.153148
    44  H    0.135731
    45  H    0.100148
 Sum of Mulliken atomic charges =   0.00000
 Mulliken charges with hydrogens summed into heavy atoms:
              1
     1  O   -0.130723
     2  C   -0.336022
     3  C    0.313039
     4  O   -0.209649
     6  C    0.086409
     7  O   -0.108058
     9  C    0.042348
    10  O   -0.195239
    12  C    0.585061
    13  O   -0.388766
    14  C    0.398381
    15  O   -0.282323
    16  C    0.261022
    17  C    0.078640
    18  O   -0.149764
    20  C    0.100123
    21  O   -0.115267
    23  C    0.430209
    24  O   -0.198066
    26  C   -0.173413
    27  O   -0.318774
    28  C    0.458763
    29  O   -0.147932
 Sum of Mulliken charges with hydrogens summed into heavy atoms =   0.00000
 APT atomic charges:
              1
     1  O   -0.623391
     2  C    0.437490
     3  C    0.371042
     4  O   -0.650370
     5  H    0.248833
     6  C    0.359286
     7  O   -0.614415
     8  H    0.280104
     9  C    0.465633
    10  O   -0.613310
    11  H    0.255433
    12  C    0.430890
    13  O   -0.786407
    14  C    0.910804
    15  O   -0.843724
    16  C    0.414399
    17  C    0.341687
    18  O   -0.668170
    19  H    0.333083
    20  C    0.395611
    21  O   -0.625966
    22  H    0.280616
    23  C    0.498678
    24  O   -0.662793
    25  H    0.256359
    26  C    0.426266
    27  O   -0.810270
    28  C    0.948369
    29  O   -0.668931
    30  H    0.258241
    31  H    0.271683
    32  H   -0.007152
    33  H   -0.014251
    34  H   -0.072775
    35  H   -0.028308
    36  H   -0.031016
    37  H   -0.043919
    38  H   -0.092941
    39  H   -0.062292
    40  H   -0.037368
    41  H   -0.045177
    42  H   -0.053966
    43  H   -0.029038
    44  H   -0.051919
    45  H   -0.046637
 Sum of APT charges=   0.00000
 APT Atomic charges with hydrogens summed into heavy atoms:
[...]
 86,0.00570675,0.00230046,0.00014750,-0.00007951,-0.00019024,-0.0006408
 2,-0.00011455,0.00012572,0.00003280,0.00007738,-0.00001078,0.00003030,
 -0.00000490,-0.00004513,-0.00002074,-0.00005097,0.00009997,-0.00002440
 ,0.00004471,-0.00012339,0.00005720,-0.00005337,0.00000452,0.00000611,0
 .00000238,0.00000751,-0.00000720,0.00000674,-0.00000243,0.00000972,-0.
 00000980,-0.00001881,-0.00000443,0.00000305,0.00001674,0.00000942,0.00
 000135,-0.00000489,-0.00000196,0.00000465,-0.00001136,0.00000268,-0.00
 000618,0.00001659,0.00000523,0.00000177,-0.00001835,-0.00000335,-0.000
 01156,0.00000559,-0.00000021,0.00001009,0.00093228,-0.00047305,-0.0001
 6931,-0.00000207,0.00000181,-0.00000134,0.00000039,-0.00000033,0.00000
 119,0.00000117,-0.00000149,0.00000027,0.00000625,-0.00000323,0.0000049
 0,0.00000297,-0.00001298,-0.00000242,0.00001418,-0.00000053,0.00001537
 ,0.00000247,-0.00000472,-0.00000345,0.00000420,-0.00000107,0.00000189,
 0.00081015,-0.00093429,-0.00040345,0.00017330,0.00002458,0.00005460,-0
 .00038771,-0.00151278,0.00205521,0.31436365,-0.00104115,0.00347905,0.0
 0121587,0.11327840,-0.09531438,-0.02800905,0.02971769,-0.01777125,-0.0
 1252001,0.00002297,0.00388093,-0.00109157,-0.00000335,-0.00061351,0.00
 174608,0.00223003,0.00001027,0.00141771,-0.00091510,0.00043631,0.00018
 137,0.00011989,-0.00011910,-0.00005525,-0.00205476,0.00105115,0.001021
 70,0.00040041,0.00010942,-0.00030813,-0.00002834,-0.00002442,-0.000035
 08,-0.01912945,0.00737117,0.00591999,0.00080565,0.00034542,-0.00161944
 ,0.00003152,-0.00024004,0.00004016,-0.00000841,0.00005023,-0.00003982,
 -0.00001277,0.00000583,0.00002756,-0.00003118,-0.00001753,-0.00001323,
 0.00007639,0.00000111,0.00001002,-0.00013081,0.00002327,-0.00006106,0.
 00000832,-0.00000094,0.00000799,0.00000330,0.00000401,-0.00000147,0.00
 000050,0.00000187,-0.00000460,0.00002063,-0.00000446,0.00000578,-0.000
 01278,-0.00000118,-0.00000677,0.00000262,0.00000137,-0.00000332,0.0000
 0474,0.00000246,0.00000153,-0.00000020,0.00000480,-0.00000773,-0.00000
 513,-0.00000678,0.00000576,0.00000115,0.00000186,-0.00000180,0.0003794
 8,0.00095473,0.00044498,0.00000035,-0.00000041,0.00000129,0.00000273,-
 0.00000091,0.00000009,-0.00000406,0.00000304,0.00000334,-0.00000228,0.
 00000256,-0.00000260,-0.00000609,-0.00000347,0.00000817,0.00000899,0.0
 0000352,0.00000635,-0.00000146,-0.00000028,-0.00000124,-0.00000036,0.0
 0000128,0.00000007,0.00025862,-0.00059244,0.00010226,-0.00007727,-0.00
 010526,-0.00006705,-0.00172514,-0.00195042,0.00273992,-0.11911487,0.10
 358777,-0.04086633,0.01195238,-0.01077820,0.06902431,-0.03003068,-0.05
 940119,0.01281255,-0.00522100,-0.00357308,-0.00120931,0.00104142,0.001
 37230,-0.00035950,0.00008529,0.00025064,0.00160943,-0.00092626,0.00025
 289,-0.00041690,0.00032298,0.00000359,0.00006378,-0.00004384,0.0000238
 7,0.00008322,-0.00179985,0.00002444,-0.00035385,0.00007712,0.00007079,
 -0.00001268,0.00001488,0.00002147,0.02408426,-0.00822494,-0.00623532,-
 0.00136134,0.00001613,0.00197915,0.00022998,-0.00012552,-0.00031869,-0
 .00004203,0.00003682,-0.00013205,-0.00001367,-0.00002606,0.00000215,0.
 00008318,0.00002272,0.00006596,-0.00014974,0.00001251,-0.00008678,0.00
 020858,-0.00005573,0.00010631,-0.00002140,-0.00000935,0.00000221,0.000
 00677,0.00001197,-0.00002116,-0.00000905,-0.00001054,0.00001877,0.0000
 2793,0.00001468,0.00000823,-0.00002885,-0.00001631,-0.00001517,0.00000
 745,0.00000274,-0.00000252,0.00001494,-0.00000109,0.00002082,-0.000009
 99,-0.00000083,-0.00002385,0.00001600,0.00000025,0.00003327,-0.0000016
 7,-0.00000242,-0.00002945,-0.00230632,0.00070632,0.00332994,0.00000191
 ,-0.00000222,0.00000426,0.00000205,-0.00000128,-0.00000179,-0.00000304
 ,0.00000277,0.00000212,-0.00000694,0.00000336,-0.00000644,-0.00000301,
 0.00001210,0.00001112,-0.00001855,0.00000083,-0.00001822,-0.00000289,0
 .00000442,0.00000426,-0.00000336,0.00000085,-0.00000260,-0.00041966,0.
 00043944,0.00043284,-0.00002410,0.00018550,-0.00002513,0.00127686,0.00
 257266,-0.00336948,-0.06007541,0.03134730,0.07687510,0.00075078,0.0009
 2085,0.00100035,0.00554860,-0.00289596,-0.00163527,-0.28818839,0.11761
 007,0.06035272,-0.00897857,-0.00237495,0.01478569,-0.00238094,-0.00112
 482,-0.00144120,-0.02015057,0.01427302,0.00102960,0.00269107,-0.001089
 90,0.00107370,-0.00029801,0.00012326,0.00016223,0.00055665,-0.00001649
 ,-0.00030530,-0.00006703,0.00004292,0.00010313,0.00001642,0.00003097,-
 0.00001090,-0.00001143,-0.00028238,0.00003452,0.00042514,0.00011763,-0
 .00020183,-0.00159091,-0.00092035,0.00219660,0.00064341,-0.00031948,-0
 .00020881,-0.00007677,0.00014848,-0.00009175,0.00001282,-0.00001848,-0
 .00005944,0.00004400,-0.00004029,0.00003830,-0.00005264,0.00006125,0.0
 0000354,0.00000449,0.00002838,-0.00000358,-0.00000003,-0.00001367,0.00
 000812,0.00000141,0.00000731,-0.00000717,-0.00006345,0.00001477,-0.000
 01096,0.00004010,0.00000787,0.00001478,-0.00000658,-0.00000429,0.00001
 039,0.00001861,-0.00000460,-0.00001081,0.00000764,-0.00001220,0.000009
 89,-0.00000550,0.00000800,-0.00002443,0.00000049,-0.00000260,0.0000179
 5,0.00008935,-0.00012274,-0.00008261,-0.00000126,0.00000273,-0.0000033
 3,-0.00000886,0.00000736,0.00000177,0.00001576,-0.00001224,-0.00001502
 ,0.00000943,-0.00000663,0.00001545,0.00004363,-0.00002454,-0.00004469,
 0.00000118,-0.00001058,0.00001032,0.00000537,-0.00000505,-0.00000282,0
 .00000385,-0.00000225,0.00000274,-0.00014146,-0.00022967,0.00001644,-0
 .00001252,0.00000526,0.00000484,0.00061405,-0.00015603,-0.00024607,0.0
 0040106,-0.00173209,-0.00098945,0.31036744,-0.00155829,0.00255322,0.00
 132059,0.02908955,-0.01726295,-0.00649719,0.11821815,-0.09792148,-0.03
 519605,-0.02087110,0.00707324,0.01543200,-0.00356068,-0.00117162,0.000
 88085,0.00097841,0.00081575,-0.00182159,0.00017893,0.00144005,0.000791
 01,-0.00015609,-0.00000998,0.00019027,0.00005333,-0.00006686,-0.000263
 06,-0.00022040,-0.00001447,0.00016932,0.00004233,0.00001504,-0.0000069
 1,0.00232927,0.00075392,-0.00146616,-0.00065927,0.00003651,0.00030012,
 0.00126850,-0.00030144,0.00013303,-0.00020878,0.00004655,-0.00021328,-
 0.00003205,-0.00001483,0.00006661,0.00003485,0.00000426,0.00002506,-0.
 00004173,0.00003373,-0.00005269,0.00005576,-0.00007691,0.00002821,-0.0
 0000943,-0.00000233,0.00000553,0.00000763,0.00000644,-0.00001516,-0.00
 000587,-0.00000631,0.00001021,0.00000424,0.00002555,-0.00000248,-0.000
 01564,-0.00002329,-0.00000378,0.00000592,0.00000399,-0.00000169,0.0000
 0667,0.00002187,0.00002400,-0.00000719,-0.00001295,-0.00002208,0.00000
 956,0.00000410,0.00002410,-0.00000093,-0.00000347,-0.00001935,0.000017
 05,0.00006987,0.00032958,0.00000095,-0.00000026,0.00000248,0.00000139,
 0.00000936,-0.00000361,0.00000473,0.00000052,-0.00000532,-0.00000589,-
 0.00000624,-0.00000627,-0.00000881,0.00002652,0.00001275,-0.00000707,0
 .00000264,-0.00000729,-0.00000101,0.00000318,0.00000318,-0.00000190,-0
 .00000030,-0.00000188,-0.00031507,0.00017668,0.00020197,-0.00001438,0.
 00000846,-0.00000385,-0.00098668,-0.00021378,0.00071723,-0.00095216,-0
 .00493801,-0.00230858,-0.12225171,0.10858435,-0.00009976,0.00142143,0.
 00133447,0.01181307,-0.00891439,-0.00226636,0.06035554,-0.03331054,-0.
 05608974,0.02446891,-0.00175771,-0.01775937,0.00465669,0.00128608,-0.0
 0093856,-0.02704298,0.01451654,0.00377140,0.00275476,-0.00011328,0.001
 71803,-0.00021047,-0.00015953,-0.00020801,-0.00015440,-0.00005541,-0.0
 0001227,-0.00008004,-0.00004303,0.00001969,0.00000069,-0.00000720,-0.0
 0000172,0.00021075,0.00148033,-0.00015434,0.00027335,-0.00009786,-0.00
 036311,-0.00276285,0.00037168,0.00177696,0.00048680,-0.00025104,0.0000
 0540,-0.00000718,0.00004032,-0.00002652,0.00000849,-0.00000167,-0.0000
 0994,0.00000552,-0.00001809,-0.00000645,-0.00001112,0.00003537,0.00000
 912,0.00000185,0.00001398,0.00000098,-0.00000421,-0.00000340,-0.000001
 35,0.00000273,0.00000014,0.00000029,-0.00002338,0.00001276,0.00000177,
 0.00000609,-0.00000458,0.00000962,0.00000266,0.00000151,0.00000437,0.0
 0001787,-0.00000524,0.00000296,-0.00000323,-0.00001159,-0.00000175,0.0
 0000269,0.00000797,-0.00000394,-0.00000121,-0.00000171,0.00000316,0.00
 014732,0.00029050,0.00013905,-0.00000013,0.00000090,-0.00000103,-0.000
 01024,0.00001606,-0.00000083,0.00001060,-0.00000872,-0.00001183,0.0000
 0322,-0.00000129,0.00001164,0.00004028,-0.00001626,-0.00004231,-0.0000
 0656,-0.00000739,0.00000406,0.00000226,-0.00000145,-0.00000198,0.00000
 090,-0.00000103,0.00000102,-0.00004549,0.00015022,0.00005378,-0.000012
 98,-0.00000599,-0.00002003,-0.00033505,0.00031090,0.00040069,-0.000257
 40,-0.00205067,-0.00071539,-0.07160293,0.02659666,0.07414875,0.0007168
 5,-0.00033366,-0.00010476,-0.00082431,0.00203605,0.00104121,-0.0216696
 9,0.00843417,0.00442252,0.00288916,-0.00093854,-0.00010607,-0.00003040
 ,0.00030521,-0.00028363,-0.27234044,0.12490587,0.06263469,0.01384622,-
 0.00827953,-0.00474593,0.00115413,0.00031518,0.00024934,-0.00014388,0.
 00001106,0.00009704,0.00009020,0.00001561,-0.00005203,-0.00002822,-0.0
 0001472,0.00000218,-0.00059725,-0.00024394,-0.00017051,0.00249853,0.00
 014654,-0.00114861,-0.01675449,0.00828078,0.00476195,0.00117129,-0.000
 59547,0.00027337,0.00002019,0.00011167,0.00006664,0.00007641,0.0000488
 2,-0.00004638,0.00005079,-0.00017211,-0.00006240,-0.00014399,0.0001734
 4,0.00018967,0.00001847,0.00002833,-0.00001586,-0.00002401,-0.00003940
 ,0.00001833,0.00000633,0.00001411,-0.00000709,-0.00005660,-0.00002380,
 -0.00001474,0.00004261,0.00002422,0.00002772,-0.00000952,-0.00000180,0
 .00000088,0.00003660,-0.00007208,-0.00003790,-0.00001458,-0.00001939,0
 .00006163,0.00000515,0.00003966,-0.00005424,-0.00000530,-0.00000744,0.
 00003734,-0.00006484,0.00001588,-0.00013235,-0.00000196,0.00000512,-0.
 00000708,0.00000628,0.00000578,-0.00000301,0.00000172,-0.00000843,-0.0
 0000099,0.00002350,0.00001307,0.00004315,0.00017086,-0.00011805,-0.000
 09277,-0.00000729,-0.00002705,0.00002929,0.00000923,-0.00000906,-0.000
 00366,0.00000532,-0.00000489,0.00000320,0.00005028,-0.00010234,-0.0000
 5458,0.00003173,-0.00000398,-0.00001640,0.00029902,0.00014271,-0.00004
 321,0.00056548,-0.00113745,-0.00063038,-0.00149826,-0.00013688,-0.0031
 8450,0.29108239,-0.00019459,0.00006135,0.00021378,-0.00080986,-0.00040
 473,-0.00062557,0.00508797,0.00103334,-0.00027328,-0.00096909,0.000413
 44,-0.00045527,0.00031954,-0.00004796,0.00018556,0.12579236,-0.1048702
 7,-0.02873379,0.01809762,-0.03821350,-0.01821148,0.00131124,0.00039778
 ,-0.00088555,-0.00001173,0.00002048,-0.00003889,0.00000019,-0.00000773
 ,0.00000702,0.00000468,0.00000270,0.00000108,-0.00022383,0.00008308,-0
 .00015613,0.00044495,0.00219739,0.00073762,-0.01708814,0.00741331,0.00
 486596,0.00111734,0.00010006,-0.00068718,-0.00013903,0.00027047,-0.000
 02554,-0.00002501,-0.00001458,-0.00016168,0.00001179,-0.00014341,0.000
 13966,-0.00001418,0.00023531,0.00005185,0.00001103,0.00000557,-0.00000
 166,-0.00000204,0.00001230,0.00002585,0.00001800,0.00000637,-0.0000218
 5,0.00002037,-0.00003934,0.00010974,-0.00001638,0.00006772,-0.00010879
 ,-0.00000381,-0.00001865,0.00000251,0.00002860,-0.00015159,-0.00004672
 ,0.00003207,0.00009138,-0.00000635,-0.00003336,-0.00005957,-0.00001286
 ,0.00000991,0.00002172,0.00000983,0.00006468,0.00003899,0.00005495,-0.
 00000114,-0.00000646,0.00000235,0.00008785,-0.00010318,0.00003739,-0.0
 0007904,0.00001988,0.00006403,0.00001862,0.00004994,0.00001854,0.00008
 534,-0.00013109,0.00009592,0.00001245,-0.00000940,0.00001121,0.0000004
 6,-0.00000277,-0.00000352,-0.00000010,0.00000797,0.00000114,-0.0000136
 3,-0.00002498,-0.00000814,0.00000532,-0.00000408,0.00000349,0.00011158
 ,-0.00010226,0.00000427,-0.00041572,0.00045281,-0.00018847,0.00008215,
 0.00032851,0.00027234,-0.13088806,0.13321386,0.00051331,-0.00006733,-0
 .00015332,-0.00091756,0.00147182,0.00120185,-0.02956034,0.01268083,0.0
 0364041,0.00170751,-0.00149842,0.00254130,-0.00006362,0.00000940,-0.00
 005884,0.06351836,-0.02829380,-0.06147866,0.00689345,-0.01643252,-0.00
 218829,-0.00019771,0.00054212,-0.00003894,0.00001868,-0.00001058,0.000
 07460,-0.00003345,-0.00003324,0.00000044,0.00000793,0.00000176,0.00000
 628,-0.00023991,0.00010819,-0.00025673,-0.00292657,-0.00106613,0.00131
 779,0.02830955,-0.01154027,-0.00664105,-0.00183028,0.00006406,0.001507
 77,0.00030669,-0.00054559,-0.00023401,-0.00011221,-0.00001326,0.000217
 02,-0.00003450,0.00022073,-0.00001703,0.00010316,-0.00026618,-0.000168
 20,-0.00002643,-0.00005432,-0.00000286,0.00000657,0.00002222,-0.000006
 75,-0.00001036,-0.00001261,0.00001413,0.00008895,0.00001300,0.00000879
 ,-0.00006906,0.00000015,-0.00004758,0.00001644,-0.00000601,-0.00002338
 ,-0.00009240,0.00007718,0.00001391,0.00000047,0.00003418,-0.00002350,0
 .00000961,-0.00002991,0.00004153,0.00000029,0.00000634,-0.00003228,0.0
 0000767,-0.00007970,-0.00008260,0.00000314,-0.00000570,0.00000520,0.00
 005421,-0.00008246,-0.00001267,-0.00004875,0.00002290,0.00004734,-0.00
 004463,0.00000250,-0.00007962,-0.00028886,0.00020371,-0.00007036,0.000
 00251,0.00004476,-0.00003025,-0.00001055,0.00001009,0.00000407,-0.0000
 0648,0.00000493,-0.00000362,-0.00000612,-0.00000366,0.00001687,0.00000
 344,0.00001940,0.00000106,0.00007538,-0.00007049,-0.00018571,0.0002335
 8,-0.00048114,-0.00036727,-0.00324837,0.00018242,-0.00445997,-0.064510
 87,0.04178671,0.06856931,0.00010669,0.00005065,0.00007362,-0.00009478,
 0.00010118,-0.00011945,-0.00067300,0.00063903,-0.00152359,0.00044643,-
 0.00049319,-0.00016177,0.00013099,0.00005870,-0.00007577,-0.01793898,0
 .00873245,0.00754901,0.00135519,-0.00052989,-0.00093150,0.00013857,-0.
 00009377,-0.00012611,0.00047147,-0.00013120,0.00000560,0.00001725,-0.0
 0002938,0.00001625,-0.00001653,0.00000592,0.00000044,0.00227591,-0.000
 89316,0.00097952,0.01036812,-0.00290898,-0.00260822,-0.29857027,0.1096
 7446,0.04535736,-0.01695545,0.01078577,-0.01076293,-0.00100794,0.00009
 684,0.00643745,0.00061554,-0.00001069,-0.00037463,-0.00001852,-0.00066
 779,-0.00000384,-0.00034563,0.00004637,0.00050876,0.00006044,0.0001207
 0,0.00006950,0.00006423,0.00002055,-0.00006951,-0.00001563,0.00000734,
 -0.00002570,-0.00023659,0.00007630,-0.00004833,0.00008415,-0.00005376,
 0.00001078,-0.00000399,0.00000665,0.00004228,0.00069456,-0.00066898,0.
 00022716,-0.00000815,-0.00007610,-0.00014610,-0.00003614,0.00000427,0.
 00001947,0.00001411,-0.00000636,-0.00001703,-0.00000417,0.00002418,-0.
 00000500,-0.00000215,0.00000567,0.00000235,-0.00000328,0.00010162,-0.0
 0002616,0.00007931,-0.00008639,-0.00007655,0.00026578,0.00011582,0.000
 46927,0.00236520,-0.00115034,0.00107725,-0.00014620,-0.00023545,0.0001
 7686,0.00003048,-0.00001618,-0.00001573,0.00001526,-0.00000350,0.00000
 388,-0.00012152,-0.00013871,-0.00011886,-0.00005170,0.00006331,0.00004
 798,0.00025522,0.00056138,0.00121984,-0.00008602,-0.00019991,-0.000213
 77,0.00122045,-0.00027822,0.00058307,-0.00065373,-0.00184738,0.0023981
 3,0.31591500,0.00016871,0.00026662,-0.00022127,-0.00073083,-0.00053215
 ,-0.00004495,-0.00111060,0.00064123,-0.00052042,0.00045297,-0.00028712
 ,0.00021810,-0.00008050,0.00000114,-0.00011298,-0.01812268,0.01039841,
 0.00680210,0.00175619,0.00145507,-0.00087137,0.00033030,0.00020026,-0.
 00001915,-0.00040883,0.00011172,0.00004072,-0.00010504,-0.00006150,-0.
 00001780,0.00000569,0.00004230,-0.00001407,0.00389516,0.00040211,0.003
 67355,0.02536322,-0.03366453,-0.01776133,0.10375952,-0.09076249,-0.015
 51872,0.00905455,0.00026470,0.00475342,0.00025860,0.00093221,-0.002395
 73,0.00036299,-0.00010166,0.00062509,-0.00038318,0.00076954,-0.0004795
 7,0.00073304,-0.00226349,-0.00021882,-0.00009271,-0.00001947,-0.000013
 69,0.00002493,0.00002302,-0.00007275,-0.00005119,-0.00004617,0.0000591
 7,0.00004397,0.00007760,-0.00007533,-0.00003697,-0.00004847,0.00000926
 ,0.00001307,0.00000542,-0.00000511,-0.00038390,0.00029600,-0.00009854,
 -0.00001421,-0.00000750,0.00003792,0.00007059,0.00004052,0.00005090,-0
 .00001412,-0.00001831,-0.00006350,-0.00003759,0.00000165,-0.00004627,0
 .00000547,-0.00000356,0.00000374,-0.00002177,-0.00005142,0.00003444,-0
 .00002819,-0.00002030,-0.00000929,-0.00011982,-0.00008138,-0.00018920,
 -0.00037146,0.00110704,-0.00034116,-0.00003355,0.00007522,-0.00015349,
 -0.00001516,0.00002144,0.00002685,-0.00001207,-0.00000280,-0.00000640,
 -0.00008083,0.00025590,0.00017634,-0.00017722,-0.00018274,-0.00002342,
 -0.00142752,0.00048865,-0.00064472,0.00005432,-0.00008142,0.00010750,0
 .00018171,0.00000315,0.00002337,-0.00189523,-0.00219017,0.00306392,-0.
 12077984,0.11254572,-0.00007263,0.00004426,-0.00013093,-0.00012435,-0.
 00006668,-0.00023841,0.00242145,-0.00050192,0.00003268,-0.00062289,0.0
 0010830,0.00032909,-0.00005122,-0.00006131,0.00010585,0.02262447,-0.00
 605593,-0.00385775,-0.00079971,0.00057587,0.00027299,-0.00005569,0.000
 10049,0.00007643,-0.00011250,-0.00009258,0.00005275,-0.00003394,0.0000
 4565,-0.00003256,0.00000987,0.00001179,-0.00001554,0.00260342,-0.00111
 274,0.00187325,0.00838469,-0.01387150,-0.00323997,0.05328338,-0.021059
 86,-0.04918676,-0.02948568,0.01494419,-0.01728063,-0.00982245,0.004903
 56,-0.00232603,0.00010024,0.00016250,-0.00065843,0.00012962,-0.0002477
 1,0.00030582,0.00026650,0.00059817,0.00001946,0.00001510,0.00009983,0.
 00000181,0.00003466,-0.00000758,0.00003344,0.00001911,0.00002289,-0.00
 002893,-0.00006301,0.00002097,0.00013921,0.00003129,-0.00002212,-0.000
 06718,0.00001445,0.00001536,0.00002312,-0.00026223,-0.00000849,-0.0003
 5765,0.00024935,-0.00001025,-0.00023320,-0.00012749,-0.00013503,0.0000
 2482,0.00003874,0.00002156,-0.00001005,-0.00001231,-0.00000201,-0.0000
 1142,-0.00000438,-0.00000160,0.00000966,0.00005646,0.00007171,-0.00007
 507,-0.00000716,-0.00009493,-0.00002405,0.00034026,-0.00021663,0.00000
 595,0.00088142,-0.00093825,-0.00322919,0.00005113,-0.00025195,0.000066
 16,0.00005322,-0.00003783,-0.00003537,0.00001284,0.00000767,0.00001642
 ,-0.00010332,0.00013222,0.00003887,-0.00004853,-0.00004234,-0.00000983
 ,-0.00075246,0.00017287,-0.00000045,-0.00015784,0.00012575,0.00020732,
 -0.00064636,0.00047112,-0.00032039,0.00156977,0.00194994,-0.00256626,-
 0.04982528,0.02023261,0.08030094\\0.00865183,-0.00340647,-0.01907997,-
 0.00368722,-0.00013563,-0.01065151,-0.00561221,0.00168180,0.03695650,-
 0.01403201,-0.00687339,0.01150295,0.01125909,-0.00785522,-0.03234344,-
 0.02819006,-0.01394390,-0.00307602,0.00103394,-0.00783832,0.01088245,0
 .01649714,0.02094359,-0.01556884,0.00528892,0.02370531,0.01211952,0.00
 344466,0.00696255,-0.00654736,-0.00178284,-0.03324927,-0.00789471,0.01
 061051,0.04814877,-0.00983120,-0.00197651,-0.01976334,0.01251421,-0.00
 893847,0.02007443,-0.01714222,0.00604358,-0.02527503,0.03196976,-0.008
 90649,0.01404341,-0.01954991,0.01807089,-0.02457196,0.00428616,-0.0133
 3534,-0.00158951,0.02005489,0.01023225,0.01236173,-0.02245090,0.026632
 30,0.03076134,-0.01939633,0.01214281,0.00629102,0.01931511,-0.01747550
 ,-0.00637195,-0.02114299,-0.01685477,0.01127404,-0.02822093,-0.0117504
 1,-0.00692774,-0.01337148,0.03103935,-0.00309529,0.01978464,-0.0165486
 5,0.00238027,-0.01064653,0.00689586,-0.01415867,0.00331664,0.00003526,
 -0.01384622,-0.00502771,0.00589193,0.00024017,0.03970442,-0.00180208,0
 .00151428,0.00257705,-0.00737744,-0.00103729,-0.00021151,-0.00446249,0
 .00384924,0.01624501,0.00814785,-0.01778325,-0.00236162,-0.02017295,0.
 01601360,-0.00182049,0.01409119,-0.00987434,0.00336758,-0.01309459,0.0
 1361814,-0.00103232,0.01176942,-0.01705908,0.00219232,-0.01785108,0.01
 407296,-0.00364150,-0.01982694,0.00286579,0.00808100,0.01029157,-0.003
 42300,0.01711509,0.01942748,-0.00984233,-0.00515687,-0.01952846,0.0084
 2547,0.00213075,0.01663950,-0.01340547,-0.00037334,-0.01795141,0.01192
 997,0.00408462,0.01702059,-0.00983120,-0.00166096\\\@


 THE MOST INCOMPREHENSIBLE THING ABOUT THE WORLD
 IS THAT IT IS COMPREHENSIBLE. -- A. EINSTEIN
 Job cpu time:  0 days 12 hours 57 minutes 32.3 seconds.
 File lengths (MBytes):  RWF=   1324 Int=      0 D2E=      0 Chk=     19 Scr=      1
 Normal termination of Gaussian 09 at Tue Mar  1 16:24:01 2016.
Gaussian '09 finished on node017 at Tue Mar  1 16:24:01 EST 2016.
