Gaussian '09 started on node030 at Thu Jan 21 05:02:25 EST 2016.
 Entering Gaussian System, Link 0=/usr/local/gaussian/g09/g09
 Initial command:
 /usr/local/gaussian/g09/l1.exe /home/srmcgrat/thesis/gaussian/cellobiose/450/5000/gaussian27775/Gau-27811.inp -scrdir=/home/srmcgrat/thesis/gaussian/cellobiose/450/5000/gaussian27775/
 Entering Link 1 = /usr/local/gaussian/g09/l1.exe PID=     27813.
  
 Copyright (c) 1988,1990,1992,1993,1995,1998,2003,2009,2010,
            Gaussian, Inc.  All Rights Reserved.
  
 This is part of the Gaussian(R) 09 program.  It is based on
 the Gaussian(R) 03 system (copyright 2003, Gaussian, Inc.),
 the Gaussian(R) 98 system (copyright 1998, Gaussian, Inc.),
 the Gaussian(R) 94 system (copyright 1995, Gaussian, Inc.),
 the Gaussian 92(TM) system (copyright 1992, Gaussian, Inc.),
 the Gaussian 90(TM) system (copyright 1990, Gaussian, Inc.),
 the Gaussian 88(TM) system (copyright 1988, Gaussian, Inc.),
 the Gaussian 86(TM) system (copyright 1986, Carnegie Mellon
 University), and the Gaussian 82(TM) system (copyright 1983,
 Carnegie Mellon University). Gaussian is a federally registered
 trademark of Gaussian, Inc.
  
 This software contains proprietary and confidential information,
 including trade secrets, belonging to Gaussian, Inc.
  
 This software is provided under written license and may be
 used, copied, transmitted, or stored only in accord with that
 written license.
  
 The following legend is applicable only to US Government
 contracts under FAR:
  
                    RESTRICTED RIGHTS LEGEND
  
 Use, reproduction and disclosure by the US Government is
 subject to restrictions as set forth in subparagraphs (a)
 and (c) of the Commercial Computer Software - Restricted
 Rights clause in FAR 52.227-19.
  
 Gaussian, Inc.
 340 Quinnipiac St., Bldg. 40, Wallingford CT 06492
  
  
 ---------------------------------------------------------------
 Warning -- This program may not be used in any manner that
 competes with the business of Gaussian, Inc. or will provide
 assistance to any competitor of Gaussian, Inc.  The licensee
 of this program is prohibited from giving any competitor of
 Gaussian, Inc. access to this program.  By using this program,
 the user acknowledges that Gaussian, Inc. is engaged in the
 business of creating and licensing software in the field of
 computational chemistry and represents and warrants to the
 licensee that it is not a competitor of Gaussian, Inc. and that
 it will not use this program in any manner prohibited above.
 ---------------------------------------------------------------
  

 Cite this work as:
 Gaussian 09, Revision B.01,
 M. J. Frisch, G. W. Trucks, H. B. Schlegel, G. E. Scuseria, 
 M. A. Robb, J. R. Cheeseman, G. Scalmani, V. Barone, B. Mennucci, 
 G. A. Petersson, H. Nakatsuji, M. Caricato, X. Li, H. P. Hratchian, 
 A. F. Izmaylov, J. Bloino, G. Zheng, J. L. Sonnenberg, M. Hada, 
 M. Ehara, K. Toyota, R. Fukuda, J. Hasegawa, M. Ishida, T. Nakajima, 
 Y. Honda, O. Kitao, H. Nakai, T. Vreven, J. A. Montgomery, Jr., 
 J. E. Peralta, F. Ogliaro, M. Bearpark, J. J. Heyd, E. Brothers, 
 K. N. Kudin, V. N. Staroverov, T. Keith, R. Kobayashi, J. Normand, 
 K. Raghavachari, A. Rendell, J. C. Burant, S. S. Iyengar, J. Tomasi, 
 M. Cossi, N. Rega, J. M. Millam, M. Klene, J. E. Knox, J. B. Cross, 
 V. Bakken, C. Adamo, J. Jaramillo, R. Gomperts, R. E. Stratmann, 
 O. Yazyev, A. J. Austin, R. Cammi, C. Pomelli, J. W. Ochterski, 
 R. L. Martin, K. Morokuma, V. G. Zakrzewski, G. A. Voth, 
 P. Salvador, J. J. Dannenberg, S. Dapprich, A. D. Daniels, 
 O. Farkas, J. B. Foresman, J. V. Ortiz, J. Cioslowski, 
 and D. J. Fox, Gaussian, Inc., Wallingford CT, 2010.
 
 ******************************************
 Gaussian 09:  EM64L-G09RevB.01 12-Aug-2010
                21-Jan-2016 
 ******************************************
 ------------------------------------------------
 # freq=raman b3lyp/6-31+g(d,p) geom=connectivity
 ------------------------------------------------
 1/10=4,30=1,38=1,57=2/1,3;
 2/12=2,17=6,18=5,40=1/2;
 3/5=1,6=6,7=111,11=2,16=1,25=1,30=1,71=2,74=-5/1,2,3;
 4//1;
 5/5=2,38=5,98=1/2;
 8/6=4,10=90,11=11/1;
 10/13=10,15=4/2;
 11/6=3,8=1,9=11,15=111,16=1/1,2,10;
 10/6=1/2;
 6/7=2,8=2,9=2,10=2,18=1,28=1/1;
 7/8=1,10=1,25=1/1,2,3,16;
 1/10=4,30=1/3;
 99//99;
 ------------
 450 5000.com
 ------------
 Symbolic Z-matrix:
 Charge =  0 Multiplicity = 1
 O                     10.111    7.42      11.275 
 C                     10.893    7.413     12.479 
 C                     10.898    8.867     12.92 
 O                     11.6      9.828     12.118 
 H                     11.304    10.016    11.182 
 C                     11.368    9.184     14.331 
 O                     11.281    10.528    14.827 
 H                     11.901    10.99     14.193 
 C                     10.264    5.058     13.179 
 O                     9.805     4.079     14.122 
 H                     9.599     3.304     13.526 
 C                     10.262    6.533     13.546 
 O                     10.838    6.913     14.805 
 C                     10.567    8.256     15.23 
 O                     11.309    8.181     16.455 
 C                     10.593    8.25      17.697 
 C                     10.344    6.802     18.085 
 O                     9.826     5.886     17.109 
 H                     10.178    6.194     16.225 
 C                     9.409     6.808     19.283 
 O                     8.837     5.611     19.831 
 H                     8.459     5.158     19.024 
 C                     11.997    10.187    18.415 
 O                     12.668    10.896    19.467 
 H                     13.578    10.485    19.522 
 C                     11.386    8.862     18.84 
 O                     10.457    8.857     19.934 
 C                     10.127    7.541     20.404 
 O                     9.383     7.634     21.627 
 H                     9.99089   7.69034   22.36787 
 H                     11.03958   7.02152   20.60954 
 H                     8.57998   7.42318   19.0016 
 H                     11.28044   6.40437   18.41645 
 H                     9.66471   8.76583   17.56625 
 H                     12.18641   8.19516   19.08406 
 H                     11.21774   10.81095   18.02985 
 H                     10.69575   7.42443   10.51365 
 H                     11.26923   4.79895   12.91958 
 H                     9.66647   4.95149   12.2978 
 H                     9.23188   6.81803   13.59612 
 H                     11.89035   7.08626   12.27057 
 H                     9.87097   9.16544   12.88771 
 H                     12.39458   8.88955   14.39681 
 H                     9.53065   8.49664   15.34393 
 H                     12.70064   9.99923   17.63108 
 

 GradGradGradGradGradGradGradGradGradGradGradGradGradGradGradGradGradGrad
 Berny optimization.
 Initialization pass.
 Trust Radius=3.00D-01 FncErr=1.00D-07 GrdErr=1.00D-07
 Number of steps in this run=      2 maximum allowed number of steps=      2.
 GradGradGradGradGradGradGradGradGradGradGradGradGradGradGradGradGradGrad

                          Input orientation:                          
 ---------------------------------------------------------------------
 Center     Atomic      Atomic             Coordinates (Angstroms)
 Number     Number       Type             X           Y           Z
 ---------------------------------------------------------------------
      1          8           0       10.111000    7.420000   11.275000
      2          6           0       10.893000    7.413000   12.479000
      3          6           0       10.898000    8.867000   12.920000
      4          8           0       11.600000    9.828000   12.118000
      5          1           0       11.304000   10.016000   11.182000
      6          6           0       11.368000    9.184000   14.331000
      7          8           0       11.281000   10.528000   14.827000
      8          1           0       11.901000   10.990000   14.193000
      9          6           0       10.264000    5.058000   13.179000
     10          8           0        9.805000    4.079000   14.122000
     11          1           0        9.599000    3.304000   13.526000
     12          6           0       10.262000    6.533000   13.546000
     13          8           0       10.838000    6.913000   14.805000
     14          6           0       10.567000    8.256000   15.230000
     15          8           0       11.309000    8.181000   16.455000
     16          6           0       10.593000    8.250000   17.697000
     17          6           0       10.344000    6.802000   18.085000
     18          8           0        9.826000    5.886000   17.109000
     19          1           0       10.178000    6.194000   16.225000
     20          6           0        9.409000    6.808000   19.283000
     21          8           0        8.837000    5.611000   19.831000
     22          1           0        8.459000    5.158000   19.024000
     23          6           0       11.997000   10.187000   18.415000
     24          8           0       12.668000   10.896000   19.467000
     25          1           0       13.578000   10.485000   19.522000
     26          6           0       11.386000    8.862000   18.840000
     27          8           0       10.457000    8.857000   19.934000
     28          6           0       10.127000    7.541000   20.404000
     29          8           0        9.383000    7.634000   21.627000
     30          1           0        9.990893    7.690338   22.367872
     31          1           0       11.039576    7.021523   20.609543
     32          1           0        8.579983    7.423177   19.001597
     33          1           0       11.280445    6.404365   18.416448
     34          1           0        9.664711    8.765833   17.566248
     35          1           0       12.186412    8.195159   19.084055
     36          1           0       11.217742   10.810954   18.029852
     37          1           0       10.695749    7.424426   10.513653
     38          1           0       11.269234    4.798951   12.919583
     39          1           0        9.666468    4.951485   12.297802
     40          1           0        9.231880    6.818026   13.596119
     41          1           0       11.890347    7.086261   12.270575
     42          1           0        9.870970    9.165442   12.887708
     43          1           0       12.394582    8.889554   14.396805
     44          1           0        9.530654    8.496641   15.343928
     45          1           0       12.700638    9.999234   17.631075
 ---------------------------------------------------------------------
                    Distance matrix (angstroms):
                    1          2          3          4          5
     1  O    0.000000
     2  C    1.435684   0.000000
     3  C    2.327918   1.519415   0.000000
     4  O    2.954020   2.542124   1.435106   0.000000
     5  H    2.858516   2.937131   2.122659   0.999528   0.000000
     6  C    3.745782   2.606141   1.520628   2.316447   3.257686
     7  O    4.862640   3.920060   2.557784   2.816104   3.680856
     8  H    4.946082   4.092528   2.670893   2.397180   3.220436
     9  C    3.037708   2.536073   3.870080   5.065917   5.445307
    10  O    4.400151   3.872822   5.056125   6.347365   6.792538
    11  H    4.719174   4.433343   5.744702   6.967714   7.311108
    12  C    2.442747   1.520214   2.498785   3.832291   4.336537
    13  O    3.639571   2.379769   2.715684   4.037058   4.792900
    14  C    4.068029   2.895674   2.412257   3.636319   4.475162
    15  O    5.370915   4.070805   3.624326   4.648318   5.583169
    16  C    6.493328   5.293212   4.826328   5.884673   6.787452
    17  C    6.841952   5.665859   5.590024   6.807298   7.674816
    18  O    6.039034   4.990703   5.251977   6.602766   7.373650
    19  H    5.100006   4.003711   4.311189   5.665288   6.427084
    20  C    8.061973   6.990186   6.851596   8.078249   8.916753
    21  O    8.837460   7.843867   7.912723   9.214533  10.014755
    22  H    8.239706   7.338011   7.547464   8.908850   9.653556
    23  C    7.886247   6.644546   5.757189   6.319707   7.268134
    24  O    9.259033   8.007125   7.079050   7.502603   8.442519
    25  H    9.456602   8.139426   7.306622   7.691772   8.657173
    26  C    7.806037   6.542551   5.940082   6.794427   7.744895
    27  O    8.784245   7.606067   7.027857   7.958589   8.868945
    28  C    9.129816   7.962962   7.639566   8.721118   9.620615
    29  O   10.379773   9.274419   8.923417  10.007487  10.884034
    30  H   11.096816   9.933806   9.563978  10.593333  11.500291
    31  H    9.389075   8.141281   7.909165   8.960842   9.895220
    32  H    7.876822   6.920580   6.666607   7.892249   8.676929
    33  H    7.307489   6.034960   6.035045   7.175920   8.085895
    34  H    6.449050   5.405455   4.808207   5.878516   6.708860
    35  H    8.117238   6.775798   6.333005   7.178856   8.156996
    36  H    7.638814   6.516403   5.476475   6.005191   6.894380
    37  H    0.960000   1.975254   2.812904   3.027997   2.744615
    38  H    3.303946   2.677483   4.084953   5.103261   5.498909
    39  H    2.708745   2.756133   4.151513   5.248931   5.438367
    40  H    2.553981   2.088366   2.726057   4.105213   4.510953
    41  H    2.066065   1.070000   2.139518   2.761289   3.179964
    42  H    2.388516   2.069454   1.070000   2.005238   2.384631
    43  H    4.137633   2.848322   2.102670   2.589401   3.576762
    44  H    4.248780   3.352324   2.807531   4.057255   4.772301
    45  H    7.332009   6.041526   5.169689   5.624475   6.598594
                    6          7          8          9         10
     6  C    0.000000
     7  O    1.435242   0.000000
     8  H    1.888060   0.999900   0.000000
     9  C    4.423776   5.802680   6.236713   0.000000
    10  O    5.343002   6.653210   7.222200   1.434702   0.000000
    11  H    6.192882   7.530465   8.051005   1.907656   0.999138
    12  C    2.977795   4.317331   4.792680   1.519973   2.561785
    13  O    2.379709   3.642109   4.257516   2.532662   3.092755
    14  C    1.520193   2.415407   3.213982   3.811248   4.388125
    15  O    2.349652   2.856497   3.654804   4.645140   4.952909
    16  C    3.578119   3.728207   4.636430   5.541609   5.549668
    17  C    4.562348   5.037421   5.925475   5.207377   4.838452
    18  O    4.579503   5.373334   6.233739   4.040090   3.491111
    19  H    3.734091   4.685570   5.486289   3.252077   3.005822
    20  C    5.831412   6.099075   7.043244   6.407210   5.851511
    21  O    7.030099   7.429000   8.373099   6.825778   5.989719
    22  H    6.833389   7.376679   8.318542   6.118174   5.196688
    23  C    4.252141   3.674599   4.298757   7.531642   7.780898
    24  O    5.567714   4.856830   5.330310   8.910690   9.123447
    25  H    5.789921   5.226957   5.609420   8.981569   9.188709
    26  C    4.520519   4.346349   5.136946   6.912035   6.901896
    27  O    5.685988   5.436236   6.292369   7.752398   7.552068
    28  C    6.412555   6.430926   7.322513   7.640987   7.180018
    29  O    7.718442   7.630048   8.536241   8.875846   8.315115
    30  H    8.289678   8.159746   9.020245   9.562383   9.003929
    31  H    6.648629   6.766939   7.593608   7.724630   7.229857
    32  H    5.717343   5.861969   6.846458   6.506352   6.041081
    33  H    4.942157   5.467037   6.265033   5.502428   5.101621
    34  H    3.680066   3.636083   4.618085   5.775389   5.817984
    35  H    4.923326   4.938060   5.640480   6.957522   6.872836
    36  H    4.043645   3.215949   3.901324   7.585306   7.911154
    37  H    4.256778   5.345994   5.263415   3.590328   5.000548
    38  H    4.607657   6.038243   6.352150   1.070000   2.026850
    39  H    4.994325   6.332541   6.711823   1.070000   2.026850
    40  H    3.271222   4.413374   4.988571   2.082535   2.847329
    41  H    2.986421   4.330379   4.351438   2.753921   4.101227
    42  H    2.079551   2.757825   3.025528   4.136472   5.234474
    43  H    1.070000   2.027225   2.167264   4.550081   5.470181
    44  H    2.207787   2.730814   3.627673   4.129039   4.591724
    45  H    3.651168   3.187131   3.666251   7.083358   7.466424
                   11         12         13         14         15
    11  H    0.000000
    12  C    3.296424   0.000000
    13  O    4.024406   1.435708   0.000000
    14  C    5.325687   2.428500   1.434474   0.000000
    15  O    5.940393   3.503483   2.133580   1.434160   0.000000
    16  C    6.545853   4.504270   3.195506   2.467144   1.435263
    17  C    5.794438   4.547703   3.318849   3.211677   2.343025
    18  O    4.422233   3.647420   2.717957   3.113940   2.809632
    19  H    3.996491   2.701669   1.723067   2.322324   2.297875
    20  C    6.742193   5.806583   4.701654   4.456958   3.673243
    21  O    6.756916   6.510141   5.564160   5.581946   4.910505
    22  H    5.913114   5.928737   5.151663   5.332514   4.884751
    23  C    8.776583   6.330016   5.009437   3.989723   2.887729
    24  O   10.116951   7.738401   6.399018   5.416269   4.276710
    25  H   10.166180   7.894728   6.520496   5.697001   4.456822
    26  C    7.894513   5.891863   4.514436   3.751013   2.481515
    27  O    8.522584   6.800408   5.498267   4.743513   3.645041
    28  C    8.095544   6.932997   5.678794   5.241670   4.171490
    29  O    9.188131   8.202890   7.012599   6.535316   5.546014
    30  H    9.877867   8.901593   7.649764   7.183390   6.077846
    31  H    8.128457   7.122985   5.809055   5.539561   4.321713
    32  H    6.927350   5.777987   4.792739   4.343590   3.808804
    33  H    6.029594   4.977453   3.673829   3.753798   2.646606
    34  H    6.794082   4.637315   3.526200   2.555799   2.068958
    35  H    7.842839   6.093947   4.666097   4.180902   2.771639
    36  H    8.902773   6.270507   5.073255   3.845832   3.066781
    37  H    5.220633   3.190283   4.324055   4.790827   6.020638
    38  H    2.322133   2.100915   2.865304   4.216912   4.892751
    39  H    2.056023   2.100915   3.392060   4.508720   5.514524
    40  H    3.533847   1.070000   2.012470   2.553406   3.787522
    41  H    4.596940   2.141103   2.749685   3.446409   4.364153
    42  H    5.902362   2.741533   3.112017   2.607273   3.970217
    43  H    6.306504   3.290155   2.548791   2.106101   2.432427
    44  H    5.502096   2.761032   2.123091   1.070000   2.120524
    45  H    8.443811   5.886388   4.580498   3.654646   2.574059
                   16         17         18         19         20
    16  C    0.000000
    17  C    1.519621   0.000000
    18  O    2.553924   1.435255   0.000000
    19  H    2.562449   1.963879   1.000112   0.000000
    20  C    2.448799   1.519692   2.397968   3.212432   0.000000
    21  O    3.821232   2.595775   2.909129   3.891196   1.435373
    22  H    3.984388   2.671644   2.462904   3.444221   1.921479
    23  C    2.497741   3.781472   4.991741   4.903969   4.343824
    24  O    3.799979   4.906296   6.223924   6.230527   5.231317
    25  H    4.151635   5.107662   6.407096   6.390844   5.563992
    26  C    1.519816   2.428866   3.779754   3.926285   2.885081
    27  O    2.321877   2.766694   4.147967   4.574504   2.391758
    28  C    2.836844   2.443557   3.699547   4.391019   1.519689
    29  O    4.157939   3.763178   4.864574   5.646878   2.485415
    30  H    4.742658   4.388260   5.562244   6.325260   3.260914
    31  H    3.192412   2.627800   3.875045   4.544372   2.112838
    32  H    2.537291   2.082731   2.738137   3.431330   1.070000
    33  H    2.096796   1.070000   2.023248   2.462129   2.101461
    34  H    1.070000   2.141770   2.920365   2.945630   2.616436
    35  H    2.113266   2.516642   3.847675   4.026482   3.110918
    36  H    2.656987   4.103435   5.200008   5.065058   4.567884
    37  H    7.231362   7.605027   6.828017   5.865279   8.884658
    38  H    5.932179   5.616921   4.562436   3.750032   6.927469
    39  H    6.394529   6.113519   4.903712   4.150710   7.232284
    40  H    4.551969   4.624621   3.682660   2.862790   5.689647
    41  H    5.699429   6.023250   5.395601   4.400652   7.443697
    42  H    4.948601   5.729001   5.345658   4.478979   6.831596
    43  H    3.813923   4.708030   4.793219   3.939739   6.092739
    44  H    2.593522   3.323675   3.165147   2.549019   4.287493
    45  H    2.739763   3.997761   5.045274   4.777086   4.873162
                   21         22         23         24         25
    21  O    0.000000
    22  H    0.999671   0.000000
    23  C    5.738504   6.178929   0.000000
    24  O    6.537605   7.129977   1.435140   0.000000
    25  H    6.806500   7.404667   1.952899   1.000023   0.000000
    26  C    4.248351   4.724489   1.519727   2.484715   2.811426
    27  O    3.629260   4.301477   2.539264   3.043704   3.544118
    28  C    2.391094   3.219521   3.801886   4.311691   4.621089
    29  O    2.759757   3.709442   4.864951   5.108568   5.491562
    30  H    3.477188   4.465525   5.087532   5.085099   5.364370
    31  H    2.728927   3.556127   3.968995   4.355312   4.429675
    32  H    2.009466   2.268516   4.433827   5.384142   5.884365
    33  H    2.932714   3.143739   3.849906   4.817027   4.811713
    34  H    3.970791   4.073726   2.860011   4.143695   4.700460
    35  H    4.295855   4.808487   2.109726   2.770039   2.715085
    36  H    5.995964   6.368271   1.070000   2.043496   2.811329
    37  H    9.672457   9.086569   8.470912   9.803266   9.941066
    38  H    7.371762   6.729803   7.730480   9.055342   9.014070
    39  H    7.607368   6.836839   8.382249   9.784879   9.904994
    40  H    6.362906   5.728431   6.497498   7.931206   8.212888
    41  H    8.286094   7.816718   6.883308   8.179694   8.184300
    42  H    7.868447   7.463734   6.009537   7.355630   7.713438
    43  H    7.275698   7.129111   4.241147   5.459621   5.496685
    44  H    5.379767   5.083099   4.286217   5.709604   6.147427
    45  H    6.246916   6.585535   1.070000   2.043496   2.140404
                   26         27         28         29         30
    26  C    0.000000
    27  O    1.435236   0.000000
    28  C    2.403376   1.435847   0.000000
    29  O    3.645183   2.348500   1.434543   0.000000
    30  H    3.970516   2.738995   1.974239   0.960000   0.000000
    31  H    2.576557   2.040767   1.070000   2.038282   2.153781
    32  H    3.157540   2.539373   2.091382   2.753547   3.659761
    33  H    2.496098   2.999407   2.563735   3.926824   4.350911
    34  H    2.143485   2.498456   3.125182   4.224939   4.931397
    35  H    1.070000   2.037476   2.532066   3.826302   3.982286
    36  H    2.117326   2.832392   4.185558   5.137975   5.482866
    37  H    8.477683   9.531642   9.907372  11.192574  11.878133
    38  H    7.181458   8.144295   8.052331   9.349572   9.963155
    39  H    7.813403   8.613333   8.522213   9.711342  10.440923
    40  H    6.026305   6.769569   6.904431   8.073642   8.847637
    41  H    6.823853   7.994879   8.334794   9.702036  10.292145
    42  H    6.149567   7.077344   7.694089   8.885868   9.594990
    43  H    4.556312   5.866499   6.561015   7.932324   8.411525
    44  H    3.974709   4.696460   5.183937   6.343732   7.085036
    45  H    2.117326   3.412048   4.511722   5.706879   5.925450
                   31         32         33         34         35
    31  H    0.000000
    32  H    2.965875   0.000000
    33  H    2.290975   2.944974   0.000000
    34  H    3.767561   2.244903   2.984957   0.000000
    35  H    2.240484   3.689050   2.115046   2.998063   0.000000
    36  H    4.587629   4.402169   4.423959   2.609473   2.981954
    37  H   10.109774   8.747666   7.989778   7.252690   8.733149
    38  H    8.007999   7.149094   5.726518   6.316815   7.097617
    39  H    8.674993   7.227073   6.492581   6.504289   7.932514
    40  H    7.245501   5.478172   5.253884   4.443334   6.383040
    41  H    8.382505   7.508574   6.213591   5.984862   6.909474
    42  H    8.098688   6.487047   6.338542   4.700103   6.685614
    43  H    6.627495   6.156747   4.855408   4.184838   4.742977
    44  H    5.672699   3.928695   4.108498   2.242575   4.597009
    45  H    4.527378   5.049177   3.944215   3.277549   2.372818
                   36         37         38         39         40
    36  H    0.000000
    37  H    8.260405   0.000000
    38  H    7.890607   3.607008   0.000000
    39  H    8.342435   3.218392   1.725902   0.000000
    40  H    6.288490   3.465867   2.947063   2.314837   0.000000
    41  H    6.891663   2.151323   2.457392   3.082798   2.982694
    42  H    5.564454   3.057373   4.585019   4.259958   2.533899
    43  H    4.275016   4.484585   4.492396   5.230373   3.864584
    44  H    3.926384   5.083173   4.751108   4.676052   2.441690
    45  H    1.736920   7.829873   7.161705   7.945423   6.199454
                   41         42         43         44         45
    41  H    0.000000
    42  H    2.963398   0.000000
    43  H    2.833192   2.953321   0.000000
    44  H    4.123448   2.568293   3.041957   0.000000
    45  H    6.154425   5.585853   3.433011   4.187794   0.000000
 Stoichiometry    C12H22O11
 Framework group  C1[X(C12H22O11)]
 Deg. of freedom   129
 Full point group                 C1      NOp   1
 Largest Abelian subgroup         C1      NOp   1
 Largest concise Abelian subgroup C1      NOp   1
                         Standard orientation:                         
 ---------------------------------------------------------------------
 Center     Atomic      Atomic             Coordinates (Angstroms)
 Number     Number       Type             X           Y           Z
 ---------------------------------------------------------------------
      1          8           0        5.029550   -0.303092   -0.661102
      2          6           0        3.863533   -0.044966    0.135744
      3          6           0        3.315736    1.255094   -0.428511
      4          8           0        4.072616    2.460130   -0.242638
      5          1           0        4.978619    2.554961   -0.654004
      6          6           0        1.906101    1.667202   -0.034293
      7          8           0        1.307841    2.826342   -0.632958
      8          1           0        1.931162    3.535702   -0.304202
      9          6           0        3.315511   -2.480249    0.583779
     10          8           0        2.429755   -3.607678    0.635861
     11          1           0        3.072762   -4.366980    0.726847
     12          6           0        2.839576   -1.160297   -0.000629
     13          8           0        1.581149   -0.639228    0.453360
     14          6           0        1.045933    0.446060   -0.316971
     15          8           0       -0.137615    0.624746    0.473029
     16          6           0       -1.410419    0.326925   -0.119636
     17          6           0       -1.699314   -1.111007    0.278034
     18          8           0       -0.680348   -2.108926    0.117342
     19          1           0        0.192241   -1.638247    0.248774
     20          6           0       -2.932821   -1.554897   -0.490659
     21          8           0       -3.413517   -2.907334   -0.478777
     22          1           0       -2.591609   -3.435148   -0.691430
     23          6           0       -2.211212    2.633434    0.407104
     24          8           0       -3.283973    3.503195    0.797395
     25          1           0       -3.269639    3.505711    1.797313
     26          6           0       -2.561445    1.154758    0.427787
     27          8           0       -3.690261    0.708625   -0.338139
     28          6           0       -4.074135   -0.647278   -0.062776
     29          8           0       -5.330985   -0.933994   -0.692090
     30          1           0       -6.047667   -0.667397   -0.111664
     31          1           0       -4.201576   -0.749785    0.994651
     32          1           0       -2.733423   -1.326912   -1.516896
     33          1           0       -1.960291   -1.099307    1.315654
     34          1           0       -1.357885    0.415814   -1.184643
     35          1           0       -2.720982    0.869850    1.446745
     36          1           0       -1.907006    2.895319   -0.584750
     37          1           0        5.812447   -0.017446   -0.184575
     38          1           0        3.635769   -2.284283    1.585744
     39          1           0        4.176186   -2.781015    0.023711
     40          1           0        2.724851   -1.332463   -1.050437
     41          1           0        4.137712    0.083682    1.161988
     42          1           0        3.282246    1.100554   -1.486762
     43          1           0        1.905883    1.823492    1.024231
     44          1           0        0.870688    0.227783   -1.349708
     45          1           0       -1.386441    2.795155    1.069297
 ---------------------------------------------------------------------
 Rotational constants (GHZ):      0.3705327      0.1531758      0.1128390
 Standard basis: 6-31+G(d,p) (6D, 7F)
 There are   547 symmetry adapted basis functions of A   symmetry.
 Integral buffers will be    131072 words long.
 Raffenetti 2 integral format.
 Two-electron integral symmetry is turned on.
   547 basis functions,   890 primitive gaussians,   547 cartesian basis functions
    91 alpha electrons       91 beta electrons
       nuclear repulsion energy      2282.4828478094 Hartrees.
 NAtoms=   45 NActive=   45 NUniq=   45 SFac= 1.00D+00 NAtFMM=   50 NAOKFM=F Big=F
 One-electron integrals computed using PRISM.
 NBasis=   547 RedAO= T  NBF=   547
 NBsUse=   547 1.00D-06 NBFU=   547
 Harris functional with IExCor=  402 diagonalized for initial guess.
 ExpMin= 4.38D-02 ExpMax= 5.48D+03 ExpMxC= 8.25D+02 IAcc=2 IRadAn=         0 AccDes= 0.00D+00
 HarFok:  IExCor=  402 AccDes= 0.00D+00 IRadAn=         0 IDoV= 1
 ScaDFX=  1.000000  1.000000  1.000000  1.000000
 FoFCou: FMM=F IPFlag=           0 FMFlag=      100000 FMFlg1=           0
         NFxFlg=           0 DoJE=T BraDBF=F KetDBF=T FulRan=T
         Omega=  0.000000  0.000000  1.000000  0.000000  0.000000 ICntrl=     500 IOpCl=  0
         NMat0=    1 NMatS0=    1 NMatT0=    0 NMatD0=    1 NMtDS0=    0 NMtDT0=    0
         I1Cent=           4 NGrid=           0.
 Petite list used in FoFCou.
 Initial guess orbital symmetries:
       Occupied  (A) (A) (A) (A) (A) (A) (A) (A) (A) (A) (A) (A)
                 (A) (A) (A) (A) (A) (A) (A) (A) (A) (A) (A) (A)
                 (A) (A) (A) (A) (A) (A) (A) (A) (A) (A) (A) (A)
                 (A) (A) (A) (A) (A) (A) (A) (A) (A) (A) (A) (A)
                 (A) (A) (A) (A) (A) (A) (A) (A) (A) (A) (A) (A)
                 (A) (A) (A) (A) (A) (A) (A) (A) (A) (A) (A) (A)
                 (A) (A) (A) (A) (A) (A) (A) (A) (A) (A) (A) (A)
                 (A) (A) (A) (A) (A) (A) (A)
       Virtual   (A) (A) (A) (A) (A) (A) (A) (A) (A) (A) (A) (A)
                 (A) (A) (A) (A) (A) (A) (A) (A) (A) (A) (A) (A)
                 (A) (A) (A) (A) (A) (A) (A) (A) (A) (A) (A) (A)
                 (A) (A) (A) (A) (A) (A) (A) (A) (A) (A) (A) (A)
                 (A) (A) (A) (A) (A) (A) (A) (A) (A) (A) (A) (A)
                 (A) (A) (A) (A) (A) (A) (A) (A) (A) (A) (A) (A)
                 (A) (A) (A) (A) (A) (A) (A) (A) (A) (A) (A) (A)
                 (A) (A) (A) (A) (A) (A) (A) (A) (A) (A) (A) (A)
                 (A) (A) (A) (A) (A) (A) (A) (A) (A) (A) (A) (A)
                 (A) (A) (A) (A) (A) (A) (A) (A) (A) (A) (A) (A)
                 (A) (A) (A) (A) (A) (A) (A) (A) (A) (A) (A) (A)
                 (A) (A) (A) (A) (A) (A) (A) (A) (A) (A) (A) (A)
                 (A) (A) (A) (A) (A) (A) (A) (A) (A) (A) (A) (A)
                 (A) (A) (A) (A) (A) (A) (A) (A) (A) (A) (A) (A)
                 (A) (A) (A) (A) (A) (A) (A) (A) (A) (A) (A) (A)
                 (A) (A) (A) (A) (A) (A) (A) (A) (A) (A) (A) (A)
                 (A) (A) (A) (A) (A) (A) (A) (A) (A) (A) (A) (A)
                 (A) (A) (A) (A) (A) (A) (A) (A) (A) (A) (A) (A)
                 (A) (A) (A) (A) (A) (A) (A) (A) (A) (A) (A) (A)
                 (A) (A) (A) (A) (A) (A) (A) (A) (A) (A) (A) (A)
                 (A) (A) (A) (A) (A) (A) (A) (A) (A) (A) (A) (A)
                 (A) (A) (A) (A) (A) (A) (A) (A) (A) (A) (A) (A)
                 (A) (A) (A) (A) (A) (A) (A) (A) (A) (A) (A) (A)
                 (A) (A) (A) (A) (A) (A) (A) (A) (A) (A) (A) (A)
                 (A) (A) (A) (A) (A) (A) (A) (A) (A) (A) (A) (A)
                 (A) (A) (A) (A) (A) (A) (A) (A) (A) (A) (A) (A)
                 (A) (A) (A) (A) (A) (A) (A) (A) (A) (A) (A) (A)
                 (A) (A) (A) (A) (A) (A) (A) (A) (A) (A) (A) (A)
                 (A) (A) (A) (A) (A) (A) (A) (A) (A) (A) (A) (A)
                 (A) (A) (A) (A) (A) (A) (A) (A) (A) (A) (A) (A)
                 (A) (A) (A) (A) (A) (A) (A) (A) (A) (A) (A) (A)
                 (A) (A) (A) (A) (A) (A) (A) (A) (A) (A) (A) (A)
                 (A) (A) (A) (A) (A) (A) (A) (A) (A) (A) (A) (A)
                 (A) (A) (A) (A) (A) (A) (A) (A) (A) (A) (A) (A)
                 (A) (A) (A) (A) (A) (A) (A) (A) (A) (A) (A) (A)
                 (A) (A) (A) (A) (A) (A) (A) (A) (A) (A) (A) (A)
                 (A) (A) (A) (A) (A) (A) (A) (A) (A) (A) (A) (A)
                 (A) (A) (A) (A) (A) (A) (A) (A) (A) (A) (A) (A)
 The electronic state of the initial guess is 1-A.
 Requested convergence on RMS density matrix=1.00D-08 within 128 cycles.
 Requested convergence on MAX density matrix=1.00D-06.
 Requested convergence on             energy=1.00D-06.
 No special actions if energy rises.
 SCF Done:  E(RB3LYP) =  -1297.91838439     A.U. after   14 cycles
             Convg  =    0.3399D-08             -V/T =  2.0086
 Range of M.O.s used for correlation:     1   547
 NBasis=   547 NAE=    91 NBE=    91 NFC=     0 NFV=     0
 NROrb=    547 NOA=    91 NOB=    91 NVA=   456 NVB=   456

 **** Warning!!: The largest alpha MO coefficient is  0.91993177D+02

          Differentiating once with respect to electric field.
                with respect to dipole field.
          Electric field/nuclear overlap derivatives assumed to be zero.
          There are     3 degrees of freedom in the 1st order CPHF.  IDoFFX=0.
      3 vectors produced by pass  0 Test12= 1.38D-12 3.33D-08 XBig12= 1.20D+02 1.26D+00.
 AX will form     3 AO Fock derivatives at one time.
      3 vectors produced by pass  1 Test12= 1.38D-12 3.33D-08 XBig12= 2.15D+01 3.25D-01.
      3 vectors produced by pass  2 Test12= 1.38D-12 3.33D-08 XBig12= 9.33D+00 1.96D-01.
      3 vectors produced by pass  3 Test12= 1.38D-12 3.33D-08 XBig12= 9.65D-01 8.19D-02.
      3 vectors produced by pass  4 Test12= 1.38D-12 3.33D-08 XBig12= 3.05D-01 3.83D-02.
      3 vectors produced by pass  5 Test12= 1.38D-12 3.33D-08 XBig12= 5.24D-02 1.70D-02.
      3 vectors produced by pass  6 Test12= 1.38D-12 3.33D-08 XBig12= 1.71D-02 1.33D-02.
      3 vectors produced by pass  7 Test12= 1.38D-12 3.33D-08 XBig12= 2.51D-03 7.69D-03.
      3 vectors produced by pass  8 Test12= 1.38D-12 3.33D-08 XBig12= 6.03D-04 3.92D-03.
      3 vectors produced by pass  9 Test12= 1.38D-12 3.33D-08 XBig12= 1.44D-04 2.36D-03.
      3 vectors produced by pass 10 Test12= 1.38D-12 3.33D-08 XBig12= 4.50D-05 1.23D-03.
      3 vectors produced by pass 11 Test12= 1.38D-12 3.33D-08 XBig12= 7.82D-06 6.72D-04.
      3 vectors produced by pass 12 Test12= 1.38D-12 3.33D-08 XBig12= 1.05D-06 2.10D-04.
      3 vectors produced by pass 13 Test12= 1.38D-12 3.33D-08 XBig12= 2.76D-07 8.29D-05.
      3 vectors produced by pass 14 Test12= 1.38D-12 3.33D-08 XBig12= 3.60D-08 2.50D-05.
      3 vectors produced by pass 15 Test12= 1.38D-12 3.33D-08 XBig12= 1.17D-08 1.63D-05.
      3 vectors produced by pass 16 Test12= 1.38D-12 3.33D-08 XBig12= 1.08D-09 4.58D-06.
      3 vectors produced by pass 17 Test12= 1.38D-12 3.33D-08 XBig12= 1.08D-10 1.04D-06.
      3 vectors produced by pass 18 Test12= 1.38D-12 3.33D-08 XBig12= 2.63D-11 4.34D-07.
      3 vectors produced by pass 19 Test12= 1.38D-12 3.33D-08 XBig12= 1.28D-11 2.41D-07.
      3 vectors produced by pass 20 Test12= 1.38D-12 3.33D-08 XBig12= 1.08D-11 2.59D-07.
      3 vectors produced by pass 21 Test12= 1.38D-12 3.33D-08 XBig12= 1.12D-12 6.38D-08.
      1 vectors produced by pass 22 Test12= 1.38D-12 3.33D-08 XBig12= 1.80D-13 3.44D-08.
 Inverted reduced A of dimension    67 with in-core refinement.
 End of Minotr Frequency-dependent properties file   721 does not exist.
 End of Minotr Frequency-dependent properties file   722 does not exist.
 Symmetrizing basis deriv contribution to polar:
 IMax=3 JMax=2 DiffMx= 0.00D+00
 G2DrvN: will do    23 centers at a time, making    2 passes doing MaxLOS=2.
 Calling FoFCou, ICntrl=  3107 FMM=F I1Cent=   0 AccDes= 0.00D+00.
 Calling FoFCou, ICntrl=  3107 FMM=F I1Cent=   0 AccDes= 0.00D+00.
 FoFDir/FoFCou used for L=0 through L=2.
 End of G2Drv Frequency-dependent properties file   721 does not exist.
 End of G2Drv Frequency-dependent properties file   722 does not exist.
          IDoAtm=111111111111111111111111111111111111111111111
          Differentiating once with respect to electric field.
                with respect to dipole field.
          Differentiating once with respect to nuclear coordinates.
          There are   138 degrees of freedom in the 1st order CPHF.  IDoFFX=5.
 Will reuse    3 saved solutions.
    135 vectors produced by pass  0 Test12= 4.15D-14 1.00D-09 XBig12= 2.76D-01 8.66D-02.
 AX will form    68 AO Fock derivatives at one time.
    135 vectors produced by pass  1 Test12= 4.15D-14 1.00D-09 XBig12= 3.29D-02 1.45D-02.
    132 vectors produced by pass  2 Test12= 4.15D-14 1.00D-09 XBig12= 1.90D-04 1.66D-03.
    132 vectors produced by pass  3 Test12= 4.15D-14 1.00D-09 XBig12= 6.48D-07 7.33D-05.
    132 vectors produced by pass  4 Test12= 4.15D-14 1.00D-09 XBig12= 1.21D-09 2.39D-06.
    129 vectors produced by pass  5 Test12= 4.15D-14 1.00D-09 XBig12= 4.13D-12 1.54D-07.
     78 vectors produced by pass  6 Test12= 4.15D-14 1.00D-09 XBig12= 1.66D-13 2.84D-08.
 Inverted reduced A of dimension   873 with in-core refinement.
 Isotropic polarizability for W=    0.000000      187.52 Bohr**3.
 End of Minotr Frequency-dependent properties file   721 does not exist.
 End of Minotr Frequency-dependent properties file   722 does not exist.

 **********************************************************************

            Population analysis using the SCF density.

 **********************************************************************

 Orbital symmetries:
       Occupied  (A) (A) (A) (A) (A) (A) (A) (A) (A) (A) (A) (A)
                 (A) (A) (A) (A) (A) (A) (A) (A) (A) (A) (A) (A)
                 (A) (A) (A) (A) (A) (A) (A) (A) (A) (A) (A) (A)
                 (A) (A) (A) (A) (A) (A) (A) (A) (A) (A) (A) (A)
                 (A) (A) (A) (A) (A) (A) (A) (A) (A) (A) (A) (A)
                 (A) (A) (A) (A) (A) (A) (A) (A) (A) (A) (A) (A)
                 (A) (A) (A) (A) (A) (A) (A) (A) (A) (A) (A) (A)
                 (A) (A) (A) (A) (A) (A) (A)
       Virtual   (A) (A) (A) (A) (A) (A) (A) (A) (A) (A) (A) (A)
                 (A) (A) (A) (A) (A) (A) (A) (A) (A) (A) (A) (A)
                 (A) (A) (A) (A) (A) (A) (A) (A) (A) (A) (A) (A)
                 (A) (A) (A) (A) (A) (A) (A) (A) (A) (A) (A) (A)
                 (A) (A) (A) (A) (A) (A) (A) (A) (A) (A) (A) (A)
                 (A) (A) (A) (A) (A) (A) (A) (A) (A) (A) (A) (A)
                 (A) (A) (A) (A) (A) (A) (A) (A) (A) (A) (A) (A)
                 (A) (A) (A) (A) (A) (A) (A) (A) (A) (A) (A) (A)
                 (A) (A) (A) (A) (A) (A) (A) (A) (A) (A) (A) (A)
                 (A) (A) (A) (A) (A) (A) (A) (A) (A) (A) (A) (A)
                 (A) (A) (A) (A) (A) (A) (A) (A) (A) (A) (A) (A)
                 (A) (A) (A) (A) (A) (A) (A) (A) (A) (A) (A) (A)
                 (A) (A) (A) (A) (A) (A) (A) (A) (A) (A) (A) (A)
                 (A) (A) (A) (A) (A) (A) (A) (A) (A) (A) (A) (A)
                 (A) (A) (A) (A) (A) (A) (A) (A) (A) (A) (A) (A)
                 (A) (A) (A) (A) (A) (A) (A) (A) (A) (A) (A) (A)
                 (A) (A) (A) (A) (A) (A) (A) (A) (A) (A) (A) (A)
                 (A) (A) (A) (A) (A) (A) (A) (A) (A) (A) (A) (A)
                 (A) (A) (A) (A) (A) (A) (A) (A) (A) (A) (A) (A)
                 (A) (A) (A) (A) (A) (A) (A) (A) (A) (A) (A) (A)
                 (A) (A) (A) (A) (A) (A) (A) (A) (A) (A) (A) (A)
                 (A) (A) (A) (A) (A) (A) (A) (A) (A) (A) (A) (A)
                 (A) (A) (A) (A) (A) (A) (A) (A) (A) (A) (A) (A)
                 (A) (A) (A) (A) (A) (A) (A) (A) (A) (A) (A) (A)
                 (A) (A) (A) (A) (A) (A) (A) (A) (A) (A) (A) (A)
                 (A) (A) (A) (A) (A) (A) (A) (A) (A) (A) (A) (A)
                 (A) (A) (A) (A) (A) (A) (A) (A) (A) (A) (A) (A)
                 (A) (A) (A) (A) (A) (A) (A) (A) (A) (A) (A) (A)
                 (A) (A) (A) (A) (A) (A) (A) (A) (A) (A) (A) (A)
                 (A) (A) (A) (A) (A) (A) (A) (A) (A) (A) (A) (A)
                 (A) (A) (A) (A) (A) (A) (A) (A) (A) (A) (A) (A)
                 (A) (A) (A) (A) (A) (A) (A) (A) (A) (A) (A) (A)
                 (A) (A) (A) (A) (A) (A) (A) (A) (A) (A) (A) (A)
                 (A) (A) (A) (A) (A) (A) (A) (A) (A) (A) (A) (A)
                 (A) (A) (A) (A) (A) (A) (A) (A) (A) (A) (A) (A)
                 (A) (A) (A) (A) (A) (A) (A) (A) (A) (A) (A) (A)
                 (A) (A) (A) (A) (A) (A) (A) (A) (A) (A) (A) (A)
                 (A) (A) (A) (A) (A) (A) (A) (A) (A) (A) (A) (A)
 The electronic state is 1-A.
 Alpha  occ. eigenvalues --  -19.20565 -19.20103 -19.19480 -19.18524 -19.18130
 Alpha  occ. eigenvalues --  -19.18113 -19.16237 -19.16076 -19.16029 -19.15018
 Alpha  occ. eigenvalues --  -19.14369 -10.32359 -10.28796 -10.28185 -10.27793
 Alpha  occ. eigenvalues --  -10.26992 -10.26284 -10.26077 -10.25089 -10.24792
 Alpha  occ. eigenvalues --  -10.23275 -10.23256 -10.22933  -1.11430  -1.07642
 Alpha  occ. eigenvalues --   -1.06620  -1.05584  -1.04418  -1.03751  -1.03279
 Alpha  occ. eigenvalues --   -1.01988  -1.01441  -1.00560  -0.99529  -0.83184
 Alpha  occ. eigenvalues --   -0.82252  -0.79139  -0.77617  -0.72746  -0.69697
 Alpha  occ. eigenvalues --   -0.67899  -0.64864  -0.63634  -0.62570  -0.61309
 Alpha  occ. eigenvalues --   -0.60384  -0.57717  -0.56957  -0.55492  -0.53953
 Alpha  occ. eigenvalues --   -0.53355  -0.53186  -0.52814  -0.52384  -0.50933
 Alpha  occ. eigenvalues --   -0.50041  -0.49631  -0.49296  -0.47808  -0.46761
 Alpha  occ. eigenvalues --   -0.46218  -0.45380  -0.44725  -0.43730  -0.43354
 Alpha  occ. eigenvalues --   -0.43138  -0.42400  -0.40565  -0.40263  -0.39507
 Alpha  occ. eigenvalues --   -0.38655  -0.37567  -0.37421  -0.36832  -0.36350
 Alpha  occ. eigenvalues --   -0.35538  -0.35438  -0.34446  -0.34222  -0.33913
 Alpha  occ. eigenvalues --   -0.32477  -0.31277  -0.30574  -0.30333  -0.29863
 Alpha  occ. eigenvalues --   -0.29652  -0.29523  -0.28057  -0.27613  -0.26054
 Alpha  occ. eigenvalues --   -0.25656
 Alpha virt. eigenvalues --   -0.03877  -0.02404  -0.00997  -0.00983   0.00149
 Alpha virt. eigenvalues --    0.01080   0.01367   0.01752   0.02498   0.02960
 Alpha virt. eigenvalues --    0.03441   0.04342   0.05005   0.05536   0.05791
 Alpha virt. eigenvalues --    0.06150   0.06396   0.06587   0.07521   0.08384
 Alpha virt. eigenvalues --    0.08437   0.08682   0.09345   0.09503   0.10097
 Alpha virt. eigenvalues --    0.10424   0.11289   0.11430   0.11646   0.11841
 Alpha virt. eigenvalues --    0.12098   0.12293   0.12801   0.13230   0.13677
 Alpha virt. eigenvalues --    0.14088   0.14278   0.14494   0.14832   0.15224
 Alpha virt. eigenvalues --    0.15605   0.15951   0.16347   0.16753   0.17084
 Alpha virt. eigenvalues --    0.17340   0.17478   0.18292   0.18433   0.18807
 Alpha virt. eigenvalues --    0.19035   0.19279   0.19574   0.19971   0.20314
 Alpha virt. eigenvalues --    0.20325   0.20739   0.20782   0.21468   0.21633
 Alpha virt. eigenvalues --    0.21858   0.22261   0.22423   0.23273   0.23366
 Alpha virt. eigenvalues --    0.23466   0.23872   0.24041   0.24430   0.24729
 Alpha virt. eigenvalues --    0.24848   0.25047   0.25221   0.25694   0.25818
 Alpha virt. eigenvalues --    0.26249   0.26661   0.27100   0.27308   0.27602
 Alpha virt. eigenvalues --    0.27867   0.28309   0.28397   0.28766   0.29125
 Alpha virt. eigenvalues --    0.29335   0.29577   0.29828   0.30119   0.30468
 Alpha virt. eigenvalues --    0.30618   0.30987   0.31373   0.31784   0.32287
 Alpha virt. eigenvalues --    0.32543   0.32687   0.33428   0.33498   0.33989
 Alpha virt. eigenvalues --    0.34255   0.34778   0.35102   0.35161   0.35556
 Alpha virt. eigenvalues --    0.35774   0.36199   0.36432   0.36890   0.37476
 Alpha virt. eigenvalues --    0.38011   0.38228   0.38732   0.38909   0.39204
 Alpha virt. eigenvalues --    0.40217   0.40408   0.40731   0.41262   0.41654
 Alpha virt. eigenvalues --    0.41839   0.42227   0.42674   0.43231   0.44045
 Alpha virt. eigenvalues --    0.44536   0.44971   0.45473   0.46234   0.46259
 Alpha virt. eigenvalues --    0.47001   0.47551   0.48518   0.49184   0.50632
 Alpha virt. eigenvalues --    0.52180   0.54475   0.55428   0.61400   0.62382
 Alpha virt. eigenvalues --    0.65494   0.66189   0.68772   0.68875   0.69223
 Alpha virt. eigenvalues --    0.70370   0.72019   0.73028   0.73525   0.75473
 Alpha virt. eigenvalues --    0.75714   0.75965   0.76935   0.77747   0.78670
 Alpha virt. eigenvalues --    0.78805   0.79775   0.82454   0.83607   0.84377
 Alpha virt. eigenvalues --    0.85138   0.85927   0.87480   0.88812   0.89704
 Alpha virt. eigenvalues --    0.91592   0.92715   0.94204   0.95038   0.95669
 Alpha virt. eigenvalues --    0.96457   0.97184   0.98637   0.99235   1.00229
 Alpha virt. eigenvalues --    1.01184   1.01546   1.02339   1.03240   1.03841
 Alpha virt. eigenvalues --    1.04326   1.04719   1.05681   1.06053   1.06388
 Alpha virt. eigenvalues --    1.06937   1.07497   1.08165   1.09054   1.09624
 Alpha virt. eigenvalues --    1.10325   1.10950   1.11906   1.13442   1.14591
 Alpha virt. eigenvalues --    1.15161   1.17896   1.18765   1.19687   1.21842
 Alpha virt. eigenvalues --    1.21964   1.22804   1.23719   1.24603   1.24972
 Alpha virt. eigenvalues --    1.26533   1.26904   1.27308   1.27811   1.28238
 Alpha virt. eigenvalues --    1.29412   1.30160   1.30550   1.31279   1.31827
 Alpha virt. eigenvalues --    1.32119   1.33201   1.33901   1.34985   1.35784
 Alpha virt. eigenvalues --    1.36130   1.36282   1.37351   1.37644   1.37951
 Alpha virt. eigenvalues --    1.39333   1.40162   1.41163   1.41885   1.43420
 Alpha virt. eigenvalues --    1.43950   1.44553   1.45540   1.46329   1.47927
 Alpha virt. eigenvalues --    1.49700   1.50886   1.51435   1.51797   1.53021
 Alpha virt. eigenvalues --    1.53452   1.54137   1.55869   1.56377   1.57369
 Alpha virt. eigenvalues --    1.57582   1.58848   1.59224   1.59917   1.60443
 Alpha virt. eigenvalues --    1.61352   1.62713   1.63046   1.63794   1.64892
 Alpha virt. eigenvalues --    1.65236   1.66029   1.67003   1.68075   1.68651
 Alpha virt. eigenvalues --    1.69486   1.70672   1.71302   1.71649   1.72091
 Alpha virt. eigenvalues --    1.73199   1.73917   1.74502   1.76204   1.76496
 Alpha virt. eigenvalues --    1.76887   1.78306   1.79596   1.80548   1.82762
 Alpha virt. eigenvalues --    1.83011   1.83205   1.84015   1.84655   1.85672
 Alpha virt. eigenvalues --    1.85961   1.86656   1.86851   1.88056   1.89294
 Alpha virt. eigenvalues --    1.90722   1.91553   1.92155   1.93806   1.94936
 Alpha virt. eigenvalues --    1.95386   1.96279   1.96762   1.97561   1.99453
 Alpha virt. eigenvalues --    2.00009   2.01001   2.02171   2.02809   2.03940
 Alpha virt. eigenvalues --    2.05037   2.06682   2.07414   2.08106   2.08431
 Alpha virt. eigenvalues --    2.09826   2.10485   2.11043   2.11596   2.12380
 Alpha virt. eigenvalues --    2.13267   2.14054   2.14921   2.15521   2.16162
 Alpha virt. eigenvalues --    2.16696   2.17763   2.19006   2.20842   2.21908
 Alpha virt. eigenvalues --    2.22455   2.24551   2.24591   2.27031   2.28935
 Alpha virt. eigenvalues --    2.29598   2.30014   2.32342   2.33523   2.34216
 Alpha virt. eigenvalues --    2.35181   2.36033   2.37952   2.38269   2.38524
 Alpha virt. eigenvalues --    2.38992   2.39495   2.41549   2.42543   2.44317
 Alpha virt. eigenvalues --    2.45457   2.47056   2.48204   2.49734   2.50109
 Alpha virt. eigenvalues --    2.50987   2.51562   2.52939   2.53158   2.53732
 Alpha virt. eigenvalues --    2.54942   2.57103   2.58080   2.59601   2.60456
 Alpha virt. eigenvalues --    2.60620   2.61545   2.62405   2.63246   2.64539
 Alpha virt. eigenvalues --    2.64617   2.65286   2.65737   2.66294   2.67994
 Alpha virt. eigenvalues --    2.70062   2.72180   2.73391   2.74005   2.74548
 Alpha virt. eigenvalues --    2.75411   2.76132   2.77311   2.78837   2.79510
 Alpha virt. eigenvalues --    2.80327   2.81610   2.82334   2.83357   2.85137
 Alpha virt. eigenvalues --    2.86342   2.87841   2.88907   2.90466   2.91368
 Alpha virt. eigenvalues --    2.92136   2.92763   2.92959   2.95158   2.95720
 Alpha virt. eigenvalues --    2.96174   2.98541   2.99552   3.00774   3.01304
 Alpha virt. eigenvalues --    3.02289   3.02791   3.04177   3.05347   3.06409
 Alpha virt. eigenvalues --    3.08448   3.09220   3.11128   3.13088   3.14905
 Alpha virt. eigenvalues --    3.16713   3.19301   3.22432   3.22988   3.29416
 Alpha virt. eigenvalues --    3.32160   3.34995   3.36488   3.39439   3.41454
 Alpha virt. eigenvalues --    3.41650   3.43794   3.44313   3.46783   3.47954
 Alpha virt. eigenvalues --    3.48785   3.50060   3.50789   3.51500   3.52843
 Alpha virt. eigenvalues --    3.54827   3.54950   3.58311   3.59722   3.62726
 Alpha virt. eigenvalues --    3.64307   3.65977   3.75648   4.28694   4.30007
 Alpha virt. eigenvalues --    4.30534   4.33116   4.36549   4.44198   4.44570
 Alpha virt. eigenvalues --    4.48241   4.48498   4.49763   4.51388   4.53805
 Alpha virt. eigenvalues --    4.57097   4.59853   4.61304   4.68085   4.72216
 Alpha virt. eigenvalues --    4.78361   4.83832   4.87896   4.91877   4.94976
 Alpha virt. eigenvalues --    4.97563
          Condensed to atoms (all electrons):
              1          2          3          4          5          6
     1  O    8.302885   0.308678  -0.251766   0.022768   0.008551   0.052892
     2  C    0.308678  10.738756  -3.486397  -0.118187  -0.036158  -1.841032
     3  C   -0.251766  -3.486397  12.918721   0.115081   0.003701  -0.829798
     4  O    0.022768  -0.118187   0.115081   8.361388   0.220357   0.047301
     5  H    0.008551  -0.036158   0.003701   0.220357   0.401070   0.023707
     6  C    0.052892  -1.841032  -0.829798   0.047301   0.023707   9.977221
     7  O   -0.000295   0.023887  -0.095476  -0.016965   0.000968   0.301542
     8  H   -0.000177   0.018638  -0.077126   0.017299  -0.000908   0.039615
     9  C    0.029095   0.224707   0.142582  -0.005761  -0.002084   0.150664
    10  O   -0.000546   0.023187  -0.006349   0.000044   0.000000  -0.002833
    11  H   -0.000056  -0.013157   0.004765  -0.000001   0.000000   0.001026
    12  C   -0.156096  -3.185764   1.053550   0.066581   0.000691   0.786180
    13  O    0.006082   0.055872   0.005313  -0.002572  -0.000026  -0.127114
    14  C    0.030176   1.753259  -1.997630  -0.044370   0.014905  -1.843724
    15  O    0.000719   0.045887  -0.060133   0.000343   0.000013  -0.029564
    16  C    0.005951   0.567434  -0.998375  -0.002605   0.000961   0.075833
    17  C    0.000503   0.014531  -0.162514   0.001885   0.000030  -0.314456
    18  O    0.000049  -0.008556   0.010520  -0.000016   0.000000   0.017295
    19  H   -0.000018   0.007801   0.006210  -0.000002   0.000000   0.002420
    20  C    0.000107   0.012030  -0.027974  -0.000208   0.000001   0.072860
    21  O    0.000000   0.000405  -0.000131   0.000000   0.000000   0.000176
    22  H    0.000000  -0.000117   0.000086   0.000000   0.000000   0.000272
    23  C    0.000150   0.026382  -0.122563  -0.000274  -0.000017  -0.017914
    24  O    0.000000  -0.000102  -0.001622  -0.000001   0.000000  -0.001229
    25  H    0.000000  -0.000023  -0.000080   0.000000   0.000000   0.001669
    26  C    0.000392   0.129776  -0.175470   0.000957   0.000063  -0.455256
    27  O    0.000000   0.000830  -0.000831   0.000001   0.000000  -0.000376
    28  C   -0.000009  -0.003473   0.008078   0.000017   0.000000   0.006883
    29  O    0.000000  -0.000006   0.000072   0.000000   0.000000  -0.000241
    30  H    0.000000   0.000000   0.000001   0.000000   0.000000   0.000001
    31  H    0.000000  -0.000011   0.000027   0.000000   0.000000   0.000161
    32  H    0.000000   0.000150  -0.000237   0.000000   0.000000   0.001385
    33  H    0.000000  -0.001299   0.001321  -0.000001   0.000000   0.005929
    34  H   -0.000003  -0.001157   0.004836   0.000006   0.000000  -0.007984
    35  H    0.000000  -0.000320   0.000841   0.000000   0.000000   0.003636
    36  H    0.000000  -0.000472   0.000987   0.000000   0.000000   0.012292
    37  H    0.231349   0.070506  -0.063141   0.001036  -0.000720   0.010115
    38  H   -0.001867   0.030495  -0.007641   0.000043   0.000000   0.011794
    39  H    0.005161   0.064474  -0.015958  -0.000037   0.000000  -0.005865
    40  H    0.004609   0.049395  -0.083612  -0.000333   0.000006   0.006457
    41  H   -0.046537   0.390658  -0.087721   0.002170  -0.000121  -0.007317
    42  H   -0.010759  -0.024167   0.331637  -0.054722  -0.006063  -0.108356
    43  H   -0.000800   0.059726  -0.130534   0.005036  -0.000147   0.315858
    44  H   -0.000063   0.061748  -0.059666  -0.000025   0.000009  -0.117115
    45  H    0.000000   0.000719   0.004352   0.000007   0.000000  -0.018392
              7          8          9         10         11         12
     1  O   -0.000295  -0.000177   0.029095  -0.000546  -0.000056  -0.156096
     2  C    0.023887   0.018638   0.224707   0.023187  -0.013157  -3.185764
     3  C   -0.095476  -0.077126   0.142582  -0.006349   0.004765   1.053550
     4  O   -0.016965   0.017299  -0.005761   0.000044  -0.000001   0.066581
     5  H    0.000968  -0.000908  -0.002084   0.000000   0.000000   0.000691
     6  C    0.301542   0.039615   0.150664  -0.002833   0.001026   0.786180
     7  O    8.206742   0.206573   0.000231  -0.000013   0.000000   0.025418
     8  H    0.206573   0.408024   0.000304   0.000000   0.000000  -0.008672
     9  C    0.000231   0.000304   8.724527   0.280749  -0.015648  -3.388337
    10  O   -0.000013   0.000000   0.280749   8.288934   0.185610  -0.186660
    11  H    0.000000   0.000000  -0.015648   0.185610   0.454882   0.048288
    12  C    0.025418  -0.008672  -3.388337  -0.186660   0.048288  12.551517
    13  O    0.007108  -0.001283   0.019028   0.013401  -0.000819  -0.111829
    14  C   -0.078965   0.036625  -0.681944  -0.018592  -0.000161  -0.856125
    15  O   -0.006666   0.000818  -0.004645  -0.000826  -0.000007  -0.054643
    16  C   -0.051318   0.000565  -0.200186   0.011553  -0.001253  -0.185137
    17  C    0.004056  -0.000917  -0.036525  -0.001296  -0.000205  -0.150422
    18  O    0.000299  -0.000003   0.006179   0.002626   0.000075   0.005038
    19  H   -0.000097   0.000002  -0.013026   0.003330  -0.000063  -0.004453
    20  C    0.000902  -0.000078  -0.001413  -0.000403   0.000015  -0.043060
    21  O    0.000001   0.000000  -0.000064   0.000019   0.000000   0.000046
    22  H    0.000000   0.000000   0.000108   0.000013   0.000000   0.000025
    23  C   -0.017397  -0.001352  -0.004241   0.000046  -0.000003  -0.015688
    24  O    0.000561  -0.000008  -0.000009   0.000000   0.000000  -0.000153
    25  H    0.000058   0.000000   0.000000   0.000000   0.000000  -0.000039
    26  C    0.003964   0.002145  -0.023134   0.000720  -0.000091  -0.163431
    27  O   -0.000042   0.000001  -0.000342  -0.000003   0.000000  -0.001742
    28  C   -0.000288   0.000007  -0.001738  -0.000015   0.000004   0.009680
    29  O   -0.000002   0.000000   0.000012   0.000000   0.000000   0.000105
    30  H    0.000000   0.000000   0.000001   0.000000   0.000000   0.000001
    31  H    0.000003   0.000000   0.000013   0.000000   0.000000  -0.000011
    32  H    0.000039   0.000000  -0.000067   0.000001   0.000000   0.000272
    33  H    0.000063   0.000000   0.000141  -0.000019   0.000000   0.001339
    34  H    0.000330   0.000002   0.000383   0.000007   0.000000   0.003343
    35  H    0.000022   0.000000   0.000182   0.000000   0.000000   0.000171
    36  H   -0.000389  -0.000005   0.000048   0.000000   0.000000   0.000394
    37  H   -0.000048   0.000001  -0.003514   0.000051  -0.000001   0.001497
    38  H   -0.000001   0.000000   0.671710  -0.063203  -0.001114  -0.357716
    39  H   -0.000004   0.000000   0.409232  -0.043443  -0.012990  -0.091575
    40  H   -0.000035   0.000000   0.061932   0.003827  -0.000048   0.157148
    41  H   -0.000150  -0.000004   0.007086   0.000083  -0.000007  -0.065529
    42  H    0.004881  -0.000307   0.013525   0.000007   0.000000  -0.004227
    43  H   -0.047283  -0.006654   0.012050  -0.000008   0.000000   0.018986
    44  H    0.007838  -0.000081   0.007735  -0.000163  -0.000001  -0.022389
    45  H    0.000915   0.000050  -0.000020   0.000000   0.000000  -0.000008
             13         14         15         16         17         18
     1  O    0.006082   0.030176   0.000719   0.005951   0.000503   0.000049
     2  C    0.055872   1.753259   0.045887   0.567434   0.014531  -0.008556
     3  C    0.005313  -1.997630  -0.060133  -0.998375  -0.162514   0.010520
     4  O   -0.002572  -0.044370   0.000343  -0.002605   0.001885  -0.000016
     5  H   -0.000026   0.014905   0.000013   0.000961   0.000030   0.000000
     6  C   -0.127114  -1.843724  -0.029564   0.075833  -0.314456   0.017295
     7  O    0.007108  -0.078965  -0.006666  -0.051318   0.004056   0.000299
     8  H   -0.001283   0.036625   0.000818   0.000565  -0.000917  -0.000003
     9  C    0.019028  -0.681944  -0.004645  -0.200186  -0.036525   0.006179
    10  O    0.013401  -0.018592  -0.000826   0.011553  -0.001296   0.002626
    11  H   -0.000819  -0.000161  -0.000007  -0.001253  -0.000205   0.000075
    12  C   -0.111829  -0.856125  -0.054643  -0.185137  -0.150422   0.005038
    13  O    8.574118   0.075314  -0.095613   0.119747  -0.026813   0.012398
    14  C    0.075314  11.445526   0.247580  -0.085081  -0.347430   0.091834
    15  O   -0.095613   0.247580   8.415061  -0.150153   0.051214  -0.004153
    16  C    0.119747  -0.085081  -0.150153  20.160474  -4.026885  -0.038938
    17  C   -0.026813  -0.347430   0.051214  -4.026885  10.599168   0.236489
    18  O    0.012398   0.091834  -0.004153  -0.038938   0.236489   8.280204
    19  H    0.005287   0.019906   0.030406  -0.075530   0.011237   0.181368
    20  C   -0.016933  -0.461221   0.041444  -3.025341  -0.572818  -0.166977
    21  O    0.000645  -0.009865  -0.000554  -0.063022  -0.071435   0.000779
    22  H   -0.000029   0.008546  -0.000040   0.043460  -0.115742   0.020158
    23  C    0.015007  -0.388388  -0.099792   0.298394  -0.761465   0.007060
    24  O   -0.000083   0.007024  -0.001822   0.061335   0.001879   0.000076
    25  H   -0.000004  -0.002631  -0.000185   0.028171   0.007291   0.000000
    26  C   -0.057965  -1.867719   0.104558  -8.408199   1.639920  -0.057733
    27  O   -0.000122  -0.031612   0.007885  -0.108355  -0.069692   0.001214
    28  C    0.003413   0.123339   0.018947   1.591542  -0.177621   0.013552
    29  O    0.000001   0.002021   0.000148  -0.052150   0.039981  -0.000452
    30  H    0.000000   0.000563  -0.000003   0.014233  -0.006670   0.000006
    31  H    0.000061   0.004448   0.000209   0.106480  -0.011487   0.000237
    32  H    0.000584  -0.010811  -0.003052   0.164048  -0.220213   0.006547
    33  H   -0.000139   0.049885  -0.010067   0.064620   0.252196  -0.044724
    34  H    0.000048   0.007634  -0.052229   0.236784  -0.031035   0.001459
    35  H   -0.000510   0.043600   0.006432   0.062303   0.051300  -0.000391
    36  H   -0.000154   0.019934  -0.003301   0.163658   0.010580   0.000020
    37  H   -0.000687   0.001934   0.000002   0.000282  -0.000023  -0.000001
    38  H   -0.003113  -0.000708  -0.000122  -0.001116   0.000935   0.000088
    39  H    0.009295   0.001498   0.000044   0.001038  -0.000221  -0.000086
    40  H   -0.064031   0.081542   0.000118   0.003356   0.007977   0.000448
    41  H    0.004807   0.047773  -0.000863  -0.000732   0.001066   0.000056
    42  H    0.003367   0.063052  -0.000575   0.008332   0.000614   0.000082
    43  H    0.014349  -0.016674  -0.014201   0.025355   0.002900   0.000144
    44  H   -0.046008   0.306081  -0.052724   0.079422   0.021034  -0.000739
    45  H   -0.000272   0.018101   0.000610  -0.042871  -0.008439   0.000012
             19         20         21         22         23         24
     1  O   -0.000018   0.000107   0.000000   0.000000   0.000150   0.000000
     2  C    0.007801   0.012030   0.000405  -0.000117   0.026382  -0.000102
     3  C    0.006210  -0.027974  -0.000131   0.000086  -0.122563  -0.001622
     4  O   -0.000002  -0.000208   0.000000   0.000000  -0.000274  -0.000001
     5  H    0.000000   0.000001   0.000000   0.000000  -0.000017   0.000000
     6  C    0.002420   0.072860   0.000176   0.000272  -0.017914  -0.001229
     7  O   -0.000097   0.000902   0.000001   0.000000  -0.017397   0.000561
     8  H    0.000002  -0.000078   0.000000   0.000000  -0.001352  -0.000008
     9  C   -0.013026  -0.001413  -0.000064   0.000108  -0.004241  -0.000009
    10  O    0.003330  -0.000403   0.000019   0.000013   0.000046   0.000000
    11  H   -0.000063   0.000015   0.000000   0.000000  -0.000003   0.000000
    12  C   -0.004453  -0.043060   0.000046   0.000025  -0.015688  -0.000153
    13  O    0.005287  -0.016933   0.000645  -0.000029   0.015007  -0.000083
    14  C    0.019906  -0.461221  -0.009865   0.008546  -0.388388   0.007024
    15  O    0.030406   0.041444  -0.000554  -0.000040  -0.099792  -0.001822
    16  C   -0.075530  -3.025341  -0.063022   0.043460   0.298394   0.061335
    17  C    0.011237  -0.572818  -0.071435  -0.115742  -0.761465   0.001879
    18  O    0.181368  -0.166977   0.000779   0.020158   0.007060   0.000076
    19  H    0.348930   0.025782   0.000114  -0.000331  -0.004381   0.000001
    20  C    0.025782   9.374043   0.439126   0.046768   0.332204  -0.016614
    21  O    0.000114   0.439126   8.191864   0.207211  -0.001321  -0.000001
    22  H   -0.000331   0.046768   0.207211   0.416007   0.000945   0.000001
    23  C   -0.004381   0.332204  -0.001321   0.000945   7.632335   0.161762
    24  O    0.000001  -0.016614  -0.000001   0.000001   0.161762   8.209544
    25  H    0.000000  -0.002399   0.000001   0.000000   0.006295   0.230115
    26  C    0.015504   1.990133   0.033103  -0.015802  -1.487032  -0.077619
    27  O    0.000050  -0.095794   0.005233  -0.000678  -0.034852  -0.000725
    28  C    0.000245  -1.638719  -0.233292   0.034089  -0.297575   0.016013
    29  O    0.000035  -0.139417  -0.007865  -0.000419  -0.006771   0.000541
    30  H    0.000000   0.048112  -0.001823   0.000023   0.001570   0.000039
    31  H   -0.000012  -0.231027   0.012769  -0.000283  -0.002023  -0.000406
    32  H   -0.000187   0.312507  -0.049190  -0.004932   0.021402  -0.000035
    33  H   -0.001727  -0.085828   0.001421   0.000064   0.020157  -0.000016
    34  H   -0.000092   0.006477  -0.000491   0.000019  -0.047027  -0.000273
    35  H    0.000025  -0.070473   0.000107  -0.000005  -0.105852  -0.006032
    36  H    0.000001  -0.013328   0.000006   0.000000   0.441199  -0.056232
    37  H    0.000000   0.000001   0.000000   0.000000   0.000002   0.000000
    38  H    0.000084   0.000094   0.000000   0.000000   0.000017   0.000000
    39  H    0.000014   0.000019   0.000000   0.000000  -0.000002   0.000000
    40  H    0.000588   0.001270   0.000001   0.000000   0.000055   0.000000
    41  H   -0.000020   0.000045   0.000000   0.000000   0.000109   0.000000
    42  H   -0.000010   0.000168   0.000000   0.000000   0.000661   0.000000
    43  H   -0.000053   0.000740   0.000000   0.000000   0.005724  -0.000018
    44  H   -0.001212   0.007427   0.000042  -0.000001  -0.000135   0.000007
    45  H    0.000001   0.002528  -0.000006   0.000000   0.393746  -0.037343
             25         26         27         28         29         30
     1  O    0.000000   0.000392   0.000000  -0.000009   0.000000   0.000000
     2  C   -0.000023   0.129776   0.000830  -0.003473  -0.000006   0.000000
     3  C   -0.000080  -0.175470  -0.000831   0.008078   0.000072   0.000001
     4  O    0.000000   0.000957   0.000001   0.000017   0.000000   0.000000
     5  H    0.000000   0.000063   0.000000   0.000000   0.000000   0.000000
     6  C    0.001669  -0.455256  -0.000376   0.006883  -0.000241   0.000001
     7  O    0.000058   0.003964  -0.000042  -0.000288  -0.000002   0.000000
     8  H    0.000000   0.002145   0.000001   0.000007   0.000000   0.000000
     9  C    0.000000  -0.023134  -0.000342  -0.001738   0.000012   0.000001
    10  O    0.000000   0.000720  -0.000003  -0.000015   0.000000   0.000000
    11  H    0.000000  -0.000091   0.000000   0.000004   0.000000   0.000000
    12  C   -0.000039  -0.163431  -0.001742   0.009680   0.000105   0.000001
    13  O   -0.000004  -0.057965  -0.000122   0.003413   0.000001   0.000000
    14  C   -0.002631  -1.867719  -0.031612   0.123339   0.002021   0.000563
    15  O   -0.000185   0.104558   0.007885   0.018947   0.000148  -0.000003
    16  C    0.028171  -8.408199  -0.108355   1.591542  -0.052150   0.014233
    17  C    0.007291   1.639920  -0.069692  -0.177621   0.039981  -0.006670
    18  O    0.000000  -0.057733   0.001214   0.013552  -0.000452   0.000006
    19  H    0.000000   0.015504   0.000050   0.000245   0.000035   0.000000
    20  C   -0.002399   1.990133  -0.095794  -1.638719  -0.139417   0.048112
    21  O    0.000001   0.033103   0.005233  -0.233292  -0.007865  -0.001823
    22  H    0.000000  -0.015802  -0.000678   0.034089  -0.000419   0.000023
    23  C    0.006295  -1.487032  -0.034852  -0.297575  -0.006771   0.001570
    24  O    0.230115  -0.077619  -0.000725   0.016013   0.000541   0.000039
    25  H    0.443178  -0.042451  -0.002150   0.002046  -0.000009   0.000000
    26  C   -0.042451  15.767813   0.343638  -1.299207  -0.022879  -0.012500
    27  O   -0.002150   0.343638   8.351483   0.105948  -0.041149  -0.003293
    28  C    0.002046  -1.299207   0.105948   6.501351   0.389126  -0.030315
    29  O   -0.000009  -0.022879  -0.041149   0.389126   8.157676   0.237404
    30  H    0.000000  -0.012500  -0.003293  -0.030315   0.237404   0.414382
    31  H    0.000011  -0.055816  -0.068168   0.507012  -0.052304  -0.010719
    32  H    0.000000   0.016008   0.002614  -0.032344  -0.000641  -0.000071
    33  H    0.000000  -0.050224   0.004953  -0.008357  -0.000250   0.000005
    34  H    0.000005   0.107576   0.000917   0.006676  -0.000683   0.000004
    35  H    0.003694   0.227010  -0.051063   0.057070  -0.000256  -0.000021
    36  H    0.007706  -0.272006  -0.003206   0.005831   0.000027   0.000000
    37  H    0.000000  -0.000001   0.000000   0.000000   0.000000   0.000000
    38  H    0.000000   0.000053   0.000000  -0.000018   0.000000   0.000000
    39  H    0.000000   0.000059   0.000000   0.000000   0.000000   0.000000
    40  H    0.000000   0.001395   0.000000  -0.000167   0.000000   0.000000
    41  H    0.000000  -0.000229   0.000000  -0.000007   0.000000   0.000000
    42  H    0.000000  -0.000579   0.000000  -0.000010   0.000000   0.000000
    43  H    0.000000  -0.003982   0.000010  -0.000028   0.000000   0.000000
    44  H    0.000000   0.043577   0.000208  -0.000489  -0.000004   0.000000
    45  H   -0.014752   0.001607   0.005570   0.000971   0.000016   0.000000
             31         32         33         34         35         36
     1  O    0.000000   0.000000   0.000000  -0.000003   0.000000   0.000000
     2  C   -0.000011   0.000150  -0.001299  -0.001157  -0.000320  -0.000472
     3  C    0.000027  -0.000237   0.001321   0.004836   0.000841   0.000987
     4  O    0.000000   0.000000  -0.000001   0.000006   0.000000   0.000000
     5  H    0.000000   0.000000   0.000000   0.000000   0.000000   0.000000
     6  C    0.000161   0.001385   0.005929  -0.007984   0.003636   0.012292
     7  O    0.000003   0.000039   0.000063   0.000330   0.000022  -0.000389
     8  H    0.000000   0.000000   0.000000   0.000002   0.000000  -0.000005
     9  C    0.000013  -0.000067   0.000141   0.000383   0.000182   0.000048
    10  O    0.000000   0.000001  -0.000019   0.000007   0.000000   0.000000
    11  H    0.000000   0.000000   0.000000   0.000000   0.000000   0.000000
    12  C   -0.000011   0.000272   0.001339   0.003343   0.000171   0.000394
    13  O    0.000061   0.000584  -0.000139   0.000048  -0.000510  -0.000154
    14  C    0.004448  -0.010811   0.049885   0.007634   0.043600   0.019934
    15  O    0.000209  -0.003052  -0.010067  -0.052229   0.006432  -0.003301
    16  C    0.106480   0.164048   0.064620   0.236784   0.062303   0.163658
    17  C   -0.011487  -0.220213   0.252196  -0.031035   0.051300   0.010580
    18  O    0.000237   0.006547  -0.044724   0.001459  -0.000391   0.000020
    19  H   -0.000012  -0.000187  -0.001727  -0.000092   0.000025   0.000001
    20  C   -0.231027   0.312507  -0.085828   0.006477  -0.070473  -0.013328
    21  O    0.012769  -0.049190   0.001421  -0.000491   0.000107   0.000006
    22  H   -0.000283  -0.004932   0.000064   0.000019  -0.000005   0.000000
    23  C   -0.002023   0.021402   0.020157  -0.047027  -0.105852   0.441199
    24  O   -0.000406  -0.000035  -0.000016  -0.000273  -0.006032  -0.056232
    25  H    0.000011   0.000000   0.000000   0.000005   0.003694   0.007706
    26  C   -0.055816   0.016008  -0.050224   0.107576   0.227010  -0.272006
    27  O   -0.068168   0.002614   0.004953   0.000917  -0.051063  -0.003206
    28  C    0.507012  -0.032344  -0.008357   0.006676   0.057070   0.005831
    29  O   -0.052304  -0.000641  -0.000250  -0.000683  -0.000256   0.000027
    30  H   -0.010719  -0.000071   0.000005   0.000004  -0.000021   0.000000
    31  H    0.671220   0.007193   0.006483   0.000015   0.009949   0.000007
    32  H    0.007193   0.645815   0.008132   0.004900   0.000100  -0.000016
    33  H    0.006483   0.008132   0.653920   0.006522   0.005068  -0.000007
    34  H    0.000015   0.004900   0.006522   0.602141   0.005594   0.002923
    35  H    0.009949   0.000100   0.005068   0.005594   0.647001   0.006580
    36  H    0.000007  -0.000016  -0.000007   0.002923   0.006580   0.557648
    37  H    0.000000   0.000000   0.000000   0.000000   0.000000   0.000000
    38  H    0.000000   0.000000   0.000000   0.000000   0.000000   0.000000
    39  H    0.000000   0.000000   0.000000   0.000000   0.000000   0.000000
    40  H    0.000000   0.000000  -0.000002  -0.000009   0.000000   0.000000
    41  H    0.000000   0.000000   0.000000   0.000000   0.000000   0.000000
    42  H    0.000000   0.000000   0.000000  -0.000006   0.000000   0.000000
    43  H    0.000000   0.000000  -0.000006   0.000010  -0.000005  -0.000018
    44  H    0.000000  -0.000059  -0.000065   0.006901  -0.000012  -0.000031
    45  H    0.000006   0.000000   0.000007   0.000102  -0.007350  -0.035693
             37         38         39         40         41         42
     1  O    0.231349  -0.001867   0.005161   0.004609  -0.046537  -0.010759
     2  C    0.070506   0.030495   0.064474   0.049395   0.390658  -0.024167
     3  C   -0.063141  -0.007641  -0.015958  -0.083612  -0.087721   0.331637
     4  O    0.001036   0.000043  -0.000037  -0.000333   0.002170  -0.054722
     5  H   -0.000720   0.000000   0.000000   0.000006  -0.000121  -0.006063
     6  C    0.010115   0.011794  -0.005865   0.006457  -0.007317  -0.108356
     7  O   -0.000048  -0.000001  -0.000004  -0.000035  -0.000150   0.004881
     8  H    0.000001   0.000000   0.000000   0.000000  -0.000004  -0.000307
     9  C   -0.003514   0.671710   0.409232   0.061932   0.007086   0.013525
    10  O    0.000051  -0.063203  -0.043443   0.003827   0.000083   0.000007
    11  H   -0.000001  -0.001114  -0.012990  -0.000048  -0.000007   0.000000
    12  C    0.001497  -0.357716  -0.091575   0.157148  -0.065529  -0.004227
    13  O   -0.000687  -0.003113   0.009295  -0.064031   0.004807   0.003367
    14  C    0.001934  -0.000708   0.001498   0.081542   0.047773   0.063052
    15  O    0.000002  -0.000122   0.000044   0.000118  -0.000863  -0.000575
    16  C    0.000282  -0.001116   0.001038   0.003356  -0.000732   0.008332
    17  C   -0.000023   0.000935  -0.000221   0.007977   0.001066   0.000614
    18  O   -0.000001   0.000088  -0.000086   0.000448   0.000056   0.000082
    19  H    0.000000   0.000084   0.000014   0.000588  -0.000020  -0.000010
    20  C    0.000001   0.000094   0.000019   0.001270   0.000045   0.000168
    21  O    0.000000   0.000000   0.000000   0.000001   0.000000   0.000000
    22  H    0.000000   0.000000   0.000000   0.000000   0.000000   0.000000
    23  C    0.000002   0.000017  -0.000002   0.000055   0.000109   0.000661
    24  O    0.000000   0.000000   0.000000   0.000000   0.000000   0.000000
    25  H    0.000000   0.000000   0.000000   0.000000   0.000000   0.000000
    26  C   -0.000001   0.000053   0.000059   0.001395  -0.000229  -0.000579
    27  O    0.000000   0.000000   0.000000   0.000000   0.000000   0.000000
    28  C    0.000000  -0.000018   0.000000  -0.000167  -0.000007  -0.000010
    29  O    0.000000   0.000000   0.000000   0.000000   0.000000   0.000000
    30  H    0.000000   0.000000   0.000000   0.000000   0.000000   0.000000
    31  H    0.000000   0.000000   0.000000   0.000000   0.000000   0.000000
    32  H    0.000000   0.000000   0.000000   0.000000   0.000000   0.000000
    33  H    0.000000   0.000000   0.000000  -0.000002   0.000000   0.000000
    34  H    0.000000   0.000000   0.000000  -0.000009   0.000000  -0.000006
    35  H    0.000000   0.000000   0.000000   0.000000   0.000000   0.000000
    36  H    0.000000   0.000000   0.000000   0.000000   0.000000   0.000000
    37  H    0.398197   0.000149  -0.000483  -0.000017  -0.010604   0.000384
    38  H    0.000149   0.631836  -0.055256   0.007928   0.005877   0.000004
    39  H   -0.000483  -0.055256   0.595057  -0.010846  -0.000408  -0.000016
    40  H   -0.000017   0.007928  -0.010846   0.618266   0.006419   0.003720
    41  H   -0.010604   0.005877  -0.000408   0.006419   0.603308   0.006654
    42  H    0.000384   0.000004  -0.000016   0.003720   0.006654   0.619213
    43  H    0.000016  -0.000010   0.000000   0.000002   0.002186   0.007218
    44  H    0.000001   0.000002   0.000005   0.005813  -0.000035   0.002872
    45  H    0.000000   0.000000   0.000000   0.000000   0.000000   0.000000
             43         44         45
     1  O   -0.000800  -0.000063   0.000000
     2  C    0.059726   0.061748   0.000719
     3  C   -0.130534  -0.059666   0.004352
     4  O    0.005036  -0.000025   0.000007
     5  H   -0.000147   0.000009   0.000000
     6  C    0.315858  -0.117115  -0.018392
     7  O   -0.047283   0.007838   0.000915
     8  H   -0.006654  -0.000081   0.000050
     9  C    0.012050   0.007735  -0.000020
    10  O   -0.000008  -0.000163   0.000000
    11  H    0.000000  -0.000001   0.000000
    12  C    0.018986  -0.022389  -0.000008
    13  O    0.014349  -0.046008  -0.000272
    14  C   -0.016674   0.306081   0.018101
    15  O   -0.014201  -0.052724   0.000610
    16  C    0.025355   0.079422  -0.042871
    17  C    0.002900   0.021034  -0.008439
    18  O    0.000144  -0.000739   0.000012
    19  H   -0.000053  -0.001212   0.000001
    20  C    0.000740   0.007427   0.002528
    21  O    0.000000   0.000042  -0.000006
    22  H    0.000000  -0.000001   0.000000
    23  C    0.005724  -0.000135   0.393746
    24  O   -0.000018   0.000007  -0.037343
    25  H    0.000000   0.000000  -0.014752
    26  C   -0.003982   0.043577   0.001607
    27  O    0.000010   0.000208   0.005570
    28  C   -0.000028  -0.000489   0.000971
    29  O    0.000000  -0.000004   0.000016
    30  H    0.000000   0.000000   0.000000
    31  H    0.000000   0.000000   0.000006
    32  H    0.000000  -0.000059   0.000000
    33  H   -0.000006  -0.000065   0.000007
    34  H    0.000010   0.006901   0.000102
    35  H   -0.000005  -0.000012  -0.007350
    36  H   -0.000018  -0.000031  -0.035693
    37  H    0.000016   0.000001   0.000000
    38  H   -0.000010   0.000002   0.000000
    39  H    0.000000   0.000005   0.000000
    40  H    0.000002   0.005813   0.000000
    41  H    0.002186  -0.000035   0.000000
    42  H    0.007218   0.002872   0.000000
    43  H    0.595016   0.004368   0.000097
    44  H    0.004368   0.597142   0.000008
    45  H    0.000097   0.000008   0.584999
 Mulliken atomic charges:
              1
     1  O   -0.541125
     2  C    0.040467
     3  C    0.130063
     4  O   -0.616241
     5  H    0.371210
     6  C   -0.196617
     7  O   -0.480967
     8  H    0.366907
     9  C   -0.379524
    10  O   -0.489835
    11  H    0.350959
    12  C    0.323434
    13  O   -0.389127
    14  C    0.241552
    15  O   -0.326501
    16  C   -0.378087
    17  C    0.157537
    18  O   -0.573546
    19  H    0.441876
    20  C   -0.104778
    21  O   -0.454009
    22  H    0.360584
    23  C    0.050841
    24  O   -0.488554
    25  H    0.334486
    26  C    0.119356
    27  O   -0.316362
    28  C    0.321833
    29  O   -0.501664
    30  H    0.349070
    31  H    0.105965
    32  H    0.130157
    33  H    0.120507
    34  H    0.135373
    35  H    0.111602
    36  H    0.155018
    37  H    0.363718
    38  H    0.130777
    39  H    0.151292
    40  H    0.136826
    41  H    0.141987
    42  H    0.143408
    43  H    0.150631
    44  H    0.148778
    45  H    0.150724
 Sum of Mulliken atomic charges =   0.00000
 Mulliken charges with hydrogens summed into heavy atoms:
              1
     1  O   -0.177407
     2  C    0.182455
     3  C    0.273471
     4  O   -0.245031
     6  C   -0.045986
     7  O   -0.114061
     9  C   -0.097455
    10  O   -0.138876
    12  C    0.460260
    13  O   -0.389127
    14  C    0.390330
    15  O   -0.326501
    16  C   -0.242714
    17  C    0.278044
    18  O   -0.131670
    20  C    0.025379
    21  O   -0.093425
    23  C    0.356583
    24  O   -0.154068
    26  C    0.230957
    27  O   -0.316362
    28  C    0.427798
    29  O   -0.152594
 Sum of Mulliken charges with hydrogens summed into heavy atoms =   0.00000
 APT atomic charges:
              1
     1  O   -0.639081
     2  C    0.406968
     3  C    0.412236
     4  O   -0.673661
     5  H    0.252108
     6  C    0.370024
     7  O   -0.584993
     8  H    0.274902
     9  C    0.454162
    10  O   -0.571272
    11  H    0.241781
    12  C    0.434612
    13  O   -0.823309
    14  C    0.883763
    15  O   -0.871006
    16  C    0.454258
    17  C    0.352513
    18  O   -0.735917
    19  H    0.442402
    20  C    0.387443
    21  O   -0.596807
    22  H    0.263407
    23  C    0.482658
    24  O   -0.610405
    25  H    0.230044
    26  C    0.411288
    27  O   -0.808340
    28  C    0.957554
    29  O   -0.671478
    30  H    0.262654
    31  H   -0.088915
    32  H   -0.060876
    33  H   -0.066678
    34  H   -0.038046
    35  H   -0.061240
    36  H   -0.007559
    37  H    0.256238
    38  H   -0.065201
    39  H   -0.026778
    40  H   -0.050154
    41  H   -0.043543
    42  H   -0.047566
    43  H   -0.028638
    44  H   -0.038931
    45  H   -0.020622
 Sum of APT charges=   0.00000
 APT Atomic charges with hydrogens summed into heavy atoms:
              1
[...]
 0.00012232,0.00050480,0.00020714,0.00032321,-0.00028495,-0.00068331,-0
 .00045781,0.00092291,0.00055843,-0.00025319,-0.00002067,0.00003464,0.0
 0009132,-0.00015521,0.00000659,-0.00000662,-0.00003386,0.00005275,-0.0
 0001812,0.00001162,-0.00006424,0.00001288,0.00005596,-0.00001477,0.000
 02286,-0.00001240,0.00000680,-0.00001499,0.00000884,-0.00000555,0.0000
 0817,-0.00000445,-0.00005003,-0.00000351,0.00000677,0.00003338,0.00002
 079,-0.00000160,-0.00000851,-0.00000784,0.00001294,-0.00002539,-0.0000
 2023,-0.00000989,0.00002236,0.00000806,0.00001325,-0.00000837,-0.00000
 312,-0.00002118,0.00000286,0.00000012,0.00001359,-0.00000163,0.0000010
 8,-0.00000331,0.00000513,-0.00000124,0.00000312,0.00000945,-0.00000690
 ,-0.00000022,0.00000861,-0.00000539,0.00001044,0.00000372,-0.00000723,
 -0.00003809,0.00000840,-0.00000573,0.00000756,0.00000152,-0.00000564,-
 0.00000017,0.00020102,-0.00049225,-0.00032982,-0.00006682,-0.00026054,
 -0.00002318,0.00000555,0.00001562,0.00000462,0.00066685,0.00005620,-0.
 00032970,0.00060736,0.00023842,-0.00035010,0.35667385,-0.00034789,0.00
 290396,0.00247045,0.03403710,-0.01806097,-0.00180788,0.09174708,-0.068
 02887,0.00136010,-0.03350508,-0.00304706,0.00884372,-0.00008489,0.0010
 5064,-0.00074649,-0.00554182,0.00242408,-0.00098316,0.00017382,0.00124
 591,0.00137960,-0.00034849,-0.00000970,0.00019937,0.00001572,-0.000033
 75,-0.00020108,-0.00022329,-0.00009019,0.00011724,0.00002500,0.0000039
 0,0.00000213,0.00218469,0.00165446,-0.00093120,-0.00060229,-0.00036827
 ,0.00048364,0.00119169,0.00032956,0.00045311,-0.00014433,-0.00007209,0
 .00003929,0.00005399,-0.00001178,0.00000710,-0.00000287,-0.00001209,-0
 .00000603,-0.00004684,0.00000630,0.00006008,0.00006273,0.00001977,-0.0
 0009005,0.00001009,-0.00000167,-0.00000121,-0.00000924,0.00000024,0.00
 000265,0.00000763,-0.00000199,-0.00000140,-0.00002011,0.00000533,-0.00
 000968,0.00000989,0.00000121,0.00000941,-0.00000168,-0.00000214,0.0000
 0095,0.00000209,0.00000482,0.00000073,-0.00000780,-0.00000782,0.000009
 59,0.00000600,0.00000738,-0.00000590,-0.00000323,-0.00000056,0.0000065
 3,0.00000027,0.00000027,-0.00000126,-0.00000157,-0.00000083,-0.0000007
 2,-0.00000299,0.00000241,0.00000155,-0.00000262,0.00000029,-0.00000196
 ,-0.00000084,0.00001096,0.00000229,-0.00000207,-0.00000394,-0.00000203
 ,0.00000886,-0.00000262,-0.00000659,-0.00003547,0.00016217,0.00029205,
 -0.00029198,0.00019804,0.00013533,-0.00000592,-0.00003671,-0.00003445,
 -0.00107168,-0.00015143,0.00050304,-0.00074214,-0.00550301,-0.00245644
 ,-0.08548491,0.08507133,0.00146624,-0.00014419,0.00052763,0.00930748,-
 0.00845470,0.00087497,-0.01940810,0.00243882,-0.04190312,0.03189364,0.
 00783008,-0.00515573,0.00118099,-0.00116504,0.00095527,-0.03638695,0.0
 1002652,-0.00601463,0.00297819,0.00013556,0.00245674,-0.00031156,0.000
 05454,-0.00029561,-0.00004468,-0.00005347,0.00004992,-0.00005412,-0.00
 005964,0.00000427,-0.00000153,-0.00000643,0.00000769,-0.00018076,0.000
 68988,-0.00010126,0.00045874,0.00013246,-0.00020948,-0.00201733,-0.000
 04904,0.00042022,0.00044959,-0.00011698,0.00015873,0.00013462,0.000021
 20,0.00005171,-0.00000726,-0.00001465,-0.00001330,0.00003101,-0.000000
 31,0.00001235,-0.00002956,0.00000462,0.00000171,-0.00000825,0.00001287
 ,-0.00000214,0.00000692,-0.00000114,-0.00000096,-0.00000244,0.00000264
 ,-0.00000212,-0.00004416,0.00002985,0.00004028,0.00001060,-0.00001457,
 -0.00001567,0.00000035,0.00000156,0.00001059,-0.00002608,-0.00001426,0
 .00001866,0.00002129,0.00001000,-0.00001425,-0.00000866,-0.00001219,0.
 00000113,0.00000438,0.00000025,-0.00000289,-0.00000111,0.00000090,0.00
 000073,0.00000232,0.00000048,0.00000188,0.00000490,-0.00000056,-0.0000
 0112,0.00000620,-0.00000003,0.00000776,0.00003422,-0.00000249,-0.00006
 464,0.00000469,-0.00000675,0.00000748,0.00001228,-0.00000903,-0.000010
 06,0.00012954,-0.00013716,-0.00007461,-0.00002844,0.00007647,0.0000139
 7,0.00000314,-0.00001074,-0.00001505,-0.00011175,0.00013016,0.00012735
 ,0.00000372,-0.00183004,-0.00064055,0.01170204,-0.00817264,0.05497895,
 0.00024828,-0.00035544,-0.00017637,-0.00016420,0.00101562,0.00009624,-
 0.01330196,0.00077689,-0.00274555,0.00171276,0.00008497,0.00030485,0.0
 0020885,0.00007477,-0.00003165,-0.33881607,0.07504928,-0.02112751,0.00
 450594,0.00610040,0.00154481,0.00094870,0.00056629,0.00057093,-0.00001
 693,0.00002247,0.00006961,0.00003649,-0.00000889,-0.00001324,-0.000011
 32,-0.00000298,0.00000426,-0.00023404,-0.00021194,-0.00026799,0.002451
 09,0.00049847,-0.00053538,-0.01903751,0.00415377,-0.00102075,0.0017418
 1,0.00028463,-0.00234881,0.00025593,0.00037823,0.00020256,0.00008192,-
 0.00002044,-0.00020922,0.00013314,-0.00004086,-0.00008009,-0.00013582,
 -0.00002311,0.00015748,-0.00004383,0.00007550,0.00002878,0.00004719,0.
 00001133,-0.00003977,-0.00001983,0.00000020,-0.00000131,-0.00007726,0.
 00006300,0.00003795,0.00000933,-0.00005017,-0.00001493,0.00000419,0.00
 000865,0.00001214,0.00000527,-0.00000375,0.00008242,0.00001696,-0.0000
 2027,-0.00006905,-0.00001482,-0.00000979,0.00003688,0.00001282,-0.0000
 0699,-0.00002256,-0.00000103,0.00000204,0.00000305,0.00000533,-0.00000
 042,0.00000208,0.00001522,-0.00000823,-0.00000005,0.00000851,-0.000016
 03,0.00002159,0.00013084,-0.00002801,-0.00022734,0.00000899,-0.0000158
 5,0.00002174,0.00003633,-0.00001890,-0.00002863,-0.00002518,-0.0000164
 7,-0.00004067,0.00002631,-0.00004584,-0.00002798,0.00001571,0.00002375
 ,0.00000464,0.00018907,0.00011850,0.00007709,0.00022187,-0.00063391,-0
 .00027388,0.00039341,-0.00085522,-0.00183425,0.35879806,0.00016693,0.0
 0013836,0.00021556,-0.00030869,-0.00001236,0.00060400,-0.00508800,0.00
 405661,-0.00070502,0.00068357,0.00033795,-0.00016338,-0.00011431,-0.00
 006993,-0.00006447,0.07505002,-0.05882241,0.01069650,0.03432429,-0.034
 03316,-0.00788840,0.00201089,0.00038384,-0.00119405,-0.00004101,0.0000
 6779,0.00002866,-0.00000055,-0.00004387,-0.00000888,0.00000304,0.00000
 343,0.00000422,-0.00029053,-0.00020751,-0.00018840,-0.00036138,0.00088
 061,0.00006870,-0.02043853,0.00378075,-0.00078927,0.00031081,0.0003405
 6,-0.00117037,-0.00006921,0.00028837,-0.00005871,-0.00003993,-0.000077
 50,-0.00021198,0.00011324,-0.00010549,0.00012405,-0.00013612,0.0001378
 9,0.00004169,-0.00000649,0.00002601,0.00000415,0.00000386,0.00000244,0
 .00000782,0.00000580,0.00000602,-0.00001254,0.00016056,-0.00011906,-0.
 00002648,-0.00004711,0.00005513,0.00001057,0.00000031,0.00000067,-0.00
 003062,-0.00000879,0.00000276,-0.00000977,0.00000279,0.00001534,0.0000
 0248,-0.00001164,-0.00002620,-0.00001191,-0.00000054,0.00001073,0.0000
 1838,-0.00000028,-0.00000269,-0.00000098,-0.00000017,0.00000350,0.0000
 0169,0.00000864,-0.00000560,-0.00000559,0.00001826,0.00000356,0.000024
 64,0.00008021,-0.00008078,0.00003481,0.00001339,0.00002675,0.00000189,
 -0.00006474,0.00002380,0.00007156,0.00004170,0.00003237,0.00001032,0.0
 0001749,-0.00003333,-0.00001374,0.00000851,-0.00000892,-0.00000498,0.0
 0016101,0.00001212,0.00003001,0.00011779,0.00015562,0.00009572,-0.0001
 9153,0.00027410,-0.00155363,-0.08514971,0.08492772,0.00059457,-0.00046
 916,-0.00039465,-0.00030463,0.00117323,0.00112555,-0.03714697,0.006730
 87,-0.00672478,0.00097431,-0.00108848,0.00319613,0.00035067,-0.0001540
 2,0.00049369,-0.02531176,0.01040697,-0.04441523,0.01134804,-0.01283181
 ,0.00184555,-0.00038979,0.00070729,0.00008839,-0.00005736,0.00001887,0
 .00008507,-0.00000235,-0.00003832,-0.00000022,-0.00000154,0.00000066,0
 .00000652,-0.00028529,-0.00022213,-0.00041733,-0.00123605,-0.00144847,
 0.00011109,0.02478122,-0.00281607,-0.00016491,0.00018510,-0.00043314,0
 .00128649,0.00033210,-0.00032978,-0.00025780,0.00002672,0.00008291,0.0
 0025294,-0.00014054,0.00007550,-0.00011124,0.00014609,-0.00010670,-0.0
 0000791,0.00002675,-0.00004629,-0.00002619,-0.00004142,-0.00003159,0.0
 0002249,0.00000628,-0.00000064,0.00000915,0.00014447,-0.00012237,-0.00
 017972,-0.00001481,0.00006397,0.00012182,-0.00000656,-0.00000476,-0.00
 004373,-0.00003783,0.00005785,-0.00005526,-0.00007875,-0.00005342,0.00
 012969,0.00004476,0.00008512,-0.00004824,-0.00002700,-0.00001293,0.000
 03482,0.00000194,0.00000158,-0.00000878,-0.00000391,-0.00000507,-0.000
 00332,-0.00001402,0.00000447,0.00000746,-0.00002903,0.00001963,-0.0000
 3006,-0.00022703,0.00007454,0.00001861,-0.00002194,0.00001422,-0.00003
 877,-0.00003519,0.00001521,0.00003622,0.00001534,-0.00013277,-0.000098
 27,0.00000853,-0.00001895,-0.00000195,0.00001106,0.00002233,-0.0000055
 6,0.00008700,-0.00001636,-0.00013082,0.00030363,-0.00055046,-0.0001975
 2,-0.00162551,-0.00105412,-0.00592729,0.02644523,-0.00006077,0.0527383
 8,0.00008081,0.00003898,0.00010312,-0.00005597,0.00006914,-0.00003870,
 -0.00074805,-0.00006085,-0.00075994,0.00053027,-0.00006783,0.00004748,
 -0.00003321,-0.00003201,0.00015514,-0.01140891,0.00524249,0.00074713,0
 .00116982,-0.00033293,-0.00042832,0.00021265,-0.00001671,-0.00010893,0
 .00031758,-0.00010949,0.00007562,0.00000910,-0.00002397,0.00000379,0.0
 0000075,-0.00000232,0.00000610,0.00114313,-0.00023274,0.00036624,0.002
 02161,0.00432457,0.00040889,-0.35176880,0.06129634,0.03768245,-0.01358
 779,0.00283140,-0.00535675,0.00012085,0.00007837,0.00335784,0.00012037
 ,-0.00003585,-0.00044035,0.00048081,-0.00042327,-0.00006468,-0.0006603
 4,0.00018493,0.00045430,-0.00001895,0.00014401,0.00005169,0.00006418,0
 .00002326,-0.00004789,-0.00001097,0.00000112,-0.00001522,-0.00013876,0
 .00012317,0.00005751,0.00002926,-0.00005256,-0.00006545,0.00000391,0.0
 0000314,0.00003374,0.00032584,-0.00025576,0.00003423,0.00002612,-0.000
 01816,-0.00025634,-0.00005030,-0.00009203,0.00005469,0.00002434,0.0000
 1244,-0.00002593,-0.00000159,-0.00000025,0.00000623,0.00000599,0.00000
 793,0.00000200,0.00004090,-0.00000787,-0.00001297,-0.00000001,-0.00013
 654,0.00014578,0.00123337,-0.00029621,-0.00101037,0.00008257,0.0000295
 2,0.00020449,0.00002593,-0.00005556,-0.00002687,0.00001256,-0.00000212
 ,0.00000851,-0.00004173,-0.00010384,-0.00007637,-0.00002847,0.00007633
 ,0.00003378,0.00018955,0.00058861,0.00097971,-0.00001782,-0.00013048,-
 0.00017827,0.00080098,-0.00014398,0.00064770,-0.00039032,-0.00093758,0
 .00126620,0.36980349,0.00012523,0.00035723,-0.00024112,-0.00050473,-0.
 00065196,-0.00005178,-0.00093378,-0.00004205,-0.00159282,0.00028415,-0
 .00018241,0.00049909,0.00012061,-0.00009850,0.00012970,-0.01930187,0.0
 0827257,0.00260149,0.00192103,0.00167026,-0.00088641,0.00027714,0.0004
 5120,0.00000989,-0.00041396,0.00021876,-0.00030192,-0.00006244,-0.0000
 8899,0.00007059,0.00000727,0.00003155,-0.00000798,0.00383334,0.0017340
 1,0.00482234,0.03065705,-0.01910142,-0.00969224,0.05723968,-0.05728415
 ,-0.00536432,0.00121129,0.00320810,0.00037024,-0.00065862,0.00005124,-
 0.00013465,0.00018971,-0.00001430,0.00022957,-0.00070789,0.00030015,0.
 00022976,0.00142487,-0.00035349,-0.00132458,0.00001701,-0.00004038,0.0
 0005348,0.00002220,0.00005140,-0.00003917,-0.00000177,-0.00003291,0.00
 001685,-0.00001606,0.00009872,-0.00001560,-0.00001389,-0.00004869,-0.0
 0002427,0.00000883,0.00000498,0.00000964,-0.00008592,0.00006618,0.0000
 5430,0.00002743,-0.00000739,-0.00002724,-0.00000213,0.00001971,0.00006
 928,0.00001088,-0.00000758,-0.00004817,0.00000104,-0.00000090,0.000007
 06,-0.00000830,-0.00000507,-0.00000774,-0.00002725,0.00002676,0.000010
 37,-0.00003129,-0.00001097,-0.00005688,0.00002649,0.00014804,0.0001018
 4,-0.00000952,-0.00002705,-0.00003874,-0.00000602,-0.00001666,0.000005
 63,-0.00003835,0.00000116,-0.00004172,-0.00003797,0.00018449,0.0001253
 3,-0.00008126,-0.00019210,-0.00001074,-0.00146499,0.00052956,-0.000475
 15,-0.00003322,-0.00005844,0.00008659,0.00040421,0.00006671,0.00021165
 ,-0.00181625,-0.00232095,0.00257791,-0.07156528,0.06310642,-0.00014209
 ,-0.00000745,-0.00025002,0.00007740,0.00013838,-0.00008259,0.00139986,
 -0.00042470,0.00153279,-0.00044732,0.00014308,-0.00008408,-0.00010236,
 -0.00000441,-0.00007611,0.01889762,-0.00492850,0.00175015,-0.00115890,
 0.00053425,0.00058999,-0.00021896,-0.00011853,0.00006657,-0.00021420,0
 .00002499,-0.00005181,-0.00001531,-0.00002823,0.00000760,0.00000436,0.
 00000792,-0.00001030,0.00251937,0.00037315,0.00285898,0.00899145,-0.00
 710481,-0.00121031,0.04409483,-0.00629206,-0.05194360,-0.03224597,0.00
 660180,-0.00809655,-0.00512600,0.00100275,0.00479111,-0.00012899,-0.00
 004801,-0.00056735,0.00016627,-0.00002114,0.00040437,-0.00030456,0.000
 21058,-0.00058613,-0.00002475,0.00010471,0.00006597,0.00009003,0.00004
 876,-0.00003814,-0.00000838,0.00000873,-0.00002430,-0.00010359,0.00010
 676,0.00018859,-0.00000422,-0.00007823,-0.00014696,0.00002226,0.000012
 79,0.00002844,0.00020595,-0.00017020,0.00003942,0.00017595,0.00000360,
 -0.00030693,-0.00008098,-0.00015559,0.00009123,0.00003988,0.00002517,-
 0.00004495,-0.00000163,-0.00000264,0.00001140,0.00000504,0.00001051,0.
 00001018,0.00007165,-0.00001230,-0.00007442,0.00015038,-0.00013330,0.0
 0007127,0.00119278,-0.00064318,-0.00029291,0.00016170,-0.00001543,0.00
 014446,0.00002356,-0.00002844,-0.00000929,-0.00002589,0.00001503,0.000
 00829,-0.00005993,0.00012227,0.00002993,-0.00002044,-0.00005634,-0.000
 01042,-0.00080176,0.00039431,-0.00000489,-0.00013912,0.00000663,0.0000
 5497,-0.00044360,0.00013629,-0.00027783,0.00140930,0.00208878,-0.00227
 883,-0.03801342,0.00806885,0.05378913,0.00005149,0.00006352,0.00012964
 ,-0.00000253,-0.00008505,-0.00004717,-0.00002320,0.00009298,-0.0000832
 0,-0.00001640,0.00000830,0.00013607,0.00000679,0.00000961,-0.00000616,
 -0.00007171,-0.00048985,-0.00031719,0.00041679,0.00017728,0.00066353,-
 0.00000420,0.00007967,-0.00009984,-0.00000649,-0.00009499,0.00005167,0
 .00002741,0.00007413,-0.00003705,-0.00000684,-0.00001254,0.00000076,-0
 .00009887,-0.00001087,-0.00005640,0.00013039,0.00038361,0.00014284,-0.
 00018297,-0.00026658,-0.00079172,0.00116047,0.00086736,-0.00010610,-0.
 00126983,-0.00036690,0.00169078,0.00013582,0.00003703,0.00003114,0.000
 02160,-0.00006582,-0.00035073,-0.00012414,-0.00016950,0.00020064,0.000
 07599,0.00010686,0.00017925,-0.00003237,-0.00014331,-0.00014456,-0.000
 03686,-0.00001222,0.00003405,-0.19625606,0.03891850,0.15926799,0.01066
 388,-0.00939467,-0.02287142,0.00379897,-0.00057986,-0.00097971,-0.0074
 2562,0.00671457,0.00718679,0.00016324,-0.00362350,0.00029607,0.0002277
 1,0.00123219,-0.00026733,-0.00025611,-0.00023989,0.00043637,-0.0000336
 2,-0.00000046,-0.00007549,0.00000362,-0.00017756,0.00003660,0.00000309
 ,0.00000907,-0.00000287,-0.00001962,-0.00004507,0.00000745,0.00018905,
 -0.00008580,-0.00004057,0.00103156,-0.00050994,-0.00024406,-0.01353568
 ,0.00255018,0.01682747,0.00000130,-0.00001408,-0.00001918,0.00000058,0
 .00000829,-0.00000415,0.00000229,0.00002173,0.00000090,0.00001030,-0.0
 0000706,0.00001313,-0.00000138,0.00000761,0.00000502,0.00000543,-0.000
 00540,0.00001220,0.00001980,0.00000374,-0.00006074,0.00008527,0.000013
 31,0.00013274,0.20117162,-0.00000892,-0.00002949,-0.00000154,-0.000001
 35,0.00003662,-0.00002549,0.00005086,-0.00009690,-0.00006018,-0.000017
 31,-0.00006550,0.00001868,-0.00000626,0.00000118,0.00000835,-0.0000937
 9,0.00050520,0.00005930,-0.00030735,-0.00043229,-0.00037022,0.00008558
 ,0.00003221,0.00017899,-0.00000559,-0.00000857,0.00001458,0.00000607,0
 .00000165,-0.00000200,-0.00000319,-0.00000222,0.00000089,-0.00001948,-
 0.00000189,-0.00005488,0.00002132,0.00002025,0.00008311,0.00000543,-0.
 00004641,-0.00058379,-0.00033375,-0.00095703,-0.00082890,-0.00023305,0
 .00067150,0.00020644,-0.00005723,0.00001675,0.00027136,0.00010761,0.00
 007525,-0.00016619,-0.00004377,-0.00006719,0.00000825,0.00011379,-0.00
 003836,0.00029634,-0.00007584,-0.00018776,-0.00017274,-0.00004286,-0.0
 0002579,0.00003196,0.03802267,-0.05450948,-0.03418626,0.00549053,-0.00
 629196,-0.02258004,0.00041762,0.00069375,0.00081322,-0.01935055,0.0070
 0410,0.02124335,-0.00247922,-0.00771817,0.00166957,-0.00074047,0.00199
 639,-0.00024230,-0.00041465,-0.00050785,0.00090642,-0.00008074,-0.0000
 5252,-0.00008567,0.00011085,-0.00015231,0.00005212,-0.00000082,-0.0000
 0700,-0.00000577,0.00004116,-0.00001461,0.00004058,0.00005052,-0.00003
 458,-0.00008496,0.00077916,0.00124495,0.00042434,0.01387366,-0.0018605
 4,-0.01518791,-0.00000007,0.00000418,0.00000183,0.00000192,0.00000177,
 -0.00000341,0.00000170,0.00000682,0.00000150,0.00000484,-0.00000088,0.
 00000936,0.00000075,-0.00000458,-0.00000225,-0.00000231,0.00000365,0.0
 0001918,0.00005069,-0.00002505,-0.00008454,0.00006045,-0.00001285,0.00
 008342,-0.03497861,0.06083557,0.00000807,0.00002642,0.00000807,-0.0000
 0637,-0.00004388,0.00001151,0.00002145,0.00002344,-0.00001283,0.000000
 30,0.00002265,0.00001504,0.00000507,0.00000212,-0.00000433,-0.00007374
 ,-0.00024326,-0.00016374,0.00011849,0.00002931,0.00002156,-0.00002503,
 0.00005592,-0.00007790,0.00000188,0.00000068,-0.00001325,-0.00000488,0
 .00000405,-0.00000077,0.00000237,0.00000090,-0.00000070,0.00001377,-0.
 00002007,0.00000459,-0.00001333,-0.00003725,-0.00014177,-0.00019989,-0
 .00026008,0.00032324,-0.00148607,-0.00127723,-0.00108942,0.00020869,0.
 00056888,-0.00038091,0.00023118,-0.00004701,0.00009978,-0.00004639,0.0
 0007223,0.00004779,0.00001689,0.00001657,0.00000725,-0.00003142,0.0000
 2439,-0.00004489,0.00000355,0.00002658,0.00004237,0.00000939,0.0000078
 4,-0.00000774,0.15464817,-0.03464829,-0.20429249,0.00504543,-0.0148424
 2,-0.02977209,0.00075309,-0.00084258,0.00006548,0.01003305,-0.00046339
 ,-0.00725025,-0.00033905,0.00185128,0.00042326,0.00028135,-0.00049947,
 0.00007156,0.00004009,0.00010161,-0.00006697,0.00000765,-0.00002784,0.
 00001259,-0.00003930,0.00000310,-0.00001662,-0.00000319,-0.00000142,-0
 .00000135,-0.00003454,0.00000652,-0.00002714,-0.00002731,-0.00003912,-
 0.00007834,-0.00046287,-0.00035361,0.00032105,-0.00777541,0.00251234,0
 .01061668,0.00000044,-0.00000230,-0.00000224,0.00000008,-0.00000007,0.
 00000200,-0.00000194,-0.00000614,-0.00000152,-0.00000211,0.00000168,-0
 .00000126,-0.00000079,0.00000342,0.00000115,0.00000489,-0.00000191,0.0
 0001236,0.00000339,-0.00001226,-0.00004166,-0.00000758,0.00002178,-0.0
 0006606,-0.16087747,0.04828592,0.23144896\\0.00429135,0.01123080,-0.00
 070747,-0.00174072,-0.01387058,0.01332976,0.00886309,-0.04633235,0.000
 20224,-0.01463822,-0.00022514,0.02974560,0.00229229,0.01530253,-0.0316
 3027,0.01026526,0.01275463,-0.01036179,-0.01276404,0.00110316,0.040448
 14,0.02056775,0.00189301,-0.01950139,-0.01673146,0.00825324,-0.0092873
 3,0.00967300,0.00804196,0.01629510,-0.00367790,-0.01863458,-0.02552582
 ,0.02150782,-0.00931328,-0.00713381,0.01078210,0.02164675,0.02099659,-
 0.07308767,0.01549685,-0.02944234,0.01038009,-0.03228397,-0.00240027,-
 0.00682478,0.03141380,0.02185326,0.01871338,0.03610196,-0.01190570,-0.
 00115826,-0.02906723,0.01096175,0.00440952,0.01717041,-0.01551113,0.02
 218477,-0.00622801,-0.02960314,-0.00770901,0.01333973,0.04232081,-0.00
 990815,-0.00581095,-0.02357426,0.00612539,-0.00568234,-0.02876147,-0.0
 2606477,0.01660040,0.00151768,0.02667883,-0.01513748,-0.00314500,0.010
 95039,0.00178312,0.00679002,-0.00517591,-0.01847312,-0.00678797,0.0076
 9769,-0.01007776,-0.02085029,0.00020510,-0.00086481,0.03490974,-0.0056
 1600,-0.00200395,-0.00112391,-0.01934948,0.00997454,-0.00531313,0.0176
 6596,-0.01333194,0.00484745,-0.02103412,0.00877786,-0.00183583,0.01320
 552,-0.01322473,0.00229052,-0.01771802,0.01231649,-0.00567783,0.009324
 08,-0.01490379,0.00384434,-0.00272040,0.00177403,0.00366110,-0.0214482
 9,0.00513684,0.00656003,0.00813720,-0.00790791,0.01686025,0.02291795,-
 0.00614623,-0.00038325,-0.01834535,0.00731634,0.00327351,0.02318718,-0
 .00272044,0.00192365,-0.01713965,0.00958776,-0.00522590,0.01800805,-0.
 00138694,-0.00253460,-0.00518157,0.00661131,0.01559239\\\@


 A great many people think they are thinking when they
 are merely rearranging their prejudices.
                               -- William James
 Job cpu time:  0 days 12 hours 56 minutes 59.2 seconds.
 File lengths (MBytes):  RWF=   1324 Int=      0 D2E=      0 Chk=     19 Scr=      1
 Normal termination of Gaussian 09 at Thu Jan 21 17:59:41 2016.
Gaussian '09 finished on node030 at Thu Jan 21 17:59:41 EST 2016.
