Gaussian '09 started on node015 at Sat Oct 17 14:44:12 EDT 2015.
 Entering Gaussian System, Link 0=/usr/local/gaussian/g09/g09
 Initial command:
 /usr/local/gaussian/g09/l1.exe /home/srmcgrat/data/gaussian/cellobiose/450/6-31gdp/7000ps/gaussian2589/Gau-2628.inp -scrdir=/home/srmcgrat/data/gaussian/cellobiose/450/6-31gdp/7000ps/gaussian2589/
 Entering Link 1 = /usr/local/gaussian/g09/l1.exe PID=      2638.
  
 Copyright (c) 1988,1990,1992,1993,1995,1998,2003,2009,2010,
            Gaussian, Inc.  All Rights Reserved.
  
 This is part of the Gaussian(R) 09 program.  It is based on
 the Gaussian(R) 03 system (copyright 2003, Gaussian, Inc.),
 the Gaussian(R) 98 system (copyright 1998, Gaussian, Inc.),
 the Gaussian(R) 94 system (copyright 1995, Gaussian, Inc.),
 the Gaussian 92(TM) system (copyright 1992, Gaussian, Inc.),
 the Gaussian 90(TM) system (copyright 1990, Gaussian, Inc.),
 the Gaussian 88(TM) system (copyright 1988, Gaussian, Inc.),
 the Gaussian 86(TM) system (copyright 1986, Carnegie Mellon
 University), and the Gaussian 82(TM) system (copyright 1983,
 Carnegie Mellon University). Gaussian is a federally registered
 trademark of Gaussian, Inc.
  
 This software contains proprietary and confidential information,
 including trade secrets, belonging to Gaussian, Inc.
  
 This software is provided under written license and may be
 used, copied, transmitted, or stored only in accord with that
 written license.
  
 The following legend is applicable only to US Government
 contracts under FAR:
  
                    RESTRICTED RIGHTS LEGEND
  
 Use, reproduction and disclosure by the US Government is
 subject to restrictions as set forth in subparagraphs (a)
 and (c) of the Commercial Computer Software - Restricted
 Rights clause in FAR 52.227-19.
  
 Gaussian, Inc.
 340 Quinnipiac St., Bldg. 40, Wallingford CT 06492
  
  
 ---------------------------------------------------------------
 Warning -- This program may not be used in any manner that
 competes with the business of Gaussian, Inc. or will provide
 assistance to any competitor of Gaussian, Inc.  The licensee
 of this program is prohibited from giving any competitor of
 Gaussian, Inc. access to this program.  By using this program,
 the user acknowledges that Gaussian, Inc. is engaged in the
 business of creating and licensing software in the field of
 computational chemistry and represents and warrants to the
 licensee that it is not a competitor of Gaussian, Inc. and that
 it will not use this program in any manner prohibited above.
 ---------------------------------------------------------------
  

 Cite this work as:
 Gaussian 09, Revision B.01,
 M. J. Frisch, G. W. Trucks, H. B. Schlegel, G. E. Scuseria, 
 M. A. Robb, J. R. Cheeseman, G. Scalmani, V. Barone, B. Mennucci, 
 G. A. Petersson, H. Nakatsuji, M. Caricato, X. Li, H. P. Hratchian, 
 A. F. Izmaylov, J. Bloino, G. Zheng, J. L. Sonnenberg, M. Hada, 
 M. Ehara, K. Toyota, R. Fukuda, J. Hasegawa, M. Ishida, T. Nakajima, 
 Y. Honda, O. Kitao, H. Nakai, T. Vreven, J. A. Montgomery, Jr., 
 J. E. Peralta, F. Ogliaro, M. Bearpark, J. J. Heyd, E. Brothers, 
 K. N. Kudin, V. N. Staroverov, T. Keith, R. Kobayashi, J. Normand, 
 K. Raghavachari, A. Rendell, J. C. Burant, S. S. Iyengar, J. Tomasi, 
 M. Cossi, N. Rega, J. M. Millam, M. Klene, J. E. Knox, J. B. Cross, 
 V. Bakken, C. Adamo, J. Jaramillo, R. Gomperts, R. E. Stratmann, 
 O. Yazyev, A. J. Austin, R. Cammi, C. Pomelli, J. W. Ochterski, 
 R. L. Martin, K. Morokuma, V. G. Zakrzewski, G. A. Voth, 
 P. Salvador, J. J. Dannenberg, S. Dapprich, A. D. Daniels, 
 O. Farkas, J. B. Foresman, J. V. Ortiz, J. Cioslowski, 
 and D. J. Fox, Gaussian, Inc., Wallingford CT, 2010.
 
 ******************************************
 Gaussian 09:  EM64L-G09RevB.01 12-Aug-2010
                17-Oct-2015 
 ******************************************
 -------------------------------
 ## freq=raman b3lyp/6-31+g(d,p)
 -------------------------------
 1/10=4,30=1,38=1/1,3;
 2/12=2,17=6,18=5,40=1/2;
 3/5=1,6=6,7=111,11=2,16=1,25=1,30=1,71=2,74=-5/1,2,3;
 4//1;
 5/5=2,38=5,98=1/2;
 8/6=4,10=90,11=11/1;
 10/13=10,15=4/2;
 11/6=3,8=1,9=11,15=111,16=1/1,2,10;
 10/6=1/2;
 6/7=2,8=2,9=2,10=2,18=1,28=1/1;
 7/8=1,10=1,25=1/1,2,3,16;
 1/10=4,30=1/3;
 99//99;
 -----------------------------
 450K 7000ps Cellobiose Unit 1
 -----------------------------
 Symbolic Z-matrix:
 Charge =  0 Multiplicity = 1
 O(PDBName=O1,ResName=GLC,ResNum=6)  10.268    7.847     32.242 
 C(PDBName=C4,ResName=GLC,ResNum=7)  11.172    7.749     33.352 
 C(PDBName=C3,ResName=GLC,ResNum=7)  11.521    9.152     33.82 
 O(PDBName=O3,ResName=GLC,ResNum=7)  12.613    9.774     33.128 
 H(PDBName=HO3,ResName=GLC,ResNum=7)  12.492    9.892     32.142 
 C(PDBName=C2,ResName=GLC,ResNum=7)  12.108    9.334     35.211 
 O(PDBName=O2,ResName=GLC,ResNum=7)  12.023    10.697    35.653 
 H(PDBName=HO2,ResName=GLC,ResNum=7)  12.284    11.183    34.819 
 C(PDBName=C6,ResName=GLC,ResNum=7)  10.043    5.545     34.061 
 O(PDBName=O6,ResName=GLC,ResNum=7)  9.427     4.798     35.12 
 H(PDBName=HO6,ResName=GLC,ResNum=7)  9.216     3.902     34.728 
 C(PDBName=C5,ResName=GLC,ResNum=7)  10.397    6.981     34.411 
 O(PDBName=O5,ResName=GLC,ResNum=7)  11.239    7.189     35.554 
 C(PDBName=C1,ResName=GLC,ResNum=7)  11.273    8.49      36.16 
 O(PDBName=O1,ResName=GLC,ResNum=7)  11.79     8.33      37.489 
 C(PDBName=C4,ResName=GLC,ResNum=8)  10.903    8.291     38.616 
 C(PDBName=C3,ResName=GLC,ResNum=8)  10.444    6.981     39.235 
 O(PDBName=O3,ResName=GLC,ResNum=8)  9.756     6.437     38.1 
 H(PDBName=HO3,ResName=GLC,ResNum=8)  10.396    6.737     37.393 
 C(PDBName=C2,ResName=GLC,ResNum=8)  9.725     7.013     40.574 
 O(PDBName=O2,ResName=GLC,ResNum=8)  9.016     5.832     40.975 
 H(PDBName=HO2,ResName=GLC,ResNum=8)  8.205     5.613     40.433 
 C(PDBName=C6,ResName=GLC,ResNum=8)  12.302    10.2      39.29 
 O(PDBName=O6,ResName=GLC,ResNum=8)  11.556    11.422    39.203 
 H(PDBName=HO6,ResName=GLC,ResNum=8)  12.244    12.13     39.041 
 C(PDBName=C5,ResName=GLC,ResNum=8)  11.645    8.921     39.784 
 O(PDBName=O5,ResName=GLC,ResNum=8)  10.981    8.973     41.055 
 C(PDBName=C1,ResName=GLC,ResNum=8)  10.678    7.665     41.563 
 O(PDBName=O1,ResName=GLC,ResNum=8)  10.166    7.99      42.863 
 H                     10.76928   7.919     31.42644 
 H                     10.89727   8.14085   43.4664 
 
 Residue   4                        charge    0.00000000 ave dist*************
 Residue   2 PDB Number     7_0 GLC charge    0.00000000 ave dist*************
 Residue   3 PDB Number     8_0 GLC charge    0.00000000 ave dist*************
 Residue   1 PDB Number     6_0 GLC charge    0.00000000 ave dist*************

 GradGradGradGradGradGradGradGradGradGradGradGradGradGradGradGradGradGrad
 Berny optimization.
 Initialization pass.
 Trust Radius=3.00D-01 FncErr=1.00D-07 GrdErr=1.00D-07
 Number of steps in this run=      2 maximum allowed number of steps=      2.
 GradGradGradGradGradGradGradGradGradGradGradGradGradGradGradGradGradGrad

                          Input orientation:                          
 ---------------------------------------------------------------------
 Center     Atomic      Atomic             Coordinates (Angstroms)
 Number     Number       Type             X           Y           Z
 ---------------------------------------------------------------------
      1          8           0       10.268000    7.847000   32.242000
      2          6           0       11.172000    7.749000   33.352000
      3          6           0       11.521000    9.152000   33.820000
      4          8           0       12.613000    9.774000   33.128000
      5          1           0       12.492000    9.892000   32.142000
      6          6           0       12.108000    9.334000   35.211000
      7          8           0       12.023000   10.697000   35.653000
      8          1           0       12.284000   11.183000   34.819000
      9          6           0       10.043000    5.545000   34.061000
     10          8           0        9.427000    4.798000   35.120000
     11          1           0        9.216000    3.902000   34.728000
     12          6           0       10.397000    6.981000   34.411000
     13          8           0       11.239000    7.189000   35.554000
     14          6           0       11.273000    8.490000   36.160000
     15          8           0       11.790000    8.330000   37.489000
     16          6           0       10.903000    8.291000   38.616000
     17          6           0       10.444000    6.981000   39.235000
     18          8           0        9.756000    6.437000   38.100000
     19          1           0       10.396000    6.737000   37.393000
     20          6           0        9.725000    7.013000   40.574000
     21          8           0        9.016000    5.832000   40.975000
     22          1           0        8.205000    5.613000   40.433000
     23          6           0       12.302000   10.200000   39.290000
     24          8           0       11.556000   11.422000   39.203000
     25          1           0       12.244000   12.130000   39.041000
     26          6           0       11.645000    8.921000   39.784000
     27          8           0       10.981000    8.973000   41.055000
     28          6           0       10.678000    7.665000   41.563000
     29          8           0       10.166000    7.990000   42.863000
     30          1           0       10.769281    7.919004   31.426443
     31          1           0       10.897268    8.140850   43.466400
 ---------------------------------------------------------------------
                    Distance matrix (angstroms):
                    1          2          3          4          5
     1  O    0.000000
     2  C    1.434894   0.000000
     3  C    2.400649   1.519616   0.000000
     4  O    3.161859   2.495452   1.434647   0.000000
     5  H    3.022946   2.792660   2.075120   1.000380   0.000000
     6  C    3.796278   2.616143   1.520715   2.188039   3.142862
     7  O    4.778854   3.835297   2.449269   2.752391   3.632507
     8  H    4.672695   3.896279   2.388542   2.225534   2.979308
     9  C    2.942548   2.575837   3.905511   5.035854   5.345706
    10  O    4.276279   3.857363   5.003214   6.235322   6.649176
    11  H    4.780160   4.529759   5.805169   6.969935   7.300662
    12  C    2.339051   1.520503   2.515134   3.789142   4.243973
    13  O    3.513566   2.273080   2.634321   3.802049   4.529676
    14  C    4.095632   2.905881   2.444452   3.554895   4.426724
    15  O    5.484595   4.223062   3.769563   4.666989   5.614540
    16  C    6.420922   5.298662   4.911707   5.936458   6.855713
    17  C    7.048616   5.977416   5.932571   7.056972   7.935923
    18  O    6.047016   5.125417   5.367015   6.634667   7.410836
    19  H    5.270795   4.237452   4.456925   5.685832   6.474584
    20  C    8.391223   7.402215   7.308724   8.450241   9.329714
    21  O    9.049476   8.150666   8.275956   9.489636  10.324150
    22  H    8.737231   7.969074   8.200741   9.492492  10.267857
    23  C    7.703770   6.522587   5.623981   6.184532   7.157155
    24  O    7.930642   6.919002   5.842158   6.382694   7.285240
    25  H    8.274966   7.259963   6.053929   6.375772   7.257158
    26  C    7.741535   6.554993   5.969760   6.779894   7.749865
    27  O    8.913204   7.801978   7.257332   8.132795   9.086762
    28  C    9.331788   8.226276   7.929430   8.907375   9.849130
    29  O   10.622452   9.567091   9.217490  10.195131  11.134079
    30  H    0.960000   1.974551   2.795438   3.120193   2.715234
    31  H   11.245865  10.125716   9.719285  10.606292  11.569431
                    6          7          8          9         10
     6  C    0.000000
     7  O    1.435395   0.000000
     8  H    1.898273   0.999936   0.000000
     9  C    4.465786   5.744386   6.114220   0.000000
    10  O    5.269852   6.466955   7.001519   1.434903   0.000000
    11  H    6.172809   7.409919   7.901510   1.956596   1.000500
    12  C    3.017305   4.242063   4.624288   1.519839   2.491801
    13  O    2.339623   3.595903   4.193362   2.522340   3.031267
    14  C    1.519922   2.385456   3.173744   3.819912   4.256780
    15  O    2.509666   3.004642   3.938597   4.749676   4.865280
    16  C    3.759508   3.977764   4.968705   5.387777   5.157678
    17  C    4.949554   5.397464   6.367375   5.384531   4.767914
    18  O    4.719198   5.410610   6.299227   4.146270   3.416864
    19  H    3.799536   4.621291   5.473293   3.556360   3.140893
    20  C    6.310903   6.562690   7.553635   6.683960   5.894162
    21  O    7.419445   7.812423   8.786886   6.995748   5.959790
    22  H    7.506566   7.954406   8.898322   6.632138   5.512302
    23  C    4.174426   3.681388   4.577822   7.356259   7.405142
    24  O    4.538779   3.653247   4.450456   7.954147   8.067274
    25  H    4.743945   3.685224   4.327088   8.544415   8.778836
    26  C    4.614896   4.512452   5.493286   6.834948   6.608445
    27  O    5.962616   5.765375   6.743115   7.845194   7.420901
    28  C    6.721485   6.777179   7.774130   7.821613   7.162188
    29  O    8.008171   7.922146   8.909944   9.136102   8.407677
    30  H    4.256436   5.210840   4.945451   3.619982   5.018441
    31  H    8.428589   8.297614   9.271205   9.794374   9.110364
                   11         12         13         14         15
    11  H    0.000000
    12  C    3.312928   0.000000
    13  O    3.947046   1.434809   0.000000
    14  C    5.227965   2.470518   1.435616   0.000000
    15  O    5.818572   3.637902   2.312943   1.434967   0.000000
    16  C    6.101298   4.433301   3.271566   2.491674   1.434719
    17  C    5.594754   4.824229   3.771611   3.524195   2.584576
    18  O    4.253024   3.783588   3.040873   3.206197   2.844983
    19  H    4.065938   2.991966   2.072890   2.315691   2.118986
    20  C    6.641771   6.199611   5.246291   4.905225   3.939028
    21  O    6.541400   6.805399   6.014185   5.945018   5.107570
    22  H    6.041247   6.552921   5.957648   5.995689   5.376007
    23  C    8.366603   6.147815   4.914650   3.712121   2.646251
    24  O    9.058235   6.635437   5.597676   4.235158   3.543024
    25  H    9.770913   7.166625   6.130471   4.742637   4.129748
    26  C    7.526854   5.847241   4.588852   3.668449   2.374306
    27  O    8.298265   6.960737   5.788801   4.927431   3.712719
    28  C    7.938189   7.190127   6.053873   5.497914   4.275073
    29  O    9.153823   8.515148   7.430640   6.812170   5.624309
    30  H    5.426719   3.150559   4.217851   4.794406   6.161605
    31  H    9.856680   9.143074   7.976771   7.324382   6.046657
                   16         17         18         19         20
    16  C    0.000000
    17  C    1.519849   0.000000
    18  O    2.240353   1.434401   0.000000
    19  H    2.041493   1.858710   0.999724   0.000000
    20  C    2.618154   1.520166   2.540357   3.262695   0.000000
    21  O    3.895168   2.527249   3.029728   3.943875   1.434658
    22  H    4.213357   2.884398   2.920183   3.912219   2.071299
    23  C    2.460845   3.717143   4.696635   4.384497   4.294945
    24  O    3.251790   4.578215   5.413579   5.154699   4.967040
    25  H    4.088622   5.458007   6.283779   5.934261   5.905856
    26  C    1.520424   2.346785   3.546045   3.470841   2.819745
    27  O    2.533758   2.751151   4.082150   4.330377   2.377077
    28  C    3.021144   2.437662   3.788197   4.281309   1.520340
    29  O    4.320970   3.775943   5.026537   5.616388   2.527554
    30  H    7.200416   7.871418   6.910820   6.093954   9.251441
    31  H    4.852727   4.410833   5.744898   6.253659   3.318469
                   21         22         23         24         25
    21  O    0.000000
    22  H    0.999723   0.000000
    23  C    5.719829   6.255592   0.000000
    24  O    6.390593   6.818107   1.434353   0.000000
    25  H    7.336562   7.792463   1.946860   1.000426   0.000000
    26  C    4.227534   4.816395   1.520370   2.569141   3.347914
    27  O    3.705875   4.402574   2.523053   3.123801   3.951963
    28  C    2.543202   3.406367   3.772284   4.522779   5.361815
    29  O    3.089338   3.924353   4.713059   5.206373   6.005445
    30  H    9.929981   9.644234   8.329927   8.565322   8.825461
    31  H    3.882915   4.779105   4.863712   5.420005   6.108287
                   26         27         28         29         30
    26  C    0.000000
    27  O    1.434936   0.000000
    28  C    2.382743   1.435527   0.000000
    29  O    3.540402   2.213454   1.434493   0.000000
    30  H    8.462838   9.688387  10.140149  11.452677   0.000000
    31  H    3.837683   2.552320   1.974195   0.960000  12.042681
                   31
    31  H    0.000000
 Stoichiometry    C12H8O11
 Framework group  C1[X(C12H8O11)]
 Deg. of freedom    87
 Full point group                 C1      NOp   1
 Largest Abelian subgroup         C1      NOp   1
 Largest concise Abelian subgroup C1      NOp   1
                         Standard orientation:                         
 ---------------------------------------------------------------------
 Center     Atomic      Atomic             Coordinates (Angstroms)
 Number     Number       Type             X           Y           Z
 ---------------------------------------------------------------------
      1          8           0        4.941072    0.765139    0.840597
      2          6           0        3.920351    0.377288   -0.090327
      3          6           0        3.502929   -1.051920    0.213574
      4          8           0        4.301758   -2.068205   -0.408720
      5          1           0        5.273177   -2.064534   -0.169779
      6          6           0        2.175651   -1.557340   -0.329986
      7          8           0        1.742700   -2.750255    0.340733
      8          1           0        2.602936   -3.256501    0.400576
      9          6           0        3.083612    2.812183   -0.168382
     10          8           0        1.962996    3.700935   -0.053118
     11          1           0        2.323395    4.613187   -0.250372
     12          6           0        2.784493    1.357725    0.155641
     13          8           0        1.728451    0.725321   -0.581595
     14          6           0        1.142791   -0.476076   -0.057534
     15          8           0       -0.133158   -0.642817   -0.692580
     16          6           0       -1.339219   -0.260836   -0.015878
     17          6           0       -2.013232    1.078400   -0.265069
     18          8           0       -0.954332    1.937487    0.180135
     19          1           0       -0.186800    1.415186   -0.190736
     20          6           0       -3.413690    1.308907    0.279442
     21          8           0       -3.892863    2.660311    0.327832
     22          1           0       -3.432296    3.256113    0.985361
     23          6           0       -1.856994   -2.632165   -0.421421
     24          8           0       -1.827297   -3.368055    0.809413
     25          1           0       -1.593255   -4.303242    0.542015
     26          6           0       -2.424921   -1.222744   -0.471589
     27          8           0       -3.752273   -1.031610    0.038945
     28          6           0       -4.301040    0.240094   -0.338363
     29          8           0       -5.639894    0.117800    0.161922
     30          1           0        5.801054    0.514514    0.495315
     31          1           0       -6.169863   -0.384223   -0.461540
 ---------------------------------------------------------------------
 Rotational constants (GHZ):      0.4113326      0.1566551      0.1163058
 Standard basis: 6-31+G(d,p) (6D, 7F)
 There are   477 symmetry adapted basis functions of A   symmetry.
 Integral buffers will be    131072 words long.
 Raffenetti 2 integral format.
 Two-electron integral symmetry is turned on.
   477 basis functions,   792 primitive gaussians,   477 cartesian basis functions
    84 alpha electrons       84 beta electrons
       nuclear repulsion energy      1922.6516121444 Hartrees.
 NAtoms=   31 NActive=   31 NUniq=   31 SFac= 1.00D+00 NAtFMM=   50 NAOKFM=F Big=F
 One-electron integrals computed using PRISM.
 NBasis=   477 RedAO= T  NBF=   477
 NBsUse=   477 1.00D-06 NBFU=   477
 Harris functional with IExCor=  402 diagonalized for initial guess.
 ExpMin= 4.38D-02 ExpMax= 5.48D+03 ExpMxC= 8.25D+02 IAcc=2 IRadAn=         0 AccDes= 0.00D+00
 HarFok:  IExCor=  402 AccDes= 0.00D+00 IRadAn=         0 IDoV= 1
 ScaDFX=  1.000000  1.000000  1.000000  1.000000
 FoFCou: FMM=F IPFlag=           0 FMFlag=      100000 FMFlg1=           0
         NFxFlg=           0 DoJE=T BraDBF=F KetDBF=T FulRan=T
         Omega=  0.000000  0.000000  1.000000  0.000000  0.000000 ICntrl=     500 IOpCl=  0
         NMat0=    1 NMatS0=    1 NMatT0=    0 NMatD0=    1 NMtDS0=    0 NMtDT0=    0
         I1Cent=           4 NGrid=           0.
 Petite list used in FoFCou.
 Initial guess orbital symmetries:
       Occupied  (A) (A) (A) (A) (A) (A) (A) (A) (A) (A) (A) (A)
                 (A) (A) (A) (A) (A) (A) (A) (A) (A) (A) (A) (A)
                 (A) (A) (A) (A) (A) (A) (A) (A) (A) (A) (A) (A)
                 (A) (A) (A) (A) (A) (A) (A) (A) (A) (A) (A) (A)
                 (A) (A) (A) (A) (A) (A) (A) (A) (A) (A) (A) (A)
                 (A) (A) (A) (A) (A) (A) (A) (A) (A) (A) (A) (A)
                 (A) (A) (A) (A) (A) (A) (A) (A) (A) (A) (A) (A)
       Virtual   (A) (A) (A) (A) (A) (A) (A) (A) (A) (A) (A) (A)
                 (A) (A) (A) (A) (A) (A) (A) (A) (A) (A) (A) (A)
                 (A) (A) (A) (A) (A) (A) (A) (A) (A) (A) (A) (A)
                 (A) (A) (A) (A) (A) (A) (A) (A) (A) (A) (A) (A)
                 (A) (A) (A) (A) (A) (A) (A) (A) (A) (A) (A) (A)
                 (A) (A) (A) (A) (A) (A) (A) (A) (A) (A) (A) (A)
                 (A) (A) (A) (A) (A) (A) (A) (A) (A) (A) (A) (A)
                 (A) (A) (A) (A) (A) (A) (A) (A) (A) (A) (A) (A)
                 (A) (A) (A) (A) (A) (A) (A) (A) (A) (A) (A) (A)
                 (A) (A) (A) (A) (A) (A) (A) (A) (A) (A) (A) (A)
                 (A) (A) (A) (A) (A) (A) (A) (A) (A) (A) (A) (A)
                 (A) (A) (A) (A) (A) (A) (A) (A) (A) (A) (A) (A)
                 (A) (A) (A) (A) (A) (A) (A) (A) (A) (A) (A) (A)
                 (A) (A) (A) (A) (A) (A) (A) (A) (A) (A) (A) (A)
                 (A) (A) (A) (A) (A) (A) (A) (A) (A) (A) (A) (A)
                 (A) (A) (A) (A) (A) (A) (A) (A) (A) (A) (A) (A)
                 (A) (A) (A) (A) (A) (A) (A) (A) (A) (A) (A) (A)
                 (A) (A) (A) (A) (A) (A) (A) (A) (A) (A) (A) (A)
                 (A) (A) (A) (A) (A) (A) (A) (A) (A) (A) (A) (A)
                 (A) (A) (A) (A) (A) (A) (A) (A) (A) (A) (A) (A)
                 (A) (A) (A) (A) (A) (A) (A) (A) (A) (A) (A) (A)
                 (A) (A) (A) (A) (A) (A) (A) (A) (A) (A) (A) (A)
                 (A) (A) (A) (A) (A) (A) (A) (A) (A) (A) (A) (A)
                 (A) (A) (A) (A) (A) (A) (A) (A) (A) (A) (A) (A)
                 (A) (A) (A) (A) (A) (A) (A) (A) (A) (A) (A) (A)
                 (A) (A) (A) (A) (A) (A) (A) (A) (A) (A) (A) (A)
                 (A) (A) (A) (A) (A) (A) (A) (A) (A) (A) (A) (A)
                 (A) (A) (A) (A) (A) (A) (A) (A) (A) (A) (A) (A)
                 (A) (A) (A) (A) (A) (A) (A) (A) (A) (A) (A) (A)
                 (A) (A) (A) (A) (A) (A) (A) (A) (A) (A) (A) (A)
                 (A) (A) (A) (A) (A) (A) (A) (A) (A) (A) (A) (A)
                 (A) (A) (A) (A) (A) (A) (A) (A) (A) (A) (A) (A)
                 (A) (A) (A) (A) (A) (A) (A) (A) (A)
 The electronic state of the initial guess is 1-A.
 Requested convergence on RMS density matrix=1.00D-08 within 128 cycles.
 Requested convergence on MAX density matrix=1.00D-06.
 Requested convergence on             energy=1.00D-06.
 No special actions if energy rises.
 EnCoef did     5 forward-backward iterations
 EnCoef did   100 forward-backward iterations
 EnCoef did   100 forward-backward iterations
 EnCoef did     4 forward-backward iterations
 EnCoef did     9 forward-backward iterations
 EnCoef did    16 forward-backward iterations
 EnCoef did     2 forward-backward iterations
 EnCoef did    38 forward-backward iterations
 EnCoef did   100 forward-backward iterations
 EnCoef did   100 forward-backward iterations
 EnCoef did   100 forward-backward iterations
 Restarting incremental Fock formation.
 SCF Done:  E(RB3LYP) =  -1288.80495384     A.U. after   30 cycles
             Convg  =    0.6779D-08             -V/T =  2.0106
 Range of M.O.s used for correlation:     1   477
 NBasis=   477 NAE=    84 NBE=    84 NFC=     0 NFV=     0
 NROrb=    477 NOA=    84 NOB=    84 NVA=   393 NVB=   393

 **** Warning!!: The largest alpha MO coefficient is  0.80798092D+02


 **** Warning!!: The smallest alpha delta epsilon is  0.21677404D-01

          Differentiating once with respect to electric field.
                with respect to dipole field.
          Electric field/nuclear overlap derivatives assumed to be zero.
          There are     3 degrees of freedom in the 1st order CPHF.  IDoFFX=0.
      3 vectors produced by pass  0 Test12= 1.10D-12 3.33D-08 XBig12= 5.58D+04 2.34D+02.
 AX will form     3 AO Fock derivatives at one time.
      3 vectors produced by pass  1 Test12= 1.10D-12 3.33D-08 XBig12= 5.34D+04 6.82D+01.
      3 vectors produced by pass  2 Test12= 1.10D-12 3.33D-08 XBig12= 6.29D+04 9.35D+01.
      3 vectors produced by pass  3 Test12= 1.10D-12 3.33D-08 XBig12= 2.82D+04 5.55D+01.
      3 vectors produced by pass  4 Test12= 1.10D-12 3.33D-08 XBig12= 2.22D+04 2.86D+01.
      3 vectors produced by pass  5 Test12= 1.10D-12 3.33D-08 XBig12= 7.03D+03 2.22D+01.
      3 vectors produced by pass  6 Test12= 1.10D-12 3.33D-08 XBig12= 3.00D+03 1.62D+01.
      3 vectors produced by pass  7 Test12= 1.10D-12 3.33D-08 XBig12= 1.06D+03 1.09D+01.
      3 vectors produced by pass  8 Test12= 1.10D-12 3.33D-08 XBig12= 2.38D+02 3.98D+00.
      3 vectors produced by pass  9 Test12= 1.10D-12 3.33D-08 XBig12= 1.55D+02 2.12D+00.
      3 vectors produced by pass 10 Test12= 1.10D-12 3.33D-08 XBig12= 2.48D+01 1.01D+00.
      3 vectors produced by pass 11 Test12= 1.10D-12 3.33D-08 XBig12= 6.93D+00 3.70D-01.
      3 vectors produced by pass 12 Test12= 1.10D-12 3.33D-08 XBig12= 3.11D+00 2.82D-01.
      3 vectors produced by pass 13 Test12= 1.10D-12 3.33D-08 XBig12= 4.74D-01 1.23D-01.
      3 vectors produced by pass 14 Test12= 1.10D-12 3.33D-08 XBig12= 1.81D-01 1.01D-01.
      3 vectors produced by pass 15 Test12= 1.10D-12 3.33D-08 XBig12= 3.83D-02 3.25D-02.
      3 vectors produced by pass 16 Test12= 1.10D-12 3.33D-08 XBig12= 3.03D-03 8.28D-03.
      3 vectors produced by pass 17 Test12= 1.10D-12 3.33D-08 XBig12= 9.22D-04 4.88D-03.
      3 vectors produced by pass 18 Test12= 1.10D-12 3.33D-08 XBig12= 3.46D-04 3.06D-03.
      3 vectors produced by pass 19 Test12= 1.10D-12 3.33D-08 XBig12= 2.75D-05 7.78D-04.
      3 vectors produced by pass 20 Test12= 1.10D-12 3.33D-08 XBig12= 1.51D-06 2.06D-04.
      3 vectors produced by pass 21 Test12= 1.10D-12 3.33D-08 XBig12= 9.39D-08 4.43D-05.
      3 vectors produced by pass 22 Test12= 1.10D-12 3.33D-08 XBig12= 4.34D-09 8.86D-06.
      3 vectors produced by pass 23 Test12= 1.10D-12 3.33D-08 XBig12= 2.12D-10 2.33D-06.
      2 vectors produced by pass 24 Test12= 1.10D-12 3.33D-08 XBig12= 1.61D-11 4.81D-07.
      2 vectors produced by pass 25 Test12= 1.10D-12 3.33D-08 XBig12= 6.06D-12 3.29D-07.
      1 vectors produced by pass 26 Test12= 1.10D-12 3.33D-08 XBig12= 1.53D-12 9.04D-08.
 Inverted reduced A of dimension    77 with in-core refinement.
 End of Minotr Frequency-dependent properties file   721 does not exist.
 End of Minotr Frequency-dependent properties file   722 does not exist.
 Symmetrizing basis deriv contribution to polar:
 IMax=3 JMax=2 DiffMx= 0.00D+00
 G2DrvN: will do    32 centers at a time, making    1 passes doing MaxLOS=2.
 Calling FoFCou, ICntrl=  3107 FMM=F I1Cent=   0 AccDes= 0.00D+00.
 FoFDir/FoFCou used for L=0 through L=2.
 End of G2Drv Frequency-dependent properties file   721 does not exist.
 End of G2Drv Frequency-dependent properties file   722 does not exist.
          IDoAtm=1111111111111111111111111111111
          Differentiating once with respect to electric field.
                with respect to dipole field.
          Differentiating once with respect to nuclear coordinates.
          There are    96 degrees of freedom in the 1st order CPHF.  IDoFFX=5.
 Will reuse    3 saved solutions.
     90 vectors produced by pass  0 Test12= 3.44D-14 1.04D-09 XBig12= 5.27D-01 5.18D-01.
 AX will form    90 AO Fock derivatives at one time.
     90 vectors produced by pass  1 Test12= 3.44D-14 1.04D-09 XBig12= 1.99D-01 7.16D-02.
     90 vectors produced by pass  2 Test12= 3.44D-14 1.04D-09 XBig12= 2.18D-03 8.12D-03.
     90 vectors produced by pass  3 Test12= 3.44D-14 1.04D-09 XBig12= 3.97D-05 6.08D-04.
     90 vectors produced by pass  4 Test12= 3.44D-14 1.04D-09 XBig12= 1.87D-07 5.71D-05.
     90 vectors produced by pass  5 Test12= 3.44D-14 1.04D-09 XBig12= 5.20D-10 2.90D-06.
     79 vectors produced by pass  6 Test12= 3.44D-14 1.04D-09 XBig12= 2.80D-12 1.41D-07.
     55 vectors produced by pass  7 Test12= 3.44D-14 1.04D-09 XBig12= 1.52D-13 2.60D-08.
      3 vectors produced by pass  8 Test12= 3.44D-14 1.04D-09 XBig12= 4.98D-16 1.47D-09.
 Inverted reduced A of dimension   677 with in-core refinement.
 Isotropic polarizability for W=    0.000000      398.45 Bohr**3.
 End of Minotr Frequency-dependent properties file   721 does not exist.
 End of Minotr Frequency-dependent properties file   722 does not exist.

 **********************************************************************

            Population analysis using the SCF density.

 **********************************************************************

 Orbital symmetries:
       Occupied  (A) (A) (A) (A) (A) (A) (A) (A) (A) (A) (A) (A)
                 (A) (A) (A) (A) (A) (A) (A) (A) (A) (A) (A) (A)
                 (A) (A) (A) (A) (A) (A) (A) (A) (A) (A) (A) (A)
                 (A) (A) (A) (A) (A) (A) (A) (A) (A) (A) (A) (A)
                 (A) (A) (A) (A) (A) (A) (A) (A) (A) (A) (A) (A)
                 (A) (A) (A) (A) (A) (A) (A) (A) (A) (A) (A) (A)
                 (A) (A) (A) (A) (A) (A) (A) (A) (A) (A) (A) (A)
       Virtual   (A) (A) (A) (A) (A) (A) (A) (A) (A) (A) (A) (A)
                 (A) (A) (A) (A) (A) (A) (A) (A) (A) (A) (A) (A)
                 (A) (A) (A) (A) (A) (A) (A) (A) (A) (A) (A) (A)
                 (A) (A) (A) (A) (A) (A) (A) (A) (A) (A) (A) (A)
                 (A) (A) (A) (A) (A) (A) (A) (A) (A) (A) (A) (A)
                 (A) (A) (A) (A) (A) (A) (A) (A) (A) (A) (A) (A)
                 (A) (A) (A) (A) (A) (A) (A) (A) (A) (A) (A) (A)
                 (A) (A) (A) (A) (A) (A) (A) (A) (A) (A) (A) (A)
                 (A) (A) (A) (A) (A) (A) (A) (A) (A) (A) (A) (A)
                 (A) (A) (A) (A) (A) (A) (A) (A) (A) (A) (A) (A)
                 (A) (A) (A) (A) (A) (A) (A) (A) (A) (A) (A) (A)
                 (A) (A) (A) (A) (A) (A) (A) (A) (A) (A) (A) (A)
                 (A) (A) (A) (A) (A) (A) (A) (A) (A) (A) (A) (A)
                 (A) (A) (A) (A) (A) (A) (A) (A) (A) (A) (A) (A)
                 (A) (A) (A) (A) (A) (A) (A) (A) (A) (A) (A) (A)
                 (A) (A) (A) (A) (A) (A) (A) (A) (A) (A) (A) (A)
                 (A) (A) (A) (A) (A) (A) (A) (A) (A) (A) (A) (A)
                 (A) (A) (A) (A) (A) (A) (A) (A) (A) (A) (A) (A)
                 (A) (A) (A) (A) (A) (A) (A) (A) (A) (A) (A) (A)
                 (A) (A) (A) (A) (A) (A) (A) (A) (A) (A) (A) (A)
                 (A) (A) (A) (A) (A) (A) (A) (A) (A) (A) (A) (A)
                 (A) (A) (A) (A) (A) (A) (A) (A) (A) (A) (A) (A)
                 (A) (A) (A) (A) (A) (A) (A) (A) (A) (A) (A) (A)
                 (A) (A) (A) (A) (A) (A) (A) (A) (A) (A) (A) (A)
                 (A) (A) (A) (A) (A) (A) (A) (A) (A) (A) (A) (A)
                 (A) (A) (A) (A) (A) (A) (A) (A) (A) (A) (A) (A)
                 (A) (A) (A) (A) (A) (A) (A) (A) (A) (A) (A) (A)
                 (A) (A) (A) (A) (A) (A) (A) (A) (A) (A) (A) (A)
                 (A) (A) (A) (A) (A) (A) (A) (A) (A) (A) (A) (A)
                 (A) (A) (A) (A) (A) (A) (A) (A) (A) (A) (A) (A)
                 (A) (A) (A) (A) (A) (A) (A) (A) (A) (A) (A) (A)
                 (A) (A) (A) (A) (A) (A) (A) (A) (A) (A) (A) (A)
                 (A) (A) (A) (A) (A) (A) (A) (A) (A)
 The electronic state is 1-A.
 Alpha  occ. eigenvalues --  -19.26137 -19.25738 -19.24662 -19.22389 -19.21025
 Alpha  occ. eigenvalues --  -19.20931 -19.20861 -19.20670 -19.20539 -19.20358
 Alpha  occ. eigenvalues --  -19.19104 -10.34563 -10.32934 -10.32133 -10.32031
 Alpha  occ. eigenvalues --  -10.31743 -10.31638 -10.31433 -10.29269 -10.28525
 Alpha  occ. eigenvalues --  -10.28329 -10.26449 -10.26004  -1.12697  -1.11529
 Alpha  occ. eigenvalues --   -1.08796  -1.07564  -1.07077  -1.06184  -1.05678
 Alpha  occ. eigenvalues --   -1.05042  -1.04957  -1.04129  -1.04067  -0.82798
 Alpha  occ. eigenvalues --   -0.80052  -0.78046  -0.76860  -0.70683  -0.68725
 Alpha  occ. eigenvalues --   -0.66512  -0.64546  -0.62456  -0.61180  -0.58301
 Alpha  occ. eigenvalues --   -0.56732  -0.56397  -0.54953  -0.53796  -0.53446
 Alpha  occ. eigenvalues --   -0.51903  -0.50706  -0.49423  -0.48793  -0.48407
 Alpha  occ. eigenvalues --   -0.47469  -0.46632  -0.46049  -0.45316  -0.44478
 Alpha  occ. eigenvalues --   -0.43952  -0.43673  -0.42614  -0.42209  -0.41834
 Alpha  occ. eigenvalues --   -0.41239  -0.40654  -0.39474  -0.38584  -0.37875
 Alpha  occ. eigenvalues --   -0.37322  -0.36428  -0.36136  -0.34823  -0.33421
 Alpha  occ. eigenvalues --   -0.33232  -0.30804  -0.30043  -0.27799  -0.26728
 Alpha  occ. eigenvalues --   -0.25828  -0.24116  -0.21402  -0.17416
 Alpha virt. eigenvalues --   -0.15248  -0.12773  -0.11012  -0.09949  -0.09218
 Alpha virt. eigenvalues --   -0.07950  -0.03481  -0.01939  -0.01532  -0.01201
 Alpha virt. eigenvalues --   -0.00199   0.00873   0.01539   0.03609   0.04284
 Alpha virt. eigenvalues --    0.04645   0.05105   0.05738   0.06186   0.06639
 Alpha virt. eigenvalues --    0.07385   0.07560   0.07976   0.08650   0.08866
 Alpha virt. eigenvalues --    0.09173   0.09662   0.09875   0.10346   0.10820
 Alpha virt. eigenvalues --    0.11089   0.11367   0.12101   0.12598   0.12769
 Alpha virt. eigenvalues --    0.12964   0.13367   0.14186   0.14484   0.14964
 Alpha virt. eigenvalues --    0.15065   0.15294   0.15672   0.15864   0.16311
 Alpha virt. eigenvalues --    0.16399   0.16780   0.17094   0.17663   0.18070
 Alpha virt. eigenvalues --    0.18219   0.18367   0.18978   0.19075   0.19504
 Alpha virt. eigenvalues --    0.19556   0.20149   0.20353   0.20618   0.20827
 Alpha virt. eigenvalues --    0.21104   0.21728   0.22091   0.22265   0.22888
 Alpha virt. eigenvalues --    0.23050   0.23260   0.23425   0.24004   0.24195
 Alpha virt. eigenvalues --    0.24363   0.24588   0.25149   0.25266   0.25694
 Alpha virt. eigenvalues --    0.26061   0.26342   0.26842   0.26906   0.27307
 Alpha virt. eigenvalues --    0.27739   0.28309   0.28383   0.28684   0.28954
 Alpha virt. eigenvalues --    0.29081   0.29452   0.29824   0.29976   0.30200
 Alpha virt. eigenvalues --    0.30723   0.31177   0.31302   0.31529   0.31855
 Alpha virt. eigenvalues --    0.32364   0.32674   0.33027   0.33089   0.33267
 Alpha virt. eigenvalues --    0.33694   0.34551   0.34886   0.35261   0.35513
 Alpha virt. eigenvalues --    0.35837   0.36327   0.37065   0.37219   0.37284
 Alpha virt. eigenvalues --    0.38190   0.39006   0.39084   0.40011   0.40229
 Alpha virt. eigenvalues --    0.40686   0.40931   0.42061   0.42385   0.42769
 Alpha virt. eigenvalues --    0.43043   0.43981   0.45163   0.45772   0.46295
 Alpha virt. eigenvalues --    0.46736   0.47279   0.49096   0.50474   0.51697
 Alpha virt. eigenvalues --    0.53845   0.64681   0.65153   0.66841   0.68508
 Alpha virt. eigenvalues --    0.69450   0.71302   0.71572   0.72386   0.73930
 Alpha virt. eigenvalues --    0.74429   0.74894   0.75611   0.76365   0.76767
 Alpha virt. eigenvalues --    0.77371   0.78308   0.78627   0.80405   0.80772
 Alpha virt. eigenvalues --    0.81313   0.82272   0.83332   0.84964   0.86149
 Alpha virt. eigenvalues --    0.86856   0.88726   0.89043   0.90069   0.91169
 Alpha virt. eigenvalues --    0.91290   0.92306   0.94365   0.94846   0.96179
 Alpha virt. eigenvalues --    0.96953   0.99190   0.99265   1.00020   1.00702
 Alpha virt. eigenvalues --    1.02175   1.03475   1.05621   1.05852   1.08233
 Alpha virt. eigenvalues --    1.11466   1.12013   1.12849   1.13425   1.14327
 Alpha virt. eigenvalues --    1.15061   1.16298   1.16559   1.18284   1.18349
 Alpha virt. eigenvalues --    1.19077   1.19487   1.19982   1.20433   1.20773
 Alpha virt. eigenvalues --    1.22177   1.22386   1.22718   1.23451   1.25112
 Alpha virt. eigenvalues --    1.25697   1.26917   1.27029   1.28126   1.28947
 Alpha virt. eigenvalues --    1.29184   1.30005   1.30183   1.30487   1.31571
 Alpha virt. eigenvalues --    1.32305   1.33202   1.33759   1.35607   1.36510
 Alpha virt. eigenvalues --    1.36916   1.37323   1.38442   1.39868   1.40234
 Alpha virt. eigenvalues --    1.41975   1.42420   1.43307   1.43510   1.44221
 Alpha virt. eigenvalues --    1.46589   1.47059   1.47736   1.48572   1.50149
 Alpha virt. eigenvalues --    1.51257   1.52545   1.53979   1.55472   1.55702
 Alpha virt. eigenvalues --    1.56179   1.56962   1.57933   1.58743   1.59941
 Alpha virt. eigenvalues --    1.60840   1.61929   1.62442   1.62634   1.63459
 Alpha virt. eigenvalues --    1.64075   1.65245   1.66552   1.67229   1.67791
 Alpha virt. eigenvalues --    1.68050   1.69750   1.69923   1.70518   1.71934
 Alpha virt. eigenvalues --    1.72618   1.73504   1.74395   1.75015   1.75994
 Alpha virt. eigenvalues --    1.76714   1.77301   1.77626   1.78546   1.79222
 Alpha virt. eigenvalues --    1.80721   1.81012   1.82696   1.84248   1.84615
 Alpha virt. eigenvalues --    1.85676   1.86803   1.88306   1.90394   1.90853
 Alpha virt. eigenvalues --    1.91518   1.92214   1.92343   1.93379   1.94555
 Alpha virt. eigenvalues --    1.94899   1.95856   1.96010   1.96716   1.99144
 Alpha virt. eigenvalues --    2.00825   2.01376   2.02766   2.03609   2.04066
 Alpha virt. eigenvalues --    2.05232   2.06263   2.07949   2.10114   2.10628
 Alpha virt. eigenvalues --    2.11212   2.13987   2.14971   2.15239   2.17366
 Alpha virt. eigenvalues --    2.18841   2.20292   2.23020   2.23220   2.25393
 Alpha virt. eigenvalues --    2.26242   2.28740   2.30463   2.31108   2.33071
 Alpha virt. eigenvalues --    2.34465   2.35441   2.35871   2.36450   2.38645
 Alpha virt. eigenvalues --    2.41029   2.41881   2.42857   2.43519   2.45450
 Alpha virt. eigenvalues --    2.46406   2.47639   2.48035   2.48951   2.52129
 Alpha virt. eigenvalues --    2.52881   2.53844   2.56390   2.57890   2.58872
 Alpha virt. eigenvalues --    2.59102   2.59480   2.60022   2.61064   2.62486
 Alpha virt. eigenvalues --    2.63337   2.63623   2.65162   2.66760   2.67462
 Alpha virt. eigenvalues --    2.68786   2.69786   2.73269   2.73370   2.74571
 Alpha virt. eigenvalues --    2.79660   2.82911   2.84806   2.85229   2.86445
 Alpha virt. eigenvalues --    2.88654   2.89844   2.92681   2.92700   2.93814
 Alpha virt. eigenvalues --    2.97470   2.98658   2.99068   3.01114   3.02104
 Alpha virt. eigenvalues --    3.03589   3.04993   3.09019   3.12690   3.14247
 Alpha virt. eigenvalues --    3.15603   3.20229   3.41220   3.41549   3.42873
 Alpha virt. eigenvalues --    3.44860   3.48054   3.50067   3.51085   3.65298
 Alpha virt. eigenvalues --    4.17539   4.19278   4.21005   4.25430   4.27747
 Alpha virt. eigenvalues --    4.29741   4.30643   4.32567   4.34753   4.36170
 Alpha virt. eigenvalues --    4.36736   4.39349   4.41991   4.44314   4.48300
 Alpha virt. eigenvalues --    4.50364   4.51187   4.55267   4.56467   4.63987
 Alpha virt. eigenvalues --    4.67318   4.68992   4.69946
          Condensed to atoms (all electrons):
              1          2          3          4          5          6
     1  O    8.227288   0.227878  -0.231645   0.016870   0.005743   0.059606
     2  C    0.227878  10.589790  -2.448973  -0.201987  -0.002824  -0.515728
     3  C   -0.231645  -2.448973  11.609250  -0.069939  -0.012270  -1.923186
     4  O    0.016870  -0.201987  -0.069939   8.357239   0.190901   0.217273
     5  H    0.005743  -0.002824  -0.012270   0.190901   0.439189  -0.006396
     6  C    0.059606  -0.515728  -1.923186   0.217273  -0.006396  16.173833
     7  O    0.000170  -0.012014   0.079459  -0.034933   0.001978  -0.094953
     8  H   -0.000088   0.026917  -0.122555   0.022778  -0.001979   0.139013
     9  C    0.123929  -0.343627  -0.285403  -0.018822   0.001457   0.741611
    10  O   -0.001991   0.060261  -0.008276   0.000070   0.000001  -0.007320
    11  H   -0.000004   0.001810   0.003110  -0.000001   0.000000   0.000127
    12  C   -0.209530  -2.541755   0.025907   0.091751   0.011509   0.554341
    13  O    0.012891   0.033911  -0.280037   0.003301   0.000194   0.166015
    14  C    0.030771   0.747476  -0.647964  -0.030582   0.014068  -8.650729
    15  O    0.000690  -0.060460   0.110127  -0.003079  -0.000028  -0.106888
    16  C    0.003943   0.175041  -0.130547  -0.001915   0.000031  -0.272166
    17  C   -0.000129  -0.102411   0.058780  -0.000225   0.000047   0.457669
    18  O    0.000026  -0.000638   0.006605  -0.000014   0.000000  -0.020050
    19  H   -0.000026   0.003291   0.002215   0.000005   0.000000   0.022970
    20  C    0.000099   0.013132  -0.005402   0.000075   0.000002   0.001051
    21  O    0.000000   0.000032  -0.000067   0.000000   0.000000  -0.000139
    22  H    0.000000   0.000002   0.000009   0.000000   0.000000   0.000161
    23  C    0.000270  -0.008956  -0.057133  -0.001482  -0.000065   0.013610
    24  O    0.000000   0.001000  -0.006729   0.000045   0.000000  -0.013214
    25  H    0.000000   0.000045   0.001225   0.000004   0.000000   0.002255
    26  C   -0.000230  -0.018010   0.043973   0.000752   0.000042  -0.451236
    27  O    0.000000   0.000238  -0.000013   0.000002   0.000000  -0.006033
    28  C    0.000005   0.005657  -0.015012   0.000094   0.000000  -0.045041
    29  O    0.000000  -0.000014   0.000020   0.000000   0.000000   0.000349
    30  H    0.218894  -0.012135  -0.041090   0.003588  -0.000208  -0.001155
    31  H    0.000000   0.000000   0.000001   0.000000   0.000000   0.000027
              7          8          9         10         11         12
     1  O    0.000170  -0.000088   0.123929  -0.001991  -0.000004  -0.209530
     2  C   -0.012014   0.026917  -0.343627   0.060261   0.001810  -2.541755
     3  C    0.079459  -0.122555  -0.285403  -0.008276   0.003110   0.025907
     4  O   -0.034933   0.022778  -0.018822   0.000070  -0.000001   0.091751
     5  H    0.001978  -0.001979   0.001457   0.000001   0.000000   0.011509
     6  C   -0.094953   0.139013   0.741611  -0.007320   0.000127   0.554341
     7  O    8.218446   0.170967  -0.006902  -0.000004   0.000000   0.013278
     8  H    0.170967   0.422748   0.001197   0.000001   0.000000   0.000290
     9  C   -0.006902   0.001197  10.210638   0.073013  -0.100576  -2.804697
    10  O   -0.000004   0.000001   0.073013   8.156532   0.195056  -0.025103
    11  H    0.000000   0.000000  -0.100576   0.195056   0.427601   0.069636
    12  C    0.013278   0.000290  -2.804697  -0.025103   0.069636  11.207324
    13  O    0.011320  -0.000639   0.260951   0.018312  -0.001233  -0.148124
    14  C    0.091417  -0.028624  -1.219667  -0.016258   0.005061  -0.393290
    15  O    0.011200  -0.000530  -0.023840  -0.000740   0.000005   0.035364
    16  C   -0.057708   0.005083  -0.255890   0.020871  -0.000358   0.069045
    17  C    0.005456   0.000025   0.077910  -0.009830  -0.000767  -0.219388
    18  O    0.000445  -0.000004   0.010047   0.006996  -0.000241  -0.010061
    19  H   -0.000141   0.000000  -0.008626   0.001404  -0.000045  -0.001568
    20  C    0.000823  -0.000054  -0.018648   0.000738   0.000038  -0.002067
    21  O   -0.000006   0.000000  -0.000085   0.000053  -0.000001   0.000057
    22  H    0.000000   0.000000  -0.000024  -0.000003   0.000000  -0.000088
    23  C   -0.012178  -0.000293  -0.010813   0.000331   0.000006  -0.030014
    24  O    0.010415  -0.000254   0.000113  -0.000001   0.000000   0.001705
    25  H   -0.000071   0.000014  -0.000001   0.000000   0.000000   0.000006
    26  C    0.018296  -0.000133   0.007506  -0.001178   0.000001   0.010155
    27  O    0.000064   0.000001  -0.000108   0.000001   0.000000  -0.000173
    28  C   -0.000332  -0.000007  -0.002348   0.000946  -0.000015   0.005519
    29  O    0.000002   0.000000   0.000030  -0.000001   0.000000   0.000009
    30  H   -0.000059  -0.000001  -0.025170   0.000020  -0.000001   0.075628
    31  H    0.000000   0.000000   0.000000   0.000000   0.000000   0.000000
             13         14         15         16         17         18
     1  O    0.012891   0.030771   0.000690   0.003943  -0.000129   0.000026
     2  C    0.033911   0.747476  -0.060460   0.175041  -0.102411  -0.000638
     3  C   -0.280037  -0.647964   0.110127  -0.130547   0.058780   0.006605
     4  O    0.003301  -0.030582  -0.003079  -0.001915  -0.000225  -0.000014
     5  H    0.000194   0.014068  -0.000028   0.000031   0.000047   0.000000
     6  C    0.166015  -8.650729  -0.106888  -0.272166   0.457669  -0.020050
     7  O    0.011320   0.091417   0.011200  -0.057708   0.005456   0.000445
     8  H   -0.000639  -0.028624  -0.000530   0.005083   0.000025  -0.000004
     9  C    0.260951  -1.219667  -0.023840  -0.255890   0.077910   0.010047
    10  O    0.018312  -0.016258  -0.000740   0.020871  -0.009830   0.006996
    11  H   -0.001233   0.005061   0.000005  -0.000358  -0.000767  -0.000241
    12  C   -0.148124  -0.393290   0.035364   0.069045  -0.219388  -0.010061
    13  O    8.426200  -0.050590  -0.076976  -0.078347   0.021510   0.016395
    14  C   -0.050590  17.588659   0.261991  -1.077919  -0.951361   0.005010
    15  O   -0.076976   0.261991   8.199737   0.051567  -0.293518  -0.004434
    16  C   -0.078347  -1.077919   0.051567  17.320643  -5.702573  -0.196400
    17  C    0.021510  -0.951361  -0.293518  -5.702573  14.070476   0.303374
    18  O    0.016395   0.005010  -0.004434  -0.196400   0.303374   8.150303
    19  H    0.010821  -0.015041   0.035114  -0.049421  -0.036754   0.169322
    20  C   -0.010524  -0.384176   0.027047  -1.785428  -1.757484  -0.229820
    21  O    0.000176   0.002702   0.000595  -0.022733  -0.203644   0.021159
    22  H   -0.000008   0.002342  -0.000072   0.011430  -0.022342   0.007041
    23  C   -0.021107  -0.448705   0.018844   0.074345  -0.529246   0.010847
    24  O    0.000739   0.010673   0.002552   0.020722  -0.038479   0.000203
    25  H    0.000012   0.003861  -0.000208   0.018137   0.000801  -0.000009
    26  C   -0.037448   0.336154   0.035190  -5.064556   1.552844   0.063582
    27  O   -0.000168  -0.007984   0.002441  -0.146904  -0.128800   0.002637
    28  C    0.010692   0.357481   0.041778   2.420822  -0.780393   0.070091
    29  O   -0.000019   0.001170   0.000006  -0.020535   0.098867  -0.000885
    30  H   -0.001576   0.007294  -0.000008   0.000087  -0.000018  -0.000001
    31  H    0.000000   0.000135  -0.000015  -0.005040  -0.008533   0.000006
             19         20         21         22         23         24
     1  O   -0.000026   0.000099   0.000000   0.000000   0.000270   0.000000
     2  C    0.003291   0.013132   0.000032   0.000002  -0.008956   0.001000
     3  C    0.002215  -0.005402  -0.000067   0.000009  -0.057133  -0.006729
     4  O    0.000005   0.000075   0.000000   0.000000  -0.001482   0.000045
     5  H    0.000000   0.000002   0.000000   0.000000  -0.000065   0.000000
     6  C    0.022970   0.001051  -0.000139   0.000161   0.013610  -0.013214
     7  O   -0.000141   0.000823  -0.000006   0.000000  -0.012178   0.010415
     8  H    0.000000  -0.000054   0.000000   0.000000  -0.000293  -0.000254
     9  C   -0.008626  -0.018648  -0.000085  -0.000024  -0.010813   0.000113
    10  O    0.001404   0.000738   0.000053  -0.000003   0.000331  -0.000001
    11  H   -0.000045   0.000038  -0.000001   0.000000   0.000006   0.000000
    12  C   -0.001568  -0.002067   0.000057  -0.000088  -0.030014   0.001705
    13  O    0.010821  -0.010524   0.000176  -0.000008  -0.021107   0.000739
    14  C   -0.015041  -0.384176   0.002702   0.002342  -0.448705   0.010673
    15  O    0.035114   0.027047   0.000595  -0.000072   0.018844   0.002552
    16  C   -0.049421  -1.785428  -0.022733   0.011430   0.074345   0.020722
    17  C   -0.036754  -1.757484  -0.203644  -0.022342  -0.529246  -0.038479
    18  O    0.169322  -0.229820   0.021159   0.007041   0.010847   0.000203
    19  H    0.402035   0.075208  -0.000411  -0.000072  -0.002602  -0.000028
    20  C    0.075208  11.163867   0.557157  -0.037900   0.441551   0.015685
    21  O   -0.000411   0.557157   8.044267   0.228623  -0.000452   0.000021
    22  H   -0.000072  -0.037900   0.228623   0.376263   0.000211   0.000000
    23  C   -0.002602   0.441551  -0.000452   0.000211   9.478420   0.469786
    24  O   -0.000028   0.015685   0.000021   0.000000   0.469786   7.954071
    25  H    0.000000  -0.001692   0.000000   0.000000  -0.153620   0.229570
    26  C    0.030677   1.763763   0.023599  -0.012290  -2.325187  -0.299523
    27  O    0.000331  -0.034745   0.005541  -0.000229   0.136443   0.012235
    28  C   -0.010191  -3.481880  -0.225585   0.061547  -0.576587  -0.016907
    29  O    0.000014  -0.207434   0.012034  -0.000607  -0.018367  -0.000617
    30  H    0.000000   0.000001   0.000000   0.000000   0.000006   0.000000
    31  H    0.000000   0.067275  -0.001200   0.000002   0.005045  -0.000007
             25         26         27         28         29         30
     1  O    0.000000  -0.000230   0.000000   0.000005   0.000000   0.218894
     2  C    0.000045  -0.018010   0.000238   0.005657  -0.000014  -0.012135
     3  C    0.001225   0.043973  -0.000013  -0.015012   0.000020  -0.041090
     4  O    0.000004   0.000752   0.000002   0.000094   0.000000   0.003588
     5  H    0.000000   0.000042   0.000000   0.000000   0.000000  -0.000208
     6  C    0.002255  -0.451236  -0.006033  -0.045041   0.000349  -0.001155
     7  O   -0.000071   0.018296   0.000064  -0.000332   0.000002  -0.000059
     8  H    0.000014  -0.000133   0.000001  -0.000007   0.000000  -0.000001
     9  C   -0.000001   0.007506  -0.000108  -0.002348   0.000030  -0.025170
    10  O    0.000000  -0.001178   0.000001   0.000946  -0.000001   0.000020
    11  H    0.000000   0.000001   0.000000  -0.000015   0.000000  -0.000001
    12  C    0.000006   0.010155  -0.000173   0.005519   0.000009   0.075628
    13  O    0.000012  -0.037448  -0.000168   0.010692  -0.000019  -0.001576
    14  C    0.003861   0.336154  -0.007984   0.357481   0.001170   0.007294
    15  O   -0.000208   0.035190   0.002441   0.041778   0.000006  -0.000008
    16  C    0.018137  -5.064556  -0.146904   2.420822  -0.020535   0.000087
    17  C    0.000801   1.552844  -0.128800  -0.780393   0.098867  -0.000018
    18  O   -0.000009   0.063582   0.002637   0.070091  -0.000885  -0.000001
    19  H    0.000000   0.030677   0.000331  -0.010191   0.000014   0.000000
    20  C   -0.001692   1.763763  -0.034745  -3.481880  -0.207434   0.000001
    21  O    0.000000   0.023599   0.005541  -0.225585   0.012034   0.000000
    22  H    0.000000  -0.012290  -0.000229   0.061547  -0.000607   0.000000
    23  C   -0.153620  -2.325187   0.136443  -0.576587  -0.018367   0.000006
    24  O    0.229570  -0.299523   0.012235  -0.016907  -0.000617   0.000000
    25  H    0.402394   0.096216  -0.000269   0.004014  -0.000017   0.000000
    26  C    0.096216  11.715656   0.342672  -1.954505  -0.033388  -0.000014
    27  O   -0.000269   0.342672   8.240813  -0.141830  -0.057298   0.000000
    28  C    0.004014  -1.954505  -0.141830   9.549279   0.377771   0.000000
    29  O   -0.000017  -0.033388  -0.057298   0.377771   8.088250   0.000000
    30  H    0.000000  -0.000014   0.000000   0.000000   0.000000   0.428562
    31  H    0.000000   0.006675  -0.000844  -0.064606   0.236337   0.000000
             31
     1  O    0.000000
     2  C    0.000000
     3  C    0.000001
     4  O    0.000000
     5  H    0.000000
     6  C    0.000027
     7  O    0.000000
     8  H    0.000000
     9  C    0.000000
    10  O    0.000000
    11  H    0.000000
    12  C    0.000000
    13  O    0.000000
    14  C    0.000135
    15  O   -0.000015
    16  C   -0.005040
    17  C   -0.008533
    18  O    0.000006
    19  H    0.000000
    20  C    0.067275
    21  O   -0.001200
    22  H    0.000002
    23  C    0.005045
    24  O   -0.000007
    25  H    0.000000
    26  C    0.006675
    27  O   -0.000844
    28  C   -0.064606
    29  O    0.236337
    30  H    0.000000
    31  H    0.398016
 Mulliken atomic charges:
              1
     1  O   -0.485430
     2  C    0.383054
     3  C    0.345561
     4  O   -0.541770
     5  H    0.358606
     6  C   -0.435677
     7  O   -0.414438
     8  H    0.366130
     9  C   -0.383156
    10  O   -0.463898
    11  H    0.400791
    12  C    0.214335
    13  O   -0.286644
    14  C    0.456626
    15  O   -0.263452
    16  C    0.676672
    17  C    0.138136
    18  O   -0.381532
    19  H    0.371519
    20  C   -0.170261
    21  O   -0.441695
    22  H    0.386006
    23  C   -0.452911
    24  O   -0.353777
    25  H    0.397331
    26  C    0.149945
    27  O   -0.218020
    28  C    0.409544
    29  O   -0.475676
    30  H    0.347356
    31  H    0.366728
 Sum of Mulliken atomic charges =   0.00000
 Mulliken charges with hydrogens summed into heavy atoms:
              1
     1  O   -0.138075
     2  C    0.383054
     3  C    0.345561
     4  O   -0.183164
     6  C   -0.435677
     7  O   -0.048308
     9  C   -0.383156
    10  O   -0.063108
    12  C    0.214335
    13  O   -0.286644
    14  C    0.456626
    15  O   -0.263452
    16  C    0.676672
    17  C    0.138136
    18  O   -0.010013
    20  C   -0.170261
    21  O   -0.055689
    23  C   -0.452911
    24  O    0.043554
    26  C    0.149945
    27  O   -0.218020
    28  C    0.409544
    29  O   -0.108948
 Sum of Mulliken charges with hydrogens summed into heavy atoms =   0.00000
 APT atomic charges:
              1
     1  O   -0.646180
     2  C    0.647552
     3  C    0.241384
     4  O   -0.734596
     5  H    0.283975
     6  C    0.464750
     7  O   -0.492209
     8  H    0.270994
     9  C    0.071476
    10  O   -0.240793
    11  H    0.346575
    12  C   -0.595526
    13  O    0.064238
    14  C   -0.201457
    15  O    0.221411
    16  C   -0.200996
    17  C   -0.203267
    18  O    0.084203
    19  H    0.016311
    20  C    0.716000
    21  O   -0.681361
    22  H    0.297580
    23  C    0.305089
    24  O   -0.648923
    25  H    0.327980
    26  C    0.226952
    27  O   -0.302562
    28  C    0.587257
    29  O   -0.927339
    30  H    0.285871
    31  H    0.415610
 Sum of APT charges=   0.00000
 APT Atomic charges with hydrogens summed into heavy atoms:
              1
     1  O   -0.360309
     2  C    0.647552
     3  C    0.241384
     4  O   -0.450621
     5  H    0.000000
     6  C    0.464750
     7  O   -0.221215
     8  H    0.000000
     9  C    0.071476
    10  O    0.105782
    11  H    0.000000
    12  C   -0.595526
    13  O    0.064238
    14  C   -0.201457
    15  O    0.221411
    16  C   -0.200996
    17  C   -0.203267
    18  O    0.100514
    19  H    0.000000
    20  C    0.716000
    21  O   -0.383781
    22  H    0.000000
    23  C    0.305089
    24  O   -0.320943
    25  H    0.000000
    26  C    0.226952
    27  O   -0.302562
    28  C    0.587257
    29  O   -0.511730
    30  H    0.000000
    31  H    0.000000
 Sum of APT charges=   0.00000
 Electronic spatial extent (au):  <R**2>=           8468.2301
 Charge=              0.0000 electrons
 Dipole moment (field-independent basis, Debye):
    X=              0.2673    Y=             -3.1305    Z=              0.0141  Tot=              3.1419
 Quadrupole moment (field-independent basis, Debye-Ang):
   XX=           -105.4955   YY=           -110.5789   ZZ=           -138.2920
   XY=             -6.8704   XZ=              3.0559   YZ=             -1.0717
 Traceless Quadrupole moment (field-independent basis, Debye-Ang):
   XX=             12.6267   YY=              7.5432   ZZ=            -20.1699
   XY=             -6.8704   XZ=              3.0559   YZ=             -1.0717
 Octapole moment (field-independent basis, Debye-Ang**2):
  XXX=            120.3270  YYY=            -11.0958  ZZZ=              9.9514  XYY=             -7.1223
  XXY=           -111.7881  XXZ=            -40.4829  XZZ=            -19.0141  YZZ=             11.4348
  YYZ=             28.6694  XYZ=            -28.4750
 Hexadecapole moment (field-independent basis, Debye-Ang**3):
 XXXX=          -6034.9721 YYYY=          -1934.9915 ZZZZ=           -274.6941 XXXY=           -192.7790
 XXXZ=            239.7019 YYYX=             63.8539 YYYZ=            -70.0242 ZZZX=            -30.1911
 ZZZY=             -7.6659 XXYY=          -1691.0870 XXZZ=          -1377.4738 YYZZ=           -540.5328
 XXYZ=             28.1815 YYXZ=            -61.8818 ZZXY=            -51.7347
 N-N= 1.922651612144D+03 E-N=-6.863658012857D+03  KE= 1.275270656564D+03
  Exact polarizability: 717.097  46.467 353.122  21.534   7.841 125.124
 Approx polarizability:5292.906 541.519 870.761 455.655  81.887 284.618
 Calling FoFJK, ICntrl=    100127 FMM=F ISym2X=0 I1Cent= 0 IOpClX= 0 NMat=1 NMatS=1 NMatT=0.
 Full mass-weighted force constant matrix:
 Low frequencies --- -430.3227 -414.3424 -196.3512  -91.6977   -6.5046   -0.0004
 Low frequencies ---    0.0003    0.0007   34.6276
 ******    4 imaginary frequencies (negative Signs) ****** 
 Harmonic frequencies (cm**-1), IR intensities (KM/Mole), Raman scattering
 activities (A**4/AMU), depolarization ratios for plane and unpolarized
 incident light, reduced masses (AMU), force constants (mDyne/A),
 and normal coordinates:
                     1                      2                      3
                     A                      A                      A
 Frequencies --  -430.2988              -414.3184              -193.5548
 Red. masses --     1.1799                 1.1512                 7.0366
 Frc consts  --     0.1287                 0.1164                 0.1553
 IR Inten    --    91.1453                68.0024               189.1372
 Raman Activ --   220.5634                59.0749               412.1241
 Depolar (P) --     0.6641                 0.7493                 0.7500
 Depolar (U) --     0.7982                 0.8567                 0.8571
  Atom  AN      X      Y      Z        X      Y      Z        X      Y      Z
     1   8     0.00   0.00   0.00    -0.01   0.06  -0.04    -0.01   0.00   0.02
     2   6     0.00   0.00   0.00     0.01   0.01   0.02    -0.01   0.02  -0.01
     3   6     0.00   0.00   0.00     0.00  -0.01   0.04    -0.01  -0.01   0.02
     4   8     0.00   0.00   0.00     0.00  -0.01  -0.03     0.00   0.00  -0.02
     5   1     0.00   0.00   0.00    -0.01  -0.08  -0.01    -0.01  -0.01   0.01
     6   6     0.00   0.00   0.01     0.00   0.00   0.00    -0.01   0.01   0.15
     7   8     0.00   0.00   0.00     0.00   0.00   0.00     0.04   0.00   0.03
     8   1     0.00   0.00   0.00     0.00   0.00   0.00     0.06   0.02   0.08
     9   6     0.00   0.00   0.00     0.00   0.00   0.00     0.01   0.02  -0.04
    10   8     0.00   0.00   0.00     0.00   0.00   0.00     0.00   0.00  -0.03
    11   1     0.00   0.00   0.00     0.00   0.00   0.00    -0.01   0.00  -0.04
    12   6     0.00   0.00   0.00     0.00   0.01   0.00    -0.01  -0.01  -0.04
    13   8     0.00   0.00   0.00     0.00   0.00   0.01     0.05  -0.02  -0.05
    14   6     0.00   0.00   0.02     0.00   0.00   0.00    -0.08   0.07   0.34
    15   8     0.00   0.01  -0.02     0.00   0.00   0.00    -0.03   0.06  -0.11
    16   6     0.00   0.00  -0.02     0.00   0.00   0.00     0.01  -0.01  -0.26
    17   6     0.01  -0.01   0.00     0.00   0.00   0.00     0.08  -0.07   0.05
    18   8     0.00   0.00   0.00     0.00   0.00   0.00     0.00  -0.02  -0.01
    19   1     0.00   0.00   0.00     0.00   0.00   0.00     0.05   0.00   0.02
    20   6     0.00   0.00   0.01     0.00   0.00   0.00     0.00  -0.05   0.05
    21   8     0.00   0.01  -0.01     0.00   0.00   0.00     0.03  -0.02  -0.06
    22   1    -0.02   0.00   0.01     0.00   0.00   0.00    -0.04  -0.04   0.01
    23   6     0.02   0.01  -0.01     0.00   0.00   0.00     0.10   0.06  -0.06
    24   8    -0.01   0.00   0.00     0.00   0.00   0.00    -0.10   0.00  -0.03
    25   1     0.00   0.00   0.00     0.00   0.00   0.00    -0.04   0.01  -0.02
    26   6     0.00  -0.01  -0.04     0.00   0.00   0.00    -0.03  -0.04  -0.32
    27   8    -0.02   0.00   0.02     0.00   0.00   0.00    -0.07  -0.01   0.04
    28   6     0.01   0.00   0.06     0.00   0.00   0.00     0.07  -0.05   0.32
    29   8     0.00   0.06  -0.04     0.00   0.00   0.00     0.01   0.01   0.07
    30   1     0.00  -0.01   0.01    -0.10  -0.89   0.43    -0.01   0.05   0.00
    31   1     0.32  -0.85   0.41     0.00   0.01  -0.01    -0.12   0.59  -0.29
                     4                      5                      6
                     A                      A                      A
 Frequencies --   -85.7712                44.2314                67.1930
 Red. masses --    10.6550                 8.8572                 9.0596
 Frc consts  --     0.0462                 0.0102                 0.0241
 IR Inten    --    21.5258                20.6136                 0.4274
 Raman Activ --   349.0408                32.7778                 8.5160
 Depolar (P) --     0.6869                 0.7252                 0.4224
 Depolar (U) --     0.8144                 0.8407                 0.5940
  Atom  AN      X      Y      Z        X      Y      Z        X      Y      Z
     1   8     0.02   0.02  -0.04    -0.02   0.03   0.00     0.04  -0.17   0.13
     2   6    -0.01  -0.04   0.04    -0.05   0.01   0.06     0.07  -0.06   0.01
     3   6    -0.05   0.05   0.05     0.01   0.01  -0.01    -0.04  -0.03  -0.04
     4   8    -0.04  -0.06   0.37     0.02   0.06  -0.12    -0.08  -0.11   0.10
     5   1    -0.03   0.02   0.34     0.02   0.05  -0.12    -0.08  -0.10   0.09
     6   6    -0.04   0.00  -0.21     0.01  -0.03  -0.05    -0.05   0.07  -0.06
     7   8    -0.10   0.07   0.03     0.03  -0.04  -0.03    -0.11   0.07  -0.13
     8   1    -0.12   0.04   0.03     0.04  -0.03  -0.06    -0.13   0.04  -0.12
     9   6    -0.08  -0.04   0.07    -0.11  -0.02   0.22     0.19   0.01   0.02
    10   8    -0.07   0.02  -0.03    -0.13  -0.01   0.19     0.21   0.03   0.05
    11   1    -0.03   0.00  -0.02    -0.12  -0.01   0.22     0.23   0.03   0.05
    12   6    -0.04   0.05   0.10    -0.07   0.00   0.15     0.12   0.01  -0.02
    13   8    -0.04   0.04  -0.04    -0.06  -0.02   0.07     0.12   0.09  -0.06
    14   6     0.06  -0.03  -0.51     0.01  -0.06  -0.07     0.00   0.14   0.01
    15   8     0.03   0.02  -0.30     0.00  -0.07  -0.04     0.00   0.21  -0.05
    16   6     0.06   0.01  -0.11     0.03  -0.02   0.01    -0.02   0.06   0.01
    17   6     0.08  -0.02   0.01     0.06  -0.02  -0.17    -0.12   0.03  -0.07
    18   8     0.04   0.00   0.15     0.07   0.03  -0.49    -0.14   0.10  -0.25
    19   1     0.05   0.06   0.14     0.05   0.00  -0.53    -0.16   0.09  -0.27
    20   6     0.03  -0.04   0.03     0.07   0.03  -0.03    -0.11  -0.03   0.01
    21   8     0.05  -0.02  -0.01     0.09   0.04  -0.10    -0.17  -0.05   0.00
    22   1     0.04  -0.03   0.00     0.05   0.04  -0.07    -0.19  -0.03  -0.01
    23   6     0.10   0.09   0.04    -0.02   0.00   0.07     0.09   0.02   0.05
    24   8    -0.06  -0.02   0.01    -0.03  -0.04   0.05     0.08   0.01   0.04
    25   1    -0.01   0.00  -0.01    -0.03  -0.04   0.03     0.11   0.02   0.04
    26   6     0.00  -0.04  -0.13    -0.01  -0.03   0.04     0.04  -0.01   0.04
    27   8     0.00  -0.03   0.13    -0.01   0.01   0.10     0.02  -0.06   0.07
    28   6     0.06  -0.03   0.16     0.04   0.02   0.13    -0.06  -0.10   0.06
    29   8     0.04   0.01   0.08     0.05   0.07   0.14    -0.05  -0.18   0.09
    30   1    -0.01  -0.16   0.02    -0.03   0.07  -0.05     0.05  -0.26   0.21
    31   1    -0.02   0.22  -0.05    -0.01   0.17   0.12    -0.05  -0.16   0.07
                     7                      8                      9
                     A                      A                      A
 Frequencies --    82.8862                97.7729               114.1824
 Red. masses --     7.1758                 8.0492                 7.9959
 Frc consts  --     0.0290                 0.0453                 0.0614
 IR Inten    --     3.1069                22.6710                16.3146
 Raman Activ --    41.5890                31.7831                35.2600
 Depolar (P) --     0.6209                 0.4765                 0.7451
 Depolar (U) --     0.7661                 0.6454                 0.8539
  Atom  AN      X      Y      Z        X      Y      Z        X      Y      Z
     1   8    -0.26   0.02   0.43     0.03   0.01  -0.11    -0.04   0.02   0.07
     2   6    -0.03   0.02   0.08     0.01   0.02  -0.08    -0.02  -0.03   0.07
     3   6     0.00  -0.01  -0.02    -0.01   0.03   0.01    -0.02  -0.04   0.11
     4   8     0.05   0.03  -0.02     0.08  -0.05   0.41    -0.12  -0.02  -0.19
     5   1     0.05   0.06  -0.01     0.06   0.06   0.47    -0.10  -0.10  -0.25
     6   6     0.03  -0.02  -0.08     0.04  -0.02   0.01    -0.07   0.00   0.13
     7   8     0.03  -0.05  -0.16     0.08  -0.04  -0.03    -0.18   0.10   0.39
     8   1     0.03  -0.04  -0.15     0.11  -0.01  -0.01    -0.22   0.06   0.42
     9   6    -0.04   0.01  -0.12    -0.06   0.01  -0.06     0.01  -0.03  -0.02
    10   8    -0.05  -0.02  -0.14    -0.07   0.01  -0.03    -0.01  -0.04  -0.10
    11   1    -0.07  -0.01  -0.15    -0.07   0.01  -0.03    -0.01  -0.04  -0.10
    12   6    -0.05  -0.02  -0.11    -0.01   0.01  -0.07     0.00  -0.02   0.00
    13   8     0.04  -0.04  -0.18     0.01  -0.06  -0.06    -0.01   0.00  -0.04
    14   6     0.00  -0.03  -0.05    -0.01  -0.01   0.12     0.02   0.01  -0.14
    15   8     0.00  -0.03  -0.02    -0.03  -0.04   0.12     0.02   0.00  -0.01
    16   6     0.01  -0.01   0.02    -0.03  -0.01   0.05     0.02   0.03   0.02
    17   6     0.03   0.01   0.01    -0.04   0.03  -0.03     0.00   0.03  -0.03
    18   8     0.06  -0.01   0.00     0.01   0.01  -0.17     0.02   0.04  -0.07
    19   1     0.04  -0.03  -0.03    -0.02  -0.03  -0.20     0.00   0.04  -0.10
    20   6     0.05   0.02   0.04     0.01   0.03   0.07     0.03   0.00   0.04
    21   8     0.06   0.02   0.07     0.00   0.02   0.16     0.00  -0.01   0.09
    22   1     0.07   0.01   0.07     0.03   0.01   0.15     0.02  -0.01   0.08
    23   6    -0.02  -0.02   0.01    -0.10  -0.04  -0.21     0.06   0.02  -0.18
    24   8     0.02   0.01   0.02     0.05  -0.01  -0.23     0.16   0.00  -0.22
    25   1     0.00   0.00   0.02     0.00  -0.01  -0.24     0.16   0.01  -0.24
    26   6     0.01   0.01   0.04    -0.01   0.05   0.00     0.05   0.03  -0.03
    27   8     0.02   0.02   0.02    -0.01   0.02  -0.13     0.06  -0.02  -0.06
    28   6     0.02   0.03   0.02    -0.04   0.06   0.01     0.02  -0.01   0.03
    29   8     0.03   0.04   0.06     0.01   0.02   0.18     0.05  -0.05   0.14
    30   1    -0.14   0.09   0.68     0.00  -0.18  -0.04    -0.01   0.17   0.01
    31   1     0.03   0.00   0.10    -0.01  -0.10   0.30     0.03  -0.09   0.19
                    10                     11                     12
                     A                      A                      A
 Frequencies --   133.1286               150.1927               162.6535
 Red. masses --     8.5198                 9.0009                 8.4817
 Frc consts  --     0.0890                 0.1196                 0.1322
 IR Inten    --     1.0510                15.5997                 0.9287
 Raman Activ --    79.3568                 6.1315                19.4397
 Depolar (P) --     0.2336                 0.6625                 0.2271
 Depolar (U) --     0.3787                 0.7970                 0.3701
  Atom  AN      X      Y      Z        X      Y      Z        X      Y      Z
     1   8     0.04   0.09   0.05    -0.02   0.06  -0.02    -0.08  -0.01  -0.07
     2   6     0.05   0.05   0.05    -0.10  -0.01   0.14    -0.09   0.02  -0.08
     3   6     0.05   0.06   0.06    -0.06  -0.02   0.20    -0.13   0.01   0.01
     4   8     0.03   0.07  -0.03    -0.09   0.00   0.01    -0.17  -0.05   0.08
     5   1     0.03   0.05  -0.05    -0.09  -0.09   0.03    -0.17  -0.06   0.09
     6   6     0.03   0.07   0.00    -0.05   0.01   0.01    -0.12   0.08   0.07
     7   8     0.00   0.09   0.06    -0.07  -0.09  -0.29    -0.19   0.06  -0.05
     8   1    -0.02   0.07   0.05    -0.06  -0.09  -0.37    -0.21   0.03  -0.04
     9   6     0.17   0.06  -0.05     0.09   0.00  -0.13    -0.02   0.08  -0.03
    10   8     0.24   0.14  -0.08     0.12   0.04  -0.25     0.01   0.11   0.08
    11   1     0.29   0.12  -0.08     0.14   0.01  -0.31     0.03   0.10   0.09
    12   6     0.07   0.07   0.00    -0.04   0.02   0.12    -0.06   0.05  -0.09
    13   8     0.02   0.08   0.02    -0.20   0.10   0.36    -0.06   0.07  -0.06
    14   6     0.06   0.03  -0.11    -0.05  -0.06   0.05    -0.09   0.08   0.10
    15   8     0.03  -0.02   0.00     0.00  -0.06   0.04    -0.03   0.02  -0.01
    16   6     0.00  -0.11   0.09     0.00   0.01   0.03     0.00  -0.06  -0.01
    17   6    -0.01  -0.11   0.02     0.03   0.01  -0.01     0.08  -0.06   0.05
    18   8     0.02  -0.11  -0.08     0.03   0.02   0.00     0.13  -0.09  -0.12
    19   1    -0.01  -0.11  -0.13     0.04   0.04   0.03     0.11  -0.10  -0.18
    20   6     0.01  -0.05   0.04     0.03   0.00  -0.02     0.13  -0.03   0.09
    21   8     0.06  -0.04   0.07     0.03   0.01  -0.09     0.17  -0.05   0.23
    22   1     0.09  -0.05   0.07     0.00   0.02  -0.07     0.27  -0.07   0.19
    23   6    -0.25  -0.12  -0.03     0.09   0.03  -0.08     0.09  -0.10   0.06
    24   8    -0.37  -0.21  -0.08     0.12  -0.03  -0.10     0.11  -0.08   0.10
    25   1    -0.44  -0.22  -0.12     0.13  -0.01  -0.14     0.12  -0.07   0.10
    26   6    -0.08  -0.10   0.01     0.02   0.00  -0.01     0.04  -0.07   0.04
    27   8    -0.07  -0.03   0.01     0.03  -0.03   0.05     0.05  -0.02  -0.02
    28   6    -0.03   0.00  -0.01     0.03  -0.02   0.05     0.12   0.01  -0.09
    29   8    -0.03   0.04   0.02     0.04  -0.01   0.09     0.07   0.05  -0.25
    30   1     0.05   0.14   0.04    -0.04   0.22  -0.19    -0.09  -0.03  -0.08
    31   1    -0.05   0.02   0.05     0.01   0.02   0.10     0.13   0.08  -0.32
                    13                     14                     15
                     A                      A                      A
 Frequencies --   179.0067               190.3679               208.1297
 Red. masses --     8.5963                 8.0391                 7.9122
 Frc consts  --     0.1623                 0.1716                 0.2019
 IR Inten    --     9.2626                 2.8354                25.4131
 Raman Activ --    19.2161                32.3081                14.1834
 Depolar (P) --     0.1547                 0.6676                 0.3251
 Depolar (U) --     0.2680                 0.8007                 0.4907
  Atom  AN      X      Y      Z        X      Y      Z        X      Y      Z
     1   8    -0.09  -0.01   0.00    -0.04   0.05  -0.01    -0.14   0.17  -0.03
     2   6    -0.04   0.03  -0.10    -0.05   0.01   0.03    -0.07  -0.01  -0.04
     3   6    -0.06   0.02  -0.08    -0.01   0.00   0.04     0.02  -0.02   0.03
     4   8    -0.06  -0.02   0.04     0.02   0.04  -0.02     0.08   0.02   0.03
     5   1    -0.06   0.02   0.04     0.01   0.02   0.01     0.08   0.06   0.05
     6   6    -0.05   0.04   0.01     0.00  -0.03   0.00     0.03  -0.11  -0.01
     7   8    -0.09   0.05   0.00     0.01  -0.03   0.01     0.12  -0.10   0.10
     8   1    -0.10   0.03   0.02     0.02  -0.02   0.01     0.16  -0.04   0.12
     9   6     0.02   0.06   0.03     0.08   0.00   0.04     0.09  -0.06  -0.03
    10   8     0.11   0.14   0.22     0.18   0.10   0.06     0.29   0.12   0.15
    11   1     0.14   0.13   0.25     0.25   0.08   0.08     0.38   0.08   0.16
    12   6    -0.03   0.03  -0.11    -0.03   0.00   0.03    -0.08  -0.07  -0.10
    13   8    -0.01   0.02  -0.13    -0.05  -0.01   0.02    -0.08  -0.09  -0.05
    14   6    -0.04   0.04   0.04    -0.02  -0.05  -0.04    -0.05  -0.14  -0.07
    15   8    -0.03  -0.06   0.08    -0.01  -0.11  -0.06    -0.05  -0.09  -0.06
    16   6    -0.03  -0.05   0.03    -0.05  -0.02  -0.22    -0.03   0.02   0.04
    17   6     0.02  -0.04   0.02    -0.02   0.00  -0.18    -0.02   0.01   0.02
    18   8     0.05  -0.11   0.17     0.02  -0.07   0.02    -0.03   0.05  -0.06
    19   1     0.05  -0.11   0.18     0.02  -0.06   0.04    -0.04   0.03  -0.05
    20   6     0.04   0.03  -0.15     0.01  -0.04  -0.06    -0.06   0.01   0.06
    21   8     0.09   0.09  -0.39     0.00  -0.09   0.17    -0.08   0.01   0.03
    22   1    -0.04   0.09  -0.30     0.12  -0.10   0.10    -0.10   0.02   0.04
    23   6    -0.03  -0.11  -0.06    -0.01  -0.02   0.06     0.07   0.11  -0.02
    24   8     0.10  -0.09  -0.06     0.03   0.23   0.22     0.17   0.00  -0.09
    25   1     0.07  -0.09  -0.08     0.05   0.19   0.36     0.24   0.04  -0.16
    26   6     0.01  -0.03   0.07    -0.03   0.01  -0.14    -0.06   0.01   0.02
    27   8     0.02  -0.02   0.01    -0.04  -0.02  -0.30    -0.07   0.01   0.19
    28   6     0.00  -0.02   0.00    -0.07   0.02  -0.09    -0.02   0.00   0.07
    29   8     0.07   0.01   0.24     0.02   0.00   0.22    -0.10   0.06  -0.17
    30   1    -0.07  -0.07   0.09    -0.04   0.10  -0.05    -0.10   0.21   0.04
    31   1    -0.03  -0.08   0.40    -0.08  -0.14   0.41    -0.03   0.16  -0.31
                    16                     17                     18
                     A                      A                      A
 Frequencies --   222.5695               240.3012               269.0438
 Red. masses --     6.7197                 8.0605                 9.7672
 Frc consts  --     0.1961                 0.2742                 0.4165
 IR Inten    --    11.7351                45.2063                75.6226
 Raman Activ --   113.8307                43.5470                56.0632
 Depolar (P) --     0.7435                 0.3229                 0.7412
 Depolar (U) --     0.8529                 0.4882                 0.8514
  Atom  AN      X      Y      Z        X      Y      Z        X      Y      Z
     1   8    -0.04   0.31  -0.06     0.12   0.15   0.00     0.01   0.00  -0.01
     2   6     0.05   0.00  -0.02     0.11   0.01   0.09     0.00   0.00   0.01
     3   6     0.06  -0.08   0.24     0.07  -0.01   0.17     0.01  -0.01   0.00
     4   8    -0.06  -0.14   0.00    -0.03  -0.05  -0.02     0.00  -0.03  -0.01
     5   1    -0.06  -0.27  -0.01    -0.03  -0.16  -0.04     0.00  -0.03  -0.02
     6   6     0.02   0.01   0.10     0.02   0.06   0.02     0.00   0.01  -0.05
     7   8    -0.09  -0.02  -0.13    -0.04   0.04  -0.11    -0.11   0.01  -0.06
     8   1    -0.11  -0.06  -0.12    -0.05   0.02  -0.11    -0.15  -0.04  -0.07
     9   6     0.00  -0.04  -0.07     0.03  -0.03   0.04     0.00   0.01   0.09
    10   8    -0.03  -0.14   0.18    -0.06  -0.13  -0.01     0.01   0.08  -0.04
    11   1    -0.12  -0.10   0.18    -0.12  -0.10   0.00     0.08   0.06   0.00
    12   6     0.04  -0.09  -0.17     0.09  -0.02   0.01    -0.02   0.04   0.03
    13   8     0.02   0.01  -0.07     0.12   0.01  -0.07     0.02  -0.01  -0.10
    14   6     0.03   0.00  -0.01     0.05   0.06  -0.06     0.08   0.00  -0.06
    15   8     0.05   0.01  -0.01    -0.02   0.07  -0.04     0.01  -0.10   0.18
    16   6     0.06   0.05  -0.01    -0.06  -0.10   0.05     0.06  -0.06   0.26
    17   6     0.02   0.05  -0.03    -0.07  -0.12   0.06     0.08  -0.11   0.23
    18   8     0.00   0.08   0.01    -0.05  -0.16  -0.01     0.06  -0.05  -0.07
    19   1     0.01   0.08   0.03    -0.08  -0.17  -0.05     0.04  -0.04  -0.15
    20   6     0.01   0.01  -0.02    -0.05  -0.02   0.02     0.01  -0.10   0.16
    21   8    -0.03  -0.01   0.01     0.04   0.02  -0.04     0.13   0.00  -0.14
    22   1    -0.02   0.01  -0.02    -0.01  -0.02   0.03    -0.09  -0.05   0.06
    23   6    -0.03   0.02   0.01    -0.02  -0.03   0.04    -0.12   0.21  -0.05
    24   8    -0.17   0.03   0.01     0.28  -0.03   0.03    -0.03   0.40  -0.02
    25   1    -0.23   0.00   0.03     0.40   0.01  -0.01     0.00   0.36   0.12
    26   6     0.07   0.05   0.02    -0.14  -0.10  -0.02    -0.05   0.03  -0.12
    27   8     0.09   0.01   0.01    -0.20  -0.02  -0.06    -0.07  -0.08  -0.08
    28   6     0.03  -0.02  -0.02    -0.10   0.07   0.02     0.00  -0.07   0.14
    29   8     0.04  -0.11   0.03    -0.11   0.26   0.01    -0.07  -0.21  -0.09
    30   1     0.03   0.57  -0.07     0.13   0.28  -0.07     0.00   0.01  -0.03
    31   1     0.06  -0.14   0.04    -0.19   0.28   0.07     0.08  -0.14  -0.28
                    19                     20                     21
                     A                      A                      A
 Frequencies --   281.2843               285.6785               304.7384
 Red. masses --     9.4241                 8.6860                 7.6302
 Frc consts  --     0.4393                 0.4177                 0.4175
 IR Inten    --    60.7129                69.1411                25.6685
 Raman Activ --   108.4463                37.9042                11.9431
 Depolar (P) --     0.6934                 0.7172                 0.2668
 Depolar (U) --     0.8190                 0.8353                 0.4212
  Atom  AN      X      Y      Z        X      Y      Z        X      Y      Z
     1   8     0.15  -0.06  -0.08    -0.05   0.04   0.02    -0.07  -0.01  -0.09
     2   6    -0.07   0.04   0.20     0.00  -0.01  -0.03    -0.12  -0.02   0.02
     3   6    -0.07   0.00   0.26     0.01   0.02  -0.05     0.00  -0.02   0.01
     4   8     0.07   0.22  -0.04     0.00  -0.01   0.02     0.29   0.25   0.02
     5   1     0.04   0.18   0.08     0.00   0.00   0.02     0.25   0.41   0.17
     6   6    -0.04  -0.10   0.12     0.01   0.02  -0.02     0.00  -0.04  -0.04
     7   8    -0.13  -0.15  -0.09     0.12   0.04   0.06    -0.26   0.02  -0.03
     8   1    -0.13  -0.16  -0.05     0.15   0.09   0.06    -0.35  -0.11   0.09
     9   6    -0.03   0.07   0.08     0.03  -0.06  -0.03     0.08  -0.12   0.05
    10   8     0.01   0.13  -0.06     0.02  -0.12   0.03     0.07  -0.17  -0.01
    11   1     0.08   0.11  -0.04    -0.04  -0.10   0.01     0.04  -0.15   0.02
    12   6    -0.04   0.02   0.08     0.01  -0.04  -0.01    -0.03  -0.07  -0.04
    13   8     0.17  -0.16  -0.20    -0.06   0.05   0.11    -0.04   0.01  -0.07
    14   6    -0.02  -0.03   0.01    -0.06   0.02   0.02     0.01   0.04   0.02
    15   8    -0.05   0.03  -0.13    -0.02   0.10  -0.13     0.00   0.02   0.07
    16   6    -0.03   0.00  -0.14    -0.05  -0.03  -0.09     0.03   0.02   0.08
    17   6    -0.05   0.04  -0.03    -0.11  -0.06   0.00    -0.01  -0.01   0.08
    18   8     0.05  -0.08   0.03    -0.17  -0.01  -0.01    -0.16   0.13  -0.01
    19   1     0.01  -0.14   0.01    -0.14   0.02   0.02    -0.09   0.19   0.06
    20   6    -0.02   0.10   0.03    -0.01   0.04   0.03     0.00  -0.03   0.02
[...]
 0028596,0.00016117,0.00005421,-0.00030047,0.00046049,-0.00106317,-0.00
 086322,-0.00074648,0.00088565,0.00348940,-0.00148318,-0.00021789,-0.00
 009215,0.00173602,0.00055343,0.00039219,0.00012084,0.00008478,0.000106
 28,-0.00023260,-0.00005683,-0.00024724,-0.00059941,0.00000623,-0.00000
 286,0.00001031,-0.00001305,0.00000838,0.00002188,-0.00514763,0.0034437
 8,-0.01441976,0.04878303,0.04084178,-0.03727037,-0.04527960,-0.0479215
 9,0.03892310,-0.00014130,0.00067454,-0.00002718,-0.00015011,-0.0042127
 6,0.00223076,-0.00135568,0.00131131,0.00270363,0.00239379,0.00050400,-
 0.00162904,-0.00045437,0.00038488,0.00026565,0.00109550,-0.00129616,-0
 .00369538,0.00051149,0.00018552,0.00130255,0.00006715,-0.00029265,-0.0
 0019085,-0.00030096,0.00167457,-0.00277450,-0.00010940,-0.00158409,0.0
 0247637,-0.00008669,0.00057163,-0.00013084,-0.00125467,-0.00065646,-0.
 00471235,0.00489679,0.00216698,0.00387447,0.00167406,-0.00034590,-0.00
 300428,-0.00360136,0.01545762,0.02056191,-0.06117113,-0.01612671,0.012
 46815,-0.01815987,-0.03954357,0.01552806,0.00187292,0.00016526,-0.0001
 2628,-0.00145206,0.00135774,-0.00032487,-0.00351447,-0.00223113,-0.028
 25175,0.00067648,0.00261429,0.00217930,-0.00029774,0.00066549,0.000150
 25,-0.01498699,0.00083717,0.01956061,-0.00987842,-0.00541427,-0.010482
 39,0.00161792,-0.00216503,0.00156230,0.13061463,0.00046514,-0.00030113
 ,0.00083597,-0.00075872,0.00147822,-0.00156954,0.00277031,-0.00146434,
 -0.00127862,-0.00263362,-0.00060373,0.00135012,0.00030400,-0.00014471,
 -0.00023949,-0.00111564,0.00455866,0.00241359,0.00023238,-0.00298273,-
 0.00130699,0.00026049,0.00037047,0.00016540,-0.00026491,-0.00209598,0.
 00258720,0.00040013,0.00187162,-0.00238084,0.00006363,-0.00064931,0.00
 012246,0.00113693,0.00118701,0.00227903,-0.00103870,-0.00025412,-0.000
 76766,-0.00726044,0.00170586,-0.00078320,0.00368696,0.00484351,0.00665
 911,-0.01712783,-0.09792661,-0.02389671,-0.03373038,-0.04200167,-0.022
 13192,-0.01016009,-0.00557449,-0.00390559,-0.00099838,-0.00108916,0.00
 296972,-0.00359240,-0.00083672,-0.00406250,0.00113898,-0.00247123,0.00
 013078,0.00004978,0.00069407,0.00034172,0.04011020,-0.09826937,0.00952
 274,-0.03775596,-0.02651101,0.00509060,0.00390567,-0.00820107,0.004375
 39,0.08436538,0.36149563,-0.00012126,0.00022985,-0.00025432,-0.0000549
 6,-0.00103001,0.00034560,-0.00060457,0.00047401,-0.00004666,0.00048027
 ,0.00013328,-0.00016244,-0.00003878,0.00002398,0.00001268,0.00003805,-
 0.00289628,-0.00050700,-0.00037453,0.00204917,0.00070376,0.00003281,0.
 00001717,0.00011189,-0.00023996,-0.00056148,-0.00134897,0.00001395,-0.
 00012709,0.00078959,0.00002576,0.00013061,-0.00003978,0.00070225,0.000
 93959,-0.00036777,0.00146485,0.00126253,0.00042248,-0.00558416,-0.0017
 7723,-0.00494059,-0.00134351,-0.00386734,-0.03663251,-0.00181425,-0.02
 503044,-0.07553826,-0.01308700,-0.01394761,0.01340971,0.00347131,0.003
 78578,0.00237712,-0.00014162,0.00041761,-0.00128812,-0.00231009,-0.008
 80562,-0.00186436,-0.00082219,-0.00452034,-0.00045407,0.00015586,0.000
 29463,0.00057299,0.01993507,0.03624929,-0.05348159,0.00457946,-0.01558
 781,-0.01182887,0.00147494,0.00129351,0.01118163,-0.05608269,0.0033396
 9,0.30998447,0.00052369,-0.00060798,0.00081031,-0.00085904,0.00375370,
 -0.00296898,0.00308882,-0.00170535,-0.00263830,-0.00402293,-0.00093728
 ,0.00231321,0.00060085,-0.00037409,-0.00041522,-0.00145209,0.00399415,
 0.00356268,-0.00017249,-0.00199536,-0.00153085,0.00010067,0.00050025,0
 .00025753,-0.00033978,-0.00396221,0.00421098,0.00068604,0.00304378,-0.
 00422029,0.00005920,-0.00099252,0.00015210,0.00302514,0.00176297,0.004
 71218,-0.00613321,-0.00030775,-0.00336114,-0.00006826,-0.00039367,0.00
 264025,0.00578750,-0.00612001,0.00034221,0.01093445,-0.00270571,-0.004
 28773,-0.00461061,0.01002372,-0.00658193,-0.00233404,-0.00419585,-0.00
 447685,-0.00045954,-0.00083916,0.00240744,-0.01694859,-0.03844854,0.00
 733784,-0.00109067,-0.00463470,-0.00415534,0.00111065,-0.00207798,-0.0
 0043342,-0.01726889,-0.01034348,0.00460694,0.00161154,0.00938637,0.003
 88145,-0.00061278,0.00071571,-0.00006847,-0.03193170,-0.00891708,0.035
 15376,0.10517344,-0.00059361,0.00032644,-0.00136763,0.00191650,-0.0025
 9372,0.00338822,-0.00564765,0.00181354,0.00025670,0.00558595,0.0011621
 5,-0.00226753,-0.00062085,0.00019671,0.00060730,0.00147805,-0.00530937
 ,0.00025653,-0.00008788,0.00332882,0.00103860,-0.00021570,-0.00067531,
 -0.00031836,0.00079401,0.00578555,-0.00524981,-0.00103813,-0.00407718,
 0.00541193,-0.00002077,0.00124096,-0.00011625,-0.00547176,-0.00222237,
 -0.00412919,0.01034442,-0.00043463,0.00495052,-0.01084561,0.00169706,-
 0.01214153,-0.00808140,0.00060900,0.00945186,0.02689878,0.01335179,-0.
 00497002,-0.00551588,-0.00450074,0.00684120,0.00308812,0.00344862,0.00
 399090,0.00092440,0.00030723,-0.00380967,-0.01495233,-0.04512663,0.005
 79108,-0.00193478,-0.00064223,-0.00411810,-0.00009736,-0.00099729,0.00
 034455,-0.00756907,0.00592627,0.01013976,-0.00178841,0.00290421,0.0102
 8420,0.00047272,-0.00017231,-0.00492761,-0.01030251,-0.09664385,-0.017
 80662,0.07377435,0.25905829,-0.00028396,0.00062472,-0.00010205,-0.0006
 2297,-0.00288444,0.00103728,0.00064634,0.00095118,0.00327522,0.0006523
 3,0.00024804,-0.00121247,-0.00024859,0.00028398,0.00004074,0.00062315,
 -0.00059907,-0.00524628,0.00029062,0.00008931,0.00101461,-0.00001162,-
 0.00010727,-0.00009193,-0.00032164,-0.00032673,-0.00104093,-0.00000781
 ,-0.00031130,0.00062277,-0.00004098,0.00024698,-0.00010598,0.00140614,
 0.00013491,-0.00199759,-0.00106077,0.00023196,-0.00157690,0.01035279,-
 0.00401235,0.00709231,-0.01061882,0.00441405,-0.01678016,0.01343953,-0
 .00501676,-0.02971073,-0.00202826,-0.00088569,0.01138369,0.00088067,0.
 00122152,-0.00243040,-0.00034252,-0.00054183,0.00033092,-0.00124921,-0
 .00243888,0.00144495,-0.00372114,0.00540018,-0.00100095,-0.00037500,-0
 .00153050,-0.00036496,0.01925619,0.01680994,-0.00455105,-0.00193623,-0
 .00759492,-0.00613970,0.00028962,-0.00068926,0.00138297,-0.01373745,-0
 .01046668,-0.11221309,-0.06099124,-0.01709769,0.25044820,-0.00081640,-
 0.00017628,-0.00176765,0.00298150,0.00037457,0.00250348,-0.00593867,0.
 00078780,-0.00134567,0.00488398,0.00108879,-0.00162160,-0.00045740,-0.
 00002306,0.00054202,0.00100847,-0.00457522,0.00271651,-0.00039378,0.00
 308097,0.00006254,-0.00029992,-0.00062915,-0.00014455,0.00145706,0.006
 75475,-0.00509286,-0.00125289,-0.00452350,0.00569068,-0.00002426,0.001
 32630,-0.00012039,-0.00600423,-0.00352745,-0.00259762,0.00712714,-0.00
 173783,0.00514408,-0.01082546,0.00447915,-0.00834309,0.00553547,-0.002
 61113,0.01341301,-0.00077029,-0.00952185,-0.00644125,0.02604053,0.0204
 0971,-0.02459789,-0.00778923,-0.00559014,0.01055260,0.00300829,0.00063
 804,-0.00138684,-0.06347600,-0.00951167,0.01866360,-0.01161591,-0.0200
 5032,-0.00411605,-0.00013345,0.00218201,0.00211001,0.00174616,-0.00774
 337,-0.00372946,-0.00238028,0.00591499,0.00335097,-0.00035093,-0.00058
 289,-0.00032396,0.00778246,-0.01265831,0.01006713,-0.03878048,-0.04856
 659,0.02883659,0.15213741,0.00063695,0.00008165,0.00168719,-0.00280645
 ,0.00046081,-0.00301578,0.00686854,-0.00117147,0.00202293,-0.00575034,
 -0.00113549,0.00173482,0.00048074,0.00006971,-0.00065338,-0.00087657,0
 .00475699,-0.00393833,0.00033951,-0.00351585,-0.00033159,0.00021947,0.
 00070436,0.00023732,-0.00125577,-0.00682305,0.00499857,0.00126553,0.00
 439639,-0.00553781,-0.00004880,-0.00126371,0.00007691,0.00697806,0.002
 80245,0.00260467,-0.01127893,0.00064991,-0.00604007,0.01702707,-0.0047
 4242,0.01401899,-0.00504781,0.00522133,-0.02156331,-0.00838154,-0.0026
 4420,-0.00055702,0.00630111,0.00862217,-0.01257580,-0.00259630,-0.0004
 7604,-0.00248718,-0.00086744,0.00008534,0.00356858,-0.03440570,-0.0752
 9672,-0.01510849,-0.02476369,-0.00757997,-0.01531419,-0.00015288,-0.00
 309236,0.00087805,-0.00231811,-0.00025136,0.00690911,0.00322342,-0.004
 09390,-0.00690017,0.00003738,0.00029845,0.00135073,-0.03377975,0.01433
 800,0.04594634,0.00377883,-0.13783673,-0.02433189,0.09970435,0.2705881
 5,0.00036483,-0.00050467,0.00040523,0.00009220,0.00226194,-0.00110075,
 0.00038498,-0.00057481,-0.00195030,-0.00095749,-0.00029499,0.00094725,
 0.00022439,-0.00015792,-0.00008414,-0.00063361,0.00072417,0.00280489,-
 0.00017439,-0.00033219,-0.00059619,0.00000840,0.00017530,0.00004344,0.
 00026240,-0.00002413,0.00096332,0.00011286,0.00036004,-0.00058361,-0.0
 0004398,-0.00024246,0.00002528,-0.00054493,-0.00009556,0.00135447,-0.0
 0074081,-0.00092788,0.00107289,-0.00524067,0.00271023,-0.00209902,0.00
 865855,-0.00365689,0.00735641,-0.00528155,-0.00625836,-0.00355062,-0.0
 0826747,0.00096976,-0.05816912,0.00001753,-0.00151557,0.00146697,0.000
 64533,-0.00056630,-0.00100941,-0.02460209,-0.03195608,-0.08621057,0.01
 111729,0.00844046,0.00961107,0.00091696,0.00387792,-0.00129545,-0.0067
 6121,-0.00754732,-0.00435409,0.00129864,0.00310589,0.00155625,-0.00017
 520,0.00089867,0.00054540,0.03867258,0.02467052,-0.03678357,-0.0051756
 3,-0.00679892,-0.04193566,-0.04089777,0.06351206,0.38128534,0.00040706
 ,0.00005383,0.00082997,-0.00129167,-0.00027581,-0.00093098,0.00247681,
 -0.00020520,0.00070846,-0.00188934,-0.00044729,0.00059631,0.00015712,0
 .00005609,-0.00020321,-0.00024909,0.00191405,-0.00125965,0.00023114,-0
 .00147110,-0.00001711,0.00010537,0.00027438,0.00002057,-0.00060162,-0.
 00255906,0.00210296,0.00053800,0.00178381,-0.00226145,-0.00001581,-0.0
 0054208,0.00005112,0.00221777,0.00131378,0.00076561,-0.00261139,0.0004
 2827,-0.00196739,0.00424226,-0.00182449,0.00261384,-0.00377927,0.00257
 554,-0.00458322,0.00017631,0.00065412,0.00299298,-0.00639132,-0.006714
 08,0.00486529,0.00256867,0.00161013,-0.00348138,-0.00097137,-0.0005712
 2,0.00049383,0.00776183,-0.00806449,-0.02648655,0.00015709,0.00681709,
 -0.00128826,-0.00007530,-0.00073541,-0.00031408,0.00000311,0.00171135,
 0.00170031,0.00061240,-0.00204698,-0.00071937,0.00015468,0.00013102,0.
 00000310,-0.00377944,-0.00031245,0.00425552,-0.00448975,-0.00151423,0.
 02037679,-0.07574618,-0.01792614,0.01904160,0.42242776,-0.00034195,-0.
 00006944,-0.00072221,0.00116735,0.00044012,0.00075265,-0.00225563,0.00
 011956,-0.00088864,0.00162890,0.00038155,-0.00044522,-0.00011581,-0.00
 008408,0.00017646,0.00013162,-0.00156644,0.00156629,-0.00020993,0.0013
 0847,-0.00006663,-0.00008972,-0.00025414,-0.00002042,0.00048774,0.0021
 0091,-0.00157281,-0.00041751,-0.00143223,0.00169683,0.00001104,0.00042
 674,-0.00002923,-0.00200030,-0.00104017,-0.00040122,0.00247304,-0.0003
 1269,0.00171459,-0.00452743,0.00185510,-0.00275753,0.00460634,-0.00286
 604,0.00524751,-0.00092004,-0.00006899,-0.00164879,-0.00204781,0.00161
 593,-0.00416334,0.00054342,-0.00012994,0.00142766,0.00024027,0.0002734
 4,-0.00081952,0.00997560,0.00035080,-0.00825097,0.00064232,-0.00180605
 ,0.00171403,0.00023950,0.00053158,0.00005734,0.00114289,-0.00168534,-0
 .00228270,-0.00150608,0.00311294,0.00208808,-0.00017357,-0.00032339,-0
 .00032335,0.00858201,-0.00483091,-0.00334310,-0.02248602,-0.00060773,0
 .04996302,-0.01099588,-0.05432958,-0.04182696,0.08060807,0.06311680,-0
 .00064978,0.00008935,-0.00115681,0.00150086,-0.00006184,0.00121128,-0.
 00278239,0.00021081,-0.00030673,0.00218648,0.00056295,-0.00087790,-0.0
 0020412,-0.00006584,0.00022498,0.00026211,-0.00212557,0.00077603,-0.00
 023779,0.00173756,0.00007965,-0.00013088,-0.00035608,0.00000534,0.0005
 9855,0.00263406,-0.00232409,-0.00063767,-0.00193941,0.00239780,0.00005
 614,0.00064065,-0.00006152,-0.00195829,-0.00139150,-0.00070445,0.00242
 800,-0.00002704,0.00112041,-0.00243688,0.00107730,-0.00086094,0.003276
 65,-0.00167381,0.00109026,-0.00151400,0.00036586,-0.00087910,-0.002896
 79,-0.00170618,-0.00121086,0.00147174,-0.00043528,0.00007167,-0.000243
 26,0.00053268,-0.00073103,0.01211306,-0.00431117,-0.03223861,-0.001902
 58,-0.00391800,0.00370533,0.00040708,0.00056965,0.00034084,0.00302294,
 -0.00298109,-0.00018631,-0.00168848,0.00237236,-0.00072442,-0.00026556
 ,-0.00057804,0.00024625,0.00125812,0.00568336,-0.00226807,0.02955117,0
 .01967183,-0.05131681,0.02062702,-0.02000053,-0.14544594,0.20629520,0.
 05936589,0.44883972,-0.18259055,-0.02066128,0.24992668,0.01301146,0.00
 531559,-0.02704963,0.00007175,-0.00200199,-0.00188108,-0.00092055,0.00
 051466,0.00101474,-0.00001889,-0.00136328,-0.00023168,-0.00079957,0.00
 017408,0.00004556,0.00012608,0.00000831,0.00007679,0.00001753,-0.00010
 241,-0.00009560,-0.00002483,0.00003104,-0.00011995,0.00001631,-0.00008
 646,0.00022644,0.00001923,0.00005549,0.00001115,-0.00127289,-0.0011506
 8,-0.00127578,-0.00013860,0.00039695,-0.00222519,0.00024174,0.00030171
 ,0.00021530,0.00001022,-0.00015073,-0.00012703,-0.00003321,0.00012035,
 0.00005611,0.00005539,-0.00002866,0.00008375,-0.00003921,-0.00000901,-
 0.00016239,-0.00006399,-0.00001725,0.00011001,0.00002339,0.00011545,-0
 .00005299,-0.00005810,-0.00009897,0.00001610,0.00002092,0.00001410,0.0
 0000679,0.00007202,-0.00010408,-0.00007721,-0.00006915,0.00014446,0.00
 003738,-0.00000690,-0.00002719,0.00000440,0.00012930,-0.00009143,-0.00
 002430,-0.00018172,0.00017032,0.00008658,0.00015949,-0.00014871,-0.000
 06830,-0.00006059,0.00004714,0.00008231,0.17230772,-0.02124653,0.00572
 838,0.02687708,0.00371487,-0.00092667,0.01050314,0.00180434,-0.0048579
 7,-0.00455550,-0.00272126,0.00072297,0.00237562,-0.00145712,-0.0014367
 2,-0.00043993,-0.00050224,0.00152384,0.00068024,-0.00000212,-0.0001913
 8,0.00015557,0.00003662,-0.00002272,-0.00018673,-0.00076411,-0.0008603
 0,0.00011091,0.00002705,0.00004627,-0.00027971,0.00004547,-0.00009693,
 0.00009577,0.00207477,0.00336777,0.00093216,0.00029331,-0.00060114,0.0
 0218461,0.00050556,-0.00079650,-0.00067997,-0.00038000,-0.00002566,-0.
 00030491,-0.00010414,0.00016952,0.00025754,0.00007685,-0.00004631,0.00
 001782,-0.00008536,-0.00005050,-0.00009630,0.00004134,-0.00002957,0.00
 002106,-0.00000587,0.00004848,0.00001536,-0.00000607,-0.00003446,-0.00
 001265,-0.00000380,0.00001025,0.00001112,-0.00001813,-0.00001973,-0.00
 003819,0.00000746,0.00000301,0.00003601,-0.00000181,0.00001405,-0.0000
 0781,0.00011406,-0.00003118,-0.00004068,-0.00012487,0.00011132,0.00006
 651,0.00003399,-0.00006066,-0.00002972,0.00000851,-0.00001804,-0.00002
 174,0.01863827,-0.00165220,0.20785109,0.03395435,-0.38591500,0.0156146
 7,0.00741451,-0.02491106,0.00073409,-0.00241529,-0.00146945,0.00014173
 ,-0.00008402,-0.00012341,-0.00062976,-0.00071851,0.00070080,-0.0003475
 3,0.00038084,-0.00049148,0.00005304,0.00019077,0.00036193,-0.00001639,
 -0.00016037,-0.00004888,0.00086447,0.00131129,-0.00063067,-0.00002898,
 -0.00050337,0.00038268,-0.00007840,0.00015099,0.00002830,-0.00486565,-
 0.00399680,-0.00247243,-0.00056310,0.00181678,-0.00213286,-0.00043767,
 0.00037362,0.00094968,0.00040769,-0.00009553,-0.00007281,-0.00006434,0
 .00006884,0.00005057,0.00009921,-0.00003263,0.00027701,-0.00013049,-0.
 00007864,-0.00032159,-0.00011060,0.00002319,0.00016070,0.00008184,0.00
 030897,-0.00018388,-0.00015094,-0.00024098,0.00004660,0.00004990,0.000
 03788,0.00001032,0.00021509,-0.00015596,-0.00013594,-0.00016654,0.0002
 9234,0.00005842,-0.00002649,-0.00007482,0.00000320,0.00013315,-0.00021
 449,0.00001825,-0.00029863,0.00039759,0.00006216,0.00046524,-0.0004396
 4,-0.00010652,-0.00019815,0.00016746,0.00026043,-0.21857982,-0.0376471
 6,0.41573099,0.00004110,-0.00000155,0.00007860,-0.00011153,-0.00000757
 ,-0.00008383,0.00021854,-0.00001420,0.00003860,-0.00016984,-0.00004041
 ,0.00006217,0.00001672,0.00000427,-0.00001770,-0.00002414,0.00016561,-
 0.00008668,0.00001118,-0.00013379,-0.00000421,0.00001628,0.00002515,0.
 00000161,-0.00004206,-0.00018846,0.00015510,0.00003835,0.00013508,-0.0
 0016363,0.00000021,-0.00004428,0.00000380,0.00015881,0.00009566,0.0000
 4758,-0.00021505,0.00000701,-0.00009564,0.00029637,-0.00010587,0.00016
 118,-0.00029625,0.00012423,-0.00024435,0.00018685,0.00021760,-0.000024
 38,0.00055546,0.00006638,0.00072762,-0.00018885,0.00010545,0.00020130,
 0.00003458,-0.00000007,0.00008701,-0.00117150,-0.00036862,0.00254830,0
 .00023020,0.00034459,-0.00015188,-0.00005230,0.00004388,-0.00000827,-0
 .00032132,0.00032526,0.00002531,0.00017508,-0.00025273,0.00003462,0.00
 004277,0.00004444,-0.00001829,-0.00070614,-0.00047364,0.00079288,-0.00
 094543,-0.00058309,0.00046089,0.01318779,0.00554397,0.01774658,-0.3422
 8524,-0.06443956,-0.26758898,-0.00000380,0.00000096,-0.00001774,0.3313
 2316,0.00007162,0.00003208,0.00015308,-0.00026405,-0.00022874,-0.00008
 629,0.00045111,0.00003339,0.00028892,-0.00026051,-0.00006943,0.0000374
 3,0.00000591,0.00003697,-0.00002722,0.00002474,0.00030983,-0.00047682,
 0.00006938,-0.00030684,0.00004958,0.00001921,0.00005433,-0.00000309,-0
 .00010183,-0.00037722,0.00022614,0.00007713,0.00022663,-0.00026259,-0.
 00000746,-0.00006098,-0.00000604,0.00038862,0.00019799,-0.00004560,-0.
 00034725,0.00008603,-0.00030768,0.00097104,-0.00048844,0.00036003,-0.0
 0165287,0.00093336,-0.00090090,0.00085923,-0.00037756,0.00034860,-0.00
 161646,-0.00094309,-0.00029928,0.00023363,0.00020923,-0.00102045,-0.00
 018959,-0.00022074,0.00005238,0.00233565,0.00076522,-0.00148691,0.0000
 8054,0.00127720,-0.00030795,0.00001971,-0.00025494,-0.00013024,-0.0004
 8339,0.00116248,0.00063780,0.00057792,-0.00114979,-0.00046675,0.000065
 93,0.00011467,0.00006317,-0.00368149,0.00034027,0.00275461,0.00143578,
 0.00057213,-0.00185104,-0.00375080,-0.00876219,-0.00839621,-0.05472997
 ,-0.00420877,-0.05392120,-0.00000580,0.00001278,-0.00003120,0.05940431
 ,0.01108416,0.00018971,-0.00002805,0.00035551,-0.00048135,0.00011254,-
 0.00046244,0.00098412,-0.00013208,0.00007565,-0.00081641,-0.00019668,0
 .00031930,0.00008351,0.00000562,-0.00008643,-0.00016017,0.00079893,-0.
 00021883,0.00006590,-0.00058993,-0.00006725,0.00004573,0.00011964,0.00
 001156,-0.00019566,-0.00095625,0.00086463,0.00020575,0.00069312,-0.000
 89283,-0.00000906,-0.00022470,0.00001924,0.00077499,0.00047802,0.00041
 453,-0.00106255,0.00005284,-0.00062802,0.00118767,-0.00042335,0.000838
 17,-0.00066158,0.00060575,-0.00121948,-0.00022814,-0.00002535,0.001130
 03,-0.00134134,-0.00146344,0.00058638,0.00051198,0.00038415,-0.0007554
 1,-0.00026230,-0.00016050,0.00021323,0.00222957,-0.00045233,-0.0043380
 1,-0.00010152,0.00116699,-0.00003161,-0.00005743,-0.00026448,-0.000012
 37,-0.00004081,0.00010544,0.00023252,0.00010782,-0.00038076,-0.0001060
 7,0.00004375,0.00008197,0.00003454,0.00024201,0.00046684,0.00008988,-0
 .00033602,0.00229614,-0.00031818,-0.02221882,-0.01075110,-0.02416326,-
 0.22400266,-0.05637517,-0.21907639,-0.00002913,0.00000047,-0.00008604,
 0.24533245,0.06505571,0.24727747\\-0.03122279,0.01590616,0.00646975,0.
 12624042,-0.04379768,-0.03593569,-0.11414613,0.04570489,-0.00643344,0.
 02039818,-0.02310877,0.05172528,0.00361662,0.00327453,-0.02683108,0.14
 391633,-0.02248434,-0.05638690,-0.04223527,0.01699421,0.04507467,0.005
 05082,0.00264575,-0.02326322,0.03157394,-0.01101837,-0.03773540,-0.022
 70759,-0.01647015,0.04456776,-0.01006330,-0.02672577,-0.00966982,-0.07
 653115,0.03690230,0.03220181,0.03683734,0.00229158,-0.04734312,-0.0870
 3275,0.02577050,0.02862639,0.05214368,-0.00759469,0.01438579,-0.115125
 24,0.02445662,-0.11161273,0.10333232,-0.04447063,0.07202820,-0.0329091
 7,0.01911671,-0.02940771,0.02379347,0.02486015,0.00240265,-0.06557843,
 0.06178740,-0.00576330,-0.00241576,-0.03799222,0.01350179,-0.02741499,
 -0.01363562,-0.00528268,0.02149149,-0.02976615,-0.01729513,-0.04620620
 ,0.05849081,-0.01710543,0.01709542,0.02081712,0.00317693,0.07395237,-0
 .09918220,0.04154635,-0.06220559,0.02638333,0.04641904,0.09382782,-0.0
 4001425,-0.01462256,-0.00669763,0.03284165,0.03499309,-0.00272975,-0.0
 0067629,0.01074981,-0.00804850,-0.00130659,-0.00318110\\\@


      SCIENCE SANS CONSCIENCE N'EST QUE RUINE DE L'AME.

                                                  -- RABELAIS
 Job cpu time:  0 days  7 hours 16 minutes 32.5 seconds.
 File lengths (MBytes):  RWF=    792 Int=      0 D2E=      0 Chk=     14 Scr=      1
 Normal termination of Gaussian 09 at Sat Oct 17 22:00:57 2015.
Gaussian '09 finished on node015 at Sat Oct 17 22:00:57 EDT 2015.
