Gaussian '09 started on node024 at Thu Jan 21 04:54:07 EST 2016.
 Entering Gaussian System, Link 0=/usr/local/gaussian/g09/g09
 Initial command:
 /usr/local/gaussian/g09/l1.exe /home/srmcgrat/thesis/gaussian/cellobiose/350/7000/gaussian32426/Gau-32462.inp -scrdir=/home/srmcgrat/thesis/gaussian/cellobiose/350/7000/gaussian32426/
 Entering Link 1 = /usr/local/gaussian/g09/l1.exe PID=     32464.
  
 Copyright (c) 1988,1990,1992,1993,1995,1998,2003,2009,2010,
            Gaussian, Inc.  All Rights Reserved.
  
 This is part of the Gaussian(R) 09 program.  It is based on
 the Gaussian(R) 03 system (copyright 2003, Gaussian, Inc.),
 the Gaussian(R) 98 system (copyright 1998, Gaussian, Inc.),
 the Gaussian(R) 94 system (copyright 1995, Gaussian, Inc.),
 the Gaussian 92(TM) system (copyright 1992, Gaussian, Inc.),
 the Gaussian 90(TM) system (copyright 1990, Gaussian, Inc.),
 the Gaussian 88(TM) system (copyright 1988, Gaussian, Inc.),
 the Gaussian 86(TM) system (copyright 1986, Carnegie Mellon
 University), and the Gaussian 82(TM) system (copyright 1983,
 Carnegie Mellon University). Gaussian is a federally registered
 trademark of Gaussian, Inc.
  
 This software contains proprietary and confidential information,
 including trade secrets, belonging to Gaussian, Inc.
  
 This software is provided under written license and may be
 used, copied, transmitted, or stored only in accord with that
 written license.
  
 The following legend is applicable only to US Government
 contracts under FAR:
  
                    RESTRICTED RIGHTS LEGEND
  
 Use, reproduction and disclosure by the US Government is
 subject to restrictions as set forth in subparagraphs (a)
 and (c) of the Commercial Computer Software - Restricted
 Rights clause in FAR 52.227-19.
  
 Gaussian, Inc.
 340 Quinnipiac St., Bldg. 40, Wallingford CT 06492
  
  
 ---------------------------------------------------------------
 Warning -- This program may not be used in any manner that
 competes with the business of Gaussian, Inc. or will provide
 assistance to any competitor of Gaussian, Inc.  The licensee
 of this program is prohibited from giving any competitor of
 Gaussian, Inc. access to this program.  By using this program,
 the user acknowledges that Gaussian, Inc. is engaged in the
 business of creating and licensing software in the field of
 computational chemistry and represents and warrants to the
 licensee that it is not a competitor of Gaussian, Inc. and that
 it will not use this program in any manner prohibited above.
 ---------------------------------------------------------------
  

 Cite this work as:
 Gaussian 09, Revision B.01,
 M. J. Frisch, G. W. Trucks, H. B. Schlegel, G. E. Scuseria, 
 M. A. Robb, J. R. Cheeseman, G. Scalmani, V. Barone, B. Mennucci, 
 G. A. Petersson, H. Nakatsuji, M. Caricato, X. Li, H. P. Hratchian, 
 A. F. Izmaylov, J. Bloino, G. Zheng, J. L. Sonnenberg, M. Hada, 
 M. Ehara, K. Toyota, R. Fukuda, J. Hasegawa, M. Ishida, T. Nakajima, 
 Y. Honda, O. Kitao, H. Nakai, T. Vreven, J. A. Montgomery, Jr., 
 J. E. Peralta, F. Ogliaro, M. Bearpark, J. J. Heyd, E. Brothers, 
 K. N. Kudin, V. N. Staroverov, T. Keith, R. Kobayashi, J. Normand, 
 K. Raghavachari, A. Rendell, J. C. Burant, S. S. Iyengar, J. Tomasi, 
 M. Cossi, N. Rega, J. M. Millam, M. Klene, J. E. Knox, J. B. Cross, 
 V. Bakken, C. Adamo, J. Jaramillo, R. Gomperts, R. E. Stratmann, 
 O. Yazyev, A. J. Austin, R. Cammi, C. Pomelli, J. W. Ochterski, 
 R. L. Martin, K. Morokuma, V. G. Zakrzewski, G. A. Voth, 
 P. Salvador, J. J. Dannenberg, S. Dapprich, A. D. Daniels, 
 O. Farkas, J. B. Foresman, J. V. Ortiz, J. Cioslowski, 
 and D. J. Fox, Gaussian, Inc., Wallingford CT, 2010.
 
 ******************************************
 Gaussian 09:  EM64L-G09RevB.01 12-Aug-2010
                21-Jan-2016 
 ******************************************
 ------------------------------------------------
 # freq=raman b3lyp/6-31+g(d,p) geom=connectivity
 ------------------------------------------------
 1/10=4,30=1,38=1,57=2/1,3;
 2/12=2,17=6,18=5,40=1/2;
 3/5=1,6=6,7=111,11=2,16=1,25=1,30=1,71=2,74=-5/1,2,3;
 4//1;
 5/5=2,38=5,98=1/2;
 8/6=4,10=90,11=11/1;
 10/13=10,15=4/2;
 11/6=3,8=1,9=11,15=111,16=1/1,2,10;
 10/6=1/2;
 6/7=2,8=2,9=2,10=2,18=1,28=1/1;
 7/8=1,10=1,25=1/1,2,3,16;
 1/10=4,30=1/3;
 99//99;
 ------------
 350 7000.com
 ------------
 Symbolic Z-matrix:
 Charge =  0 Multiplicity = 1
 O                     7.459     7.643     12.169 
 C                     7.993     7.981     13.456 
 C                     7.411     9.262     14.032 
 O                     7.301     10.256    13.004 
 H                     7.3       9.798     12.115 
 C                     7.89      9.818     15.363 
 O                     6.962     10.812    15.822 
 H                     7.412     11.102    16.666 
 C                     8.311     5.51      14.243 
 O                     7.677     4.757     13.199 
 H                     7.861     3.789     13.372 
 C                     7.741     6.897     14.491 
 O                     8.391     7.36      15.684 
 C                     7.77      8.549     16.192 
 O                     8.45      8.715     17.444 
 C                     7.869     8.273     18.679 
 C                     8.57      7.024     19.187 
 O                     8.509     5.906     18.289 
 H                     8.842     6.349     17.457 
 C                     8.093     6.69      20.591 
 O                     8.933     5.694     21.192 
 H                     8.459     5.226     21.938 
 C                     8.063     10.813    19.35 
 O                     8.587     11.465    18.185 
 H                     8.647     12.457    18.299 
 C                     8.224     9.343     19.7 
 O                     7.736     9.174     21.039 
 C                     8.271     7.915     21.473 
 O                     7.753     7.547     22.76 
 H                     8.48161   7.37515   23.36099 
 H                     9.32497   8.05732   21.59048 
 H                     7.07126   6.37241   20.58249 
 H                     9.60575   7.2777    19.27503 
 H                     6.81101   8.1348    18.59869 
 H                     9.28282   9.22789   19.80276 
 H                     8.45372   11.35467   20.18596 
 H                     7.00846   10.99347   19.33375 
 H                     8.1798    7.48194   11.55573 
 H                     8.23508   4.95033   15.15179 
 H                     9.34735   5.61376   13.99783 
 H                     6.68898   6.81862   14.66994 
 H                     9.05051   8.10908   13.35518 
 H                     6.39491   8.99611   14.23638 
 H                     8.89566   10.18019   15.31446 
 H                     6.73528   8.35061   16.37879 
 

 GradGradGradGradGradGradGradGradGradGradGradGradGradGradGradGradGradGrad
 Berny optimization.
 Initialization pass.
 Trust Radius=3.00D-01 FncErr=1.00D-07 GrdErr=1.00D-07
 Number of steps in this run=      2 maximum allowed number of steps=      2.
 GradGradGradGradGradGradGradGradGradGradGradGradGradGradGradGradGradGrad

                          Input orientation:                          
 ---------------------------------------------------------------------
 Center     Atomic      Atomic             Coordinates (Angstroms)
 Number     Number       Type             X           Y           Z
 ---------------------------------------------------------------------
      1          8           0        7.459000    7.643000   12.169000
      2          6           0        7.993000    7.981000   13.456000
      3          6           0        7.411000    9.262000   14.032000
      4          8           0        7.301000   10.256000   13.004000
      5          1           0        7.300000    9.798000   12.115000
      6          6           0        7.890000    9.818000   15.363000
      7          8           0        6.962000   10.812000   15.822000
      8          1           0        7.412000   11.102000   16.666000
      9          6           0        8.311000    5.510000   14.243000
     10          8           0        7.677000    4.757000   13.199000
     11          1           0        7.861000    3.789000   13.372000
     12          6           0        7.741000    6.897000   14.491000
     13          8           0        8.391000    7.360000   15.684000
     14          6           0        7.770000    8.549000   16.192000
     15          8           0        8.450000    8.715000   17.444000
     16          6           0        7.869000    8.273000   18.679000
     17          6           0        8.570000    7.024000   19.187000
     18          8           0        8.509000    5.906000   18.289000
     19          1           0        8.842000    6.349000   17.457000
     20          6           0        8.093000    6.690000   20.591000
     21          8           0        8.933000    5.694000   21.192000
     22          1           0        8.459000    5.226000   21.938000
     23          6           0        8.063000   10.813000   19.350000
     24          8           0        8.587000   11.465000   18.185000
     25          1           0        8.647000   12.457000   18.299000
     26          6           0        8.224000    9.343000   19.700000
     27          8           0        7.736000    9.174000   21.039000
     28          6           0        8.271000    7.915000   21.473000
     29          8           0        7.753000    7.547000   22.760000
     30          1           0        8.481611    7.375154   23.360995
     31          1           0        9.324965    8.057322   21.590483
     32          1           0        7.071256    6.372405   20.582491
     33          1           0        9.605753    7.277704   19.275030
     34          1           0        6.811006    8.134800   18.598695
     35          1           0        9.282816    9.227892   19.802760
     36          1           0        8.453724   11.354672   20.185958
     37          1           0        7.008455   10.993474   19.333750
     38          1           0        8.179801    7.481938   11.555726
     39          1           0        8.235083    4.950327   15.151792
     40          1           0        9.347352    5.613756   13.997826
     41          1           0        6.688984    6.818625   14.669942
     42          1           0        9.050511    8.109084   13.355176
     43          1           0        6.394913    8.996111   14.236379
     44          1           0        8.895663   10.180195   15.314456
     45          1           0        6.735278    8.350609   16.378792
 ---------------------------------------------------------------------
                    Distance matrix (angstroms):
                    1          2          3          4          5
     1  O    0.000000
     2  C    1.433795   0.000000
     3  C    2.468650   1.520349   0.000000
     4  O    2.747719   2.420494   1.434197   0.000000
     5  H    2.161532   2.362206   1.993616   1.000043   0.000000
     6  C    3.888190   2.649873   1.519914   2.470556   3.301213
     7  O    4.861479   3.830859   2.410021   2.892262   3.858016
     8  H    5.673614   4.514676   3.213029   3.760091   4.735458
     9  C    3.094684   2.612725   3.864198   5.007967   4.892591
    10  O    3.072038   3.249628   4.589082   5.515288   5.169997
    11  H    4.057355   4.194919   5.530988   6.501624   6.164645
    12  C    2.455142   1.519798   2.431626   3.699682   3.775667
    13  O    3.647456   2.346919   2.703166   4.093570   4.457789
    14  C    4.135467   2.803221   2.302792   3.646526   4.289852
    15  O    5.473289   4.080655   3.608389   4.838231   5.558204
    16  C    6.553251   5.232625   4.773101   6.038256   6.762801
    17  C    7.132307   5.838933   5.738114   7.091239   7.702023
    18  O    6.447796   5.284862   5.530858   6.950755   7.397812
    19  H    5.616945   4.403661   4.718470   6.121155   6.542960
    20  C    8.499426   7.251545   7.078191   8.420581   9.062620
    21  O    9.348038   8.121556   8.143262   9.514127  10.094624
    22  H   10.113123   8.930370   8.938257  10.317859  10.896687
    23  C    7.872768   6.539446   5.577798   6.415809   7.345585
    24  O    7.216116   5.903773   4.845987   5.473412   6.424964
    25  H    7.884341   6.626986   5.472021   5.890088   6.864878
    26  C    7.758298   6.394993   5.726583   6.820697   7.654608
    27  O    9.005420   7.680572   7.015085   8.119186   8.956408
    28  C    9.343326   8.022090   7.610683   8.839974   9.594826
    29  O   10.595515   9.317208   8.901470  10.135212  10.889823
    30  H   11.241807   9.935528   9.577920  10.814826  11.564549
    31  H    9.613420   8.243165   7.889562   9.091662   9.844553
    32  H    8.517722   7.363699   7.167574   8.518721   9.137036
    33  H    7.432204   6.079203   6.020277   7.314913   7.933122
    34  H    6.480952   5.279022   4.741864   6.003349   6.711457
    35  H    8.007026   6.595432   6.066838   7.155958   7.959788
    36  H    8.890309   7.542298   6.583141   7.356383   8.300281
    37  H    7.922267   6.677745   5.591833   6.379278   7.322876
    38  H    0.960000   1.973575   3.145093   3.250417   2.539878
    39  H    4.092657   3.481278   4.530295   5.799628   5.796242
    40  H    3.320890   2.780591   4.130413   5.169688   5.024399
    41  H    2.743580   2.127259   2.626473   3.868524   3.972121
    42  H    2.038910   1.070000   2.115491   2.791659   2.730341
    43  H    2.690213   2.047760   1.070000   1.981684   2.441814
    44  H    4.288969   3.017469   2.166103   2.808364   3.595655
    45  H    4.329761   3.203309   2.606658   3.916602   4.538036
                    6          7          8          9         10
     6  C    0.000000
     7  O    1.435236   0.000000
     8  H    1.890754   0.999468   0.000000
     9  C    4.471074   5.694229   6.160324   0.000000
    10  O    5.508356   6.637347   7.235284   1.434887   0.000000
    11  H    6.349312   7.492211   8.033182   1.980652   1.000404
    12  C    3.052020   4.207805   4.745618   1.519925   2.500592
    13  O    2.528993   3.738635   3.990655   2.346355   3.668873
    14  C    1.520527   2.431241   2.621192   3.650589   4.831766
    15  O    2.420903   3.040138   2.716707   4.531859   5.855196
    16  C    3.658322   3.928310   3.502036   5.244772   6.513795
    17  C    4.784539   5.315810   4.932189   5.177105   6.464741
    18  O    4.924265   5.705097   5.553013   4.070152   5.283988
    19  H    4.162343   5.111359   5.026091   3.363878   4.692787
    20  C    6.095702   6.404171   5.944336   6.460420   7.651876
    21  O    7.216125   7.675654   7.214193   6.979208   8.145155
    22  H    8.039953   8.417236   7.963515   7.701661   8.786444
    23  C    4.112921   3.695807   2.776901   7.366462   8.640540
    24  O    3.340973   2.941225   1.954419   7.146857   8.407470
    25  H    4.019635   3.417715   2.455186   8.051388   9.286598
    26  C    4.375700   4.334684   3.599803   6.669206   7.974560
    27  O    5.714493   5.522609   4.790124   7.742166   8.998832
    28  C    6.410824   6.483818   5.831132   7.619614   8.876084
    29  O    7.738980   7.708550   7.063366   8.774966   9.960050
    30  H    8.383640   8.423632   7.736692   9.308369  10.524651
    31  H    6.628775   6.815222   6.097544   7.842352   9.166510
    32  H    6.307578   6.510315   6.150128   6.516890   7.582374
    33  H    4.969999   5.603936   5.122971   5.488396   6.855085
    34  H    3.803566   3.860082   3.591766   5.302040   6.427766
    35  H    4.690376   4.872580   4.105057   6.758556   8.134934
    36  H    5.093139   4.643691   3.679557   8.336625   9.641066
    37  H    4.233877   3.516743   2.700281   7.594791   8.773581
    38  H    4.476215   5.547382   6.309458   3.335745   3.221560
    39  H    4.884458   6.035655   6.388535   1.070000   2.040154
    40  H    4.654379   6.003270   6.401997   1.070000   2.040154
    41  H    3.304394   4.165192   4.780617   2.127372   2.718482
    42  H    2.880718   4.213414   4.754348   2.844353   3.625933
    43  H    2.044520   2.476537   3.372283   3.977990   4.548622
    44  H    1.070000   2.096624   2.208541   4.827066   5.947380
    45  H    2.125665   2.533745   2.847910   3.887617   4.889984
                   11         12         13         14         15
    11  H    0.000000
    12  C    3.305484   0.000000
    13  O    4.286990   1.435311   0.000000
    14  C    5.533379   2.371360   1.434373   0.000000
    15  O    6.418223   3.539493   2.221960   1.434385   0.000000
    16  C    6.947702   4.410114   3.174284   2.504226   1.434625
    17  C    6.691945   4.770303   3.523627   3.454801   2.431446
    18  O    5.392447   3.999589   2.985643   3.453835   2.933937
    19  H    4.919673   3.210866   2.090227   2.754888   2.398289
    20  C    7.783546   6.113653   4.961487   4.786587   3.759213
    21  O    8.119767   6.911691   5.779912   5.873976   4.838102
    22  H    8.706258   7.665871   6.608411   6.673347   5.689397
    23  C    9.225718   6.248890   5.046816   3.896731   2.860806
    24  O    9.089171   5.935316   4.810867   3.625272   2.851377
    25  H   10.001367   6.799654   5.734385   4.525599   3.843488
    26  C    8.427471   5.774936   4.482012   3.625275   2.352657
    27  O    9.369991   6.932608   5.691717   4.887248   3.693847
    28  C    9.100449   7.075701   5.816781   5.342464   4.111555
    29  O   10.112802   8.294517   7.107165   6.644014   5.487248
    30  H   10.631353   8.913694   7.677545   7.299232   6.066879
    31  H    9.375779   7.366000   6.020390   5.639440   4.288523
    32  H    7.699926   6.150611   5.168392   4.949971   4.151964
    33  H    7.075379   5.148707   3.791820   3.806739   2.598895
    34  H    6.877994   4.389783   3.404723   2.623626   2.087164
    35  H    8.541532   6.002087   4.609613   3.973297   2.553505
    36  H   10.199056   7.267143   6.019050   4.928588   3.806076
    37  H    9.390088   6.385135   5.332377   4.052900   3.292515
    38  H    4.127745   3.024985   4.135471   4.775101   6.022061
    39  H    2.157841   2.114309   2.472667   3.774756   4.412842
    40  H    2.435289   2.114309   2.609053   3.989749   4.722189
    41  H    3.498128   1.070000   2.053840   2.545477   3.793786
    42  H    4.480886   2.115198   2.533674   3.143375   4.176868
    43  H    5.478190   2.506601   2.959194   2.432124   3.819848
    44  H    6.759514   3.576408   2.888727   2.167486   2.623045
    45  H    5.578201   2.586158   2.050721   1.070000   2.051273
                   16         17         18         19         20
    16  C    0.000000
    17  C    1.519693   0.000000
    18  O    2.482819   1.435287   0.000000
    19  H    2.478263   1.876835   0.999681   0.000000
    20  C    2.492350   1.519967   2.467168   3.240253   0.000000
    21  O    3.754798   2.433248   2.941450   3.793090   1.434858
    22  H    4.500377   3.288332   3.712156   4.635427   2.022785
    23  C    2.634289   3.826243   5.040167   4.910966   4.305823
    24  O    3.308840   4.552667   5.560520   5.173825   5.369683
    25  H    4.272650   5.505630   6.552461   6.168845   6.230447
    26  C    1.520975   2.400135   3.726274   3.791703   2.801687
    27  O    2.529642   2.957695   4.340490   4.694101   2.549198
    28  C    2.845383   2.471655   3.772344   4.348178   1.519945
    29  O    4.146697   3.702343   4.822267   5.544631   2.356822
    30  H    4.806506   4.189672   5.280558   6.003335   2.879814
    31  H    3.262374   2.722950   4.024149   4.498589   2.094343
    32  H    2.805696   2.149001   2.746769   3.592322   1.070000
    33  H    2.088583   1.070000   2.014124   2.179689   2.089401
    34  H    1.070000   2.161953   2.818979   2.935555   2.774930
    35  H    2.042922   2.396749   3.731652   3.739642   2.911680
    36  H    3.479875   4.445915   5.769708   5.714431   4.696099
    37  H    2.927493   4.268101   5.406064   5.334343   4.612679
    38  H    7.173800   7.654953   6.923072   6.045419   9.070329
    39  H    4.859565   4.549197   3.290960   2.763805   5.712411
    40  H    5.583054   5.433285   4.382056   3.572373   6.797179
    41  H    4.424951   4.897368   4.152459   3.552987   6.086602
    42  H    5.455817   5.951342   5.430417   4.468370   7.435575
    43  H    4.736317   5.755769   5.517417   4.834028   6.970140
    44  H    4.001448   5.006417   5.221701   4.389923   6.377118
    45  H    2.565601   3.607233   3.573668   3.099557   4.726916
                   21         22         23         24         25
    21  O    0.000000
    22  H    1.000108   0.000000
    23  C    5.509449   6.170019   0.000000
    24  O    6.516610   7.281931   1.434191   0.000000
    25  H    7.361346   8.097223   2.036760   1.000330   0.000000
    26  C    4.005489   4.691861   1.519645   2.632466   3.440745
    27  O    3.683289   4.113105   2.376125   3.757419   4.372140
    28  C    2.334533   2.735377   3.598444   4.849051   5.553865
    29  O    2.699006   2.561476   4.731908   6.080864   6.693867
    30  H    2.781109   2.577652   5.299255   6.597641   7.174699
    31  H    2.428521   2.981115   3.769096   4.873826   5.536305
    32  H    2.073120   2.253328   4.713965   5.829233   6.687271
    33  H    2.575944   3.551893   3.857982   4.445162   5.356953
    34  H    4.145551   4.725247   3.050362   3.796779   4.705540
    35  H    3.813234   4.610104   2.050734   2.847097   3.618383
    36  H    5.769319   6.374190   1.070000   2.008424   2.193876
    37  H    5.936446   6.492300   1.070000   2.008424   2.428465
    38  H    9.829639  10.628209   8.477047   7.744538   8.392929
    39  H    6.125704   6.795495   7.212871   7.194801   8.150137
    40  H    7.206543   7.999118   7.571490   7.235165   8.112988
    41  H    6.988392   7.648142   6.304435   6.127552   6.985353
    42  H    8.201357   9.073419   6.650132   5.899510   6.596104
    43  H    8.107187   8.819816   5.677387   5.147064   5.792628
    44  H    7.394110   8.282877   4.168859   3.160066   3.762071
    45  H    5.920687   6.605997   4.080967   4.048542   4.919789
                   26         27         28         29         30
    26  C    0.000000
    27  O    1.435140   0.000000
    28  C    2.277042   1.435152   0.000000
    29  O    3.579254   2.368387   1.435311   0.000000
    30  H    4.164333   3.030420   1.974922   0.960000   0.000000
    31  H    2.537522   2.018889   1.070000   2.024666   2.076369
    32  H    3.306364   2.915342   2.147555   2.566319   3.273330
    33  H    2.520969   3.194292   2.649298   3.956037   4.238903
    34  H    2.160827   2.809029   3.231335   4.306892   5.103674
    35  H    1.070000   1.980867   2.353117   3.729746   4.090917
    36  H    2.082247   2.449110   3.677120   4.649202   5.090993
    37  H    2.082247   2.597631   3.955681   4.916474   5.610805
    38  H    8.354322   9.643263   9.927144  11.212589  11.809609
    39  H    6.323124   7.262763   6.981995   8.053567   8.563386
    40  H    6.905358   8.052945   7.895092   9.113456   9.566659
    41  H    5.833543   6.870876   7.070107   8.192173   8.891436
    42  H    6.516323   7.867855   8.157473   9.510530  10.048817
    43  H    5.772092   6.935835   7.553621   8.751939   9.499496
    44  H    4.514977   5.926858   6.591583   7.979694   8.531499
    45  H    3.772474   4.837040   5.338460   6.511633   7.263082
                   31         32         33         34         35
    31  H    0.000000
    32  H    2.989013   0.000000
    33  H    2.459262   2.992106   0.000000
    34  H    3.908554   2.666310   3.000442   0.000000
    35  H    2.137280   3.694967   2.045976   2.958795   0.000000
    36  H    3.688397   5.185696   4.333431   3.947849   2.314612
    37  H    4.368072   4.787230   4.533911   2.958262   2.917185
    38  H   10.116265   9.162009   7.852561   7.204390   8.501680
    39  H    7.231736   5.733175   4.929150   4.904080   6.405217
    40  H    7.976212   7.008136   5.539348   5.827238   6.838377
    41  H    7.508439   5.941672   5.470387   4.145154   6.235250
    42  H    8.240042   7.692047   6.003679   5.701801   6.548056
    43  H    7.971787   6.900319   6.216946   4.465959   6.275213
    44  H    6.639232   6.751289   4.961333   4.394958   4.604523
    45  H    5.827026   4.658031   4.216509   2.231654   4.356964
                   36         37         38         39         40
    36  H    0.000000
    37  H    1.716253   0.000000
    38  H    9.463298   8.613977   0.000000
    39  H    8.149005   7.450706   4.398159   0.000000
    40  H    8.488207   7.929936   3.288941   1.734623   0.000000
    41  H    7.356389   6.267578   3.515802   2.472476   2.995057
    42  H    7.586144   6.945002   2.095105   3.724311   2.593795
    43  H    6.723021   5.509001   3.558714   4.537904   4.496012
    44  H    5.030530   4.514167   4.681997   5.273930   4.773877
    45  H    5.145092   3.973807   5.109129   3.913677   4.470156
                   41         42         43         44         45
    41  H    0.000000
    42  H    2.995113   0.000000
    43  H    2.239621   2.935223   0.000000
    44  H    4.072466   2.855216   2.969521   0.000000
    45  H    2.295492   3.815873   2.263284   3.024476   0.000000
 Stoichiometry    C12H22O11
 Framework group  C1[X(C12H22O11)]
 Deg. of freedom   129
 Full point group                 C1      NOp   1
 Largest Abelian subgroup         C1      NOp   1
 Largest concise Abelian subgroup C1      NOp   1
                         Standard orientation:                         
 ---------------------------------------------------------------------
 Center     Atomic      Atomic             Coordinates (Angstroms)
 Number     Number       Type             X           Y           Z
 ---------------------------------------------------------------------
      1          8           0        5.052509   -0.391726   -0.217295
      2          6           0        3.724465   -0.117007    0.248105
      3          6           0        3.170942    1.205888   -0.256891
      4          8           0        4.187320    2.216168   -0.200059
      5          1           0        5.081620    1.769225   -0.176483
      6          6           0        1.799357    1.702261    0.170319
      7          8           0        1.392588    2.772168   -0.695556
      8          1           0        0.513237    3.011261   -0.285052
      9          6           0        2.958140   -2.614589    0.282271
     10          8           0        4.058160   -3.295883   -0.337967
     11          1           0        3.888544   -4.278350   -0.255527
     12          6           0        2.729033   -1.183908   -0.176895
     13          8           0        1.484154   -0.794361    0.421977
     14          6           0        1.002837    0.441178   -0.125020
     15          8           0       -0.298057    0.531642    0.472434
     16          6           0       -1.479750    0.132048   -0.236139
     17          6           0       -2.016405   -1.180861    0.309513
     18          8           0       -1.097624   -2.279437    0.214534
     19          1           0       -0.299724   -1.860285    0.647001
     20          6           0       -3.376032   -1.484129   -0.298553
     21          8           0       -4.019833   -2.558752    0.401106
     22          1           0       -4.721266   -2.989045   -0.167273
     23          6           0       -2.205849    2.636760    0.136253
     24          8           0       -1.093342    3.249961    0.801999
     25          1           0       -1.228126    4.231123    0.942763
     26          6           0       -2.541825    1.154721    0.137361
     27          8           0       -3.838614    1.017420   -0.461899
     28          6           0       -4.289198   -0.289531   -0.076522
     29          8           0       -5.528589   -0.621722   -0.719699
     30          1           0       -6.178155   -0.865504   -0.056198
     31          1           0       -4.485644   -0.245288    0.974360
     32          1           0       -3.287649   -1.706954   -1.341356
     33          1           0       -2.184030   -1.023743    1.354556
     34          1           0       -1.320153    0.091898   -1.293408
     35          1           0       -2.719602    0.942331    1.170892
     36          1           0       -3.077099    3.131957    0.511224
     37          1           0       -2.115753    2.912971   -0.893548
     38          1           0        5.614191   -0.611725    0.529508
     39          1           0        2.066875   -3.174186    0.088886
     40          1           0        3.125268   -2.603456    1.339080
     41          1           0        2.628665   -1.167664   -1.242054
     42          1           0        3.745695   -0.085048    1.317417
     43          1           0        3.045749    1.031871   -1.305196
     44          1           0        1.768289    1.971546    1.205414
     45          1           0        0.895404    0.336254   -1.184429
 ---------------------------------------------------------------------
 Rotational constants (GHZ):      0.4049173      0.1462444      0.1107237
 Standard basis: 6-31+G(d,p) (6D, 7F)
 There are   547 symmetry adapted basis functions of A   symmetry.
 Integral buffers will be    131072 words long.
 Raffenetti 2 integral format.
 Two-electron integral symmetry is turned on.
   547 basis functions,   890 primitive gaussians,   547 cartesian basis functions
    91 alpha electrons       91 beta electrons
       nuclear repulsion energy      2286.2777105084 Hartrees.
 NAtoms=   45 NActive=   45 NUniq=   45 SFac= 1.00D+00 NAtFMM=   50 NAOKFM=F Big=F
 One-electron integrals computed using PRISM.
 NBasis=   547 RedAO= T  NBF=   547
 NBsUse=   547 1.00D-06 NBFU=   547
 Harris functional with IExCor=  402 diagonalized for initial guess.
 ExpMin= 4.38D-02 ExpMax= 5.48D+03 ExpMxC= 8.25D+02 IAcc=2 IRadAn=         0 AccDes= 0.00D+00
 HarFok:  IExCor=  402 AccDes= 0.00D+00 IRadAn=         0 IDoV= 1
 ScaDFX=  1.000000  1.000000  1.000000  1.000000
 FoFCou: FMM=F IPFlag=           0 FMFlag=      100000 FMFlg1=           0
         NFxFlg=           0 DoJE=T BraDBF=F KetDBF=T FulRan=T
         Omega=  0.000000  0.000000  1.000000  0.000000  0.000000 ICntrl=     500 IOpCl=  0
         NMat0=    1 NMatS0=    1 NMatT0=    0 NMatD0=    1 NMtDS0=    0 NMtDT0=    0
         I1Cent=           4 NGrid=           0.
 Petite list used in FoFCou.
 Initial guess orbital symmetries:
       Occupied  (A) (A) (A) (A) (A) (A) (A) (A) (A) (A) (A) (A)
                 (A) (A) (A) (A) (A) (A) (A) (A) (A) (A) (A) (A)
                 (A) (A) (A) (A) (A) (A) (A) (A) (A) (A) (A) (A)
                 (A) (A) (A) (A) (A) (A) (A) (A) (A) (A) (A) (A)
                 (A) (A) (A) (A) (A) (A) (A) (A) (A) (A) (A) (A)
                 (A) (A) (A) (A) (A) (A) (A) (A) (A) (A) (A) (A)
                 (A) (A) (A) (A) (A) (A) (A) (A) (A) (A) (A) (A)
                 (A) (A) (A) (A) (A) (A) (A)
       Virtual   (A) (A) (A) (A) (A) (A) (A) (A) (A) (A) (A) (A)
                 (A) (A) (A) (A) (A) (A) (A) (A) (A) (A) (A) (A)
                 (A) (A) (A) (A) (A) (A) (A) (A) (A) (A) (A) (A)
                 (A) (A) (A) (A) (A) (A) (A) (A) (A) (A) (A) (A)
                 (A) (A) (A) (A) (A) (A) (A) (A) (A) (A) (A) (A)
                 (A) (A) (A) (A) (A) (A) (A) (A) (A) (A) (A) (A)
                 (A) (A) (A) (A) (A) (A) (A) (A) (A) (A) (A) (A)
                 (A) (A) (A) (A) (A) (A) (A) (A) (A) (A) (A) (A)
                 (A) (A) (A) (A) (A) (A) (A) (A) (A) (A) (A) (A)
                 (A) (A) (A) (A) (A) (A) (A) (A) (A) (A) (A) (A)
                 (A) (A) (A) (A) (A) (A) (A) (A) (A) (A) (A) (A)
                 (A) (A) (A) (A) (A) (A) (A) (A) (A) (A) (A) (A)
                 (A) (A) (A) (A) (A) (A) (A) (A) (A) (A) (A) (A)
                 (A) (A) (A) (A) (A) (A) (A) (A) (A) (A) (A) (A)
                 (A) (A) (A) (A) (A) (A) (A) (A) (A) (A) (A) (A)
                 (A) (A) (A) (A) (A) (A) (A) (A) (A) (A) (A) (A)
                 (A) (A) (A) (A) (A) (A) (A) (A) (A) (A) (A) (A)
                 (A) (A) (A) (A) (A) (A) (A) (A) (A) (A) (A) (A)
                 (A) (A) (A) (A) (A) (A) (A) (A) (A) (A) (A) (A)
                 (A) (A) (A) (A) (A) (A) (A) (A) (A) (A) (A) (A)
                 (A) (A) (A) (A) (A) (A) (A) (A) (A) (A) (A) (A)
                 (A) (A) (A) (A) (A) (A) (A) (A) (A) (A) (A) (A)
                 (A) (A) (A) (A) (A) (A) (A) (A) (A) (A) (A) (A)
                 (A) (A) (A) (A) (A) (A) (A) (A) (A) (A) (A) (A)
                 (A) (A) (A) (A) (A) (A) (A) (A) (A) (A) (A) (A)
                 (A) (A) (A) (A) (A) (A) (A) (A) (A) (A) (A) (A)
                 (A) (A) (A) (A) (A) (A) (A) (A) (A) (A) (A) (A)
                 (A) (A) (A) (A) (A) (A) (A) (A) (A) (A) (A) (A)
                 (A) (A) (A) (A) (A) (A) (A) (A) (A) (A) (A) (A)
                 (A) (A) (A) (A) (A) (A) (A) (A) (A) (A) (A) (A)
                 (A) (A) (A) (A) (A) (A) (A) (A) (A) (A) (A) (A)
                 (A) (A) (A) (A) (A) (A) (A) (A) (A) (A) (A) (A)
                 (A) (A) (A) (A) (A) (A) (A) (A) (A) (A) (A) (A)
                 (A) (A) (A) (A) (A) (A) (A) (A) (A) (A) (A) (A)
                 (A) (A) (A) (A) (A) (A) (A) (A) (A) (A) (A) (A)
                 (A) (A) (A) (A) (A) (A) (A) (A) (A) (A) (A) (A)
                 (A) (A) (A) (A) (A) (A) (A) (A) (A) (A) (A) (A)
                 (A) (A) (A) (A) (A) (A) (A) (A) (A) (A) (A) (A)
 The electronic state of the initial guess is 1-A.
 Requested convergence on RMS density matrix=1.00D-08 within 128 cycles.
 Requested convergence on MAX density matrix=1.00D-06.
 Requested convergence on             energy=1.00D-06.
 No special actions if energy rises.
 SCF Done:  E(RB3LYP) =  -1297.92156572     A.U. after   13 cycles
             Convg  =    0.6086D-08             -V/T =  2.0087
 Range of M.O.s used for correlation:     1   547
 NBasis=   547 NAE=    91 NBE=    91 NFC=     0 NFV=     0
 NROrb=    547 NOA=    91 NOB=    91 NVA=   456 NVB=   456

 **** Warning!!: The largest alpha MO coefficient is  0.98295083D+02

          Differentiating once with respect to electric field.
                with respect to dipole field.
          Electric field/nuclear overlap derivatives assumed to be zero.
          There are     3 degrees of freedom in the 1st order CPHF.  IDoFFX=0.
      3 vectors produced by pass  0 Test12= 1.38D-12 3.33D-08 XBig12= 1.17D+02 1.22D+00.
 AX will form     3 AO Fock derivatives at one time.
      3 vectors produced by pass  1 Test12= 1.38D-12 3.33D-08 XBig12= 2.25D+01 3.62D-01.
      3 vectors produced by pass  2 Test12= 1.38D-12 3.33D-08 XBig12= 9.46D+00 2.15D-01.
      3 vectors produced by pass  3 Test12= 1.38D-12 3.33D-08 XBig12= 9.06D-01 7.26D-02.
      3 vectors produced by pass  4 Test12= 1.38D-12 3.33D-08 XBig12= 2.68D-01 4.41D-02.
      3 vectors produced by pass  5 Test12= 1.38D-12 3.33D-08 XBig12= 5.58D-02 1.64D-02.
      3 vectors produced by pass  6 Test12= 1.38D-12 3.33D-08 XBig12= 1.74D-02 1.25D-02.
      3 vectors produced by pass  7 Test12= 1.38D-12 3.33D-08 XBig12= 2.35D-03 6.32D-03.
      3 vectors produced by pass  8 Test12= 1.38D-12 3.33D-08 XBig12= 4.10D-04 1.52D-03.
      3 vectors produced by pass  9 Test12= 1.38D-12 3.33D-08 XBig12= 1.17D-04 1.10D-03.
      3 vectors produced by pass 10 Test12= 1.38D-12 3.33D-08 XBig12= 2.87D-05 4.56D-04.
      3 vectors produced by pass 11 Test12= 1.38D-12 3.33D-08 XBig12= 6.62D-06 2.55D-04.
      3 vectors produced by pass 12 Test12= 1.38D-12 3.33D-08 XBig12= 7.07D-07 7.57D-05.
      3 vectors produced by pass 13 Test12= 1.38D-12 3.33D-08 XBig12= 1.88D-07 4.60D-05.
      3 vectors produced by pass 14 Test12= 1.38D-12 3.33D-08 XBig12= 3.93D-08 1.31D-05.
      3 vectors produced by pass 15 Test12= 1.38D-12 3.33D-08 XBig12= 1.26D-08 1.03D-05.
      3 vectors produced by pass 16 Test12= 1.38D-12 3.33D-08 XBig12= 8.32D-10 3.78D-06.
      3 vectors produced by pass 17 Test12= 1.38D-12 3.33D-08 XBig12= 6.82D-11 1.11D-06.
      3 vectors produced by pass 18 Test12= 1.38D-12 3.33D-08 XBig12= 1.53D-11 3.04D-07.
      3 vectors produced by pass 19 Test12= 1.38D-12 3.33D-08 XBig12= 1.43D-11 3.35D-07.
      2 vectors produced by pass 20 Test12= 1.38D-12 3.33D-08 XBig12= 2.26D-12 1.12D-07.
      2 vectors produced by pass 21 Test12= 1.38D-12 3.33D-08 XBig12= 6.06D-13 4.52D-08.
      1 vectors produced by pass 22 Test12= 1.38D-12 3.33D-08 XBig12= 2.40D-13 3.63D-08.
 Inverted reduced A of dimension    65 with in-core refinement.
 End of Minotr Frequency-dependent properties file   721 does not exist.
 End of Minotr Frequency-dependent properties file   722 does not exist.
 Symmetrizing basis deriv contribution to polar:
 IMax=3 JMax=2 DiffMx= 0.00D+00
 G2DrvN: will do    23 centers at a time, making    2 passes doing MaxLOS=2.
 Calling FoFCou, ICntrl=  3107 FMM=F I1Cent=   0 AccDes= 0.00D+00.
 Calling FoFCou, ICntrl=  3107 FMM=F I1Cent=   0 AccDes= 0.00D+00.
 FoFDir/FoFCou used for L=0 through L=2.
 End of G2Drv Frequency-dependent properties file   721 does not exist.
 End of G2Drv Frequency-dependent properties file   722 does not exist.
          IDoAtm=111111111111111111111111111111111111111111111
          Differentiating once with respect to electric field.
                with respect to dipole field.
          Differentiating once with respect to nuclear coordinates.
          There are   138 degrees of freedom in the 1st order CPHF.  IDoFFX=5.
 Will reuse    3 saved solutions.
    135 vectors produced by pass  0 Test12= 4.15D-14 1.00D-09 XBig12= 2.13D-01 8.40D-02.
 AX will form    68 AO Fock derivatives at one time.
    135 vectors produced by pass  1 Test12= 4.15D-14 1.00D-09 XBig12= 3.14D-02 1.39D-02.
    132 vectors produced by pass  2 Test12= 4.15D-14 1.00D-09 XBig12= 1.73D-04 1.45D-03.
    132 vectors produced by pass  3 Test12= 4.15D-14 1.00D-09 XBig12= 7.13D-07 7.25D-05.
    132 vectors produced by pass  4 Test12= 4.15D-14 1.00D-09 XBig12= 1.06D-09 1.95D-06.
    132 vectors produced by pass  5 Test12= 4.15D-14 1.00D-09 XBig12= 3.33D-12 1.37D-07.
     78 vectors produced by pass  6 Test12= 4.15D-14 1.00D-09 XBig12= 1.10D-13 1.91D-08.
 Inverted reduced A of dimension   876 with in-core refinement.
 Isotropic polarizability for W=    0.000000      186.60 Bohr**3.
 End of Minotr Frequency-dependent properties file   721 does not exist.
 End of Minotr Frequency-dependent properties file   722 does not exist.

 **********************************************************************

            Population analysis using the SCF density.

 **********************************************************************

 Orbital symmetries:
       Occupied  (A) (A) (A) (A) (A) (A) (A) (A) (A) (A) (A) (A)
                 (A) (A) (A) (A) (A) (A) (A) (A) (A) (A) (A) (A)
                 (A) (A) (A) (A) (A) (A) (A) (A) (A) (A) (A) (A)
                 (A) (A) (A) (A) (A) (A) (A) (A) (A) (A) (A) (A)
                 (A) (A) (A) (A) (A) (A) (A) (A) (A) (A) (A) (A)
                 (A) (A) (A) (A) (A) (A) (A) (A) (A) (A) (A) (A)
                 (A) (A) (A) (A) (A) (A) (A) (A) (A) (A) (A) (A)
                 (A) (A) (A) (A) (A) (A) (A)
       Virtual   (A) (A) (A) (A) (A) (A) (A) (A) (A) (A) (A) (A)
                 (A) (A) (A) (A) (A) (A) (A) (A) (A) (A) (A) (A)
                 (A) (A) (A) (A) (A) (A) (A) (A) (A) (A) (A) (A)
                 (A) (A) (A) (A) (A) (A) (A) (A) (A) (A) (A) (A)
                 (A) (A) (A) (A) (A) (A) (A) (A) (A) (A) (A) (A)
                 (A) (A) (A) (A) (A) (A) (A) (A) (A) (A) (A) (A)
                 (A) (A) (A) (A) (A) (A) (A) (A) (A) (A) (A) (A)
                 (A) (A) (A) (A) (A) (A) (A) (A) (A) (A) (A) (A)
                 (A) (A) (A) (A) (A) (A) (A) (A) (A) (A) (A) (A)
                 (A) (A) (A) (A) (A) (A) (A) (A) (A) (A) (A) (A)
                 (A) (A) (A) (A) (A) (A) (A) (A) (A) (A) (A) (A)
                 (A) (A) (A) (A) (A) (A) (A) (A) (A) (A) (A) (A)
                 (A) (A) (A) (A) (A) (A) (A) (A) (A) (A) (A) (A)
                 (A) (A) (A) (A) (A) (A) (A) (A) (A) (A) (A) (A)
                 (A) (A) (A) (A) (A) (A) (A) (A) (A) (A) (A) (A)
                 (A) (A) (A) (A) (A) (A) (A) (A) (A) (A) (A) (A)
                 (A) (A) (A) (A) (A) (A) (A) (A) (A) (A) (A) (A)
                 (A) (A) (A) (A) (A) (A) (A) (A) (A) (A) (A) (A)
                 (A) (A) (A) (A) (A) (A) (A) (A) (A) (A) (A) (A)
                 (A) (A) (A) (A) (A) (A) (A) (A) (A) (A) (A) (A)
                 (A) (A) (A) (A) (A) (A) (A) (A) (A) (A) (A) (A)
                 (A) (A) (A) (A) (A) (A) (A) (A) (A) (A) (A) (A)
                 (A) (A) (A) (A) (A) (A) (A) (A) (A) (A) (A) (A)
                 (A) (A) (A) (A) (A) (A) (A) (A) (A) (A) (A) (A)
                 (A) (A) (A) (A) (A) (A) (A) (A) (A) (A) (A) (A)
                 (A) (A) (A) (A) (A) (A) (A) (A) (A) (A) (A) (A)
                 (A) (A) (A) (A) (A) (A) (A) (A) (A) (A) (A) (A)
                 (A) (A) (A) (A) (A) (A) (A) (A) (A) (A) (A) (A)
                 (A) (A) (A) (A) (A) (A) (A) (A) (A) (A) (A) (A)
                 (A) (A) (A) (A) (A) (A) (A) (A) (A) (A) (A) (A)
                 (A) (A) (A) (A) (A) (A) (A) (A) (A) (A) (A) (A)
                 (A) (A) (A) (A) (A) (A) (A) (A) (A) (A) (A) (A)
                 (A) (A) (A) (A) (A) (A) (A) (A) (A) (A) (A) (A)
                 (A) (A) (A) (A) (A) (A) (A) (A) (A) (A) (A) (A)
                 (A) (A) (A) (A) (A) (A) (A) (A) (A) (A) (A) (A)
                 (A) (A) (A) (A) (A) (A) (A) (A) (A) (A) (A) (A)
                 (A) (A) (A) (A) (A) (A) (A) (A) (A) (A) (A) (A)
                 (A) (A) (A) (A) (A) (A) (A) (A) (A) (A) (A) (A)
 The electronic state is 1-A.
 Alpha  occ. eigenvalues --  -19.19578 -19.19363 -19.19301 -19.18573 -19.18429
 Alpha  occ. eigenvalues --  -19.18366 -19.17632 -19.17148 -19.16209 -19.15787
 Alpha  occ. eigenvalues --  -19.14913 -10.30985 -10.30808 -10.26544 -10.26518
 Alpha  occ. eigenvalues --  -10.25937 -10.25827 -10.25781 -10.25602 -10.25401
 Alpha  occ. eigenvalues --  -10.24852 -10.24590 -10.24265  -1.10180  -1.09251
 Alpha  occ. eigenvalues --   -1.05795  -1.05040  -1.04377  -1.04124  -1.03071
 Alpha  occ. eigenvalues --   -1.02708  -1.02580  -1.01484  -1.00432  -0.83117
 Alpha  occ. eigenvalues --   -0.80632  -0.79538  -0.78642  -0.72302  -0.70635
 Alpha  occ. eigenvalues --   -0.67275  -0.64418  -0.63140  -0.62490  -0.61924
 Alpha  occ. eigenvalues --   -0.60908  -0.56395  -0.55713  -0.55297  -0.54883
 Alpha  occ. eigenvalues --   -0.54251  -0.53551  -0.52998  -0.52288  -0.51418
 Alpha  occ. eigenvalues --   -0.50456  -0.50002  -0.49585  -0.49030  -0.46947
 Alpha  occ. eigenvalues --   -0.46147  -0.45148  -0.44509  -0.43764  -0.43490
 Alpha  occ. eigenvalues --   -0.43178  -0.42671  -0.41378  -0.40838  -0.39605
 Alpha  occ. eigenvalues --   -0.38903  -0.37603  -0.37117  -0.36507  -0.35928
 Alpha  occ. eigenvalues --   -0.35509  -0.35341  -0.34787  -0.34278  -0.33697
 Alpha  occ. eigenvalues --   -0.32511  -0.31980  -0.31415  -0.30477  -0.30114
 Alpha  occ. eigenvalues --   -0.29794  -0.29024  -0.28756  -0.28176  -0.26991
 Alpha  occ. eigenvalues --   -0.26366
 Alpha virt. eigenvalues --   -0.02264  -0.02011  -0.01636  -0.00424   0.00064
 Alpha virt. eigenvalues --    0.00830   0.01594   0.02357   0.02921   0.03317
 Alpha virt. eigenvalues --    0.03705   0.04203   0.04963   0.05014   0.05494
 Alpha virt. eigenvalues --    0.06508   0.06652   0.07310   0.07735   0.07962
 Alpha virt. eigenvalues --    0.08421   0.08918   0.09093   0.09749   0.10418
 Alpha virt. eigenvalues --    0.10907   0.11037   0.11488   0.11638   0.11770
 Alpha virt. eigenvalues --    0.12403   0.12814   0.13056   0.13313   0.13675
 Alpha virt. eigenvalues --    0.14046   0.14075   0.14249   0.15012   0.15257
 Alpha virt. eigenvalues --    0.15815   0.16286   0.16651   0.17053   0.17080
 Alpha virt. eigenvalues --    0.17424   0.17496   0.17862   0.18299   0.18431
 Alpha virt. eigenvalues --    0.18917   0.19189   0.19491   0.19644   0.19827
 Alpha virt. eigenvalues --    0.20520   0.20760   0.21261   0.21271   0.21638
 Alpha virt. eigenvalues --    0.21732   0.22007   0.22446   0.22827   0.23064
 Alpha virt. eigenvalues --    0.23158   0.23813   0.23901   0.24492   0.24712
 Alpha virt. eigenvalues --    0.25060   0.25109   0.25416   0.25797   0.26123
 Alpha virt. eigenvalues --    0.26273   0.26459   0.26687   0.27182   0.27464
 Alpha virt. eigenvalues --    0.27556   0.27741   0.27879   0.28249   0.28798
 Alpha virt. eigenvalues --    0.29209   0.29484   0.29661   0.29985   0.30636
 Alpha virt. eigenvalues --    0.31037   0.31372   0.31763   0.31974   0.32509
 Alpha virt. eigenvalues --    0.32627   0.32875   0.33112   0.33836   0.34216
 Alpha virt. eigenvalues --    0.34315   0.34767   0.35081   0.35533   0.35564
 Alpha virt. eigenvalues --    0.36537   0.36780   0.36921   0.37481   0.37659
 Alpha virt. eigenvalues --    0.38197   0.38566   0.38589   0.39041   0.40013
 Alpha virt. eigenvalues --    0.40101   0.40402   0.41066   0.41381   0.41614
 Alpha virt. eigenvalues --    0.42154   0.42523   0.43229   0.43448   0.43902
 Alpha virt. eigenvalues --    0.44408   0.45116   0.45545   0.45735   0.46150
 Alpha virt. eigenvalues --    0.46942   0.48137   0.48343   0.49110   0.50214
 Alpha virt. eigenvalues --    0.50679   0.51793   0.55584   0.62822   0.64035
 Alpha virt. eigenvalues --    0.65072   0.65641   0.68232   0.68346   0.69926
 Alpha virt. eigenvalues --    0.70467   0.72309   0.73284   0.74245   0.74877
 Alpha virt. eigenvalues --    0.75380   0.76617   0.77120   0.78096   0.78875
 Alpha virt. eigenvalues --    0.79270   0.80380   0.81052   0.81726   0.83691
 Alpha virt. eigenvalues --    0.84417   0.86268   0.87968   0.88558   0.89267
 Alpha virt. eigenvalues --    0.90788   0.92499   0.93646   0.94081   0.94419
 Alpha virt. eigenvalues --    0.96471   0.97294   0.97578   0.99639   1.00325
 Alpha virt. eigenvalues --    1.01429   1.02512   1.02891   1.03671   1.04947
 Alpha virt. eigenvalues --    1.05384   1.05496   1.05871   1.06442   1.07588
 Alpha virt. eigenvalues --    1.08020   1.08573   1.09297   1.09966   1.10068
 Alpha virt. eigenvalues --    1.10681   1.11951   1.13519   1.13687   1.15066
 Alpha virt. eigenvalues --    1.16311   1.16486   1.19278   1.19876   1.20391
 Alpha virt. eigenvalues --    1.21539   1.22673   1.23085   1.24750   1.25494
 Alpha virt. eigenvalues --    1.26365   1.26982   1.27195   1.27403   1.28268
 Alpha virt. eigenvalues --    1.28525   1.29386   1.29896   1.30646   1.31003
 Alpha virt. eigenvalues --    1.31344   1.32398   1.33319   1.33724   1.33976
 Alpha virt. eigenvalues --    1.35082   1.35854   1.36699   1.37052   1.37752
 Alpha virt. eigenvalues --    1.38677   1.39051   1.39501   1.41403   1.42507
 Alpha virt. eigenvalues --    1.42843   1.44035   1.45217   1.47266   1.47877
 Alpha virt. eigenvalues --    1.48260   1.48310   1.50372   1.51431   1.51702
 Alpha virt. eigenvalues --    1.53224   1.54644   1.55904   1.56224   1.57490
 Alpha virt. eigenvalues --    1.58209   1.58786   1.60571   1.60720   1.61187
 Alpha virt. eigenvalues --    1.61217   1.63001   1.65032   1.65369   1.66185
 Alpha virt. eigenvalues --    1.66703   1.67445   1.67947   1.68492   1.69393
 Alpha virt. eigenvalues --    1.70632   1.71552   1.72268   1.73256   1.74179
 Alpha virt. eigenvalues --    1.74782   1.75114   1.75711   1.76031   1.77083
 Alpha virt. eigenvalues --    1.77143   1.78059   1.78990   1.79881   1.82069
 Alpha virt. eigenvalues --    1.83290   1.83308   1.83939   1.85017   1.85715
 Alpha virt. eigenvalues --    1.86282   1.87035   1.87924   1.88375   1.90118
 Alpha virt. eigenvalues --    1.90671   1.91464   1.92169   1.92970   1.93599
 Alpha virt. eigenvalues --    1.94511   1.95243   1.95777   1.97018   1.98140
 Alpha virt. eigenvalues --    1.98831   1.99538   2.01421   2.01876   2.02089
 Alpha virt. eigenvalues --    2.02735   2.04277   2.05917   2.06191   2.07662
 Alpha virt. eigenvalues --    2.08010   2.09365   2.10041   2.11174   2.11611
 Alpha virt. eigenvalues --    2.12619   2.13840   2.15101   2.15550   2.15980
 Alpha virt. eigenvalues --    2.17591   2.18621   2.19611   2.21900   2.22425
 Alpha virt. eigenvalues --    2.23409   2.23605   2.24028   2.27246   2.28443
 Alpha virt. eigenvalues --    2.29346   2.31943   2.32402   2.33965   2.35581
 Alpha virt. eigenvalues --    2.35690   2.36740   2.37137   2.38118   2.40440
 Alpha virt. eigenvalues --    2.40627   2.41407   2.41706   2.43247   2.44011
 Alpha virt. eigenvalues --    2.44197   2.47301   2.48251   2.48473   2.48955
 Alpha virt. eigenvalues --    2.50552   2.52186   2.52392   2.54180   2.55044
 Alpha virt. eigenvalues --    2.55985   2.56938   2.57798   2.59599   2.59988
 Alpha virt. eigenvalues --    2.60794   2.61831   2.62239   2.64588   2.65091
 Alpha virt. eigenvalues --    2.66058   2.67063   2.67682   2.68361   2.68457
 Alpha virt. eigenvalues --    2.69045   2.70569   2.71614   2.73468   2.73552
 Alpha virt. eigenvalues --    2.74941   2.75858   2.77036   2.78274   2.80712
 Alpha virt. eigenvalues --    2.80815   2.82928   2.83734   2.84889   2.85195
 Alpha virt. eigenvalues --    2.85957   2.88054   2.88759   2.89275   2.89685
 Alpha virt. eigenvalues --    2.90223   2.91025   2.91642   2.93169   2.94049
 Alpha virt. eigenvalues --    2.94684   2.96664   2.98150   2.98556   2.98899
 Alpha virt. eigenvalues --    3.01577   3.02003   3.03950   3.04845   3.05385
 Alpha virt. eigenvalues --    3.06187   3.08952   3.09994   3.13384   3.15551
 Alpha virt. eigenvalues --    3.18072   3.18789   3.25428   3.26600   3.28944
 Alpha virt. eigenvalues --    3.33525   3.37426   3.38679   3.39319   3.41320
 Alpha virt. eigenvalues --    3.43125   3.45420   3.45691   3.46673   3.47892
 Alpha virt. eigenvalues --    3.49313   3.50335   3.51671   3.53232   3.54669
 Alpha virt. eigenvalues --    3.56250   3.57941   3.61067   3.61180   3.64517
 Alpha virt. eigenvalues --    3.65057   3.66687   3.67834   4.30713   4.33790
 Alpha virt. eigenvalues --    4.34229   4.38149   4.39479   4.42713   4.44128
 Alpha virt. eigenvalues --    4.46915   4.47798   4.50260   4.54543   4.55458
 Alpha virt. eigenvalues --    4.56156   4.58198   4.59787   4.64329   4.69752
 Alpha virt. eigenvalues --    4.74248   4.82162   4.88051   4.89383   4.91438
 Alpha virt. eigenvalues --    4.93974
          Condensed to atoms (all electrons):
              1          2          3          4          5          6
     1  O    8.285156   0.226897  -0.140155  -0.019904   0.031297   0.171914
     2  C    0.226897   9.092536  -1.174391   0.031923  -0.133886  -2.755480
     3  C   -0.140155  -1.174391   9.792564   0.250756   0.062870  -0.498593
     4  O   -0.019904   0.031923   0.250756   8.270659   0.197297  -0.151104
     5  H    0.031297  -0.133886   0.062870   0.197297   0.420326   0.024423
     6  C    0.171914  -2.755480  -0.498593  -0.151104   0.024423  13.604685
     7  O   -0.001579   0.074888  -0.158358   0.010762  -0.000583   0.178947
     8  H    0.000034  -0.021304   0.014749  -0.000925   0.000014   0.091371
     9  C    0.002229   0.214532  -0.280287   0.004188  -0.005784   0.398413
    10  O    0.001833  -0.017147   0.018731   0.000010  -0.000028   0.002502
    11  H    0.000232  -0.007563  -0.001486   0.000001   0.000000   0.000783
    12  C   -0.219165  -0.844783  -0.941732   0.030526   0.015485   0.159639
    13  O    0.008349  -0.078313  -0.025994  -0.000146  -0.000069   0.065747
    14  C   -0.011809   0.802906  -0.259443  -0.061908   0.029649  -4.342063
    15  O    0.000411  -0.036440  -0.031723   0.000240   0.000085   0.187451
    16  C    0.001411   0.021866  -0.356624  -0.000434   0.001102  -0.718588
    17  C   -0.000067   0.004879   0.042820   0.000354   0.000038  -0.021726
    18  O    0.000007   0.009232  -0.001975  -0.000008   0.000000  -0.007246
    19  H   -0.000013  -0.001628   0.003340  -0.000001   0.000000  -0.000369
    20  C    0.000060   0.008469  -0.033620   0.000035   0.000004   0.002543
    21  O    0.000000   0.000046  -0.000206   0.000000   0.000000   0.000017
    22  H    0.000000   0.000001   0.000001   0.000000   0.000000  -0.000039
    23  C    0.000059   0.013757  -0.063435   0.000345  -0.000018  -0.276719
    24  O    0.000015   0.003959  -0.009868   0.000225  -0.000003  -0.086064
    25  H    0.000000  -0.000040   0.001483  -0.000003   0.000000   0.000020
    26  C   -0.000421  -0.000854   0.001261   0.000332   0.000046  -0.050657
    27  O    0.000000  -0.000101   0.000985   0.000000   0.000000   0.004328
    28  C    0.000010  -0.003224   0.003246   0.000007   0.000000   0.043149
    29  O    0.000000  -0.000004   0.000072   0.000000   0.000000  -0.000159
    30  H    0.000000   0.000000   0.000000   0.000000   0.000000   0.000003
    31  H    0.000000  -0.000004   0.000015   0.000000   0.000000   0.000245
    32  H    0.000000   0.000021   0.000051   0.000000   0.000000   0.000361
    33  H    0.000000   0.000765   0.000100   0.000000   0.000000  -0.001463
    34  H   -0.000003  -0.000069   0.003076   0.000006   0.000000  -0.005099
    35  H    0.000000   0.000103   0.001258   0.000000   0.000000   0.000526
    36  H    0.000000   0.000011  -0.000432   0.000000   0.000000  -0.003504
    37  H    0.000000  -0.000020   0.001419   0.000000   0.000000   0.006603
    38  H    0.234923   0.075992  -0.019282   0.002251  -0.003684  -0.009386
    39  H    0.000025  -0.010873  -0.006288   0.000034   0.000000  -0.006113
    40  H    0.003339  -0.024709   0.000264  -0.000041   0.000000   0.024220
    41  H    0.010077  -0.014023  -0.070962   0.000231   0.000004   0.036773
    42  H   -0.043885   0.417653  -0.133421   0.002065  -0.000227   0.040101
    43  H   -0.007896   0.145477   0.167257  -0.052352  -0.000068  -0.329383
    44  H   -0.000890   0.078472  -0.174166   0.006936   0.000041   0.262910
    45  H   -0.000062   0.011021  -0.050050  -0.000357   0.000000  -0.099164
              7          8          9         10         11         12
     1  O   -0.001579   0.000034   0.002229   0.001833   0.000232  -0.219165
     2  C    0.074888  -0.021304   0.214532  -0.017147  -0.007563  -0.844783
     3  C   -0.158358   0.014749  -0.280287   0.018731  -0.001486  -0.941732
     4  O    0.010762  -0.000925   0.004188   0.000010   0.000001   0.030526
     5  H   -0.000583   0.000014  -0.005784  -0.000028   0.000000   0.015485
     6  C    0.178947   0.091371   0.398413   0.002502   0.000783   0.159639
     7  O    8.192288   0.198656   0.002855   0.000024   0.000000   0.027607
     8  H    0.198656   0.380713   0.000368   0.000000   0.000000   0.000262
     9  C    0.002855   0.000368   8.016857   0.004576   0.032114  -2.448235
    10  O    0.000024   0.000000   0.004576   8.332562   0.190778   0.087576
    11  H    0.000000   0.000000   0.032114   0.190778   0.444995   0.004237
    12  C    0.027607   0.000262  -2.448235   0.087576   0.004237  11.171578
    13  O    0.009782  -0.000015   0.034151  -0.000786  -0.000194  -0.173377
    14  C   -0.014033  -0.067244  -0.814984   0.014458  -0.006029  -0.797532
    15  O   -0.011676   0.012052  -0.011515  -0.000010   0.000010   0.033431
    16  C    0.016483   0.003474  -0.136503  -0.004277  -0.000067  -0.008583
    17  C    0.002192   0.004037  -0.036539  -0.000339  -0.000035  -0.100569
    18  O   -0.000084  -0.000014   0.001897  -0.000061   0.000009  -0.009999
    19  H   -0.000019  -0.000002  -0.004017  -0.000032  -0.000002   0.000541
    20  C    0.004215  -0.000397  -0.013342   0.000009   0.000028  -0.011871
    21  O   -0.000004   0.000000  -0.000025   0.000000   0.000000   0.000179
    22  H    0.000000   0.000000  -0.000003   0.000000   0.000000   0.000032
    23  C    0.046932  -0.005323  -0.001449  -0.000022   0.000000   0.028027
    24  O   -0.018260   0.008379  -0.000840  -0.000001   0.000000  -0.005177
    25  H    0.001865  -0.003095  -0.000011   0.000000   0.000000   0.000016
    26  C   -0.038276  -0.015972  -0.016646  -0.000239   0.000012   0.052832
    27  O   -0.000062   0.000111   0.000005   0.000000   0.000000  -0.000232
    28  C   -0.001670   0.000996   0.001503   0.000007  -0.000001  -0.009758
    29  O   -0.000001  -0.000001   0.000020   0.000000   0.000000   0.000177
    30  H    0.000000   0.000000   0.000000   0.000000   0.000000   0.000001
    31  H    0.000000   0.000000   0.000007   0.000000   0.000000   0.000001
    32  H    0.000001   0.000000   0.000073   0.000000   0.000000   0.000379
    33  H   -0.000007   0.000001   0.000233   0.000000   0.000000   0.001850
    34  H   -0.000344  -0.000057   0.000062   0.000002   0.000000   0.005453
    35  H    0.000057   0.000007   0.000144   0.000000   0.000000   0.000632
    36  H   -0.000597   0.000304  -0.000006   0.000000   0.000000  -0.000034
    37  H    0.001283   0.000413   0.000040   0.000000   0.000000   0.000570
    38  H   -0.000003   0.000000  -0.008032   0.000073   0.000002  -0.029535
    39  H   -0.000012   0.000000   0.386975  -0.040395  -0.012361   0.002198
    40  H    0.000002   0.000000   0.638086  -0.066283  -0.001245  -0.281575
    41  H   -0.000066   0.000005   0.062281   0.006032  -0.000149   0.167073
    42  H    0.000144   0.000003   0.017074  -0.000198  -0.000005  -0.099336
    43  H    0.006111  -0.000170   0.024852  -0.000192   0.000001   0.019149
    44  H   -0.028624  -0.008407   0.007864   0.000005   0.000000   0.029453
    45  H    0.002893  -0.000791   0.009622   0.000083   0.000000   0.005953
             13         14         15         16         17         18
     1  O    0.008349  -0.011809   0.000411   0.001411  -0.000067   0.000007
     2  C   -0.078313   0.802906  -0.036440   0.021866   0.004879   0.009232
     3  C   -0.025994  -0.259443  -0.031723  -0.356624   0.042820  -0.001975
     4  O   -0.000146  -0.061908   0.000240  -0.000434   0.000354  -0.000008
     5  H   -0.000069   0.029649   0.000085   0.001102   0.000038   0.000000
     6  C    0.065747  -4.342063   0.187451  -0.718588  -0.021726  -0.007246
     7  O    0.009782  -0.014033  -0.011676   0.016483   0.002192  -0.000084
     8  H   -0.000015  -0.067244   0.012052   0.003474   0.004037  -0.000014
     9  C    0.034151  -0.814984  -0.011515  -0.136503  -0.036539   0.001897
    10  O   -0.000786   0.014458  -0.000010  -0.004277  -0.000339  -0.000061
    11  H   -0.000194  -0.006029   0.000010  -0.000067  -0.000035   0.000009
    12  C   -0.173377  -0.797532   0.033431  -0.008583  -0.100569  -0.009999
    13  O    8.439674   0.188597  -0.019881   0.052722  -0.029744   0.014157
    14  C    0.188597  11.528518   0.142670  -0.886865   0.528156  -0.042365
    15  O   -0.019881   0.142670   8.330331  -0.028874  -0.011481   0.002079
    16  C    0.052722  -0.886865  -0.028874  11.870055  -1.169217  -0.175265
    17  C   -0.029744   0.528156  -0.011481  -1.169217   9.110633   0.460126
    18  O    0.014157  -0.042365   0.002079  -0.175265   0.460126   8.167874
    19  H    0.011049  -0.008822   0.022187  -0.073694   0.017446   0.197826
    20  C   -0.021093  -0.683418  -0.008523  -1.675063  -2.401542  -0.148357
    21  O    0.000080  -0.004030  -0.000114   0.026556  -0.054049   0.002671
    22  H   -0.000002   0.000429   0.000042  -0.003954   0.017626  -0.000760
    23  C    0.026158  -0.045231  -0.114828  -0.141247  -0.509871   0.008676
    24  O   -0.002253   0.129569  -0.042942  -0.006098  -0.013291   0.000059
    25  H    0.000061  -0.008438   0.002663  -0.002535   0.000168  -0.000003
    26  C   -0.039965  -0.477052  -0.000165  -2.098709  -1.090387   0.035417
    27  O   -0.000023   0.016324   0.003189   0.012222   0.020989  -0.000448
    28  C    0.000551   0.118154   0.042650   1.031317   0.848460   0.010050
    29  O    0.000031   0.002939   0.000188   0.012533   0.085398   0.000381
    30  H    0.000000   0.000048  -0.000004   0.001203  -0.004543  -0.000035
    31  H    0.000005   0.007076   0.000093   0.074635   0.046318  -0.000932
    32  H    0.000168   0.005634  -0.000437   0.061107  -0.047602   0.002269
    33  H    0.002592   0.023260  -0.006557  -0.063666   0.376706  -0.051310
    34  H   -0.000222   0.056125  -0.051325   0.290982   0.019827  -0.002450
    35  H   -0.000423   0.073379   0.004239  -0.050135   0.092217   0.000030
    36  H    0.000000   0.005798   0.000282  -0.016780  -0.013700   0.000042
    37  H    0.000046   0.007803   0.005160   0.007216   0.015622   0.000041
    38  H   -0.000781   0.006176  -0.000010   0.000441  -0.000055   0.000000
    39  H   -0.001176   0.001090  -0.000448   0.009572   0.000615  -0.000887
    40  H    0.007167  -0.004673  -0.000218  -0.004901  -0.000313   0.000104
    41  H   -0.033188   0.077433   0.000075  -0.001196   0.004119   0.000221
    42  H    0.008553   0.027783  -0.000226  -0.003650   0.001001   0.000039
    43  H    0.002258   0.191834   0.001298   0.015100   0.001973   0.000074
    44  H    0.008280   0.036591  -0.005580   0.030395   0.002622   0.000047
    45  H   -0.066312   0.388736  -0.053523   0.027329   0.022988  -0.001111
             19         20         21         22         23         24
     1  O   -0.000013   0.000060   0.000000   0.000000   0.000059   0.000015
     2  C   -0.001628   0.008469   0.000046   0.000001   0.013757   0.003959
     3  C    0.003340  -0.033620  -0.000206   0.000001  -0.063435  -0.009868
     4  O   -0.000001   0.000035   0.000000   0.000000   0.000345   0.000225
     5  H    0.000000   0.000004   0.000000   0.000000  -0.000018  -0.000003
     6  C   -0.000369   0.002543   0.000017  -0.000039  -0.276719  -0.086064
     7  O   -0.000019   0.004215  -0.000004   0.000000   0.046932  -0.018260
     8  H   -0.000002  -0.000397   0.000000   0.000000  -0.005323   0.008379
     9  C   -0.004017  -0.013342  -0.000025  -0.000003  -0.001449  -0.000840
    10  O   -0.000032   0.000009   0.000000   0.000000  -0.000022  -0.000001
    11  H   -0.000002   0.000028   0.000000   0.000000   0.000000   0.000000
    12  C    0.000541  -0.011871   0.000179   0.000032   0.028027  -0.005177
    13  O    0.011049  -0.021093   0.000080  -0.000002   0.026158  -0.002253
    14  C   -0.008822  -0.683418  -0.004030   0.000429  -0.045231   0.129569
    15  O    0.022187  -0.008523  -0.000114   0.000042  -0.114828  -0.042942
    16  C   -0.073694  -1.675063   0.026556  -0.003954  -0.141247  -0.006098
    17  C    0.017446  -2.401542  -0.054049   0.017626  -0.509871  -0.013291
    18  O    0.197826  -0.148357   0.002671  -0.000760   0.008676   0.000059
    19  H    0.395865   0.048353  -0.000650   0.000019  -0.000211   0.000069
    20  C    0.048353  11.103754   0.102596   0.028784   0.387261   0.001893
    21  O   -0.000650   0.102596   8.256200   0.218575  -0.001610  -0.000011
    22  H    0.000019   0.028784   0.218575   0.410759   0.000161   0.000000
    23  C   -0.000211   0.387261  -0.001610   0.000161   8.493957  -0.179388
    24  O    0.000069   0.001893  -0.000011   0.000000  -0.179388   8.545228
    25  H    0.000000   0.001097   0.000000   0.000000   0.017593   0.201396
    26  C    0.022696   1.662352  -0.007089   0.003125  -1.884871   0.230384
    27  O    0.000035  -0.239795   0.015169  -0.000745  -0.116429   0.001070
    28  C   -0.006688  -1.985469  -0.018777  -0.034521  -0.677482   0.000756
    29  O    0.000040  -0.286286   0.039646   0.007035  -0.008062   0.000163
    30  H    0.000000  -0.021450  -0.005600  -0.001096   0.001565   0.000001
    31  H    0.000013  -0.190100  -0.000467  -0.000059  -0.016882  -0.000112
    32  H    0.000003   0.310001  -0.032974  -0.009383   0.007069  -0.000019
    33  H   -0.008080  -0.068612  -0.000943  -0.000036   0.042752  -0.000219
    34  H    0.000027  -0.005186  -0.000630   0.000007   0.001386  -0.000685
    35  H    0.000096  -0.111004  -0.000596   0.000010  -0.001079   0.002815
    36  H    0.000000   0.002174   0.000017   0.000000   0.506366  -0.047400
    37  H    0.000001  -0.009760  -0.000007   0.000000   0.599981  -0.089846
    38  H    0.000000   0.000002   0.000000   0.000000   0.000007   0.000000
    39  H    0.000559  -0.000828   0.000000   0.000000   0.000049   0.000000
    40  H    0.000043  -0.000091   0.000000   0.000000  -0.000026   0.000000
    41  H    0.000114   0.000297   0.000000   0.000000   0.000064   0.000003
    42  H   -0.000003  -0.000038   0.000000   0.000000   0.000000   0.000000
    43  H   -0.000003   0.000147   0.000000   0.000000   0.001175   0.000026
    44  H   -0.000004   0.000914   0.000000   0.000000   0.014350   0.002148
    45  H    0.000403   0.010132   0.000000   0.000000   0.002471   0.000574
             25         26         27         28         29         30
     1  O    0.000000  -0.000421   0.000000   0.000010   0.000000   0.000000
     2  C   -0.000040  -0.000854  -0.000101  -0.003224  -0.000004   0.000000
     3  C    0.001483   0.001261   0.000985   0.003246   0.000072   0.000000
     4  O   -0.000003   0.000332   0.000000   0.000007   0.000000   0.000000
     5  H    0.000000   0.000046   0.000000   0.000000   0.000000   0.000000
     6  C    0.000020  -0.050657   0.004328   0.043149  -0.000159   0.000003
     7  O    0.001865  -0.038276  -0.000062  -0.001670  -0.000001   0.000000
     8  H   -0.003095  -0.015972   0.000111   0.000996  -0.000001   0.000000
     9  C   -0.000011  -0.016646   0.000005   0.001503   0.000020   0.000000
    10  O    0.000000  -0.000239   0.000000   0.000007   0.000000   0.000000
    11  H    0.000000   0.000012   0.000000  -0.000001   0.000000   0.000000
    12  C    0.000016   0.052832  -0.000232  -0.009758   0.000177   0.000001
    13  O    0.000061  -0.039965  -0.000023   0.000551   0.000031   0.000000
    14  C   -0.008438  -0.477052   0.016324   0.118154   0.002939   0.000048
    15  O    0.002663  -0.000165   0.003189   0.042650   0.000188  -0.000004
    16  C   -0.002535  -2.098709   0.012222   1.031317   0.012533   0.001203
    17  C    0.000168  -1.090387   0.020989   0.848460   0.085398  -0.004543
    18  O   -0.000003   0.035417  -0.000448   0.010050   0.000381  -0.000035
    19  H    0.000000   0.022696   0.000035  -0.006688   0.000040   0.000000
    20  C    0.001097   1.662352  -0.239795  -1.985469  -0.286286  -0.021450
    21  O    0.000000  -0.007089   0.015169  -0.018777   0.039646  -0.005600
    22  H    0.000000   0.003125  -0.000745  -0.034521   0.007035  -0.001096
    23  C    0.017593  -1.884871  -0.116429  -0.677482  -0.008062   0.001565
    24  O    0.201396   0.230384   0.001070   0.000756   0.000163   0.000001
    25  H    0.402660   0.005533  -0.000409  -0.003186   0.000002   0.000000
    26  C    0.005533  11.439155   0.312315  -1.766717  -0.103289   0.017075
    27  O   -0.000409   0.312315   8.330401   0.075480  -0.014239   0.001222
    28  C   -0.003186  -1.766717   0.075480   7.261312   0.407109   0.014976
    29  O    0.000002  -0.103289  -0.014239   0.407109   8.261680   0.237930
    30  H    0.000000   0.017075   0.001222   0.014976   0.237930   0.392560
    31  H    0.000000  -0.101998  -0.062838   0.521796  -0.056571  -0.009690
    32  H    0.000000  -0.015506   0.005743  -0.034917  -0.001066   0.000122
    33  H    0.000001   0.003903   0.002852  -0.037825  -0.000443   0.000015
    34  H    0.000006  -0.086108   0.005188   0.010144  -0.000298   0.000000
    35  H   -0.000106   0.178877  -0.051799   0.059906   0.000196  -0.000004
    36  H   -0.010566  -0.092117  -0.001910   0.001398  -0.000175  -0.000002
    37  H   -0.001724  -0.289474   0.007089   0.010367   0.000053   0.000000
    38  H    0.000000  -0.000017   0.000000   0.000000   0.000000   0.000000
    39  H    0.000000   0.000608   0.000000   0.000039   0.000000   0.000000
    40  H    0.000000  -0.000421   0.000000   0.000017   0.000000   0.000000
    41  H    0.000000  -0.001800   0.000000   0.000054   0.000000   0.000000
    42  H    0.000000  -0.000199   0.000000   0.000007   0.000000   0.000000
    43  H    0.000000  -0.000603   0.000000  -0.000006   0.000000   0.000000
    44  H    0.000016  -0.013652   0.000010  -0.000140   0.000000   0.000000
    45  H    0.000005   0.013264   0.000189  -0.000994  -0.000003   0.000000
             31         32         33         34         35         36
     1  O    0.000000   0.000000   0.000000  -0.000003   0.000000   0.000000
     2  C   -0.000004   0.000021   0.000765  -0.000069   0.000103   0.000011
     3  C    0.000015   0.000051   0.000100   0.003076   0.001258  -0.000432
     4  O    0.000000   0.000000   0.000000   0.000006   0.000000   0.000000
     5  H    0.000000   0.000000   0.000000   0.000000   0.000000   0.000000
     6  C    0.000245   0.000361  -0.001463  -0.005099   0.000526  -0.003504
     7  O    0.000000   0.000001  -0.000007  -0.000344   0.000057  -0.000597
     8  H    0.000000   0.000000   0.000001  -0.000057   0.000007   0.000304
     9  C    0.000007   0.000073   0.000233   0.000062   0.000144  -0.000006
    10  O    0.000000   0.000000   0.000000   0.000002   0.000000   0.000000
    11  H    0.000000   0.000000   0.000000   0.000000   0.000000   0.000000
    12  C    0.000001   0.000379   0.001850   0.005453   0.000632  -0.000034
    13  O    0.000005   0.000168   0.002592  -0.000222  -0.000423   0.000000
    14  C    0.007076   0.005634   0.023260   0.056125   0.073379   0.005798
    15  O    0.000093  -0.000437  -0.006557  -0.051325   0.004239   0.000282
    16  C    0.074635   0.061107  -0.063666   0.290982  -0.050135  -0.016780
    17  C    0.046318  -0.047602   0.376706   0.019827   0.092217  -0.013700
    18  O   -0.000932   0.002269  -0.051310  -0.002450   0.000030   0.000042
    19  H    0.000013   0.000003  -0.008080   0.000027   0.000096   0.000000
    20  C   -0.190100   0.310001  -0.068612  -0.005186  -0.111004   0.002174
    21  O   -0.000467  -0.032974  -0.000943  -0.000630  -0.000596   0.000017
    22  H   -0.000059  -0.009383  -0.000036   0.000007   0.000010   0.000000
    23  C   -0.016882   0.007069   0.042752   0.001386  -0.001079   0.506366
    24  O   -0.000112  -0.000019  -0.000219  -0.000685   0.002815  -0.047400
    25  H    0.000000   0.000000   0.000001   0.000006  -0.000106  -0.010566
    26  C   -0.101998  -0.015506   0.003903  -0.086108   0.178877  -0.092117
    27  O   -0.062838   0.005743   0.002852   0.005188  -0.051799  -0.001910
    28  C    0.521796  -0.034917  -0.037825   0.010144   0.059906   0.001398
    29  O   -0.056571  -0.001066  -0.000443  -0.000298   0.000196  -0.000175
    30  H   -0.009690   0.000122   0.000015   0.000000  -0.000004  -0.000002
    31  H    0.639951   0.005790   0.003223   0.000047   0.011729   0.000000
    32  H    0.005790   0.581232   0.006285   0.002448   0.000266   0.000002
    33  H    0.003223   0.006285   0.622582   0.005854   0.006423   0.000019
    34  H    0.000047   0.002448   0.005854   0.594656   0.007183  -0.000104
    35  H    0.011729   0.000266   0.006423   0.007183   0.658323  -0.012054
    36  H    0.000000   0.000002   0.000019  -0.000104  -0.012054   0.587541
    37  H   -0.000014  -0.000002  -0.000011   0.002449   0.008394  -0.044618
    38  H    0.000000   0.000000   0.000000   0.000000   0.000000   0.000000
    39  H    0.000000   0.000000   0.000001   0.000000   0.000000   0.000000
    40  H    0.000000   0.000000   0.000000   0.000000   0.000000   0.000000
    41  H    0.000000   0.000000   0.000000  -0.000023   0.000000   0.000000
    42  H    0.000000   0.000000   0.000000   0.000000   0.000000   0.000000
    43  H    0.000000   0.000000   0.000000  -0.000007   0.000000   0.000000
    44  H    0.000000   0.000000  -0.000004   0.000005  -0.000006   0.000003
    45  H    0.000000  -0.000008  -0.000007   0.009305  -0.000017   0.000001
             37         38         39         40         41         42
     1  O    0.000000   0.234923   0.000025   0.003339   0.010077  -0.043885
     2  C   -0.000020   0.075992  -0.010873  -0.024709  -0.014023   0.417653
     3  C    0.001419  -0.019282  -0.006288   0.000264  -0.070962  -0.133421
     4  O    0.000000   0.002251   0.000034  -0.000041   0.000231   0.002065
     5  H    0.000000  -0.003684   0.000000   0.000000   0.000004  -0.000227
     6  C    0.006603  -0.009386  -0.006113   0.024220   0.036773   0.040101
     7  O    0.001283  -0.000003  -0.000012   0.000002  -0.000066   0.000144
     8  H    0.000413   0.000000   0.000000   0.000000   0.000005   0.000003
     9  C    0.000040  -0.008032   0.386975   0.638086   0.062281   0.017074
    10  O    0.000000   0.000073  -0.040395  -0.066283   0.006032  -0.000198
    11  H    0.000000   0.000002  -0.012361  -0.001245  -0.000149  -0.000005
    12  C    0.000570  -0.029535   0.002198  -0.281575   0.167073  -0.099336
    13  O    0.000046  -0.000781  -0.001176   0.007167  -0.033188   0.008553
    14  C    0.007803   0.006176   0.001090  -0.004673   0.077433   0.027783
    15  O    0.005160  -0.000010  -0.000448  -0.000218   0.000075  -0.000226
    16  C    0.007216   0.000441   0.009572  -0.004901  -0.001196  -0.003650
    17  C    0.015622  -0.000055   0.000615  -0.000313   0.004119   0.001001
    18  O    0.000041   0.000000  -0.000887   0.000104   0.000221   0.000039
    19  H    0.000001   0.000000   0.000559   0.000043   0.000114  -0.000003
    20  C   -0.009760   0.000002  -0.000828  -0.000091   0.000297  -0.000038
    21  O   -0.000007   0.000000   0.000000   0.000000   0.000000   0.000000
    22  H    0.000000   0.000000   0.000000   0.000000   0.000000   0.000000
    23  C    0.599981   0.000007   0.000049  -0.000026   0.000064   0.000000
    24  O   -0.089846   0.000000   0.000000   0.000000   0.000003   0.000000
    25  H   -0.001724   0.000000   0.000000   0.000000   0.000000   0.000000
    26  C   -0.289474  -0.000017   0.000608  -0.000421  -0.001800  -0.000199
    27  O    0.007089   0.000000   0.000000   0.000000   0.000000   0.000000
    28  C    0.010367   0.000000   0.000039   0.000017   0.000054   0.000007
    29  O    0.000053   0.000000   0.000000   0.000000   0.000000   0.000000
    30  H    0.000000   0.000000   0.000000   0.000000   0.000000   0.000000
    31  H   -0.000014   0.000000   0.000000   0.000000   0.000000   0.000000
    32  H   -0.000002   0.000000   0.000000   0.000000   0.000000   0.000000
    33  H   -0.000011   0.000000   0.000001   0.000000   0.000000   0.000000
    34  H    0.002449   0.000000   0.000000   0.000000  -0.000023   0.000000
    35  H    0.008394   0.000000   0.000000   0.000000   0.000000   0.000000
    36  H   -0.044618   0.000000   0.000000   0.000000   0.000000   0.000000
    37  H    0.616099   0.000000   0.000000   0.000000   0.000000   0.000000
    38  H    0.000000   0.391477  -0.000012  -0.000099  -0.000140  -0.012653
    39  H    0.000000  -0.000012   0.592231  -0.051637  -0.007200   0.000027
    40  H    0.000000  -0.000099  -0.051637   0.620383   0.006432   0.004106
    41  H    0.000000  -0.000140  -0.007200   0.006432   0.603978   0.006064
    42  H    0.000000  -0.012653   0.000027   0.004106   0.006064   0.624405
    43  H    0.000000  -0.000137  -0.000005   0.000006   0.005974   0.008214
    44  H   -0.000017   0.000006   0.000000  -0.000007  -0.000024   0.002372
    45  H   -0.000014   0.000004  -0.000019  -0.000020   0.006754   0.000020
             43         44         45
     1  O   -0.007896  -0.000890  -0.000062
     2  C    0.145477   0.078472   0.011021
     3  C    0.167257  -0.174166  -0.050050
     4  O   -0.052352   0.006936  -0.000357
     5  H   -0.000068   0.000041   0.000000
     6  C   -0.329383   0.262910  -0.099164
     7  O    0.006111  -0.028624   0.002893
     8  H   -0.000170  -0.008407  -0.000791
     9  C    0.024852   0.007864   0.009622
    10  O   -0.000192   0.000005   0.000083
    11  H    0.000001   0.000000   0.000000
    12  C    0.019149   0.029453   0.005953
    13  O    0.002258   0.008280  -0.066312
    14  C    0.191834   0.036591   0.388736
    15  O    0.001298  -0.005580  -0.053523
    16  C    0.015100   0.030395   0.027329
    17  C    0.001973   0.002622   0.022988
    18  O    0.000074   0.000047  -0.001111
    19  H   -0.000003  -0.000004   0.000403
    20  C    0.000147   0.000914   0.010132
    21  O    0.000000   0.000000   0.000000
    22  H    0.000000   0.000000   0.000000
    23  C    0.001175   0.014350   0.002471
    24  O    0.000026   0.002148   0.000574
    25  H    0.000000   0.000016   0.000005
    26  C   -0.000603  -0.013652   0.013264
    27  O    0.000000   0.000010   0.000189
    28  C   -0.000006  -0.000140  -0.000994
    29  O    0.000000   0.000000  -0.000003
    30  H    0.000000   0.000000   0.000000
    31  H    0.000000   0.000000   0.000000
    32  H    0.000000   0.000000  -0.000008
    33  H    0.000000  -0.000004  -0.000007
    34  H   -0.000007   0.000005   0.009305
    35  H    0.000000  -0.000006  -0.000017
    36  H    0.000000   0.000003   0.000001
    37  H    0.000000  -0.000017  -0.000014
    38  H   -0.000137   0.000006   0.000004
    39  H   -0.000005   0.000000  -0.000019
    40  H    0.000006  -0.000007  -0.000020
    41  H    0.005974  -0.000024   0.006754
    42  H    0.008214   0.002372   0.000020
    43  H    0.666230   0.007603   0.004225
    44  H    0.007603   0.583251   0.004983
    45  H    0.004225   0.004983   0.626510
 Mulliken atomic charges:
              1
     1  O   -0.532430
     2  C   -0.110549
     3  C    0.066172
     4  O   -0.522002
     5  H    0.361668
     6  C    0.055245
     7  O   -0.503728
     8  H    0.407767
     9  C   -0.082804
    10  O   -0.529253
    11  H    0.355935
    12  C    0.136638
    13  O   -0.386222
    14  C    0.124804
    15  O   -0.354324
    16  C    0.059205
    17  C   -0.222259
    18  O   -0.470018
    19  H    0.383516
    20  C    0.240726
    21  O   -0.533970
    22  H    0.363993
    23  C   -0.155981
    24  O   -0.626256
    25  H    0.395531
    26  C    0.214016
    27  O   -0.325885
    28  C    0.117913
    29  O   -0.584994
    30  H    0.375704
    31  H    0.128722
    32  H    0.152888
    33  H    0.139765
    34  H    0.138371
    35  H    0.120415
    36  H    0.140042
    37  H    0.144862
    38  H    0.372471
    39  H    0.144229
    40  H    0.132090
    41  H    0.134710
    42  H    0.134208
    43  H    0.121837
    44  H    0.152244
    45  H    0.124988
 Sum of Mulliken atomic charges =   0.00000
 Mulliken charges with hydrogens summed into heavy atoms:
              1
     1  O   -0.159959
     2  C    0.023659
     3  C    0.188009
     4  O   -0.160334
     6  C    0.207489
     7  O   -0.095961
     9  C    0.193514
    10  O   -0.173318
    12  C    0.271348
    13  O   -0.386222
    14  C    0.249792
    15  O   -0.354324
    16  C    0.197575
    17  C   -0.082494
    18  O   -0.086502
    20  C    0.393615
    21  O   -0.169976
    23  C    0.128922
    24  O   -0.230725
    26  C    0.334431
    27  O   -0.325885
    28  C    0.246635
    29  O   -0.209290
 Sum of Mulliken charges with hydrogens summed into heavy atoms =   0.00000
 APT atomic charges:
              1
     1  O   -0.644321
     2  C    0.442154
     3  C    0.387731
     4  O   -0.662337
     5  H    0.282548
     6  C    0.355316
     7  O   -0.652688
     8  H    0.381551
     9  C    0.480655
    10  O   -0.610064
    11  H    0.248197
    12  C    0.416926
    13  O   -0.820641
    14  C    0.948095
    15  O   -0.889739
    16  C    0.411943
    17  C    0.380986
    18  O   -0.655319
    19  H    0.327417
    20  C    0.389652
    21  O   -0.622120
    22  H    0.259135
    23  C    0.467194
    24  O   -0.655702
    25  H    0.259718
    26  C    0.448549
    27  O   -0.780357
    28  C    0.913381
    29  O   -0.692133
    30  H    0.269770
    31  H   -0.073430
    32  H   -0.031049
    33  H   -0.044881
    34  H   -0.036907
    35  H   -0.049886
    36  H   -0.039775
    37  H   -0.047927
    38  H    0.270205
    39  H   -0.040186
    40  H   -0.058457
    41  H   -0.045214
    42  H   -0.055989
    43  H   -0.059265
    44  H   -0.018544
    45  H   -0.054191
 Sum of APT charges=   0.00000
 APT Atomic charges with hydrogens summed into heavy atoms:
              1
[...]
 902,-0.00053767,0.00069104,0.00241609,0.00108442,-0.00028456,-0.000474
 17,0.00027342,0.00010573,0.00014483,-0.00003527,0.00018938,0.00000610,
 0.00001014,-0.00003351,-0.00002881,0.00002817,0.00002653,0.00003457,-0
 .00003101,-0.00002166,-0.00003423,0.00001958,0.00002178,-0.00000563,-0
 .00000061,-0.00000661,0.00001156,-0.00001113,0.00000846,-0.00000181,0.
 00000026,-0.00000109,-0.00001233,0.00000623,-0.00000958,0.00007147,0.0
 0001066,0.00004699,-0.00002239,-0.00000438,0.00000419,-0.00001793,-0.0
 0000649,-0.00000919,0.00001693,-0.00001085,0.00001421,-0.00001641,0.00
 001774,-0.00001248,0.00000455,-0.00000348,0.00000467,-0.00000221,-0.00
 000030,-0.00000125,0.00000461,0.00000016,0.00000166,0.00000411,0.00000
 178,-0.00000282,0.00000594,0.00000052,0.00000751,0.00001092,0.00000251
 ,-0.00000818,0.00001008,-0.00000069,0.00000750,0.00000070,-0.00000010,
 0.00000546,0.00000607,-0.00000314,-0.00000663,0.00139389,0.00019000,-0
 .00075009,0.00028765,-0.00000101,-0.00002742,0.00056605,-0.00089477,-0
 .00005919,0.00046917,-0.00054083,0.00050407,0.37610034,-0.00836780,0.0
 0003598,-0.00557154,-0.03258755,-0.04904654,0.00629707,0.03292830,0.00
 311550,-0.00660418,-0.00260477,0.00201411,-0.00018191,0.00029454,-0.00
 001117,0.00045734,0.00013954,0.00162107,0.00092637,-0.00028641,-0.0003
 3106,0.00004713,-0.00008230,-0.00002756,0.00004463,-0.00186602,0.00163
 324,-0.00067661,0.00043757,0.00004256,0.00006421,-0.00002499,-0.000057
 16,0.00000694,-0.02873843,-0.00448394,0.00681102,0.00120536,0.00100309
 ,-0.00263822,0.00033898,-0.00039702,-0.00001691,-0.00000041,0.00009002
 ,-0.00004310,-0.00005213,0.00001618,-0.00000187,0.00000839,0.00000296,
 -0.00001412,0.00003113,-0.00000318,-0.00001460,-0.00002180,0.00000504,
 0.00002981,-0.00000848,-0.00000160,0.00000074,0.00000428,0.00000241,-0
 .00000121,-0.00000175,-0.00000010,-0.00000116,-0.00000024,-0.00000526,
 0.00000729,-0.00004106,-0.00000712,-0.00003778,0.00000998,0.00000407,-
 0.00000560,0.00000872,-0.00000413,0.00000568,-0.00000091,0.00000354,-0
 .00000563,-0.00000026,-0.00000324,0.00000442,0.00000074,0.00000073,-0.
 00000424,0.00000006,0.00000025,0.00000061,0.00000016,0.00000098,0.0000
 0036,0.00000165,0.00000006,-0.00000104,0.00000221,0.00000374,0.0000018
 0,0.00000632,-0.00000725,0.00000348,-0.00000002,0.00000229,0.00000007,
 -0.00000037,0.00000128,-0.00000337,-0.00000149,0.00000020,0.00000418,-
 0.00094872,0.00113811,-0.00023784,0.00037549,0.00027671,-0.00010747,0.
 00096927,-0.00015472,-0.00021767,-0.00054807,-0.00291699,0.00374440,0.
 03725227,0.05172226,-0.04198753,-0.00946966,-0.01666010,0.04182848,0.0
 0595630,-0.04575338,0.01440341,0.00125142,-0.00198617,-0.00086672,-0.0
 0029369,0.00128735,-0.00026740,-0.00066728,-0.00012939,0.00042415,0.00
 069778,0.00082579,-0.00024748,-0.00013058,-0.00008855,0.00001454,0.000
 02207,0.00002905,0.00016900,-0.00119698,0.00041524,-0.00011616,0.00002
 233,0.00014298,0.00002762,-0.00002027,0.00004670,0.02213052,0.00356492
 ,-0.00348976,-0.00018163,0.00010696,0.00185622,0.00071559,-0.00048114,
 -0.00026662,-0.00009021,0.00006670,-0.00020910,0.00000783,-0.00003425,
 0.00002061,0.00001946,-0.00000446,0.00000497,-0.00005264,0.00000123,-0
 .00000326,0.00005813,0.00000859,-0.00002691,0.00000750,-0.00000745,0.0
 0001399,-0.00001266,0.00001226,-0.00001679,0.00000237,-0.00000067,0.00
 000301,0.00000844,0.00000229,0.00000218,-0.00004782,-0.00001074,-0.000
 02728,0.00001384,0.00000390,0.00000018,0.00001728,0.00001602,0.0000152
 4,-0.00001166,0.00000608,-0.00002529,0.00001024,-0.00001358,0.00002445
 ,-0.00000060,0.00000251,-0.00001730,0.00000176,0.00000100,0.00000364,-
 0.00000301,-0.00000059,-0.00000180,-0.00000378,-0.00000097,0.00000347,
 -0.00000857,-0.00000487,-0.00001106,-0.00001041,0.00000036,0.00000881,
 -0.00000853,-0.00000098,-0.00000650,-0.00000198,-0.00000245,-0.0000037
 0,-0.00000355,0.00000248,0.00000553,-0.00325045,0.00053646,0.00306764,
 -0.00011381,-0.00014757,0.00001864,-0.00059420,0.00028731,0.00021279,0
 .00033335,0.00233584,-0.00308221,-0.03282346,0.00042322,0.06473965,0.0
 0158169,0.00052521,0.00037908,-0.02177051,0.00122900,0.00461881,-0.324
 05807,-0.06601995,0.04633522,0.01018830,-0.00329728,0.00519803,-0.0001
 0442,-0.00064388,-0.00035353,-0.01939149,-0.00492790,-0.00143209,0.002
 44269,0.00111809,0.00107018,0.00018034,0.00033055,0.00016598,0.0007535
 2,0.00034741,-0.00009683,0.00003017,-0.00000756,-0.00005856,-0.0000060
 9,0.00001673,0.00000335,-0.00070338,-0.00242554,0.00134135,0.00050120,
 0.00086023,-0.00068198,-0.00264254,-0.00209258,0.00135360,0.00115702,0
 .00021143,0.00024516,-0.00005167,0.00015444,-0.00027316,-0.00000284,0.
 00000083,-0.00003937,0.00005637,-0.00000500,0.00003870,-0.00003709,0.0
 0001245,0.00000855,-0.00002225,0.00001599,-0.00002593,0.00001985,-0.00
 001127,0.00002369,-0.00000351,0.00000081,-0.00000541,-0.00005823,-0.00
 008330,0.00008922,0.00013572,0.00007849,-0.00001969,-0.00001915,-0.000
 00429,0.00001869,0.00000144,-0.00005438,-0.00002924,0.00001794,0.00002
 760,0.00003101,-0.00001278,-0.00000771,-0.00003324,0.00000051,0.000004
 92,0.00002787,-0.00000205,-0.00000273,-0.00000635,0.00000488,0.0000018
 2,0.00000326,0.00000689,0.00000160,-0.00000286,0.00001364,0.00000218,0
 .00001008,0.00001451,0.00000328,-0.00005199,0.00001262,0.00000343,0.00
 001523,0.00000759,0.00001294,-0.00000989,0.00001878,0.00000033,-0.0000
 2210,0.00029031,-0.00022192,-0.00024947,0.00000202,0.00009544,0.000000
 24,0.00022316,-0.00040056,-0.00002707,0.00124308,0.00069966,-0.0008589
 8,-0.00026019,0.00267908,0.00110960,0.34883336,-0.00194743,0.00149979,
 0.00115374,0.03296284,-0.00032681,-0.00700201,-0.06764449,-0.05191237,
 0.00297553,-0.02189812,-0.01903393,0.02658852,-0.00148280,-0.00150862,
 -0.00020964,-0.01728126,-0.00240598,-0.00208522,0.00004073,0.00080508,
 0.00127077,-0.00003231,0.00008645,0.00008534,0.00034397,0.00009176,-0.
 00014005,-0.00010336,-0.00001153,-0.00002158,0.00000375,0.00001036,-0.
 00000079,0.00313835,0.00033748,-0.00106935,-0.00066226,0.00017577,-0.0
 0007155,0.00021269,-0.00032075,0.00218172,0.00053625,-0.00005511,-0.00
 008533,0.00001254,0.00008717,-0.00011012,0.00001091,0.00000435,-0.0000
 1103,-0.00000214,-0.00000251,-0.00000475,0.00000947,-0.00000173,0.0000
 1918,-0.00001288,0.00000166,-0.00000364,0.00000594,-0.00000159,-0.0000
 0020,-0.00000235,0.00000080,-0.00000165,-0.00005836,-0.00002791,0.0000
 2087,0.00015946,0.00003286,0.00001883,-0.00002942,-0.00000734,0.000002
 54,-0.00000563,0.00000168,0.00000460,0.00000991,-0.00000126,-0.0000014
 0,-0.00000471,0.00000482,-0.00000560,0.00000183,-0.00000013,0.00000219
 ,-0.00000051,-0.00000026,-0.00000103,0.00000193,-0.00000109,0.00000101
 ,0.00000182,0.00000207,0.00000011,0.00000051,-0.00000330,0.00000282,-0
 .00000079,0.00001058,-0.00002770,0.00000587,-0.00000567,0.00000512,0.0
 0000877,0.00000370,-0.00000698,0.00001829,0.00000070,-0.00002003,0.000
 05428,0.00015838,0.00045235,-0.00009641,0.00003320,0.00001931,-0.00023
 030,-0.00009000,0.00007830,0.00005088,-0.00072900,0.00014566,0.0024433
 1,-0.00476629,-0.00252936,0.07143752,0.07784041,-0.00091970,0.00054703
 ,0.00153180,0.01668233,-0.00090558,-0.00082781,0.05006952,0.00321321,-
 0.04707576,0.02288627,0.02560803,-0.02093836,0.00201238,0.00150367,-0.
 00045147,-0.03259272,-0.01059432,-0.00120231,0.00094465,0.00159007,0.0
 0220802,-0.00047319,0.00043569,0.00015736,-0.00018478,-0.00012783,-0.0
 0009036,-0.00002633,-0.00001478,0.00000828,-0.00000081,-0.00000120,-0.
 00000366,-0.00059743,0.00209830,0.00025733,0.00051493,-0.00031142,-0.0
 0001253,-0.00289736,-0.00039815,-0.00125323,0.00020645,0.00001585,0.00
 033070,0.00009626,0.00004457,0.00006833,-0.00000203,-0.00002400,-0.000
 00055,0.00000463,0.00001322,0.00002070,-0.00001074,-0.00000521,-0.0000
 2674,-0.00000172,-0.00000264,0.00000529,-0.00000387,0.00001046,-0.0000
 0581,0.00000116,-0.00000112,0.00000010,-0.00005866,-0.00005351,0.00003
 851,0.00016127,0.00000676,-0.00003019,-0.00001296,0.00000858,-0.000020
 61,-0.00000304,-0.00001931,0.00002168,0.00000465,0.00002386,-0.0000223
 1,0.00000526,-0.00002133,0.00001660,0.00000136,0.00000476,-0.00001164,
 0.00000066,0.00000037,0.00000229,-0.00000010,0.00000162,0.00000025,-0.
 00000056,0.00000071,-0.00000119,0.00000322,0.00000102,0.00000435,0.000
 02591,0.00001697,-0.00004061,0.00000522,-0.00000479,0.00000908,0.00000
 863,0.00000792,-0.00001848,0.00001797,0.00000555,-0.00002202,-0.000141
 83,0.00038922,0.00018551,-0.00004625,-0.00002156,0.00000270,-0.0001195
 4,0.00014413,-0.00000365,-0.00048253,0.00007219,0.00049706,0.00124159,
 -0.00211135,-0.00086134,-0.05484348,-0.01955823,0.07398493,0.00021658,
 0.00002809,-0.00002788,-0.00034932,0.00036879,-0.00012565,-0.00752083,
 -0.00543561,0.00006770,0.00106392,0.00085705,0.00011881,0.00006978,0.0
 0003961,0.00000951,-0.32127772,-0.10955203,0.01138992,-0.02215409,0.00
 453728,0.00682134,-0.00081592,0.00014389,-0.00168223,0.00001348,-0.000
 02848,-0.00001627,0.00002491,0.00001585,-0.00000020,-0.00000640,-0.000
 00209,0.00000222,0.00015632,0.00013640,0.00010331,0.00075328,-0.001507
 24,0.00003166,-0.00011466,-0.00003340,-0.00103262,0.00063504,0.0002081
 9,-0.00013168,0.00013606,0.00006786,0.00019270,0.00001646,0.00001543,-
 0.00001715,0.00001031,0.00000798,-0.00000579,-0.00001710,-0.00002594,-
 0.00002154,-0.00001761,0.00000540,0.00001681,0.00000639,0.00000437,-0.
 00001612,-0.00000359,0.00000038,-0.00000073,-0.00013483,-0.00002617,0.
 00003413,0.00060319,-0.00005407,0.00011192,-0.00006768,-0.00003367,-0.
 00004179,-0.00002688,0.00003704,0.00002646,0.00002610,-0.00001797,-0.0
 0002755,-0.00001004,0.00001050,0.00001400,0.00000698,-0.00000302,-0.00
 001462,-0.00000061,0.00000157,0.00000186,0.00000410,-0.00000104,0.0000
 0103,0.00000240,0.00000212,-0.00000124,0.00000257,-0.00000702,0.000010
 45,-0.00001259,0.00005252,-0.00016734,0.00001385,-0.00001924,0.0000100
 9,0.00002817,-0.00000404,-0.00001035,0.00006163,0.00000302,-0.00008715
 ,-0.00003744,-0.00009177,-0.00003287,-0.00000263,0.00000957,-0.0000049
 0,0.00001810,-0.00001617,-0.00000445,-0.00001434,0.00013009,-0.0000179
 8,0.00036531,-0.00041670,-0.00026970,0.00019740,-0.00057253,-0.0009363
 3,0.34783500,0.00022908,0.00001714,-0.00005247,-0.00086871,0.00061447,
 0.00048279,-0.00985987,-0.00391417,0.00208694,0.00111293,0.00093123,-0
 .00051248,-0.00000376,0.00002533,0.00004419,-0.11099336,-0.08673530,0.
 00528122,0.03310279,0.00232272,-0.00602100,0.00088073,0.00156628,0.001
 80041,0.00000729,0.00005243,0.00003089,0.00002426,-0.00002744,-0.00001
 708,-0.00000565,0.00000569,0.00000474,-0.00007923,0.00004887,0.0001529
 5,0.00159869,0.00099182,-0.00032741,-0.02676311,-0.00799279,-0.0009946
 9,0.00111616,0.00139767,-0.00164119,-0.00001893,0.00027588,0.00008714,
 0.00004930,-0.00004144,-0.00015394,0.00008281,0.00001655,0.00009074,-0
 .00010074,-0.00000189,-0.00006856,-0.00002708,0.00002240,0.00000929,0.
 00000912,0.00002174,-0.00000798,-0.00000535,-0.00000307,-0.00000564,0.
 00006258,-0.00000963,0.00011931,-0.00035844,-0.00028207,-0.00015321,0.
 00008395,0.00001712,-0.00014977,0.00002747,-0.00005076,0.00005327,-0.0
 0000140,0.00004166,-0.00001821,0.00000606,-0.00004486,0.00002030,0.000
 00260,0.00001377,-0.00000756,0.00000010,-0.00000114,0.00000200,-0.0000
 0002,0.00000377,0.00000112,0.00000595,0.00000371,-0.00000783,0.0000234
 0,-0.00000525,0.00002859,0.00015398,0.00001977,-0.00016422,0.00001246,
 0.00002352,0.00001982,-0.00002407,0.00000337,0.00000476,-0.00003499,0.
 00000756,0.00004300,-0.00000415,-0.00002377,-0.00002522,-0.00000152,-0
 .00001350,-0.00001105,0.00004417,-0.00004860,-0.00002529,0.00019452,0.
 00012161,-0.00000655,0.00036330,-0.00032706,-0.00028170,-0.00046972,-0
 .00049931,-0.00203476,0.11052741,0.09475299,0.00045197,0.00014534,-0.0
 0032237,-0.00133851,0.00167226,0.00125988,-0.03018649,-0.01447304,0.00
 238268,0.00247943,0.00116971,0.00267046,0.00014225,-0.00019232,0.00025
 073,0.00883242,0.00475835,-0.04335894,0.01333590,-0.00168092,-0.000587
 72,0.00176862,0.00038946,0.00091348,0.00001230,-0.00000226,0.00004799,
 0.00000718,0.00001915,0.00002345,0.00000564,0.00000026,0.00000603,-0.0
 0046795,-0.00027022,-0.00039644,-0.00116410,0.00031928,0.00036923,0.02
 148107,0.01014545,-0.00128804,-0.00022277,-0.00127703,0.00239520,0.000
 29285,-0.00018656,-0.00015961,-0.00007423,0.00004253,0.00019425,-0.000
 06151,-0.00004509,-0.00010439,0.00007538,0.00001294,0.00010469,0.00003
 630,-0.00002484,-0.00002036,-0.00000245,-0.00004484,0.00002492,0.00000
 625,0.00000505,0.00000598,0.00024657,0.00023163,-0.00020696,-0.0004394
 4,-0.00020059,0.00017477,0.00003904,-0.00003088,0.00006169,-0.00002841
 ,0.00006207,-0.00006286,-0.00001902,-0.00008922,0.00009751,-0.00001396
 ,0.00008351,-0.00005789,-0.00000961,-0.00002318,0.00003479,-0.00000049
 ,0.00000055,-0.00000557,-0.00000121,-0.00000477,-0.00000187,-0.0000061
 0,-0.00000527,0.00000827,-0.00003683,0.00001277,-0.00002672,-0.0002287
 0,-0.00005791,0.00009517,-0.00003518,0.00000127,-0.00004933,-0.0000404
 4,-0.00003517,0.00007545,-0.00008385,-0.00001349,0.00007059,0.00003781
 ,-0.00011489,-0.00007324,0.00001201,-0.00003227,0.00000897,0.00001021,
 -0.00002405,0.00000010,0.00018777,-0.00001582,-0.00016166,0.00075907,-
 0.00035833,-0.00024090,-0.00254326,-0.00253848,-0.00516308,-0.01367843
 ,-0.00019560,0.04321405,0.00009636,-0.00013572,0.00027582,0.00013206,0
 .00063394,-0.00005370,-0.00094036,-0.00028437,-0.00080066,0.00042859,0
 .00031864,-0.00046935,0.00000794,0.00006958,0.00009070,-0.00520824,-0.
 00001448,0.00093031,0.00222373,0.00057917,-0.00136981,-0.00024177,-0.0
 0014996,0.00002229,0.00061291,-0.00006088,-0.00000123,0.00003360,0.000
 25250,0.00011696,-0.00000888,0.00000430,0.00003471,-0.00009609,-0.0011
 6346,-0.00172281,-0.01570749,0.01064713,0.00787537,-0.33226148,-0.0671
 1802,0.05639093,-0.01775252,-0.00510947,-0.00899560,0.00072443,-0.0004
 8750,0.00314853,0.00019001,0.00017456,-0.00018107,0.00038271,-0.000022
 62,-0.00013357,-0.00032258,-0.00025236,0.00040607,-0.00005417,0.000057
 77,0.00003409,0.00002692,0.00003061,-0.00003487,-0.00001655,-0.0000036
 5,-0.00001296,-0.00022538,0.00010498,0.00012949,0.00015127,-0.00007883
 ,0.00001936,-0.00000874,-0.00002550,-0.00003871,0.00046645,0.00002980,
 0.00002027,0.00001239,-0.00005624,-0.00021411,0.00000319,-0.00004608,0
 .00005724,0.00001204,0.00001138,-0.00003782,0.00000105,0.00000176,0.00
 000390,0.00000499,0.00000838,0.00000198,0.00001950,0.00001996,-0.00003
 807,0.00010327,-0.00015954,0.00018372,0.00107108,0.00043803,-0.0013949
 1,0.00013536,0.00014050,0.00026597,0.00003582,-0.00000600,-0.00001101,
 0.00007444,-0.00003972,-0.00002794,0.00000446,0.00000250,0.00000929,-0
 .00002843,-0.00003099,0.00001153,0.00013557,-0.00026184,-0.00012355,0.
 00081993,0.00050520,0.00106651,0.00009957,-0.00009337,-0.00032913,0.00
 121123,0.00059622,-0.00053835,0.00031698,-0.00010103,0.00046291,0.3633
 3483,-0.00007665,0.00030815,-0.00025215,-0.00024492,-0.00052253,-0.000
 11789,-0.00175606,-0.00048435,-0.00126851,0.00067271,0.00011873,0.0002
 1639,0.00015465,-0.00002658,-0.00000082,-0.02666717,-0.00660294,0.0076
 8210,0.00038498,0.00332017,-0.00105962,-0.00054668,-0.00042099,0.00000
 447,0.00021715,0.00018524,0.00009490,-0.00019948,-0.00021490,-0.000109
 81,0.00000059,0.00002298,-0.00001898,0.00447391,0.00198914,0.00363012,
 0.03637043,-0.00959958,-0.01526259,-0.06886566,-0.05699257,0.01557606,
 -0.00641369,0.00290956,-0.00208572,0.00088382,-0.00023818,0.00107821,0
 .00020404,-0.00007261,-0.00004487,-0.00022700,0.00012651,0.00013712,0.
 00017382,-0.00002095,-0.00053587,0.00000198,0.00003354,0.00008298,-0.0
 0002204,0.00006095,-0.00006897,-0.00000967,-0.00000630,-0.00000177,-0.
 00016865,0.00003169,-0.00000311,0.00015310,-0.00000067,0.00003030,-0.0
 0002026,-0.00001266,-0.00001180,0.00004978,0.00016321,0.00011596,-0.00
 000729,-0.00002001,-0.00014729,0.00001949,-0.00004889,0.00010021,0.000
 01000,0.00001174,-0.00006334,0.00000337,0.00000187,0.00001194,-0.00000
 221,-0.00000113,-0.00000431,-0.00000841,-0.00000345,0.00000163,0.00001
 122,-0.00005830,0.00003627,0.00034999,0.00028886,-0.00030338,0.0000062
 1,-0.00000909,0.00005941,0.00003430,-0.00002137,-0.00000925,0.00005134
 ,-0.00003130,-0.00004192,-0.00000699,0.00001337,0.00001519,0.00005135,
 -0.00000127,0.00000643,-0.00021680,-0.00000945,0.00001414,-0.00129903,
 0.00008679,0.00018168,-0.00003621,-0.00018500,-0.00002879,0.00080413,0
 .00052339,0.00044733,0.00063775,-0.00329702,0.00286547,0.06107475,0.06
 870621,-0.00002280,-0.00001971,-0.00023532,-0.00028041,0.00015084,-0.0
 0009045,0.00184210,0.00114724,-0.00010717,-0.00046916,-0.00022971,0.00
 002214,0.00001982,-0.00003925,0.00002547,0.02005540,0.00622823,-0.0007
 5174,-0.00162040,-0.00168404,0.00092938,-0.00009396,-0.00006821,-0.000
 09956,0.00002313,0.00001762,0.00000280,-0.00011755,-0.00015388,-0.0000
 9593,0.00000683,0.00001244,-0.00001576,0.00329052,0.00050901,0.0026984
 6,0.01465859,-0.00728811,-0.00273418,0.06095296,0.01841196,-0.05574522
 ,-0.03775481,-0.00690430,-0.01271737,-0.00547408,-0.00232724,0.0045248
 6,0.00010515,0.00011980,-0.00044878,0.00009474,0.00008680,0.00022611,-
 0.00016035,-0.00015746,-0.00036633,0.00001596,0.00008065,0.00005526,0.
 00000890,0.00006236,-0.00003641,-0.00001109,-0.00000616,-0.00001212,-0
 .00013338,0.00021426,0.00011602,0.00002032,-0.00018498,0.00009375,0.00
 002853,-0.00003157,-0.00006846,-0.00016283,-0.00009462,-0.00002962,0.0
 0015146,0.00007394,-0.00023936,0.00000726,-0.00012585,0.00008574,0.000
 01064,0.00002940,-0.00005169,0.00000229,0.00000116,0.00000861,0.000000
 20,0.00000490,0.00001012,0.00002318,0.00002088,-0.00005314,0.00026417,
 -0.00006219,0.00005158,0.00158255,0.00035336,-0.00004116,0.00025090,0.
 00005244,0.00003993,0.00000624,-0.00002217,0.00000410,0.00002241,-0.00
 003847,-0.00000246,-0.00002436,0.00000179,-0.00000890,0.00000914,0.000
 03286,-0.00000334,-0.00015413,0.00003676,-0.00000022,-0.00074448,-0.00
 023536,-0.00007502,-0.00018712,-0.00002502,0.00015929,-0.00042242,0.00
 047722,-0.00126716,-0.00059136,0.00251994,-0.00220235,-0.05502870,-0.0
 1094758,0.06844563\\0.01177349,-0.01405194,-0.00911894,-0.01457573,0.0
 1234785,-0.00352751,0.03281534,-0.02507415,0.04623704,-0.01583139,0.00
 107295,0.01847523,0.00318486,-0.00842901,-0.02749883,0.01531179,0.0221
 6967,0.02143585,-0.02879580,0.00989421,-0.01779919,0.01171854,-0.00213
 517,0.01313819,0.00208133,0.00759577,0.01188370,0.00112002,0.02026055,
 -0.00372158,0.00585499,-0.03131108,0.00533953,-0.01067821,0.00844402,0
 .00572605,0.00583450,-0.00915090,0.00798779,-0.03342186,0.01161583,-0.
 05488235,0.00622241,-0.00720461,0.00292282,-0.00408254,-0.00478181,-0.
 00023803,0.00217127,0.02860611,0.00598676,-0.00193844,-0.02660552,0.01
 351024,0.01076493,0.02100738,-0.01055529,-0.01053014,0.00014393,0.0032
 4017,0.01056168,0.01575498,-0.01045130,-0.00947361,-0.01797770,0.02540
 718,0.02790372,-0.02864796,-0.01013451,-0.01319094,-0.00489305,0.01852
 433,0.00435053,0.03360199,-0.00584740,-0.03312828,-0.02022536,0.008147
 01,0.01640856,0.02396589,0.01251141,0.00815878,0.00044674,-0.03656230,
 0.01115519,-0.01400221,0.01346124,-0.00415716,-0.00409196,-0.00151837,
 -0.02109399,-0.00254769,0.00036888,0.01804526,0.00485219,0.00007436,-0
 .02066241,-0.00614061,-0.00210312,0.01918365,0.00295109,0.00514613,-0.
 02486406,0.00167753,0.00240352,-0.00465490,-0.00366307,-0.01820221,0.0
 2232220,-0.00461647,-0.00312317,-0.00295302,0.00328266,0.00057337,0.00
 058877,0.00440284,-0.01850208,-0.02121792,-0.00282283,0.00192179,0.020
 82292,0.00325261,-0.00202754,-0.02113978,0.00023774,0.00118275,0.02436
 990,0.00441530,-0.00621860,-0.01631076,-0.00660776,-0.00190968,0.01997
 632,0.00298102,-0.00166335\\\@


 HAPPINESS IS NOT HAVING WHAT YOU WANT --
 HAPPINESS IS WANTING WHAT YOU HAVE!

              -- FROM MRS. SEVERN'S DESK
 Job cpu time:  0 days 13 hours  3 minutes  2.0 seconds.
 File lengths (MBytes):  RWF=   1324 Int=      0 D2E=      0 Chk=     19 Scr=      1
 Normal termination of Gaussian 09 at Thu Jan 21 17:57:37 2016.
Gaussian '09 finished on node024 at Thu Jan 21 17:57:37 EST 2016.
