Gaussian '09 started on node002 at Mon Feb 29 14:22:29 EST 2016.
 Entering Gaussian System, Link 0=/usr/local/gaussian/g09/g09
 Initial command:
 /usr/local/gaussian/g09/l1.exe /home/srmcgrat/thesis/gaussian/cellobiose/320/8000/2/gdp/gaussian12296/Gau-12332.inp -scrdir=/home/srmcgrat/thesis/gaussian/cellobiose/320/8000/2/gdp/gaussian12296/
 Entering Link 1 = /usr/local/gaussian/g09/l1.exe PID=     12334.
  
 Copyright (c) 1988,1990,1992,1993,1995,1998,2003,2009,2010,
            Gaussian, Inc.  All Rights Reserved.
  
 This is part of the Gaussian(R) 09 program.  It is based on
 the Gaussian(R) 03 system (copyright 2003, Gaussian, Inc.),
 the Gaussian(R) 98 system (copyright 1998, Gaussian, Inc.),
 the Gaussian(R) 94 system (copyright 1995, Gaussian, Inc.),
 the Gaussian 92(TM) system (copyright 1992, Gaussian, Inc.),
 the Gaussian 90(TM) system (copyright 1990, Gaussian, Inc.),
 the Gaussian 88(TM) system (copyright 1988, Gaussian, Inc.),
 the Gaussian 86(TM) system (copyright 1986, Carnegie Mellon
 University), and the Gaussian 82(TM) system (copyright 1983,
 Carnegie Mellon University). Gaussian is a federally registered
 trademark of Gaussian, Inc.
  
 This software contains proprietary and confidential information,
 including trade secrets, belonging to Gaussian, Inc.
  
 This software is provided under written license and may be
 used, copied, transmitted, or stored only in accord with that
 written license.
  
 The following legend is applicable only to US Government
 contracts under FAR:
  
                    RESTRICTED RIGHTS LEGEND
  
 Use, reproduction and disclosure by the US Government is
 subject to restrictions as set forth in subparagraphs (a)
 and (c) of the Commercial Computer Software - Restricted
 Rights clause in FAR 52.227-19.
  
 Gaussian, Inc.
 340 Quinnipiac St., Bldg. 40, Wallingford CT 06492
  
  
 ---------------------------------------------------------------
 Warning -- This program may not be used in any manner that
 competes with the business of Gaussian, Inc. or will provide
 assistance to any competitor of Gaussian, Inc.  The licensee
 of this program is prohibited from giving any competitor of
 Gaussian, Inc. access to this program.  By using this program,
 the user acknowledges that Gaussian, Inc. is engaged in the
 business of creating and licensing software in the field of
 computational chemistry and represents and warrants to the
 licensee that it is not a competitor of Gaussian, Inc. and that
 it will not use this program in any manner prohibited above.
 ---------------------------------------------------------------
  

 Cite this work as:
 Gaussian 09, Revision B.01,
 M. J. Frisch, G. W. Trucks, H. B. Schlegel, G. E. Scuseria, 
 M. A. Robb, J. R. Cheeseman, G. Scalmani, V. Barone, B. Mennucci, 
 G. A. Petersson, H. Nakatsuji, M. Caricato, X. Li, H. P. Hratchian, 
 A. F. Izmaylov, J. Bloino, G. Zheng, J. L. Sonnenberg, M. Hada, 
 M. Ehara, K. Toyota, R. Fukuda, J. Hasegawa, M. Ishida, T. Nakajima, 
 Y. Honda, O. Kitao, H. Nakai, T. Vreven, J. A. Montgomery, Jr., 
 J. E. Peralta, F. Ogliaro, M. Bearpark, J. J. Heyd, E. Brothers, 
 K. N. Kudin, V. N. Staroverov, T. Keith, R. Kobayashi, J. Normand, 
 K. Raghavachari, A. Rendell, J. C. Burant, S. S. Iyengar, J. Tomasi, 
 M. Cossi, N. Rega, J. M. Millam, M. Klene, J. E. Knox, J. B. Cross, 
 V. Bakken, C. Adamo, J. Jaramillo, R. Gomperts, R. E. Stratmann, 
 O. Yazyev, A. J. Austin, R. Cammi, C. Pomelli, J. W. Ochterski, 
 R. L. Martin, K. Morokuma, V. G. Zakrzewski, G. A. Voth, 
 P. Salvador, J. J. Dannenberg, S. Dapprich, A. D. Daniels, 
 O. Farkas, J. B. Foresman, J. V. Ortiz, J. Cioslowski, 
 and D. J. Fox, Gaussian, Inc., Wallingford CT, 2010.
 
 ******************************************
 Gaussian 09:  EM64L-G09RevB.01 12-Aug-2010
                29-Feb-2016 
 ******************************************
 ------------------------------------------------
 # freq=raman b3lyp/6-31+g(d,p) geom=connectivity
 ------------------------------------------------
 1/10=4,30=1,38=1,57=2/1,3;
 2/12=2,17=6,18=5,40=1/2;
 3/5=1,6=6,7=111,11=2,16=1,25=1,30=1,71=2,74=-5/1,2,3;
 4//1;
 5/5=2,38=5,98=1/2;
 8/6=4,10=90,11=11/1;
 10/13=10,15=4/2;
 11/6=3,8=1,9=11,15=111,16=1/1,2,10;
 10/6=1/2;
 6/7=2,8=2,9=2,10=2,18=1,28=1/1;
 7/8=1,10=1,25=1/1,2,3,16;
 1/10=4,30=1/3;
 99//99;
 ------------
 320 8000.com
 ------------
 Symbolic Z-matrix:
 Charge =  0 Multiplicity = 1
 O                     7.78      7.416     22.712 
 C                     8.187     7.789     24.037 
 C                     7.701     9.162     24.472 
 O                     8.133     10.116    23.491 
 H                     7.9       9.823     22.564 
 C                     8.34      9.478     25.814 
 O                     8.025     10.784    26.319 
 H                     8.083     10.867    27.313 
 C                     8.353     5.38      24.85 
 O                     8.01      4.687     23.641 
 H                     8.359     3.752     23.701 
 C                     7.753     6.76      25.068 
 O                     8.381     7.137     26.302 
 C                     7.928     8.402     26.805 
 O                     8.634     8.595     28.039 
 C                     7.975     8.207     29.254 
 C                     8.512     6.861     29.711 
 O                     8.401     5.823     28.726 
 H                     8.478     6.343     27.876 
 C                     7.889     6.432     31.03 
 O                     8.415     5.21      31.567 
 H                     8.235     5.121     32.547 
 C                     8.038     10.701    30.27 
 O                     8.173     11.446    29.05 
 H                     8.016     12.402    29.296 
 C                     8.298     9.206     30.353 
 O                     7.791     8.795     31.631 
 C                     8.237     7.498     32.055 
 O                     7.5       7.307     33.272 
 H                     8.55722   7.2633    22.16958 
 H                     8.05895   4.76328   25.67347 
 H                     9.41798   5.47996   24.8771 
 H                     6.68835   6.71852   25.1665 
 H                     9.25668   7.81451   24.04351 
 H                     6.63432   9.17027   24.55576 
 H                     9.40157   9.42272   25.6919 
 H                     6.86927   8.40063   26.95989 
 H                     8.11242   7.19238   34.00234 
 H                     8.68848   11.16332   30.98277 
 H                     7.03588   10.85531   30.61181 
 H                     9.3615    9.13668   30.44822 
 H                     6.91732   8.15208   29.10169 
 H                     9.5573    6.99635   29.89521 
 H                     6.82658   6.35856   30.92622 
 H                     9.28911   7.50684   32.24964 
 

 GradGradGradGradGradGradGradGradGradGradGradGradGradGradGradGradGradGrad
 Berny optimization.
 Initialization pass.
 Trust Radius=3.00D-01 FncErr=1.00D-07 GrdErr=1.00D-07
 Number of steps in this run=      2 maximum allowed number of steps=      2.
 GradGradGradGradGradGradGradGradGradGradGradGradGradGradGradGradGradGrad

                          Input orientation:                          
 ---------------------------------------------------------------------
 Center     Atomic      Atomic             Coordinates (Angstroms)
 Number     Number       Type             X           Y           Z
 ---------------------------------------------------------------------
      1          8           0        7.780000    7.416000   22.712000
      2          6           0        8.187000    7.789000   24.037000
      3          6           0        7.701000    9.162000   24.472000
      4          8           0        8.133000   10.116000   23.491000
      5          1           0        7.900000    9.823000   22.564000
      6          6           0        8.340000    9.478000   25.814000
      7          8           0        8.025000   10.784000   26.319000
      8          1           0        8.083000   10.867000   27.313000
      9          6           0        8.353000    5.380000   24.850000
     10          8           0        8.010000    4.687000   23.641000
     11          1           0        8.359000    3.752000   23.701000
     12          6           0        7.753000    6.760000   25.068000
     13          8           0        8.381000    7.137000   26.302000
     14          6           0        7.928000    8.402000   26.805000
     15          8           0        8.634000    8.595000   28.039000
     16          6           0        7.975000    8.207000   29.254000
     17          6           0        8.512000    6.861000   29.711000
     18          8           0        8.401000    5.823000   28.726000
     19          1           0        8.478000    6.343000   27.876000
     20          6           0        7.889000    6.432000   31.030000
     21          8           0        8.415000    5.210000   31.567000
     22          1           0        8.235000    5.121000   32.547000
     23          6           0        8.038000   10.701000   30.270000
     24          8           0        8.173000   11.446000   29.050000
     25          1           0        8.016000   12.402000   29.296000
     26          6           0        8.298000    9.206000   30.353000
     27          8           0        7.791000    8.795000   31.631000
     28          6           0        8.237000    7.498000   32.055000
     29          8           0        7.500000    7.307000   33.272000
     30          1           0        8.557218    7.263304   22.169582
     31          1           0        8.058953    4.763282   25.673465
     32          1           0        9.417976    5.479964   24.877100
     33          1           0        6.688351    6.718516   25.166497
     34          1           0        9.256676    7.814506   24.043506
     35          1           0        6.634315    9.170269   24.555757
     36          1           0        9.401572    9.422722   25.691897
     37          1           0        6.869271    8.400627   26.959889
     38          1           0        8.112420    7.192377   34.002345
     39          1           0        8.688480   11.163317   30.982768
     40          1           0        7.035877   10.855313   30.611813
     41          1           0        9.361497    9.136676   30.448225
     42          1           0        6.917321    8.152077   29.101691
     43          1           0        9.557299    6.996349   29.895205
     44          1           0        6.826580    6.358562   30.926216
     45          1           0        9.289110    7.506845   32.249644
 ---------------------------------------------------------------------
                    Distance matrix (angstroms):
                    1          2          3          4          5
     1  O    0.000000
     2  C    1.435410   0.000000
     3  C    2.480395   1.520049   0.000000
     4  O    2.832216   2.390808   1.434957   0.000000
     5  H    2.414530   2.527697   2.029036   0.999733   0.000000
     6  C    3.766676   2.456391   1.519586   2.417896   3.297745
     7  O    4.941042   3.768792   2.479369   2.907829   3.878037
     8  H    5.759376   4.496340   3.335301   3.895406   4.865843
     9  C    3.007436   2.547902   3.856360   4.932036   5.017096
    10  O    2.891951   3.132180   4.561981   5.432464   5.248859
    11  H    3.839044   4.054608   5.504135   6.371473   6.193585
    12  C    2.445772   1.519920   2.475384   3.727474   3.958989
    13  O    3.650636   2.364945   2.812814   4.103373   4.628023
    14  C    4.212689   2.846871   2.464147   3.736632   4.472819
    15  O    5.522344   4.106757   3.730344   4.821695   5.658831
    16  C    6.592531   5.238011   4.884120   6.073007   6.882818
    17  C    7.059026   5.758566   5.779225   7.030439   7.760644
    18  O    6.252318   5.088976   5.453021   6.775463   7.363508
    19  H    5.320285   4.112605   4.487506   5.795065   6.376663
    20  C    8.376709   7.129678   7.106026   8.394517   9.119877
    21  O    9.147715   7.962671   8.152737   9.453578  10.129117
    22  H   10.109465   8.918555   9.045466  10.342706  11.039987
    23  C    8.245068   6.881296   6.008236   6.804858   7.757085
    24  O    7.521010   6.205160   5.137852   5.716028   6.691551
    25  H    8.262260   6.997578   5.819605   6.239993   7.210029
    26  C    7.864942   6.473953   5.911388   6.924043   7.823530
    27  O    9.024983   7.670573   7.168966   8.253581   9.125741
    28  C    9.354529   8.023435   7.781907   8.955827   9.777437
    29  O   10.564274   9.273053   8.995634  10.196035  11.006885
    30  H    0.960000   1.975010   3.104719   3.172377   2.671992
    31  H    3.985600   3.442294   4.573879   5.781023   5.940942
    32  H    3.334495   2.748221   4.082830   5.006523   5.149432
    33  H    2.775380   2.160474   2.734666   4.054282   4.228345
    34  H    2.027878   1.070000   2.102255   2.620074   2.839640
    35  H    2.790966   2.141925   1.070000   2.067407   2.448491
    36  H    3.941601   2.623531   2.109045   2.633221   3.492661
    37  H    4.454602   3.264012   2.731493   4.070959   4.733855
    38  H   11.297451   9.983467   9.740439  10.910379  11.738868
    39  H    9.125422   7.738294   6.882622   7.584986   8.561180
    40  H    8.648101   7.345443   6.403671   7.242668   8.159637
    41  H    8.081524   6.655786   6.202673   7.132409   8.047858
    42  H    6.489544   5.234024   4.802931   6.067514   6.819021
    43  H    7.411702   6.068326   6.127564   7.264619   8.030141
    44  H    8.336698   7.166463   7.090894   8.432527   9.114890
    45  H    9.656724   8.291067   8.108846   9.211847  10.055143
                    6          7          8          9         10
     6  C    0.000000
     7  O    1.435230   0.000000
     8  H    2.059702   0.999144   0.000000
     9  C    4.209878   5.609702   6.020501   0.000000
    10  O    5.271101   6.659228   7.188972   1.435123   0.000000
    11  H    6.103459   7.510959   7.984106   1.992642   0.999813
    12  C    2.878994   4.222743   4.692161   1.520501   2.529764
    13  O    2.391674   3.664374   3.876058   2.279504   3.636078
    14  C    1.519737   2.433008   2.521570   3.624243   4.880455
    15  O    2.411794   2.849737   2.447991   4.537059   5.916438
    16  C    3.685413   3.906105   3.294654   5.246907   6.625511
    17  C    4.697327   5.208912   4.688548   5.084089   6.467084
    18  O    4.673595   5.526893   5.247821   3.901529   5.224998
    19  H    3.754879   4.727784   4.575977   3.177998   4.571278
    20  C    6.057076   6.414976   5.789901   6.286048   7.593220
    21  O    7.163690   7.665708   7.085788   6.719437   7.953555
    22  H    8.020459   8.420312   7.773955   7.702260   8.919407
    23  C    4.630645   3.951893   2.961998   7.601886   8.950565
    24  O    3.791122   2.813985   1.833169   7.380295   8.658402
    25  H    4.558407   3.388294   2.508586   8.317991   9.565578
    26  C    4.547336   4.340250   3.470842   6.702560   8.096620
    27  O    5.882634   5.676990   4.798288   7.613148   8.986864
    28  C    6.548365   6.613958   5.818973   7.510753   8.874043
    29  O    7.812849   7.791621   6.965857   8.681649   9.994031
    30  H    4.270110   5.467744   6.298115   3.282252   3.016929
    31  H    4.725178   6.055321   6.320129   1.070000   2.034485
    32  H    4.245481   5.670296   6.061017   1.070000   2.034485
    33  H    3.280542   4.432049   4.874674   2.159363   2.863730
    34  H    2.596566   3.938629   4.624373   2.719169   3.390797
    35  H    2.141783   2.765350   3.546826   4.172121   4.777969
    36  H    1.070000   2.035015   2.540186   4.260504   5.345065
    37  H    2.153332   2.725237   2.771430   3.972061   5.109531
    38  H    8.504402   8.481815   7.632237   9.333167  10.660435
    39  H    5.447742   4.725973   3.731167   8.436240   9.813490
    40  H    5.159142   4.405871   3.461037   8.056821   9.358912
    41  H    4.757730   4.642241   3.802395   6.816877   8.244057
    42  H    3.819817   3.987148   3.453844   5.274700   6.558952
    43  H    4.929162   5.429869   4.880909   5.432956   6.844144
    44  H    6.177062   6.499781   5.912693   6.340974   7.567627
    45  H    6.797336   6.892769   6.092274   7.755934   9.148574
                   11         12         13         14         15
    11  H    0.000000
    12  C    3.359165   0.000000
    13  O    4.268947   1.435015   0.000000
    14  C    5.607413   2.396656   1.434728   0.000000
    15  O    6.507574   3.601420   2.281872   1.434727   0.000000
    16  C    7.129536   4.434601   3.166076   2.457201   1.435636
    17  C    6.768263   4.705713   3.422662   3.340744   2.411892
    18  O    5.435203   3.831297   2.757312   3.250417   2.865352
    19  H    4.915086   2.929911   1.765594   2.385167   2.263274
    20  C    7.817771   5.972564   4.805525   4.661872   3.765591
    21  O    8.000178   6.713996   5.606667   5.753493   4.894177
    22  H    8.952165   7.671642   6.563962   6.620406   5.705256
    23  C    9.567832   6.532496   5.344602   4.159775   3.125350
    24  O    9.372515   6.163710   5.114905   3.790249   3.059876
    25  H   10.307481   7.055304   6.067741   4.713048   4.056504
    26  C    8.602264   5.849031   4.549533   3.656723   2.416777
    27  O    9.414849   6.871364   5.612068   4.843913   3.695012
    28  C    9.156239   7.042519   5.766114   5.336216   4.182018
    29  O   10.245972   8.226107   7.027515   6.572998   5.507194
    30  H    3.835856   3.049739   4.138101   4.814524   6.019084
    31  H    2.236814   2.108810   2.476552   3.812845   4.539658
    32  H    2.343181   2.108810   2.418972   3.804618   4.507292
    33  H    3.706611   1.070000   2.080759   2.656227   3.944366
    34  H    4.174576   2.103001   2.515277   3.120317   4.118358
    35  H    5.750025   2.706149   3.199134   2.706096   4.057420
    36  H    6.099813   3.193294   2.576494   2.110044   2.604455
    37  H    5.869359   2.655537   2.077233   1.070000   2.077626
    38  H   10.863457   8.952019   7.705226   7.300614   6.148242
    39  H   10.395207   7.432954   6.181858   5.065269   3.907044
    40  H    9.998352   6.929626   5.848906   4.615892   3.779204
    41  H    8.690500   6.097760   4.706513   3.983435   2.574302
    42  H    7.113830   4.348207   3.318284   2.521651   2.066998
    43  H    7.094357   5.158804   3.783462   3.765612   2.617950
    44  H    7.832383   5.944586   4.940199   4.730031   4.074855
    45  H    9.383138   7.381966   6.027928   5.683139   4.398042
                   16         17         18         19         20
    16  C    0.000000
    17  C    1.519518   0.000000
    18  O    2.478652   1.435267   0.000000
    19  H    2.372001   1.907015   0.999414   0.000000
    20  C    2.512409   1.520504   2.437507   3.209760   0.000000
    21  O    3.811244   2.485950   2.906415   3.861494   1.434688
    22  H    4.520492   3.338746   3.888496   4.834312   2.034632
    23  C    2.693745   3.909317   5.129385   4.991693   4.338682
    24  O    3.251452   4.644789   5.636940   5.245180   5.398264
    25  H    4.195411   5.578613   6.614859   6.240298   6.218021
    26  C    1.519912   2.440694   3.755320   3.790079   2.884560
    27  O    2.455551   2.818971   4.200465   4.536992   2.440200
    28  C    2.901194   2.444531   3.730250   4.342367   1.519238
    29  O    4.144870   3.728777   4.866228   5.567997   2.437932
    30  H    7.170670   7.552276   6.714573   5.780695   8.924381
    31  H    4.968548   4.572457   3.249303   2.742676   5.613018
    32  H    5.355012   5.108291   3.995740   3.259108   6.411109
    33  H    4.536379   4.898827   4.050331   3.268832   5.992022
    34  H    5.380148   5.795188   5.159848   4.178478   7.252101
    35  H    4.979841   5.952727   5.631724   4.734621   7.140601
    36  H    4.025130   4.848397   4.812996   3.886899   6.302987
    37  H    2.554031   3.554944   3.479871   2.767869   4.634776
    38  H    4.857481   4.322628   5.458781   6.195740   3.076186
    39  H    3.498214   4.489819   5.804708   5.738621   4.798621
    40  H    3.120765   4.352579   5.544730   5.470408   4.524201
    41  H    2.052522   2.538474   3.856043   3.898915   3.134005
    42  H    1.070000   2.140359   2.786942   2.685293   2.760652
    43  H    2.092961   1.070000   2.020103   2.380954   2.095106
    44  H    2.744431   2.137717   2.758002   3.468609   1.070000
    45  H    3.345293   2.732349   4.005015   4.597956   2.145491
                   21         22         23         24         25
    21  O    0.000000
    22  H    1.000360   0.000000
    23  C    5.654681   6.029920   0.000000
    24  O    6.729157   7.227619   1.435845   0.000000
    25  H    7.552583   7.976837   1.960245   0.999550   0.000000
    26  C    4.177978   4.637330   1.519709   2.594424   3.378045
    27  O    3.639464   3.812410   2.355030   3.719581   4.302708
    28  C    2.346225   2.427385   3.672198   4.961938   5.631176
    29  O    2.853359   2.417529   4.562969   5.950591   6.483352
    30  H    9.620174  10.601136   8.814993   8.061186   8.802553
    31  H    5.921155   6.885088   7.508999   7.488172   8.454266
    32  H    6.770052   7.768890   7.631967   7.386247   8.331074
    33  H    6.798778   7.708178   6.612676   6.295625   7.149647
    34  H    8.005925   8.978208   6.970384   6.279099   7.083295
    35  H    8.246945   9.100480   6.079971   5.267326   5.901105
    36  H    7.296382   8.176683   4.944932   4.108515   4.877034
    37  H    5.813334   6.620950   4.196961   3.916960   4.773195
    38  H    3.154723   2.534494   5.123121   6.528606   7.021335
    39  H    5.988164   6.257960   1.070000   2.020203   2.198125
    40  H    5.889306   6.169699   1.070000   2.020203   2.254828
    41  H    4.191217   4.668994   2.056822   2.949667   3.714879
    42  H    4.120267   4.774291   3.019582   3.525526   4.393939
    43  H    2.700146   3.506768   4.021589   4.736037   5.652938
    44  H    2.062250   2.478335   4.555757   5.587044   6.371457
    45  H    2.550601   2.625228   3.960668   5.196188   5.857249
                   26         27         28         29         30
    26  C    0.000000
    27  O    1.435010   0.000000
    28  C    2.412009   1.435584   0.000000
    29  O    3.572613   2.234213   1.435527   0.000000
    30  H    8.414843   9.615176   9.893387  11.152726   0.000000
    31  H    6.457007   7.198526   6.945097   8.032475   4.333079
    32  H    6.717378   7.697511   7.549134   8.802899   3.354379
    33  H    5.973137   6.878766   7.103336   8.167268   3.573647
    34  H    6.531848   7.789714   8.082324   9.407900   2.074766
    35  H    6.031348   7.178984   7.848805   8.955115   3.609418
    36  H    4.794864   6.185542   6.749064   8.096309   4.216956
    37  H    3.768700   4.777489   5.352157   6.437126   5.204777
    38  H    4.172150   2.880102   1.975114   0.960000  11.841332
    39  H    2.092886   2.614307   3.845525   4.639424   9.638442
    40  H    2.092886   2.419471   3.846691   4.458983   9.299907
    41  H    1.070000   1.995535   2.555676   3.845334   8.525979
    42  H    2.140748   2.752102   3.300212   4.294781   7.178671
    43  H    2.584176   3.060709   2.580611   3.966324   7.794657
    44  H    3.256003   2.713495   2.135827   2.618345   8.971750
    45  H    2.732524   2.070362   1.070000   2.070281  10.109531
                   31         32         33         34         35
    31  H    0.000000
    32  H    1.730541   0.000000
    33  H    2.441005   3.011413   0.000000
    34  H    3.660776   2.484147   3.009750   0.000000
    35  H    4.764494   4.633614   2.527255   2.996209   0.000000
    36  H    4.849057   4.026103   3.866568   2.307498   3.002042
    37  H    4.037389   4.400475   2.465458   3.814254   2.535232
    38  H    8.676036   9.375869   8.962406  10.043647   9.763958
    39  H    8.339392   8.373282   7.588530   7.725978   7.035504
    40  H    7.908654   8.213143   6.847287   7.571071   6.298924
    41  H    6.604660   6.664245   6.394519   6.540608   6.493060
    42  H    4.953785   5.589332   4.194435   5.583169   4.667154
    43  H    5.005469   5.244065   5.537936   5.916261   6.463704
    44  H    5.626283   6.639207   5.772612   7.442906   6.966019
    45  H    7.230944   7.647173   7.586593   8.211968   8.307275
                   36         37         38         39         40
    36  H    0.000000
    37  H    3.010819   0.000000
    38  H    8.700569   7.252687   0.000000
    39  H    5.615291   5.208219   5.021758   0.000000
    40  H    5.643971   4.403385   5.106050   1.721503   0.000000
    41  H    4.765090   4.349880   4.239370   2.201354   2.896374
    42  H    4.405990   2.156712   5.134753   3.967748   3.098711
    43  H    4.855856   4.220613   4.358290   4.393320   4.665050
    44  H    6.589216   4.461346   3.436742   5.153207   4.512585
    45  H    6.832810   5.885234   2.134349   3.916059   4.355662
                   41         42         43         44         45
    41  H    0.000000
    42  H    2.959153   0.000000
    43  H    2.219272   2.989122   0.000000
    44  H    3.791068   2.560043   2.987738   0.000000
    45  H    2.430371   3.993910   2.424029   3.022262   0.000000
 Stoichiometry    C12H22O11
 Framework group  C1[X(C12H22O11)]
 Deg. of freedom   129
 Full point group                 C1      NOp   1
 Largest Abelian subgroup         C1      NOp   1
 Largest concise Abelian subgroup C1      NOp   1
                         Standard orientation:                         
 ---------------------------------------------------------------------
 Center     Atomic      Atomic             Coordinates (Angstroms)
 Number     Number       Type             X           Y           Z
 ---------------------------------------------------------------------
      1          8           0       -5.049987   -0.443833    0.338796
      2          6           0       -3.717933   -0.104126   -0.074282
      3          6           0       -3.258767    1.271415    0.381352
      4          8           0       -4.221782    2.232987   -0.073712
      5          1           0       -5.154232    1.962124    0.164276
      6          6           0       -1.910451    1.548599   -0.262352
      7          8           0       -1.382292    2.852041    0.023955
      8          1           0       -0.386879    2.915734   -0.034227
      9          6           0       -2.948468   -2.530559   -0.184523
     10          8           0       -4.170254   -3.193674    0.171986
     11          1           0       -4.126746   -4.137250   -0.155731
     12          6           0       -2.706286   -1.141524    0.384558
     13          8           0       -1.464862   -0.801166   -0.249707
     14          6           0       -0.939621    0.464446    0.175487
     15          8           0        0.298571    0.619120   -0.532608
     16          6           0        1.505505    0.224210    0.137024
     17          6           0        1.938747   -1.141614   -0.368703
     18          8           0        0.934975   -2.158872   -0.235974
     19          1           0        0.094627   -1.625469   -0.326118
     20          6           0        3.248967   -1.580199    0.266038
     21          8           0        3.764427   -2.823272   -0.231355
     22          1           0        4.742424   -2.925879   -0.047742
     23          6           0        2.566571    2.697384    0.019488
     24          8           0        1.360432    3.461069   -0.134340
     25          1           0        1.623499    4.415770    0.001468
     26          6           0        2.622823    1.195637   -0.206579
     27          8           0        3.892524    0.773165    0.311717
     28          6           0        4.293542   -0.541028   -0.104194
     29          8           0        5.505943   -0.737294    0.638976
     30          1           0       -5.594088   -0.604217   -0.435692
     31          1           0       -2.136680   -3.155259    0.124749
     32          1           0       -2.918203   -2.455181   -1.251436
     33          1           0       -2.609916   -1.160725    1.450036
     34          1           0       -3.709601   -0.102909   -1.144249
     35          1           0       -3.176236    1.302260    1.447719
     36          1           0       -2.032180    1.471574   -1.322611
     37          1           0       -0.786135    0.484188    1.234237
     38          1           0        6.234874   -0.878899    0.030530
     39          1           0        3.288422    3.131935   -0.640054
     40          1           0        2.909842    2.868090    1.018450
     41          1           0        2.718135    1.100601   -1.268079
     42          1           0        1.350877    0.195952    1.195415
     43          1           0        2.126706   -1.033259   -1.416477
     44          1           0        3.142515   -1.627734    1.329668
     45          1           0        4.489657   -0.559467   -1.155907
 ---------------------------------------------------------------------
 Rotational constants (GHZ):      0.4024335      0.1462144      0.1094340
 Standard basis: 6-31+G(d,p) (6D, 7F)
 There are   547 symmetry adapted basis functions of A   symmetry.
 Integral buffers will be    131072 words long.
 Raffenetti 2 integral format.
 Two-electron integral symmetry is turned on.
   547 basis functions,   890 primitive gaussians,   547 cartesian basis functions
    91 alpha electrons       91 beta electrons
       nuclear repulsion energy      2284.0271782330 Hartrees.
 NAtoms=   45 NActive=   45 NUniq=   45 SFac= 1.00D+00 NAtFMM=   50 NAOKFM=F Big=F
 One-electron integrals computed using PRISM.
 NBasis=   547 RedAO= T  NBF=   547
 NBsUse=   547 1.00D-06 NBFU=   547
 Harris functional with IExCor=  402 diagonalized for initial guess.
 ExpMin= 4.38D-02 ExpMax= 5.48D+03 ExpMxC= 8.25D+02 IAcc=2 IRadAn=         0 AccDes= 0.00D+00
 HarFok:  IExCor=  402 AccDes= 0.00D+00 IRadAn=         0 IDoV= 1
 ScaDFX=  1.000000  1.000000  1.000000  1.000000
 FoFCou: FMM=F IPFlag=           0 FMFlag=      100000 FMFlg1=           0
         NFxFlg=           0 DoJE=T BraDBF=F KetDBF=T FulRan=T
         Omega=  0.000000  0.000000  1.000000  0.000000  0.000000 ICntrl=     500 IOpCl=  0
         NMat0=    1 NMatS0=    1 NMatT0=    0 NMatD0=    1 NMtDS0=    0 NMtDT0=    0
         I1Cent=           4 NGrid=           0.
 Petite list used in FoFCou.
 Initial guess orbital symmetries:
       Occupied  (A) (A) (A) (A) (A) (A) (A) (A) (A) (A) (A) (A)
                 (A) (A) (A) (A) (A) (A) (A) (A) (A) (A) (A) (A)
                 (A) (A) (A) (A) (A) (A) (A) (A) (A) (A) (A) (A)
                 (A) (A) (A) (A) (A) (A) (A) (A) (A) (A) (A) (A)
                 (A) (A) (A) (A) (A) (A) (A) (A) (A) (A) (A) (A)
                 (A) (A) (A) (A) (A) (A) (A) (A) (A) (A) (A) (A)
                 (A) (A) (A) (A) (A) (A) (A) (A) (A) (A) (A) (A)
                 (A) (A) (A) (A) (A) (A) (A)
       Virtual   (A) (A) (A) (A) (A) (A) (A) (A) (A) (A) (A) (A)
                 (A) (A) (A) (A) (A) (A) (A) (A) (A) (A) (A) (A)
                 (A) (A) (A) (A) (A) (A) (A) (A) (A) (A) (A) (A)
                 (A) (A) (A) (A) (A) (A) (A) (A) (A) (A) (A) (A)
                 (A) (A) (A) (A) (A) (A) (A) (A) (A) (A) (A) (A)
                 (A) (A) (A) (A) (A) (A) (A) (A) (A) (A) (A) (A)
                 (A) (A) (A) (A) (A) (A) (A) (A) (A) (A) (A) (A)
                 (A) (A) (A) (A) (A) (A) (A) (A) (A) (A) (A) (A)
                 (A) (A) (A) (A) (A) (A) (A) (A) (A) (A) (A) (A)
                 (A) (A) (A) (A) (A) (A) (A) (A) (A) (A) (A) (A)
                 (A) (A) (A) (A) (A) (A) (A) (A) (A) (A) (A) (A)
                 (A) (A) (A) (A) (A) (A) (A) (A) (A) (A) (A) (A)
                 (A) (A) (A) (A) (A) (A) (A) (A) (A) (A) (A) (A)
                 (A) (A) (A) (A) (A) (A) (A) (A) (A) (A) (A) (A)
                 (A) (A) (A) (A) (A) (A) (A) (A) (A) (A) (A) (A)
                 (A) (A) (A) (A) (A) (A) (A) (A) (A) (A) (A) (A)
                 (A) (A) (A) (A) (A) (A) (A) (A) (A) (A) (A) (A)
                 (A) (A) (A) (A) (A) (A) (A) (A) (A) (A) (A) (A)
                 (A) (A) (A) (A) (A) (A) (A) (A) (A) (A) (A) (A)
                 (A) (A) (A) (A) (A) (A) (A) (A) (A) (A) (A) (A)
                 (A) (A) (A) (A) (A) (A) (A) (A) (A) (A) (A) (A)
                 (A) (A) (A) (A) (A) (A) (A) (A) (A) (A) (A) (A)
                 (A) (A) (A) (A) (A) (A) (A) (A) (A) (A) (A) (A)
                 (A) (A) (A) (A) (A) (A) (A) (A) (A) (A) (A) (A)
                 (A) (A) (A) (A) (A) (A) (A) (A) (A) (A) (A) (A)
                 (A) (A) (A) (A) (A) (A) (A) (A) (A) (A) (A) (A)
                 (A) (A) (A) (A) (A) (A) (A) (A) (A) (A) (A) (A)
                 (A) (A) (A) (A) (A) (A) (A) (A) (A) (A) (A) (A)
                 (A) (A) (A) (A) (A) (A) (A) (A) (A) (A) (A) (A)
                 (A) (A) (A) (A) (A) (A) (A) (A) (A) (A) (A) (A)
                 (A) (A) (A) (A) (A) (A) (A) (A) (A) (A) (A) (A)
                 (A) (A) (A) (A) (A) (A) (A) (A) (A) (A) (A) (A)
                 (A) (A) (A) (A) (A) (A) (A) (A) (A) (A) (A) (A)
                 (A) (A) (A) (A) (A) (A) (A) (A) (A) (A) (A) (A)
                 (A) (A) (A) (A) (A) (A) (A) (A) (A) (A) (A) (A)
                 (A) (A) (A) (A) (A) (A) (A) (A) (A) (A) (A) (A)
                 (A) (A) (A) (A) (A) (A) (A) (A) (A) (A) (A) (A)
                 (A) (A) (A) (A) (A) (A) (A) (A) (A) (A) (A) (A)
 The electronic state of the initial guess is 1-A.
 Requested convergence on RMS density matrix=1.00D-08 within 128 cycles.
 Requested convergence on MAX density matrix=1.00D-06.
 Requested convergence on             energy=1.00D-06.
 No special actions if energy rises.
 SCF Done:  E(RB3LYP) =  -1297.94498896     A.U. after   14 cycles
             Convg  =    0.2656D-08             -V/T =  2.0087
 Range of M.O.s used for correlation:     1   547
 NBasis=   547 NAE=    91 NBE=    91 NFC=     0 NFV=     0
 NROrb=    547 NOA=    91 NOB=    91 NVA=   456 NVB=   456

 **** Warning!!: The largest alpha MO coefficient is  0.63907401D+02

          Differentiating once with respect to electric field.
                with respect to dipole field.
          Electric field/nuclear overlap derivatives assumed to be zero.
          There are     3 degrees of freedom in the 1st order CPHF.  IDoFFX=0.
      3 vectors produced by pass  0 Test12= 1.38D-12 3.33D-08 XBig12= 1.20D+02 1.03D+00.
 AX will form     3 AO Fock derivatives at one time.
      3 vectors produced by pass  1 Test12= 1.38D-12 3.33D-08 XBig12= 2.14D+01 3.83D-01.
      3 vectors produced by pass  2 Test12= 1.38D-12 3.33D-08 XBig12= 8.63D+00 1.89D-01.
      3 vectors produced by pass  3 Test12= 1.38D-12 3.33D-08 XBig12= 8.40D-01 8.10D-02.
      3 vectors produced by pass  4 Test12= 1.38D-12 3.33D-08 XBig12= 2.41D-01 4.02D-02.
      3 vectors produced by pass  5 Test12= 1.38D-12 3.33D-08 XBig12= 5.86D-02 1.56D-02.
      3 vectors produced by pass  6 Test12= 1.38D-12 3.33D-08 XBig12= 1.67D-02 1.64D-02.
      3 vectors produced by pass  7 Test12= 1.38D-12 3.33D-08 XBig12= 2.26D-03 5.70D-03.
      3 vectors produced by pass  8 Test12= 1.38D-12 3.33D-08 XBig12= 5.10D-04 1.98D-03.
      3 vectors produced by pass  9 Test12= 1.38D-12 3.33D-08 XBig12= 1.51D-04 1.51D-03.
      3 vectors produced by pass 10 Test12= 1.38D-12 3.33D-08 XBig12= 2.82D-05 4.78D-04.
      3 vectors produced by pass 11 Test12= 1.38D-12 3.33D-08 XBig12= 6.86D-06 3.39D-04.
      3 vectors produced by pass 12 Test12= 1.38D-12 3.33D-08 XBig12= 8.76D-07 1.02D-04.
      3 vectors produced by pass 13 Test12= 1.38D-12 3.33D-08 XBig12= 3.26D-07 4.94D-05.
      3 vectors produced by pass 14 Test12= 1.38D-12 3.33D-08 XBig12= 2.53D-08 1.44D-05.
      3 vectors produced by pass 15 Test12= 1.38D-12 3.33D-08 XBig12= 6.14D-09 5.81D-06.
      3 vectors produced by pass 16 Test12= 1.38D-12 3.33D-08 XBig12= 7.23D-10 2.41D-06.
      3 vectors produced by pass 17 Test12= 1.38D-12 3.33D-08 XBig12= 6.56D-11 7.34D-07.
      3 vectors produced by pass 18 Test12= 1.38D-12 3.33D-08 XBig12= 2.55D-11 3.79D-07.
      3 vectors produced by pass 19 Test12= 1.38D-12 3.33D-08 XBig12= 1.95D-11 5.78D-07.
      2 vectors produced by pass 20 Test12= 1.38D-12 3.33D-08 XBig12= 1.18D-11 4.02D-07.
      2 vectors produced by pass 21 Test12= 1.38D-12 3.33D-08 XBig12= 2.36D-12 1.17D-07.
      1 vectors produced by pass 22 Test12= 1.38D-12 3.33D-08 XBig12= 9.70D-13 9.38D-08.
 Inverted reduced A of dimension    65 with in-core refinement.
 End of Minotr Frequency-dependent properties file   721 does not exist.
 End of Minotr Frequency-dependent properties file   722 does not exist.
 Symmetrizing basis deriv contribution to polar:
 IMax=3 JMax=2 DiffMx= 0.00D+00
 G2DrvN: will do    23 centers at a time, making    2 passes doing MaxLOS=2.
 Calling FoFCou, ICntrl=  3107 FMM=F I1Cent=   0 AccDes= 0.00D+00.
 Calling FoFCou, ICntrl=  3107 FMM=F I1Cent=   0 AccDes= 0.00D+00.
 FoFDir/FoFCou used for L=0 through L=2.
 End of G2Drv Frequency-dependent properties file   721 does not exist.
 End of G2Drv Frequency-dependent properties file   722 does not exist.
          IDoAtm=111111111111111111111111111111111111111111111
          Differentiating once with respect to electric field.
                with respect to dipole field.
          Differentiating once with respect to nuclear coordinates.
          There are   138 degrees of freedom in the 1st order CPHF.  IDoFFX=5.
 Will reuse    3 saved solutions.
    135 vectors produced by pass  0 Test12= 4.15D-14 1.00D-09 XBig12= 2.47D-01 6.91D-02.
 AX will form    68 AO Fock derivatives at one time.
    135 vectors produced by pass  1 Test12= 4.15D-14 1.00D-09 XBig12= 3.80D-02 1.63D-02.
    132 vectors produced by pass  2 Test12= 4.15D-14 1.00D-09 XBig12= 2.70D-04 1.89D-03.
    132 vectors produced by pass  3 Test12= 4.15D-14 1.00D-09 XBig12= 7.16D-07 9.42D-05.
    132 vectors produced by pass  4 Test12= 4.15D-14 1.00D-09 XBig12= 1.22D-09 2.40D-06.
    132 vectors produced by pass  5 Test12= 4.15D-14 1.00D-09 XBig12= 2.78D-12 1.52D-07.
     77 vectors produced by pass  6 Test12= 4.15D-14 1.00D-09 XBig12= 1.22D-13 3.34D-08.
 Inverted reduced A of dimension   875 with in-core refinement.
 Isotropic polarizability for W=    0.000000      187.40 Bohr**3.
 End of Minotr Frequency-dependent properties file   721 does not exist.
 End of Minotr Frequency-dependent properties file   722 does not exist.

 **********************************************************************

            Population analysis using the SCF density.

 **********************************************************************

 Orbital symmetries:
       Occupied  (A) (A) (A) (A) (A) (A) (A) (A) (A) (A) (A) (A)
                 (A) (A) (A) (A) (A) (A) (A) (A) (A) (A) (A) (A)
                 (A) (A) (A) (A) (A) (A) (A) (A) (A) (A) (A) (A)
                 (A) (A) (A) (A) (A) (A) (A) (A) (A) (A) (A) (A)
                 (A) (A) (A) (A) (A) (A) (A) (A) (A) (A) (A) (A)
                 (A) (A) (A) (A) (A) (A) (A) (A) (A) (A) (A) (A)
                 (A) (A) (A) (A) (A) (A) (A) (A) (A) (A) (A) (A)
                 (A) (A) (A) (A) (A) (A) (A)
       Virtual   (A) (A) (A) (A) (A) (A) (A) (A) (A) (A) (A) (A)
                 (A) (A) (A) (A) (A) (A) (A) (A) (A) (A) (A) (A)
                 (A) (A) (A) (A) (A) (A) (A) (A) (A) (A) (A) (A)
                 (A) (A) (A) (A) (A) (A) (A) (A) (A) (A) (A) (A)
                 (A) (A) (A) (A) (A) (A) (A) (A) (A) (A) (A) (A)
                 (A) (A) (A) (A) (A) (A) (A) (A) (A) (A) (A) (A)
                 (A) (A) (A) (A) (A) (A) (A) (A) (A) (A) (A) (A)
                 (A) (A) (A) (A) (A) (A) (A) (A) (A) (A) (A) (A)
                 (A) (A) (A) (A) (A) (A) (A) (A) (A) (A) (A) (A)
                 (A) (A) (A) (A) (A) (A) (A) (A) (A) (A) (A) (A)
                 (A) (A) (A) (A) (A) (A) (A) (A) (A) (A) (A) (A)
                 (A) (A) (A) (A) (A) (A) (A) (A) (A) (A) (A) (A)
                 (A) (A) (A) (A) (A) (A) (A) (A) (A) (A) (A) (A)
                 (A) (A) (A) (A) (A) (A) (A) (A) (A) (A) (A) (A)
                 (A) (A) (A) (A) (A) (A) (A) (A) (A) (A) (A) (A)
                 (A) (A) (A) (A) (A) (A) (A) (A) (A) (A) (A) (A)
                 (A) (A) (A) (A) (A) (A) (A) (A) (A) (A) (A) (A)
                 (A) (A) (A) (A) (A) (A) (A) (A) (A) (A) (A) (A)
                 (A) (A) (A) (A) (A) (A) (A) (A) (A) (A) (A) (A)
                 (A) (A) (A) (A) (A) (A) (A) (A) (A) (A) (A) (A)
                 (A) (A) (A) (A) (A) (A) (A) (A) (A) (A) (A) (A)
                 (A) (A) (A) (A) (A) (A) (A) (A) (A) (A) (A) (A)
                 (A) (A) (A) (A) (A) (A) (A) (A) (A) (A) (A) (A)
                 (A) (A) (A) (A) (A) (A) (A) (A) (A) (A) (A) (A)
                 (A) (A) (A) (A) (A) (A) (A) (A) (A) (A) (A) (A)
                 (A) (A) (A) (A) (A) (A) (A) (A) (A) (A) (A) (A)
                 (A) (A) (A) (A) (A) (A) (A) (A) (A) (A) (A) (A)
                 (A) (A) (A) (A) (A) (A) (A) (A) (A) (A) (A) (A)
                 (A) (A) (A) (A) (A) (A) (A) (A) (A) (A) (A) (A)
                 (A) (A) (A) (A) (A) (A) (A) (A) (A) (A) (A) (A)
                 (A) (A) (A) (A) (A) (A) (A) (A) (A) (A) (A) (A)
                 (A) (A) (A) (A) (A) (A) (A) (A) (A) (A) (A) (A)
                 (A) (A) (A) (A) (A) (A) (A) (A) (A) (A) (A) (A)
                 (A) (A) (A) (A) (A) (A) (A) (A) (A) (A) (A) (A)
                 (A) (A) (A) (A) (A) (A) (A) (A) (A) (A) (A) (A)
                 (A) (A) (A) (A) (A) (A) (A) (A) (A) (A) (A) (A)
                 (A) (A) (A) (A) (A) (A) (A) (A) (A) (A) (A) (A)
                 (A) (A) (A) (A) (A) (A) (A) (A) (A) (A) (A) (A)
 The electronic state is 1-A.
 Alpha  occ. eigenvalues --  -19.19931 -19.19911 -19.19594 -19.19300 -19.18865
 Alpha  occ. eigenvalues --  -19.17442 -19.16883 -19.16729 -19.15792 -19.14794
 Alpha  occ. eigenvalues --  -19.14042 -10.31710 -10.31374 -10.26963 -10.26911
 Alpha  occ. eigenvalues --  -10.26296 -10.25906 -10.25394 -10.25341 -10.24921
 Alpha  occ. eigenvalues --  -10.24896 -10.24781 -10.24281  -1.10906  -1.09590
 Alpha  occ. eigenvalues --   -1.05778  -1.05246  -1.04450  -1.03718  -1.02824
 Alpha  occ. eigenvalues --   -1.02413  -1.01711  -1.00939  -0.99711  -0.82839
 Alpha  occ. eigenvalues --   -0.80721  -0.79890  -0.78964  -0.72418  -0.69991
 Alpha  occ. eigenvalues --   -0.67542  -0.65136  -0.63191  -0.62664  -0.62195
 Alpha  occ. eigenvalues --   -0.61097  -0.56790  -0.56422  -0.55315  -0.55047
 Alpha  occ. eigenvalues --   -0.54022  -0.53493  -0.53328  -0.52054  -0.51612
 Alpha  occ. eigenvalues --   -0.50655  -0.50294  -0.49305  -0.49252  -0.47189
 Alpha  occ. eigenvalues --   -0.46549  -0.45570  -0.44235  -0.43923  -0.43450
 Alpha  occ. eigenvalues --   -0.42750  -0.41873  -0.41456  -0.40669  -0.39548
 Alpha  occ. eigenvalues --   -0.39217  -0.38047  -0.37985  -0.36459  -0.35574
 Alpha  occ. eigenvalues --   -0.35106  -0.34983  -0.34354  -0.34178  -0.33854
 Alpha  occ. eigenvalues --   -0.33372  -0.31419  -0.30951  -0.30607  -0.29998
 Alpha  occ. eigenvalues --   -0.29772  -0.28485  -0.28404  -0.27334  -0.26906
 Alpha  occ. eigenvalues --   -0.26666
 Alpha virt. eigenvalues --   -0.02428  -0.02302  -0.01843  -0.00208   0.00139
 Alpha virt. eigenvalues --    0.00830   0.01931   0.02075   0.03107   0.03507
 Alpha virt. eigenvalues --    0.03969   0.04449   0.04580   0.04952   0.05787
 Alpha virt. eigenvalues --    0.06301   0.06730   0.07033   0.07610   0.07799
 Alpha virt. eigenvalues --    0.08399   0.08850   0.09152   0.09697   0.10240
 Alpha virt. eigenvalues --    0.10562   0.10957   0.11715   0.11785   0.12074
 Alpha virt. eigenvalues --    0.12377   0.12875   0.13268   0.13412   0.13605
 Alpha virt. eigenvalues --    0.13846   0.14283   0.14550   0.14893   0.15068
 Alpha virt. eigenvalues --    0.15158   0.16223   0.16801   0.17104   0.17185
 Alpha virt. eigenvalues --    0.17380   0.17673   0.17787   0.18157   0.18308
 Alpha virt. eigenvalues --    0.18669   0.19102   0.19368   0.20043   0.20172
 Alpha virt. eigenvalues --    0.20653   0.20870   0.20895   0.21371   0.21674
 Alpha virt. eigenvalues --    0.21850   0.22229   0.22631   0.22869   0.22968
 Alpha virt. eigenvalues --    0.23498   0.23682   0.24109   0.24431   0.24736
 Alpha virt. eigenvalues --    0.24781   0.24988   0.25335   0.25551   0.25877
 Alpha virt. eigenvalues --    0.26240   0.26389   0.26835   0.27007   0.27460
 Alpha virt. eigenvalues --    0.27580   0.27716   0.28108   0.28378   0.28397
 Alpha virt. eigenvalues --    0.28868   0.29442   0.30024   0.30415   0.30576
 Alpha virt. eigenvalues --    0.31057   0.31358   0.31782   0.32176   0.32362
 Alpha virt. eigenvalues --    0.32634   0.32916   0.33240   0.33907   0.34089
 Alpha virt. eigenvalues --    0.34459   0.34777   0.35076   0.35351   0.35668
 Alpha virt. eigenvalues --    0.36540   0.36632   0.36782   0.36994   0.37237
 Alpha virt. eigenvalues --    0.37798   0.38428   0.38702   0.39145   0.39615
 Alpha virt. eigenvalues --    0.39792   0.40548   0.40862   0.41070   0.42410
 Alpha virt. eigenvalues --    0.42546   0.42740   0.43685   0.44065   0.44886
 Alpha virt. eigenvalues --    0.45253   0.45333   0.46490   0.46646   0.47579
 Alpha virt. eigenvalues --    0.48258   0.48922   0.49173   0.49772   0.50128
 Alpha virt. eigenvalues --    0.51302   0.52835   0.55294   0.63511   0.64628
 Alpha virt. eigenvalues --    0.64818   0.65047   0.67481   0.69313   0.69609
 Alpha virt. eigenvalues --    0.70294   0.70746   0.71338   0.72570   0.73782
 Alpha virt. eigenvalues --    0.74207   0.76195   0.76624   0.77157   0.77991
 Alpha virt. eigenvalues --    0.78451   0.79692   0.81404   0.82163   0.83206
 Alpha virt. eigenvalues --    0.85310   0.86534   0.87282   0.89031   0.89866
 Alpha virt. eigenvalues --    0.91393   0.92740   0.92916   0.94989   0.95274
 Alpha virt. eigenvalues --    0.96731   0.97326   0.98192   1.00268   1.00942
 Alpha virt. eigenvalues --    1.01193   1.01545   1.02360   1.04201   1.04937
 Alpha virt. eigenvalues --    1.05250   1.06044   1.06396   1.07047   1.07633
 Alpha virt. eigenvalues --    1.07998   1.08502   1.09201   1.10064   1.10446
 Alpha virt. eigenvalues --    1.11839   1.12645   1.12764   1.13898   1.14299
 Alpha virt. eigenvalues --    1.16096   1.18231   1.19433   1.20557   1.20686
 Alpha virt. eigenvalues --    1.22118   1.23382   1.23750   1.24733   1.25008
 Alpha virt. eigenvalues --    1.25671   1.26662   1.27368   1.27764   1.28462
 Alpha virt. eigenvalues --    1.29057   1.29517   1.30547   1.31136   1.31733
 Alpha virt. eigenvalues --    1.32093   1.32737   1.33218   1.33924   1.34863
 Alpha virt. eigenvalues --    1.35077   1.35832   1.36330   1.37413   1.38473
 Alpha virt. eigenvalues --    1.38666   1.39616   1.40226   1.42210   1.43063
 Alpha virt. eigenvalues --    1.43668   1.45594   1.45839   1.47177   1.47904
 Alpha virt. eigenvalues --    1.48541   1.49914   1.50892   1.52084   1.52625
 Alpha virt. eigenvalues --    1.53824   1.55297   1.56325   1.57246   1.58454
 Alpha virt. eigenvalues --    1.58970   1.59804   1.60262   1.61117   1.61629
 Alpha virt. eigenvalues --    1.62711   1.63316   1.63766   1.64663   1.65786
 Alpha virt. eigenvalues --    1.67280   1.67742   1.68451   1.69385   1.70134
 Alpha virt. eigenvalues --    1.70551   1.71960   1.72488   1.72523   1.73184
 Alpha virt. eigenvalues --    1.73405   1.74806   1.75357   1.75791   1.77200
 Alpha virt. eigenvalues --    1.78299   1.79010   1.79872   1.80509   1.82878
 Alpha virt. eigenvalues --    1.83687   1.84756   1.84906   1.85417   1.85734
 Alpha virt. eigenvalues --    1.87007   1.88409   1.89946   1.90114   1.90981
 Alpha virt. eigenvalues --    1.91950   1.93494   1.93619   1.94440   1.95198
 Alpha virt. eigenvalues --    1.95454   1.96645   1.96939   1.98060   1.98143
 Alpha virt. eigenvalues --    1.98932   1.99351   2.00309   2.01883   2.02456
 Alpha virt. eigenvalues --    2.04058   2.04309   2.05139   2.06326   2.07358
 Alpha virt. eigenvalues --    2.08208   2.08485   2.08814   2.10191   2.10914
 Alpha virt. eigenvalues --    2.11834   2.12537   2.13598   2.14817   2.15925
 Alpha virt. eigenvalues --    2.17212   2.17814   2.18583   2.19024   2.20619
 Alpha virt. eigenvalues --    2.22139   2.22983   2.23898   2.24931   2.26697
 Alpha virt. eigenvalues --    2.29659   2.31214   2.31680   2.33209   2.35018
 Alpha virt. eigenvalues --    2.35300   2.36242   2.36973   2.37520   2.38086
 Alpha virt. eigenvalues --    2.39986   2.40249   2.41971   2.43452   2.45993
 Alpha virt. eigenvalues --    2.46291   2.47115   2.47988   2.49184   2.50497
 Alpha virt. eigenvalues --    2.51211   2.52024   2.52435   2.53990   2.54723
 Alpha virt. eigenvalues --    2.55852   2.57651   2.58443   2.59866   2.60172
 Alpha virt. eigenvalues --    2.61454   2.61924   2.63112   2.63876   2.63984
 Alpha virt. eigenvalues --    2.66115   2.66537   2.67172   2.68135   2.69512
 Alpha virt. eigenvalues --    2.71189   2.71380   2.71763   2.73594   2.75431
 Alpha virt. eigenvalues --    2.76793   2.77430   2.78186   2.79388   2.80793
 Alpha virt. eigenvalues --    2.81855   2.82427   2.84139   2.84954   2.85491
 Alpha virt. eigenvalues --    2.86821   2.88105   2.88195   2.89911   2.90055
 Alpha virt. eigenvalues --    2.90834   2.91407   2.92081   2.92547   2.93387
 Alpha virt. eigenvalues --    2.94684   2.95731   2.96871   2.97388   2.98827
 Alpha virt. eigenvalues --    3.00096   3.02463   3.02890   3.03393   3.05909
 Alpha virt. eigenvalues --    3.07329   3.07970   3.10250   3.11788   3.14178
 Alpha virt. eigenvalues --    3.17486   3.18174   3.23970   3.25526   3.29421
 Alpha virt. eigenvalues --    3.31976   3.36110   3.37636   3.38710   3.40881
 Alpha virt. eigenvalues --    3.43457   3.44997   3.47005   3.47967   3.48949
 Alpha virt. eigenvalues --    3.50023   3.50683   3.51917   3.52887   3.53447
 Alpha virt. eigenvalues --    3.55070   3.56487   3.60193   3.61019   3.64377
 Alpha virt. eigenvalues --    3.65663   3.70481   3.75255   4.31377   4.32682
 Alpha virt. eigenvalues --    4.36817   4.38203   4.40041   4.44302   4.46733
 Alpha virt. eigenvalues --    4.48232   4.50201   4.54063   4.54901   4.55341
 Alpha virt. eigenvalues --    4.57204   4.58725   4.62675   4.66461   4.68488
 Alpha virt. eigenvalues --    4.77683   4.84185   4.85629   4.88048   4.90937
 Alpha virt. eigenvalues --    4.93111
          Condensed to atoms (all electrons):
              1          2          3          4          5          6
     1  O    8.261338   0.370305  -0.144895  -0.009767   0.030627   0.052581
     2  C    0.370305  10.049565  -2.241199   0.044022  -0.120316  -3.148583
     3  C   -0.144895  -2.241199   9.829947   0.176713   0.055376   1.679958
     4  O   -0.009767   0.044022   0.176713   8.213913   0.197911  -0.144870
     5  H    0.030627  -0.120316   0.055376   0.197911   0.421954   0.032205
     6  C    0.052581  -3.148583   1.679958  -0.144870   0.032205  12.239315
     7  O   -0.001291   0.051208  -0.221369   0.015869  -0.001087   0.276430
     8  H    0.000004  -0.001622   0.024739  -0.000635   0.000006  -0.009531
     9  C   -0.019861   0.422000  -0.228217   0.009225  -0.004913  -0.039904
    10  O   -0.021329  -0.000738   0.010045   0.000238  -0.000033  -0.017880
    11  H    0.000567  -0.005537  -0.003619   0.000001   0.000000  -0.000335
    12  C   -0.221941  -1.657848  -0.439650   0.008164   0.025895   0.370669
    13  O    0.003766   0.032410  -0.085392   0.002943  -0.000198  -0.200415
    14  C    0.025327   1.511077  -1.831474   0.009785   0.007316  -3.909504
    15  O    0.000524  -0.055412   0.043196  -0.000957   0.000086   0.262974
    16  C    0.003338   0.008892  -0.253956   0.001819   0.001040  -0.214650
    17  C    0.000002  -0.001268  -0.030467   0.001256   0.000051  -0.097964
    18  O    0.000009   0.014393  -0.001752  -0.000002   0.000000  -0.002543
    19  H   -0.000035  -0.014379   0.008854  -0.000001   0.000000   0.012037
    20  C    0.000081   0.000683  -0.006599  -0.000026   0.000003   0.060182
    21  O    0.000000   0.000051  -0.000119   0.000000   0.000000  -0.000465
    22  H    0.000000   0.000001  -0.000001   0.000000   0.000000  -0.000063
    23  C   -0.000012   0.008296   0.000359   0.000166  -0.000014  -0.189337
    24  O   -0.000002   0.004521  -0.003640  -0.000077  -0.000002  -0.021369
    25  H    0.000000  -0.000099   0.000563   0.000001   0.000000   0.001334
    26  C   -0.000139   0.058993  -0.197565   0.001310   0.000032  -0.609706
    27  O    0.000000  -0.000188   0.000310   0.000000   0.000000   0.002675
    28  C    0.000009  -0.001345  -0.002390   0.000005   0.000000   0.019396
    29  O    0.000000  -0.000007   0.000050   0.000000   0.000000  -0.000313
    30  H    0.238881   0.017188   0.003956  -0.000751  -0.002604  -0.000708
    31  H   -0.000453  -0.012665  -0.005558   0.000030   0.000000  -0.001718
    32  H    0.004588  -0.016444   0.012107  -0.000094   0.000001   0.015748
    33  H    0.008041   0.038475  -0.040443  -0.000021   0.000007  -0.040753
    34  H   -0.049490   0.491836  -0.110236   0.002499  -0.000704  -0.048879
    35  H   -0.003537   0.190693   0.164423  -0.032471  -0.003800  -0.336922
    36  H   -0.001166   0.129484  -0.280406   0.010389  -0.000143   0.156912
    37  H   -0.000085   0.024036  -0.041790   0.000336   0.000002  -0.175092
    38  H    0.000000   0.000000   0.000001   0.000000   0.000000   0.000005
    39  H    0.000000   0.000022  -0.000047   0.000000   0.000000   0.000408
    40  H    0.000000  -0.000018   0.000231   0.000000   0.000000  -0.000283
    41  H    0.000000  -0.000026   0.001062   0.000000   0.000000   0.006432
    42  H   -0.000001  -0.000478   0.002979   0.000001   0.000000   0.003434
    43  H    0.000000   0.000668   0.000173   0.000000   0.000000  -0.002200
    44  H    0.000000   0.000055  -0.000036   0.000000   0.000000  -0.000107
    45  H    0.000000  -0.000003   0.000006   0.000000   0.000000   0.000070
              7          8          9         10         11         12
     1  O   -0.001291   0.000004  -0.019861  -0.021329   0.000567  -0.221941
     2  C    0.051208  -0.001622   0.422000  -0.000738  -0.005537  -1.657848
     3  C   -0.221369   0.024739  -0.228217   0.010045  -0.003619  -0.439650
     4  O    0.015869  -0.000635   0.009225   0.000238   0.000001   0.008164
     5  H   -0.001087   0.000006  -0.004913  -0.000033   0.000000   0.025895
     6  C    0.276430  -0.009531  -0.039904  -0.017880  -0.000335   0.370669
     7  O    8.237799   0.216496   0.001975   0.000042   0.000000   0.035580
     8  H    0.216496   0.333221   0.000171   0.000000   0.000000  -0.000390
     9  C    0.001975   0.000171   6.202557   0.047159   0.011540  -1.243123
    10  O    0.000042   0.000000   0.047159   8.373868   0.187107   0.048370
    11  H    0.000000   0.000000   0.011540   0.187107   0.446436   0.025385
    12  C    0.035580  -0.000390  -1.243123   0.048370   0.025385   9.892591
    13  O    0.009886   0.001861   0.045449  -0.004576   0.000304  -0.180956
    14  C   -0.022179  -0.027768  -0.170434   0.024866  -0.003572  -0.511196
    15  O   -0.007974   0.021785  -0.016941  -0.000097   0.000008   0.033437
    16  C   -0.037526  -0.002271  -0.086541  -0.002151   0.000011  -0.001859
    17  C    0.007085   0.001052   0.001702   0.000656   0.000043  -0.078758
    18  O   -0.000108  -0.000004   0.009654   0.000018   0.000022  -0.038440
    19  H   -0.000037  -0.000014  -0.012953  -0.000083  -0.000003   0.028067
    20  C    0.002880   0.001299  -0.001846   0.000145  -0.000005  -0.022336
    21  O   -0.000003   0.000000   0.000098   0.000000   0.000000   0.000050
    22  H    0.000000   0.000000   0.000003   0.000000   0.000000   0.000036
    23  C   -0.009025   0.025134  -0.000004   0.000004   0.000000  -0.002456
    24  O   -0.014165   0.005778   0.000158   0.000000   0.000000  -0.000195
    25  H    0.001920  -0.000370  -0.000002   0.000000   0.000000  -0.000087
    26  C    0.038149  -0.029781   0.015723   0.000086   0.000012   0.086178
    27  O    0.000003  -0.000049  -0.000059   0.000000   0.000000  -0.000051
    28  C   -0.000341  -0.000278  -0.003332  -0.000017   0.000000   0.001876
    29  O   -0.000003   0.000000   0.000012   0.000000   0.000000   0.000107
    30  H   -0.000003   0.000000  -0.010635   0.001860  -0.000006   0.005117
    31  H   -0.000012   0.000000   0.412014  -0.047058  -0.008812  -0.018123
    32  H   -0.000009   0.000000   0.553436  -0.060494  -0.004655  -0.222962
    33  H    0.000146   0.000001   0.044516   0.006823  -0.000130   0.153771
    34  H    0.000725  -0.000002   0.023293   0.000969  -0.000001  -0.165539
    35  H    0.012423  -0.000028   0.024315   0.000134   0.000000  -0.026107
    36  H   -0.046293  -0.000916   0.022211   0.000061   0.000000   0.005489
    37  H    0.007215  -0.000890   0.008846   0.000133   0.000000   0.008739
    38  H    0.000000   0.000000   0.000000   0.000000   0.000000  -0.000001
    39  H   -0.000352   0.000067   0.000000   0.000000   0.000000  -0.000002
    40  H   -0.000099   0.000253  -0.000003   0.000000   0.000000   0.000130
    41  H   -0.000062   0.000060   0.000006   0.000000   0.000000   0.000142
    42  H   -0.000121   0.000026  -0.000223   0.000002   0.000000   0.002154
    43  H   -0.000008   0.000002  -0.000322   0.000000   0.000000   0.000035
    44  H   -0.000001   0.000000  -0.000188   0.000000   0.000000   0.000712
    45  H   -0.000001   0.000000  -0.000001   0.000000   0.000000   0.000049
             13         14         15         16         17         18
     1  O    0.003766   0.025327   0.000524   0.003338   0.000002   0.000009
     2  C    0.032410   1.511077  -0.055412   0.008892  -0.001268   0.014393
     3  C   -0.085392  -1.831474   0.043196  -0.253956  -0.030467  -0.001752
     4  O    0.002943   0.009785  -0.000957   0.001819   0.001256  -0.000002
     5  H   -0.000198   0.007316   0.000086   0.001040   0.000051   0.000000
     6  C   -0.200415  -3.909504   0.262974  -0.214650  -0.097964  -0.002543
     7  O    0.009886  -0.022179  -0.007974  -0.037526   0.007085  -0.000108
     8  H    0.001861  -0.027768   0.021785  -0.002271   0.001052  -0.000004
     9  C    0.045449  -0.170434  -0.016941  -0.086541   0.001702   0.009654
    10  O   -0.004576   0.024866  -0.000097  -0.002151   0.000656   0.000018
    11  H    0.000304  -0.003572   0.000008   0.000011   0.000043   0.000022
    12  C   -0.180956  -0.511196   0.033437  -0.001859  -0.078758  -0.038440
    13  O    8.535677   0.327396  -0.052899   0.081362  -0.073940   0.032328
    14  C    0.327396  11.498385  -0.072366  -0.966685  -0.039694  -0.043850
    15  O   -0.052899  -0.072366   8.328515  -0.042091   0.061901  -0.006350
    16  C    0.081362  -0.966685  -0.042091  16.607075  -3.205498  -0.033210
    17  C   -0.073940  -0.039694   0.061901  -3.205498   9.218897   0.315896
    18  O    0.032328  -0.043850  -0.006350  -0.033210   0.315896   8.246187
    19  H    0.007741   0.008803   0.026219  -0.095490   0.036524   0.160899
    20  C   -0.011832  -0.534268   0.062498  -2.415506  -0.395206  -0.138474
    21  O    0.000335   0.003754  -0.000933   0.070892  -0.198457   0.019216
    22  H    0.000001  -0.001250   0.000029  -0.023942   0.017301  -0.001012
    23  C    0.016017  -0.098221  -0.080847  -0.469180  -0.228315   0.010476
    24  O   -0.000242   0.033430  -0.002317   0.014396   0.004371   0.000221
    25  H    0.000011  -0.003950   0.001298   0.006384  -0.001481   0.000000
    26  C   -0.031373  -0.463321  -0.018462  -5.145570   0.997614   0.035206
    27  O   -0.000039  -0.002607   0.002157  -0.015174  -0.067284   0.000923
    28  C    0.002889  -0.025120  -0.001109   1.579056  -0.493394  -0.006997
    29  O    0.000022   0.002901   0.000166  -0.037775   0.017041  -0.000526
    30  H   -0.001061  -0.000720  -0.000016   0.000225  -0.000061   0.000000
    31  H   -0.002124  -0.001335  -0.000208   0.009864  -0.000570  -0.001896
    32  H    0.007377   0.006028  -0.000287  -0.006990   0.001160   0.000644
    33  H   -0.031910   0.101783  -0.000849   0.004572   0.006852   0.000527
    34  H    0.014475   0.079716  -0.000859   0.000340   0.001668   0.000103
    35  H    0.012810   0.200377  -0.001749   0.009820   0.001527   0.000052
    36  H    0.022904   0.197148  -0.020517   0.005044   0.006315   0.000191
    37  H   -0.060305   0.386079  -0.058918   0.025823   0.037842  -0.000096
    38  H    0.000000   0.000317   0.000001   0.003387   0.013221   0.000005
    39  H   -0.000012   0.000856  -0.001033   0.023663  -0.012642   0.000025
    40  H    0.000034   0.003174   0.001140  -0.002546   0.009598   0.000023
    41  H   -0.000314   0.053133   0.001776   0.088931   0.015000   0.000083
    42  H   -0.000230   0.020648  -0.060775   0.314030  -0.032210  -0.000385
    43  H    0.001349   0.042548  -0.014842   0.075084   0.299435  -0.049204
    44  H    0.000403   0.001137  -0.001783   0.159380  -0.236416   0.006253
    45  H    0.000006   0.007871   0.000034   0.133619   0.001648  -0.000566
             19         20         21         22         23         24
     1  O   -0.000035   0.000081   0.000000   0.000000  -0.000012  -0.000002
     2  C   -0.014379   0.000683   0.000051   0.000001   0.008296   0.004521
     3  C    0.008854  -0.006599  -0.000119  -0.000001   0.000359  -0.003640
     4  O   -0.000001  -0.000026   0.000000   0.000000   0.000166  -0.000077
     5  H    0.000000   0.000003   0.000000   0.000000  -0.000014  -0.000002
     6  C    0.012037   0.060182  -0.000465  -0.000063  -0.189337  -0.021369
     7  O   -0.000037   0.002880  -0.000003   0.000000  -0.009025  -0.014165
     8  H   -0.000014   0.001299   0.000000   0.000000   0.025134   0.005778
     9  C   -0.012953  -0.001846   0.000098   0.000003  -0.000004   0.000158
    10  O   -0.000083   0.000145   0.000000   0.000000   0.000004   0.000000
    11  H   -0.000003  -0.000005   0.000000   0.000000   0.000000   0.000000
    12  C    0.028067  -0.022336   0.000050   0.000036  -0.002456  -0.000195
    13  O    0.007741  -0.011832   0.000335   0.000001   0.016017  -0.000242
    14  C    0.008803  -0.534268   0.003754  -0.001250  -0.098221   0.033430
    15  O    0.026219   0.062498  -0.000933   0.000029  -0.080847  -0.002317
    16  C   -0.095490  -2.415506   0.070892  -0.023942  -0.469180   0.014396
    17  C    0.036524  -0.395206  -0.198457   0.017301  -0.228315   0.004371
    18  O    0.160899  -0.138474   0.019216  -0.001012   0.010476   0.000221
    19  H    0.383950   0.024689  -0.001211   0.000005  -0.005480  -0.000011
    20  C    0.024689   9.733502   0.230947  -0.000999   0.119625  -0.006824
    21  O   -0.001211   0.230947   8.243182   0.190862  -0.000738   0.000018
    22  H    0.000005  -0.000999   0.190862   0.436722  -0.000405   0.000000
    23  C   -0.005480   0.119625  -0.000738  -0.000405   7.150034   0.045301
    24  O   -0.000011  -0.006824   0.000018   0.000000   0.045301   8.430103
    25  H    0.000000   0.000349   0.000000   0.000000  -0.035464   0.211574
    26  C    0.013300   1.160517  -0.024641   0.011231  -0.921855   0.003861
    27  O    0.000073  -0.205704   0.005783   0.001626  -0.129270   0.002109
    28  C   -0.001544  -1.603636   0.012387   0.002558  -0.188676   0.008687
    29  O    0.000021  -0.077994  -0.016851   0.026130   0.003514   0.000062
    30  H    0.000000   0.000001   0.000000   0.000000   0.000003   0.000000
    31  H    0.000468  -0.001050  -0.000008   0.000000   0.000028   0.000000
    32  H   -0.000142   0.000251   0.000001   0.000000  -0.000015   0.000000
    33  H    0.000017   0.000916   0.000000   0.000000   0.000157   0.000006
    34  H   -0.000018   0.000055   0.000000   0.000000   0.000049   0.000008
    35  H   -0.000004   0.000014   0.000000   0.000000   0.000417   0.000109
    36  H   -0.000065   0.000631   0.000000   0.000000   0.002085  -0.000028
    37  H   -0.000601   0.013790   0.000003   0.000000   0.005795   0.000427
    38  H    0.000000  -0.026370   0.000316  -0.003739   0.001050   0.000000
    39  H    0.000000   0.001166   0.000003   0.000000   0.440755  -0.060040
    40  H    0.000000  -0.004637  -0.000008   0.000000   0.598560  -0.056394
    41  H    0.000005  -0.077908   0.000011   0.000006  -0.048345   0.004838
    42  H   -0.000808   0.015607  -0.000499   0.000005   0.024760   0.000356
    43  H   -0.003195  -0.159706   0.004709  -0.000197   0.045127  -0.000009
    44  H   -0.000125   0.321739  -0.039343  -0.003233   0.017060   0.000006
    45  H    0.000002  -0.196064   0.005748  -0.001974  -0.006097  -0.000015
             25         26         27         28         29         30
     1  O    0.000000  -0.000139   0.000000   0.000009   0.000000   0.238881
     2  C   -0.000099   0.058993  -0.000188  -0.001345  -0.000007   0.017188
     3  C    0.000563  -0.197565   0.000310  -0.002390   0.000050   0.003956
     4  O    0.000001   0.001310   0.000000   0.000005   0.000000  -0.000751
     5  H    0.000000   0.000032   0.000000   0.000000   0.000000  -0.002604
     6  C    0.001334  -0.609706   0.002675   0.019396  -0.000313  -0.000708
     7  O    0.001920   0.038149   0.000003  -0.000341  -0.000003  -0.000003
     8  H   -0.000370  -0.029781  -0.000049  -0.000278   0.000000   0.000000
     9  C   -0.000002   0.015723  -0.000059  -0.003332   0.000012  -0.010635
    10  O    0.000000   0.000086   0.000000  -0.000017   0.000000   0.001860
    11  H    0.000000   0.000012   0.000000   0.000000   0.000000  -0.000006
    12  C   -0.000087   0.086178  -0.000051   0.001876   0.000107   0.005117
    13  O    0.000011  -0.031373  -0.000039   0.002889   0.000022  -0.001061
    14  C   -0.003950  -0.463321  -0.002607  -0.025120   0.002901  -0.000720
    15  O    0.001298  -0.018462   0.002157  -0.001109   0.000166  -0.000016
    16  C    0.006384  -5.145570  -0.015174   1.579056  -0.037775   0.000225
    17  C   -0.001481   0.997614  -0.067284  -0.493394   0.017041  -0.000061
    18  O    0.000000   0.035206   0.000923  -0.006997  -0.000526   0.000000
    19  H    0.000000   0.013300   0.000073  -0.001544   0.000021   0.000000
    20  C    0.000349   1.160517  -0.205704  -1.603636  -0.077994   0.000001
    21  O    0.000000  -0.024641   0.005783   0.012387  -0.016851   0.000000
    22  H    0.000000   0.011231   0.001626   0.002558   0.026130   0.000000
    23  C   -0.035464  -0.921855  -0.129270  -0.188676   0.003514   0.000003
    24  O    0.211574   0.003861   0.002109   0.008687   0.000062   0.000000
    25  H    0.403903   0.040410  -0.000102  -0.001472   0.000002   0.000000
    26  C    0.040410  12.180469   0.327713  -1.253755  -0.028911  -0.000012
    27  O   -0.000102   0.327713   8.431036   0.158768  -0.077007   0.000000
    28  C   -0.001472  -1.253755   0.158768   6.702557   0.342633   0.000000
    29  O    0.000002  -0.028911  -0.077007   0.342633   8.223168   0.000000
    30  H    0.000000  -0.000012   0.000000   0.000000   0.000000   0.391018
    31  H    0.000000   0.000168   0.000000   0.000116   0.000000  -0.000006
    32  H    0.000000  -0.000306   0.000000  -0.000034   0.000000  -0.000192
    33  H    0.000000   0.000297   0.000000  -0.000093   0.000000  -0.000151
    34  H    0.000000   0.000420   0.000000  -0.000010   0.000000  -0.011816
    35  H    0.000000   0.002215   0.000000  -0.000022   0.000000  -0.000103
    36  H    0.000000   0.014841   0.000002  -0.000158   0.000000   0.000040
    37  H    0.000005   0.031808   0.000165  -0.001810  -0.000004   0.000003
    38  H    0.000000   0.000962  -0.002385   0.013601   0.237284   0.000000
    39  H   -0.005968  -0.063020   0.001284   0.000430  -0.000002   0.000000
    40  H   -0.006308  -0.250614  -0.000717   0.007368  -0.000369   0.000000
    41  H   -0.000217   0.163684  -0.058176   0.064920  -0.001763   0.000000
    42  H    0.000000  -0.065208   0.004152  -0.000279  -0.000505   0.000000
    43  H    0.000000  -0.031954   0.003305  -0.003066  -0.000186   0.000000
    44  H    0.000000  -0.034139   0.005673   0.047611  -0.005390   0.000000
    45  H    0.000000  -0.096426  -0.061920   0.495818  -0.053412   0.000000
             31         32         33         34         35         36
     1  O   -0.000453   0.004588   0.008041  -0.049490  -0.003537  -0.001166
     2  C   -0.012665  -0.016444   0.038475   0.491836   0.190693   0.129484
     3  C   -0.005558   0.012107  -0.040443  -0.110236   0.164423  -0.280406
     4  O    0.000030  -0.000094  -0.000021   0.002499  -0.032471   0.010389
     5  H    0.000000   0.000001   0.000007  -0.000704  -0.003800  -0.000143
     6  C   -0.001718   0.015748  -0.040753  -0.048879  -0.336922   0.156912
     7  O   -0.000012  -0.000009   0.000146   0.000725   0.012423  -0.046293
     8  H    0.000000   0.000000   0.000001  -0.000002  -0.000028  -0.000916
     9  C    0.412014   0.553436   0.044516   0.023293   0.024315   0.022211
    10  O   -0.047058  -0.060494   0.006823   0.000969   0.000134   0.000061
    11  H   -0.008812  -0.004655  -0.000130  -0.000001   0.000000   0.000000
    12  C   -0.018123  -0.222962   0.153771  -0.165539  -0.026107   0.005489
    13  O   -0.002124   0.007377  -0.031910   0.014475   0.012810   0.022904
    14  C   -0.001335   0.006028   0.101783   0.079716   0.200377   0.197148
    15  O   -0.000208  -0.000287  -0.000849  -0.000859  -0.001749  -0.020517
    16  C    0.009864  -0.006990   0.004572   0.000340   0.009820   0.005044
    17  C   -0.000570   0.001160   0.006852   0.001668   0.001527   0.006315
    18  O   -0.001896   0.000644   0.000527   0.000103   0.000052   0.000191
    19  H    0.000468  -0.000142   0.000017  -0.000018  -0.000004  -0.000065
    20  C   -0.001050   0.000251   0.000916   0.000055   0.000014   0.000631
    21  O   -0.000008   0.000001   0.000000   0.000000   0.000000   0.000000
    22  H    0.000000   0.000000   0.000000   0.000000   0.000000   0.000000
    23  C    0.000028  -0.000015   0.000157   0.000049   0.000417   0.002085
    24  O    0.000000   0.000000   0.000006   0.000008   0.000109  -0.000028
    25  H    0.000000   0.000000   0.000000   0.000000   0.000000   0.000000
    26  C    0.000168  -0.000306   0.000297   0.000420   0.002215   0.014841
    27  O    0.000000   0.000000   0.000000   0.000000   0.000000   0.000002
    28  C    0.000116  -0.000034  -0.000093  -0.000010  -0.000022  -0.000158
    29  O    0.000000   0.000000   0.000000   0.000000   0.000000   0.000000
    30  H   -0.000006  -0.000192  -0.000151  -0.011816  -0.000103   0.000040
    31  H    0.591518  -0.052572  -0.008161   0.000031   0.000002   0.000003
    32  H   -0.052572   0.617181   0.006210   0.004631   0.000002  -0.000040
    33  H   -0.008161   0.006210   0.595941   0.005734   0.002767  -0.000046
    34  H    0.000031   0.004631   0.005734   0.616374   0.006315   0.004691
    35  H    0.000002   0.000002   0.002767   0.006315   0.633240   0.007115
    36  H    0.000003  -0.000040  -0.000046   0.004691   0.007115   0.617221
    37  H    0.000003  -0.000023   0.005464   0.000060   0.004066   0.005728
    38  H    0.000000   0.000000   0.000000   0.000000   0.000000   0.000000
    39  H    0.000000   0.000000   0.000000   0.000000   0.000000   0.000000
    40  H    0.000000   0.000000   0.000000   0.000000   0.000000   0.000000
    41  H    0.000000   0.000000   0.000000   0.000000   0.000000  -0.000004
    42  H    0.000000   0.000000   0.000003   0.000000  -0.000004   0.000000
    43  H    0.000000   0.000000   0.000000   0.000000   0.000000  -0.000006
    44  H    0.000000   0.000000   0.000000   0.000000   0.000000   0.000000
    45  H    0.000000   0.000000   0.000000   0.000000   0.000000   0.000000
             37         38         39         40         41         42
     1  O   -0.000085   0.000000   0.000000   0.000000   0.000000  -0.000001
     2  C    0.024036   0.000000   0.000022  -0.000018  -0.000026  -0.000478
     3  C   -0.041790   0.000001  -0.000047   0.000231   0.001062   0.002979
     4  O    0.000336   0.000000   0.000000   0.000000   0.000000   0.000001
     5  H    0.000002   0.000000   0.000000   0.000000   0.000000   0.000000
     6  C   -0.175092   0.000005   0.000408  -0.000283   0.006432   0.003434
     7  O    0.007215   0.000000  -0.000352  -0.000099  -0.000062  -0.000121
     8  H   -0.000890   0.000000   0.000067   0.000253   0.000060   0.000026
     9  C    0.008846   0.000000   0.000000  -0.000003   0.000006  -0.000223
    10  O    0.000133   0.000000   0.000000   0.000000   0.000000   0.000002
    11  H    0.000000   0.000000   0.000000   0.000000   0.000000   0.000000
    12  C    0.008739  -0.000001  -0.000002   0.000130   0.000142   0.002154
    13  O   -0.060305   0.000000  -0.000012   0.000034  -0.000314  -0.000230
    14  C    0.386079   0.000317   0.000856   0.003174   0.053133   0.020648
    15  O   -0.058918   0.000001  -0.001033   0.001140   0.001776  -0.060775
    16  C    0.025823   0.003387   0.023663  -0.002546   0.088931   0.314030
    17  C    0.037842   0.013221  -0.012642   0.009598   0.015000  -0.032210
    18  O   -0.000096   0.000005   0.000025   0.000023   0.000083  -0.000385
    19  H   -0.000601   0.000000   0.000000   0.000000   0.000005  -0.000808
    20  C    0.013790  -0.026370   0.001166  -0.004637  -0.077908   0.015607
    21  O    0.000003   0.000316   0.000003  -0.000008   0.000011  -0.000499
    22  H    0.000000  -0.003739   0.000000   0.000000   0.000006   0.000005
    23  C    0.005795   0.001050   0.440755   0.598560  -0.048345   0.024760
    24  O    0.000427   0.000000  -0.060040  -0.056394   0.004838   0.000356
    25  H    0.000005   0.000000  -0.005968  -0.006308  -0.000217   0.000000
    26  C    0.031808   0.000962  -0.063020  -0.250614   0.163684  -0.065208
    27  O    0.000165  -0.002385   0.001284  -0.000717  -0.058176   0.004152
    28  C   -0.001810   0.013601   0.000430   0.007368   0.064920  -0.000279
    29  O   -0.000004   0.237284  -0.000002  -0.000369  -0.001763  -0.000505
    30  H    0.000003   0.000000   0.000000   0.000000   0.000000   0.000000
    31  H    0.000003   0.000000   0.000000   0.000000   0.000000   0.000000
    32  H   -0.000023   0.000000   0.000000   0.000000   0.000000   0.000000
    33  H    0.005464   0.000000   0.000000   0.000000   0.000000   0.000003
    34  H    0.000060   0.000000   0.000000   0.000000   0.000000   0.000000
    35  H    0.004066   0.000000   0.000000   0.000000   0.000000  -0.000004
    36  H    0.005728   0.000000   0.000000   0.000000  -0.000004   0.000000
    37  H    0.638449   0.000000   0.000000   0.000007  -0.000002   0.011064
    38  H    0.000000   0.407682  -0.000002   0.000000   0.000028   0.000001
    39  H    0.000000  -0.000002   0.599479  -0.050562  -0.015735  -0.000144
    40  H    0.000007   0.000000  -0.050562   0.594610   0.007838   0.001937
    41  H   -0.000002   0.000028  -0.015735   0.007838   0.648903   0.007351
    42  H    0.011064   0.000001  -0.000144   0.001937   0.007351   0.612501
    43  H   -0.000036   0.000010   0.000005  -0.000005   0.006018   0.006457
    44  H   -0.000021   0.000177   0.000002  -0.000008   0.000111   0.003013
    45  H    0.000000  -0.007510   0.000021   0.000005   0.007660   0.000020
             43         44         45
     1  O    0.000000   0.000000   0.000000
     2  C    0.000668   0.000055  -0.000003
     3  C    0.000173  -0.000036   0.000006
     4  O    0.000000   0.000000   0.000000
     5  H    0.000000   0.000000   0.000000
     6  C   -0.002200  -0.000107   0.000070
     7  O   -0.000008  -0.000001  -0.000001
     8  H    0.000002   0.000000   0.000000
     9  C   -0.000322  -0.000188  -0.000001
    10  O    0.000000   0.000000   0.000000
    11  H    0.000000   0.000000   0.000000
    12  C    0.000035   0.000712   0.000049
    13  O    0.001349   0.000403   0.000006
    14  C    0.042548   0.001137   0.007871
    15  O   -0.014842  -0.001783   0.000034
    16  C    0.075084   0.159380   0.133619
    17  C    0.299435  -0.236416   0.001648
    18  O   -0.049204   0.006253  -0.000566
    19  H   -0.003195  -0.000125   0.000002
    20  C   -0.159706   0.321739  -0.196064
    21  O    0.004709  -0.039343   0.005748
    22  H   -0.000197  -0.003233  -0.001974
    23  C    0.045127   0.017060  -0.006097
    24  O   -0.000009   0.000006  -0.000015
    25  H    0.000000   0.000000   0.000000
    26  C   -0.031954  -0.034139  -0.096426
    27  O    0.003305   0.005673  -0.061920
    28  C   -0.003066   0.047611   0.495818
    29  O   -0.000186  -0.005390  -0.053412
    30  H    0.000000   0.000000   0.000000
    31  H    0.000000   0.000000   0.000000
    32  H    0.000000   0.000000   0.000000
    33  H    0.000000   0.000000   0.000000
    34  H    0.000000   0.000000   0.000000
    35  H    0.000000   0.000000   0.000000
    36  H   -0.000006   0.000000   0.000000
    37  H   -0.000036  -0.000021   0.000000
    38  H    0.000010   0.000177  -0.007510
    39  H    0.000005   0.000002   0.000021
    40  H   -0.000005  -0.000008   0.000005
    41  H    0.006018   0.000111   0.007660
    42  H    0.006457   0.003013   0.000020
    43  H    0.638962   0.006987   0.003983
    44  H    0.006987   0.599741   0.004925
    45  H    0.003983   0.004925   0.628032
 Mulliken atomic charges:
              1
     1  O   -0.525983
     2  C   -0.190699
     3  C    0.155774
     4  O   -0.506922
     5  H    0.361303
     6  C    0.021328
     7  O   -0.553764
     8  H    0.442595
     9  C   -0.016562
    10  O   -0.548129
    11  H    0.355237
    12  C    0.099275
    13  O   -0.421934
    14  C    0.175657
    15  O   -0.327152
    16  C   -0.169439
    17  C    0.117965
    18  O   -0.527944
    19  H    0.424524
    20  C    0.135421
    21  O   -0.505088
    22  H    0.350297
    23  C   -0.101014
    24  O   -0.605011
    25  H    0.387765
    26  C    0.081560
    27  O   -0.327027
    28  C    0.128193
    29  O   -0.552094
    30  H    0.370552
    31  H    0.148085
    32  H    0.135892
    33  H    0.139528
    34  H    0.133560
    35  H    0.131913
    36  H    0.141282
    37  H    0.123786
    38  H    0.361962
    39  H    0.141374
    40  H    0.147659
    41  H    0.124555
    42  H    0.131368
    43  H    0.130078
    44  H    0.145801
    45  H    0.134472
 Sum of Mulliken atomic charges =   0.00000
 Mulliken charges with hydrogens summed into heavy atoms:
              1
     1  O   -0.155431
     2  C   -0.057139
     3  C    0.287687
     4  O   -0.145619
     6  C    0.162610
     7  O   -0.111169
     9  C    0.267415
    10  O   -0.192892
    12  C    0.238803
    13  O   -0.421934
    14  C    0.299443
    15  O   -0.327152
    16  C   -0.038071
    17  C    0.248044
    18  O   -0.103420
    20  C    0.281222
    21  O   -0.154792
    23  C    0.188019
    24  O   -0.217246
    26  C    0.206115
    27  O   -0.327027
    28  C    0.262665
    29  O   -0.190132
 Sum of Mulliken charges with hydrogens summed into heavy atoms =   0.00000
 APT atomic charges:
              1
     1  O   -0.640480
     2  C    0.422640
     3  C    0.408601
     4  O   -0.644333
     5  H    0.272192
     6  C    0.394620
     7  O   -0.729379
     8  H    0.438156
     9  C    0.486822
    10  O   -0.619100
    11  H    0.246805
    12  C    0.433123
    13  O   -0.884756
    14  C    0.926040
    15  O   -0.864535
    16  C    0.431675
    17  C    0.382360
    18  O   -0.703122
    19  H    0.417869
    20  C    0.369230
    21  O   -0.628468
    22  H    0.266385
    23  C    0.475621
    24  O   -0.653458
    25  H    0.258344
    26  C    0.450661
    27  O   -0.786102
    28  C    0.922296
    29  O   -0.669466
    30  H    0.263331
    31  H   -0.044436
    32  H   -0.048386
    33  H   -0.043684
    34  H   -0.039298
    35  H   -0.055918
    36  H   -0.038654
    37  H   -0.059360
    38  H    0.261848
    39  H   -0.056623
    40  H   -0.045955
    41  H   -0.059581
    42  H   -0.040598
    43  H   -0.058333
    44  H   -0.038849
    45  H   -0.075747
 Sum of APT charges=   0.00000
 APT Atomic charges with hydrogens summed into heavy atoms:
              1
[...]
 01901,0.00211236,-0.00046943,0.00095801,-0.00072713,0.00001156,0.00020
 533,-0.00068199,-0.00030542,0.00090095,0.00042892,-0.00004755,0.000045
 91,0.00003013,0.00004733,-0.00006495,0.00034368,0.00001395,-0.00024533
 ,0.00019819,-0.00008025,0.00004256,-0.00000558,-0.00002242,-0.00000649
 ,-0.00612897,-0.00056913,-0.00147072,0.00141835,0.00064572,-0.00092393
 ,-0.00005562,-0.00024601,0.00005142,0.00008823,0.00003789,-0.00011086,
 -0.00000052,-0.00000382,-0.00000141,-0.00000914,0.00001728,-0.00000464
 ,0.00001823,-0.00000021,-0.00001327,0.00004485,0.00000683,0.00004037,0
 .00001223,0.00000411,-0.00001142,0.00002432,-0.00000080,0.00003011,0.0
 0005721,0.00019820,-0.00032335,0.00147929,0.00028230,0.00144772,0.0000
 0053,-0.00000478,-0.00000047,0.00006170,-0.00005288,0.00002028,0.00001
 039,-0.00053403,-0.00014065,0.00052072,-0.00050204,-0.00022186,0.37691
 535,0.00000502,-0.00001639,0.00003870,-0.00000752,0.00003319,-0.000036
 68,0.00001897,0.00000376,-0.00001743,0.00000987,-0.00002999,0.00001221
 ,-0.00000756,0.00000729,-0.00000285,-0.00004328,0.00009463,0.00000768,
 0.00020725,-0.00009233,-0.00012553,-0.00023608,-0.00000662,0.00000170,
 0.00002379,-0.00002620,-0.00001114,-0.00001153,0.00002799,0.00003186,0
 .00000602,-0.00000213,-0.00000200,-0.00003026,0.00002451,-0.00004721,0
 .00025323,0.00007548,0.00024464,-0.00090548,0.00095404,-0.00154418,-0.
 01178159,-0.00090744,0.00355084,-0.01179776,-0.04562749,-0.00340213,0.
 03281364,0.00103840,0.00807236,-0.00262916,0.00278455,0.00006399,0.000
 36377,-0.00005230,-0.00038828,0.00134689,0.00116343,-0.00121965,-0.000
 51337,-0.00022408,-0.00004365,-0.00009550,0.00000949,0.00000644,-0.000
 10099,0.00129476,0.00091156,0.00013756,-0.00021496,0.00011243,-0.00000
 036,-0.00003277,0.00003044,-0.02672762,-0.00049644,-0.00548487,0.00182
 890,0.00102450,0.00135111,0.00034618,-0.00053749,0.00001197,-0.0000425
 7,0.00010457,0.00003894,0.00000232,0.00000057,-0.00000477,0.00000706,-
 0.00001248,0.00000135,-0.00000709,-0.00000418,0.00000466,-0.00000792,0
 .00001685,-0.00000410,0.00000134,-0.00000669,0.00000113,0.00000988,0.0
 0000724,0.00001781,0.00006496,0.00000368,-0.00006119,0.00045001,0.0001
 4992,0.00026754,-0.00001236,0.00001454,-0.00000458,0.00028333,0.000126
 52,0.00001968,0.00043483,-0.00031223,-0.00015812,-0.00152557,-0.002486
 55,-0.00369045,0.01671448,0.04739187,-0.00000284,-0.00001870,-0.000053
 06,-0.00000679,0.00001452,0.00003436,-0.00002909,0.00002628,0.00003834
 ,-0.00001517,0.00000481,-0.00002863,0.00000011,-0.00000061,0.00000241,
 0.00010117,0.00012354,-0.00016154,-0.00016499,0.00003877,-0.00000795,0
 .00014975,-0.00024851,-0.00008295,-0.00004034,0.00004586,-0.00003100,0
 .00000391,-0.00004257,-0.00000732,0.00000193,0.00000015,-0.00000764,0.
 00004950,-0.00006407,-0.00006593,-0.00074406,-0.00041110,-0.00036870,0
 .00702200,0.00085218,0.00414156,0.03582068,0.00662973,-0.01164484,-0.0
 5671379,-0.00353263,-0.05164954,-0.01065044,-0.00195477,-0.00109320,0.
 00112422,0.00028558,0.00097310,0.00016000,0.00025224,-0.00007981,-0.00
 131842,-0.00008969,0.00046670,0.00039454,-0.00000322,0.00001415,-0.000
 01624,-0.00003991,-0.00001632,0.00036282,0.00075964,0.00045238,0.00011
 728,-0.00021475,0.00021719,-0.00004104,0.00000431,0.00006416,-0.025400
 76,-0.00117255,-0.00310707,0.00155694,0.00064674,0.00221971,-0.0004302
 2,0.00002855,-0.00013305,0.00012196,0.00004666,-0.00020037,-0.00000256
 ,0.00000619,0.00000497,-0.00000476,-0.00001474,-0.00000052,-0.00000162
 ,0.00000732,0.00000060,-0.00002386,-0.00002313,-0.00006087,-0.00000685
 ,0.00000677,0.00000988,-0.00004247,-0.00000924,-0.00005641,-0.00025129
 ,-0.00003950,0.00003593,-0.00100440,0.00009071,-0.00038666,0.00001187,
 0.00000459,0.00001782,0.00018057,0.00005781,0.00007070,0.00039374,-0.0
 0035613,-0.00005091,-0.00131452,-0.00276669,-0.00367023,0.05086529,-0.
 00090251,0.06484573,0.00000626,0.00002779,-0.00005915,-0.00002247,-0.0
 0003970,0.00004069,-0.00001223,-0.00004115,0.00002885,0.00001544,0.000
 05366,-0.00002985,-0.00000213,-0.00001237,0.00000787,0.00006368,-0.000
 08556,0.00001419,0.00005490,0.00013068,0.00007698,-0.00006008,-0.00006
 163,-0.00011156,-0.00002694,-0.00001284,0.00011963,0.00001192,-0.00002
 546,-0.00009865,-0.00001500,0.00000945,0.00002107,0.00001304,0.0000567
 9,0.00010622,-0.00003410,0.00035186,-0.00031320,0.00014671,-0.00046409
 ,-0.00024854,0.00200217,-0.00031883,0.00050179,-0.01658259,0.00056419,
 -0.00138330,-0.34282468,-0.02873086,-0.04325426,0.00390383,-0.00739399
 ,-0.00856998,-0.00037675,-0.00085651,0.00070653,-0.01855093,-0.0005191
 2,0.00039782,0.00209841,-0.00002019,-0.00014752,0.00008457,-0.00007630
 ,-0.00005158,0.00080253,0.00019887,0.00001860,0.00005404,-0.00011409,0
 .00013382,-0.00001778,0.00001218,0.00000904,-0.00119590,-0.00209632,-0
 .00099885,0.00051654,0.00072313,0.00040506,-0.00174933,-0.00129109,-0.
 00159748,0.00089701,0.00008161,-0.00001532,-0.00000844,-0.00000503,0.0
 0000926,0.00001837,0.00004913,-0.00000522,0.00000516,0.00000053,-0.000
 00403,0.00000668,-0.00000774,0.00001026,0.00000447,0.00000023,-0.00000
 662,0.00001118,-0.00000076,0.00000302,0.00000259,0.00002019,-0.0000375
 7,0.00008339,0.00001282,0.00026563,-0.00003460,0.00002124,0.00019955,-
 0.00003357,0.00014171,0.00003744,0.00008298,-0.00034269,-0.00003245,0.
 00168744,0.00055505,0.00058036,-0.00008425,0.00198069,-0.00070963,0.36
 815269,0.00000074,0.00003531,-0.00007441,-0.00003304,-0.00005611,0.000
 04379,0.00003128,-0.00001927,-0.00000833,-0.00000586,0.00005280,-0.000
 02526,0.00000556,-0.00001370,0.00000396,-0.00013553,-0.00005001,-0.000
 05523,-0.00005502,0.00008573,0.00005534,0.00006657,-0.00000557,-0.0000
 6886,-0.00004379,-0.00003415,0.00018582,0.00001736,-0.00003526,-0.0001
 3573,-0.00002199,0.00001264,0.00002419,0.00008417,0.00010367,0.0001326
 5,0.00000335,0.00055671,-0.00048046,0.00024424,-0.00023173,-0.00013891
 ,-0.00114890,0.00179730,-0.00179542,0.03263491,-0.00271481,0.00503929,
 -0.03274125,-0.04133503,0.00214843,-0.02630839,-0.01478930,-0.02186029
 ,-0.00089052,-0.00116796,0.00105021,-0.01317223,0.00066348,0.00046324,
 0.00047896,0.00084912,-0.00119791,0.00007649,0.00007216,-0.00011803,-0
 .00021940,0.00007920,0.00005860,-0.00003464,0.00000863,-0.00000143,-0.
 00000508,0.00001028,-0.00001482,0.00306052,0.00081246,0.00135891,-0.00
 040295,-0.00006758,-0.00008048,0.00030512,-0.00007734,-0.00105904,0.00
 025118,-0.00013813,0.00013469,-0.00000761,-0.00000315,0.00000863,0.000
 01115,0.00008109,0.00000328,0.00001330,0.00001676,-0.00002040,-0.00000
 600,-0.00002560,0.00000352,-0.00000129,0.00000070,-0.00000515,-0.00000
 318,0.00000149,-0.00000244,-0.00001796,-0.00001410,0.00003095,-0.00022
 791,-0.00001304,-0.00007948,0.00001000,0.00006681,0.00006769,-0.000041
 05,-0.00007293,0.00001866,-0.00011027,0.00011402,0.00002182,-0.0002191
 2,-0.00070866,-0.00029270,0.00162283,-0.00504005,0.00175851,0.03744386
 ,0.06099873,0.00000793,0.00002755,-0.00006103,-0.00004234,-0.00003993,
 0.00003805,0.00000415,-0.00005157,0.00001807,0.00001230,0.00004764,-0.
 00001959,-0.00000019,-0.00001215,0.00000839,-0.00001206,-0.00001927,0.
 00005185,0.00005371,0.00007349,0.00003012,-0.00005371,-0.00000853,-0.0
 0001922,-0.00006879,-0.00004820,0.00016655,0.00003272,-0.00002156,-0.0
 0011567,-0.00002317,0.00000810,0.00002346,0.00003999,0.00007953,0.0000
 9542,0.00015210,0.00050566,-0.00051260,-0.00027257,-0.00055079,-0.0005
 3140,0.00025201,-0.00117402,0.00151733,-0.01433407,0.00254919,-0.00049
 402,-0.04515461,0.00223539,-0.04699732,-0.02605963,-0.01987491,-0.0157
 7801,-0.00133554,-0.00102240,0.00072626,0.03356503,0.00376325,0.000974
 68,-0.00169349,-0.00118059,0.00191823,-0.00007440,-0.00024777,0.000172
 64,0.00036430,0.00009530,-0.00000946,0.00002942,-0.00003116,0.00003578
 ,-0.00000330,-0.00000667,0.00000081,0.00022346,-0.00160634,-0.00041060
 ,-0.00029681,-0.00005829,-0.00002772,0.00225892,0.00063756,0.00034484,
 -0.00043337,-0.00002474,0.00007459,-0.00000860,-0.00000383,0.00000566,
 0.00001295,0.00007579,0.00000039,0.00002607,0.00000984,-0.00003191,0.0
 0001510,-0.00001738,0.00001916,0.00000663,-0.00000003,-0.00001398,0.00
 001155,0.00000048,0.00000654,0.00001646,0.00002286,-0.00003628,0.00018
 309,0.00002491,0.00005849,-0.00007717,-0.00006562,-0.00002331,-0.00000
 106,0.00009076,0.00000641,0.00001607,-0.00013095,-0.00004982,0.0006447
 6,-0.00046612,0.00059140,-0.00070981,0.00197025,-0.00056058,0.05090523
 ,0.01311088,0.06438149,0.00000441,-0.00000568,-0.00001289,0.00000114,0
 .00000371,0.00001444,-0.00001657,-0.00001261,0.00001576,0.00001300,0.0
 0000742,-0.00001408,-0.00000402,-0.00000012,0.00000301,0.00001765,-0.0
 0000355,0.00002322,0.00002583,0.00000329,-0.00000776,-0.00001959,-0.00
 000362,0.00000603,-0.00001671,0.00000422,0.00000641,0.00001698,-0.0000
 0489,-0.00000674,-0.00000875,-0.00000042,0.00000100,-0.00003027,-0.000
 00307,0.00001526,0.00004734,-0.00002375,-0.00001932,-0.00012806,-0.000
 02937,0.00006996,0.00058957,-0.00003844,0.00014588,-0.00077151,0.00111
 695,-0.00055030,-0.01479842,-0.00471542,-0.00138675,0.00193232,0.00083
 233,-0.00014383,0.00000065,0.00007016,-0.00008256,-0.35587472,-0.03366
 270,-0.02606544,-0.00905583,0.01131584,-0.00742724,-0.00055730,0.00038
 711,0.00050796,0.00001376,-0.00001817,-0.00000284,0.00003259,0.0000223
 6,-0.00001061,-0.00001508,-0.00000753,-0.00000076,-0.00017568,-0.00021
 127,-0.00000073,0.00165218,-0.00067823,0.00054191,-0.00764123,0.000150
 03,0.00031055,0.00127339,-0.00014939,0.00009722,-0.00000273,0.00000192
 ,0.00000227,-0.00001108,0.00000321,-0.00000216,0.00001105,0.00000291,-
 0.00000868,0.00001331,-0.00000449,0.00000850,0.00000465,0.00000202,-0.
 00000439,0.00000752,-0.00000051,0.00000076,0.00000678,0.00000681,-0.00
 001051,0.00003469,-0.00001784,0.00003436,0.00026874,0.00027277,0.00026
 872,0.00001105,-0.00000101,0.00000584,0.00002247,-0.00005274,-0.000011
 36,0.00012086,0.00020155,0.00004085,0.00078273,-0.00064443,0.00027028,
 -0.00022280,-0.00090005,0.00214280,0.38204972,0.00000038,-0.00000294,0
 .00001009,-0.00000006,0.00000510,-0.00000673,-0.00000161,0.00000660,-0
 .00000114,0.00000181,-0.00000763,0.00000280,-0.00000094,0.00000252,-0.
 00000157,-0.00000162,0.00000073,-0.00000542,0.00001122,-0.00000623,-0.
 00000056,-0.00001076,-0.00000127,-0.00000487,0.00000385,0.00000470,-0.
 00002141,-0.00000522,0.00000415,0.00001828,0.00000571,-0.00000203,-0.0
 0000417,0.00000041,-0.00000543,-0.00001114,0.00002276,-0.00004364,0.00
 003695,-0.00001570,0.00006729,0.00000834,0.00017930,-0.00002977,-0.000
 07116,-0.00108850,0.00028490,-0.00001777,-0.00821502,0.00025814,-0.000
 71659,0.00080169,0.00051963,0.00053688,-0.00005792,0.00002217,-0.00007
 610,-0.03300804,-0.04234629,-0.00636791,0.03755481,-0.01220712,0.01203
 999,0.00160955,0.00046189,-0.00055324,-0.00002768,0.00004146,-0.000013
 99,0.00001613,-0.00002009,0.00000417,-0.00000614,0.00000313,0.00000144
 ,-0.00023494,-0.00020950,0.00012396,0.00115038,0.00197358,0.00027753,-
 0.02660081,-0.00246598,-0.00216949,0.00169323,0.00113475,0.00163298,0.
 00000068,0.00000050,-0.00000201,0.00000266,-0.00000803,0.00000138,-0.0
 0000189,-0.00000391,0.00000259,-0.00000017,0.00000418,0.00000025,0.000
 00070,-0.00000062,0.00000038,0.00000032,0.00000033,0.00000080,0.000002
 22,0.00000182,-0.00000351,0.00001691,-0.00000221,0.00002017,0.00002636
 ,0.00001502,0.00040731,0.00000169,-0.00000608,-0.00000887,0.00002146,-
 0.00005636,-0.00000464,0.00020559,0.00013033,-0.00000564,0.00017663,-0
 .00007334,0.00025071,-0.00050362,-0.00012361,0.00161780,0.02699554,0.0
 5553254,-0.00000327,-0.00000917,-0.00000732,-0.00000152,0.00000991,0.0
 0000169,0.00001105,0.00001229,0.00000975,-0.00000359,-0.00000620,-0.00
 001224,0.00000108,0.00000329,-0.00000167,-0.00001542,-0.00001093,-0.00
 001848,-0.00000972,-0.00000114,-0.00001590,0.00000590,-0.00001265,0.00
 000980,0.00001133,0.00001899,-0.00001634,-0.00001008,-0.00001217,0.000
 00643,0.00000576,0.00000132,-0.00000605,0.00002854,0.00000255,0.000021
 29,-0.00001431,-0.00011337,0.00001979,0.00004863,0.00017406,0.00015659
 ,-0.00056314,-0.00003485,-0.00036462,0.00119305,-0.00124405,0.00115698
 ,0.03277260,0.00592923,0.00200262,-0.00232097,-0.00022665,0.00250324,-
 0.00009096,0.00021054,0.00016371,-0.02456497,-0.00610887,-0.04722518,-
 0.01399495,0.00828429,-0.00124670,-0.00119063,-0.00003423,0.00005274,0
 .00001023,-0.00002825,0.00007314,-0.00000235,-0.00000185,-0.00000037,-
 0.00000637,-0.00000400,0.00000418,0.00030589,0.00018416,-0.00036897,0.
 00161520,0.00090529,0.00073714,-0.02616327,-0.00489333,-0.00308846,0.0
 0102136,0.00097711,0.00245045,0.00000038,0.00000270,0.00000039,0.00000
 093,-0.00000846,0.00000326,-0.00000690,-0.00000057,0.00000552,-0.00001
 012,0.00000371,-0.00001106,-0.00000309,-0.00000022,0.00000400,-0.00000
 212,0.00000034,-0.00000077,-0.00000356,-0.00000599,0.00000681,-0.00003
 615,-0.00000134,-0.00005313,-0.00002670,0.00027573,0.00049587,-0.00000
 066,0.00002636,0.00000683,-0.00001375,0.00002599,0.00000268,-0.0001862
 1,-0.00003129,-0.00017473,-0.00053226,0.00035978,-0.00020575,0.0024117
 3,0.00191069,-0.00512300,0.03142342,-0.00394293,0.05095307,0.00000464,
 -0.00000942,-0.00001722,-0.00000646,0.00000837,0.00001026,-0.00000028,
 -0.00000143,0.00001582,0.00000838,0.00000104,-0.00002200,-0.00000309,0
 .00000208,0.00000317,-0.00002720,0.00001672,0.00000757,0.00002246,-0.0
 0002411,-0.00005121,-0.00001402,0.00001065,0.00006508,-0.00001237,0.00
 001056,-0.00000174,0.00000943,-0.00001017,-0.00000355,-0.00000487,0.00
 000079,-0.00000093,0.00000088,-0.00000051,0.00001607,0.00001615,-0.000
 06153,-0.00004057,0.00001512,0.00007168,0.00009825,0.00004105,-0.00005
 207,-0.00029065,0.00014237,0.00045161,0.00022232,-0.00074743,-0.000440
 97,0.00075795,0.00048975,0.00017401,0.00022133,0.00000731,0.00002690,-
 0.00008401,-0.00879450,0.00183233,-0.00257843,0.00258402,0.00052171,0.
 00174957,-0.00072501,-0.00035443,0.00006547,0.00037890,-0.00032482,-0.
 00017040,0.00005306,0.00021006,-0.00011145,-0.00001946,-0.00001216,-0.
 00002820,0.00013975,-0.00049340,0.00088504,-0.00629897,0.01148293,-0.0
 0480793,-0.34827190,-0.01530999,-0.06045521,-0.01540569,-0.00288619,0.
 00639296,-0.00000428,0.00000239,0.00000286,-0.00000420,-0.00000159,-0.
 00000004,0.00000541,0.00000110,-0.00000376,0.00000436,-0.00000078,-0.0
 0000054,0.00000328,0.00000055,-0.00000164,0.00000418,0.00000022,0.0000
 0059,0.00000716,-0.00000330,-0.00000452,0.00000774,-0.00000446,-0.0000
 0511,0.00049387,0.00015132,0.00056734,-0.00002338,0.00001359,0.0000158
 7,0.00001766,-0.00023766,0.00004367,0.00045432,0.00058994,-0.00130257,
 0.00001760,-0.00018200,0.00022758,0.00112855,0.00039141,-0.00032206,0.
 00039598,-0.00072135,-0.00109004,0.37390974,0.00000065,0.00001593,0.00
 001326,0.00000232,-0.00001755,-0.00000585,-0.00000768,0.00000127,-0.00
 001469,-0.00000175,0.00000601,0.00001624,0.00000068,-0.00000314,-0.000
 00133,0.00002450,-0.00004338,-0.00001450,-0.00001003,0.00005583,0.0000
 8115,0.00000293,-0.00003547,-0.00011229,-0.00000187,-0.00001801,0.0000
 1597,0.00000519,0.00001291,-0.00000612,-0.00000430,-0.00000095,0.00000
 426,-0.00001838,0.00000823,-0.00001018,-0.00000063,0.00012793,0.000017
 01,-0.00009611,-0.00008927,-0.00013504,0.00003072,0.00032738,0.0003741
 7,-0.00042563,-0.00072886,0.00010601,-0.00115623,-0.00022583,0.0013266
 1,0.00054382,0.00003156,-0.00037193,0.00012180,-0.00010213,0.00008418,
 -0.02248384,-0.00014927,-0.00708976,0.00039112,0.00316943,0.00011822,-
 0.00067772,-0.00042265,0.00023961,0.00001554,0.00000131,-0.00009724,-0
 .00017991,-0.00024119,0.00024060,0.00001326,0.00003965,0.00001955,0.00
 419858,0.00197413,-0.00459178,0.03632137,-0.01536306,0.01514734,-0.013
 78356,-0.04237963,-0.00397112,-0.00605454,0.00394100,0.00196928,0.0000
 0129,-0.00000352,-0.00000173,0.00000157,0.00000849,-0.00000134,0.00000
 165,0.00000127,-0.00000072,0.00000262,-0.00000334,0.00000403,0.0000006
 2,0.00000029,-0.00000089,0.00000055,-0.00000072,0.00000094,-0.00000409
 ,0.00000620,0.00000028,0.00000769,0.00000264,0.00000538,-0.00030190,0.
 00024595,-0.00061194,-0.00006041,-0.00006112,0.00000700,-0.00022791,0.
 00017004,0.00008639,-0.00173590,0.00029123,0.00008473,0.00001017,-0.00
 014964,-0.00003717,0.00058424,0.00031800,-0.00028338,-0.00021085,-0.00
 285340,-0.00258578,0.00516036,0.05213545,0.00000076,-0.00000438,-0.000
 02936,-0.00000561,0.00000346,0.00002080,0.00000589,-0.00000396,0.00001
 958,0.00000493,0.00001136,-0.00002781,-0.00000023,-0.00000086,0.000003
 54,-0.00001689,-0.00000991,-0.00000107,0.00001173,0.00000473,-0.000031
 92,-0.00000872,-0.00000383,0.00003501,-0.00000794,0.00001318,0.0000186
 4,0.00000353,-0.00001756,-0.00002302,-0.00000298,0.00000278,0.00000325
 ,0.00001282,0.00001177,0.00003731,0.00000060,-0.00002489,-0.00008414,0
 .00003951,0.00005203,0.00010389,0.00007947,0.00005583,-0.00033087,0.00
 011295,-0.00028349,-0.00008711,-0.00227369,-0.00018035,0.00116818,0.00
 073110,0.00003643,-0.00011347,0.00000044,-0.00000521,0.00006430,-0.024
 72706,-0.00162650,-0.00315860,0.00207699,0.00161296,0.00149841,0.00019
 401,-0.00044841,0.00006091,0.00016650,0.00008607,0.00007669,0.00003942
 ,0.00011759,-0.00012997,-0.00000569,-0.00001932,-0.00000673,-0.0022940
 4,-0.00059165,0.00304091,-0.01060128,0.00818615,-0.00179112,-0.0667448
 6,-0.00674451,-0.05989227,0.03931700,0.00296060,-0.00904059,-0.0000026
 7,0.00000120,0.00000439,-0.00000043,0.00000473,-0.00000128,0.00000196,
 -0.00000007,-0.00000287,0.00000110,-0.00000199,-0.00000047,0.00000089,
 0.00000027,-0.00000168,0.00000262,0.00000010,-0.00000020,0.00000257,-0
 .00000030,-0.00000460,0.00000263,-0.00000646,0.00000587,0.00213251,0.0
 0005065,0.00338301,0.00001365,0.00000956,-0.00003028,0.00011960,-0.000
 11036,-0.00004424,0.00092271,-0.00003938,-0.00001548,0.00019253,0.0000
 2224,0.00012118,0.00066409,-0.00011898,-0.00045111,-0.00018743,-0.0029
 8393,-0.00290726,0.06002502,-0.00001739,0.06854164\\0.01389575,-0.0145
 3478,-0.00740471,0.00587257,0.01289705,0.00674998,-0.01618022,-0.01221
 307,0.02983928,0.00363816,-0.00123229,0.01475148,-0.00159738,-0.000934
 16,-0.03106661,0.00686463,-0.02488653,-0.02348490,0.01090288,0.0051131
 2,-0.00042695,-0.00406467,0.00822386,0.01984370,0.00257204,0.01956798,
 0.01156978,-0.00138190,0.01621949,0.00376833,0.01053079,-0.02996183,-0
 .00125608,-0.02251058,0.01264902,0.01331239,0.01194125,-0.00608450,-0.
 00870835,-0.03652399,0.00173639,-0.01036994,0.01242155,-0.00405830,0.0
 1279004,0.00395057,-0.00260090,0.00195835,-0.00264770,0.03624206,0.003
 76255,0.00819957,-0.02980342,0.00838789,-0.00106752,0.02538138,-0.0087
 8560,-0.01249113,0.00204484,-0.02512802,-0.00442638,0.00832212,-0.0067
 9904,0.00268042,-0.00954410,0.03152664,0.02177712,-0.01373787,-0.00225
 948,-0.00223898,-0.01238235,0.00072397,-0.00476893,0.02941071,0.010635
 27,-0.02709118,0.00014082,0.00017822,0.00612030,-0.00212185,0.00946864
 ,0.04206088,-0.02417816,-0.01282865,-0.00819844,0.00994433,0.01605063,
 -0.00242026,0.00343002,0.00004175,0.00432839,0.00710096,-0.01790678,-0
 .01954627,-0.00550360,-0.00394507,0.01952072,0.00080956,-0.00208021,-0
 .01874281,-0.00093715,-0.00323424,0.02126176,-0.00204982,-0.00082267,-
 0.01989278,0.00298287,0.00189029,0.01953714,0.00200455,-0.00537632,-0.
 00332815,-0.00342366,-0.00452018,-0.01062292,-0.00313006,-0.01508246,0
 .01930875,-0.00107132,-0.00904893,-0.02462632,0.00208108,0.00291341,0.
 01985470,0.00110402,0.00521257,-0.02256634,-0.00401960,-0.00311306,0.0
 1955744,0.00097705,0.00077565,-0.01986254,0.00002605,-0.00250258\\\@


 CHARLIE BROWN -- WHICH DO YOU THINK LASTS LONGER IN LIFE, THE GOOD THINGS 
                  OR THE BAD THINGS?
 LINUS --         GOOD THINGS LAST EIGHT SECONDS ..
                  BAD THINGS LAST THREE WEEKS
 CHARLIE BROWN -- WHAT ABOUT IN BETWEEN?
 SNOOPY --        IN BETWEEN YOU SHOULD TAKE A NAP ...
 Job cpu time:  0 days 12 hours 34 minutes 49.0 seconds.
 File lengths (MBytes):  RWF=   1323 Int=      0 D2E=      0 Chk=     19 Scr=      1
 Normal termination of Gaussian 09 at Tue Mar  1 02:58:25 2016.
Gaussian '09 finished on node002 at Tue Mar  1 02:58:25 EST 2016.
