Gaussian '09 started on node014 at Thu Mar 24 14:49:43 EDT 2016.
 Entering Gaussian System, Link 0=/usr/local/gaussian/g09/g09
 Initial command:
 /usr/local/gaussian/g09/l1.exe /home/srmcgrat/thesis/gaussian/cellobiose/400K/5151ps/1/2dp/gaussian17094/Gau-17130.inp -scrdir=/home/srmcgrat/thesis/gaussian/cellobiose/400K/5151ps/1/2dp/gaussian17094/
 Entering Link 1 = /usr/local/gaussian/g09/l1.exe PID=     17132.
  
 Copyright (c) 1988,1990,1992,1993,1995,1998,2003,2009,2010,
            Gaussian, Inc.  All Rights Reserved.
  
 This is part of the Gaussian(R) 09 program.  It is based on
 the Gaussian(R) 03 system (copyright 2003, Gaussian, Inc.),
 the Gaussian(R) 98 system (copyright 1998, Gaussian, Inc.),
 the Gaussian(R) 94 system (copyright 1995, Gaussian, Inc.),
 the Gaussian 92(TM) system (copyright 1992, Gaussian, Inc.),
 the Gaussian 90(TM) system (copyright 1990, Gaussian, Inc.),
 the Gaussian 88(TM) system (copyright 1988, Gaussian, Inc.),
 the Gaussian 86(TM) system (copyright 1986, Carnegie Mellon
 University), and the Gaussian 82(TM) system (copyright 1983,
 Carnegie Mellon University). Gaussian is a federally registered
 trademark of Gaussian, Inc.
  
 This software contains proprietary and confidential information,
 including trade secrets, belonging to Gaussian, Inc.
  
 This software is provided under written license and may be
 used, copied, transmitted, or stored only in accord with that
 written license.
  
 The following legend is applicable only to US Government
 contracts under FAR:
  
                    RESTRICTED RIGHTS LEGEND
  
 Use, reproduction and disclosure by the US Government is
 subject to restrictions as set forth in subparagraphs (a)
 and (c) of the Commercial Computer Software - Restricted
 Rights clause in FAR 52.227-19.
  
 Gaussian, Inc.
 340 Quinnipiac St., Bldg. 40, Wallingford CT 06492
  
  
 ---------------------------------------------------------------
 Warning -- This program may not be used in any manner that
 competes with the business of Gaussian, Inc. or will provide
 assistance to any competitor of Gaussian, Inc.  The licensee
 of this program is prohibited from giving any competitor of
 Gaussian, Inc. access to this program.  By using this program,
 the user acknowledges that Gaussian, Inc. is engaged in the
 business of creating and licensing software in the field of
 computational chemistry and represents and warrants to the
 licensee that it is not a competitor of Gaussian, Inc. and that
 it will not use this program in any manner prohibited above.
 ---------------------------------------------------------------
  

 Cite this work as:
 Gaussian 09, Revision B.01,
 M. J. Frisch, G. W. Trucks, H. B. Schlegel, G. E. Scuseria, 
 M. A. Robb, J. R. Cheeseman, G. Scalmani, V. Barone, B. Mennucci, 
 G. A. Petersson, H. Nakatsuji, M. Caricato, X. Li, H. P. Hratchian, 
 A. F. Izmaylov, J. Bloino, G. Zheng, J. L. Sonnenberg, M. Hada, 
 M. Ehara, K. Toyota, R. Fukuda, J. Hasegawa, M. Ishida, T. Nakajima, 
 Y. Honda, O. Kitao, H. Nakai, T. Vreven, J. A. Montgomery, Jr., 
 J. E. Peralta, F. Ogliaro, M. Bearpark, J. J. Heyd, E. Brothers, 
 K. N. Kudin, V. N. Staroverov, T. Keith, R. Kobayashi, J. Normand, 
 K. Raghavachari, A. Rendell, J. C. Burant, S. S. Iyengar, J. Tomasi, 
 M. Cossi, N. Rega, J. M. Millam, M. Klene, J. E. Knox, J. B. Cross, 
 V. Bakken, C. Adamo, J. Jaramillo, R. Gomperts, R. E. Stratmann, 
 O. Yazyev, A. J. Austin, R. Cammi, C. Pomelli, J. W. Ochterski, 
 R. L. Martin, K. Morokuma, V. G. Zakrzewski, G. A. Voth, 
 P. Salvador, J. J. Dannenberg, S. Dapprich, A. D. Daniels, 
 O. Farkas, J. B. Foresman, J. V. Ortiz, J. Cioslowski, 
 and D. J. Fox, Gaussian, Inc., Wallingford CT, 2010.
 
 ******************************************
 Gaussian 09:  EM64L-G09RevB.01 12-Aug-2010
                24-Mar-2016 
 ******************************************
 -------------------------------------------------
 # freq=raman b3lyp/6-31+g(2d,p) geom=connectivity
 -------------------------------------------------
 1/10=4,30=1,38=1,57=2/1,3;
 2/12=2,17=6,18=5,40=1/2;
 3/5=1,6=6,7=112,11=2,16=1,25=1,30=1,71=2,74=-5/1,2,3;
 4//1;
 5/5=2,38=5,98=1/2;
 8/6=4,10=90,11=11/1;
 10/13=10,15=4/2;
 11/6=3,8=1,9=11,15=111,16=1/1,2,10;
 10/6=1/2;
 6/7=2,8=2,9=2,10=2,18=1,28=1/1;
 7/8=1,10=1,25=1/1,2,3,16;
 1/10=4,30=1/3;
 99//99;
 -----------------
 400 5151/5151.com
 -----------------
 Symbolic Z-matrix:
 Charge =  0 Multiplicity = 1
 O                     9.201     7.59      12.248 
 C                     9.762     7.927     13.525 
 C                     9.389     9.337     13.955 
 O                     9.882     10.299    13.012 
 H                     9.79      9.87      12.113 
 C                     9.784     9.762     15.359 
 O                     8.94      10.833    15.807 
 H                     9.519     11.333    16.451 
 C                     9.439     5.494     14.334 
 O                     8.815     4.815     13.235 
 H                     8.805     3.875     13.575 
 C                     9.178     6.975     14.557 
 O                     9.712     7.341     15.837 
 C                     9.44      8.656     16.344 
 O                     10.259    8.647     17.522 
 C                     9.585     8.35      18.753 
 C                     9.91      6.931     19.192 
 O                     9.524     5.919     18.251 
 H                     9.706     6.259     17.329 
 C                     9.39      6.604     20.582 
 O                     9.823     5.364     21.159 
 H                     9.466     5.18      22.075 
 C                     9.761     10.772    19.666 
 O                     10.362    11.553    18.622 
 H                     10.18     12.519    18.805 
 C                     10.032    9.289     19.861 
 O                     9.499     8.995     21.16 
 C                     9.618     7.654     21.657 
 O                     8.816     7.625     22.847 
 H                     9.38782   7.60621   23.61789 
 H                     9.90895   7.42455   11.62108 
 H                     9.14801   4.98318   15.22803 
 H                     10.49615   5.37221   14.22221 
 H                     8.11873   7.12396   14.58261 
 H                     10.8266   7.82396   13.49494 
 H                     8.32108   9.38997   13.91442 
 H                     10.81873   10.02862   15.41502 
 H                     8.4094    8.72859   16.62239 
 H                     10.01949   11.25002   20.58773 
 H                     8.70239   10.8725   19.5471 
 H                     11.09396   9.18042   19.9341 
 H                     8.52866   8.44496   18.61147 
 H                     10.9769   6.88148   19.25657 
 H                     8.32854   6.52114   20.47548 
 H                     10.63256   7.53567   21.97568 
 

 GradGradGradGradGradGradGradGradGradGradGradGradGradGradGradGradGradGrad
 Berny optimization.
 Initialization pass.
 Trust Radius=3.00D-01 FncErr=1.00D-07 GrdErr=1.00D-07
 Number of steps in this run=      2 maximum allowed number of steps=      2.
 GradGradGradGradGradGradGradGradGradGradGradGradGradGradGradGradGradGrad

                          Input orientation:                          
 ---------------------------------------------------------------------
 Center     Atomic      Atomic             Coordinates (Angstroms)
 Number     Number       Type             X           Y           Z
 ---------------------------------------------------------------------
      1          8           0        9.201000    7.590000   12.248000
      2          6           0        9.762000    7.927000   13.525000
      3          6           0        9.389000    9.337000   13.955000
      4          8           0        9.882000   10.299000   13.012000
      5          1           0        9.790000    9.870000   12.113000
      6          6           0        9.784000    9.762000   15.359000
      7          8           0        8.940000   10.833000   15.807000
      8          1           0        9.519000   11.333000   16.451000
      9          6           0        9.439000    5.494000   14.334000
     10          8           0        8.815000    4.815000   13.235000
     11          1           0        8.805000    3.875000   13.575000
     12          6           0        9.178000    6.975000   14.557000
     13          8           0        9.712000    7.341000   15.837000
     14          6           0        9.440000    8.656000   16.344000
     15          8           0       10.259000    8.647000   17.522000
     16          6           0        9.585000    8.350000   18.753000
     17          6           0        9.910000    6.931000   19.192000
     18          8           0        9.524000    5.919000   18.251000
     19          1           0        9.706000    6.259000   17.329000
     20          6           0        9.390000    6.604000   20.582000
     21          8           0        9.823000    5.364000   21.159000
     22          1           0        9.466000    5.180000   22.075000
     23          6           0        9.761000   10.772000   19.666000
     24          8           0       10.362000   11.553000   18.622000
     25          1           0       10.180000   12.519000   18.805000
     26          6           0       10.032000    9.289000   19.861000
     27          8           0        9.499000    8.995000   21.160000
     28          6           0        9.618000    7.654000   21.657000
     29          8           0        8.816000    7.625000   22.847000
     30          1           0        9.387820    7.606214   23.617889
     31          1           0        9.908951    7.424555   11.621076
     32          1           0        9.148010    4.983178   15.228028
     33          1           0       10.496152    5.372214   14.222207
     34          1           0        8.118729    7.123963   14.582611
     35          1           0       10.826603    7.823964   13.494941
     36          1           0        8.321082    9.389967   13.914424
     37          1           0       10.818734   10.028624   15.415015
     38          1           0        8.409403    8.728590   16.622391
     39          1           0       10.019490   11.250017   20.587728
     40          1           0        8.702387   10.872500   19.547096
     41          1           0       11.093964    9.180422   19.934105
     42          1           0        8.528660    8.444955   18.611473
     43          1           0       10.976902    6.881479   19.256565
     44          1           0        8.328544    6.521140   20.475484
     45          1           0       10.632563    7.535666   21.975684
 ---------------------------------------------------------------------
                    Distance matrix (angstroms):
                    1          2          3          4          5
     1  O    0.000000
     2  C    1.434928   0.000000
     3  C    2.449735   1.520569   0.000000
     4  O    2.895883   2.429805   1.434483   0.000000
     5  H    2.358717   2.402036   1.959044   1.000353   0.000000
     6  C    3.838723   2.594468   1.519166   2.409644   3.247802
     7  O    4.821997   3.785240   2.422709   2.997423   3.910947
     8  H    5.637054   4.496817   3.198583   3.609383   4.586072
     9  C    2.966691   2.584241   3.861967   5.003195   4.919900
    10  O    2.970486   3.265801   4.614798   5.591286   5.269016
    11  H    3.964716   4.163779   5.506260   6.537941   6.248815
    12  C    2.389610   1.520652   2.446624   3.732508   3.837799
    13  O    3.633737   2.385632   2.762294   4.093811   4.502233
    14  C    4.239185   2.929486   2.484690   3.741261   4.415615
    15  O    5.481942   4.091628   3.735838   4.817814   5.565337
    16  C    6.560494   5.248070   4.902386   6.070082   6.814839
    17  C    7.011141   5.755763   5.786747   7.038225   7.665792
    18  O    6.239598   5.140407   5.491499   6.838105   7.304533
    19  H    5.276661   4.154007   4.578040   5.915156   6.344528
    20  C    8.394252   7.189573   7.168432   8.438009   9.085743
    21  O    9.205861   8.052990   8.238368   9.525299  10.106198
    22  H   10.121672   8.985328   9.122553  10.417062  11.015558
    23  C    8.091072   6.768006   5.900265   6.671888   7.606724
    24  O    7.594812   6.283891   5.257212   5.768450   6.747352
    25  H    8.261218   7.009963   5.854341   6.210962   7.207785
    26  C    7.844420   6.486358   5.941093   6.924695   7.773521
    27  O    9.026991   7.713820   7.213951   8.260570   9.093872
    28  C    9.418453   8.137855   7.887061   9.044432   9.799397
    29  O   10.606048   9.374743   9.073419  10.247627  11.009426
    30  H   11.371435  10.104915   9.816671  10.953547  11.732388
    31  H    0.960000   1.974582   3.061862   3.193404   2.497267
    32  H    3.959658   3.455919   4.542515   5.805815   5.830659
    33  H    3.239365   2.748092   4.125132   5.110284   5.017717
    34  H    2.615130   2.112758   2.627739   3.956867   4.053744
    35  H    2.062083   1.070000   2.137203   2.692826   2.677792
    36  H    2.605975   2.090016   1.070000   2.019201   2.373453
    37  H    4.312068   3.017560   2.157342   2.593271   3.462190
    38  H    4.588933   3.473600   2.905984   4.203528   4.852161
    39  H    9.144218   7.809665   6.931828   7.636426   8.589420
    40  H    8.018742   6.787075   5.839584   6.665424   7.579822
    41  H    8.073968   6.664969   6.219414   7.115870   7.958990
    42  H    6.455756   5.259431   4.818576   6.051703   6.771402
    43  H    7.264697   5.951466   6.054553   7.202281   7.833934
    44  H    8.342370   7.234671   7.181249   8.508175   9.125889
    45  H    9.832607   8.504415   8.314001   9.409941  10.170130
                    6          7          8          9         10
     6  C    0.000000
     7  O    1.435298   0.000000
     8  H    1.931510   0.999988   0.000000
     9  C    4.402894   5.560904   6.211442   0.000000
    10  O    5.470205   6.545772   7.302232   1.434649   0.000000
    11  H    6.228793   7.308475   8.025144   1.897155   0.999650
    12  C    2.962737   4.062426   4.763998   1.520267   2.558330
    13  O    2.468787   3.576443   4.043552   2.396862   3.735731
    14  C    1.520459   2.297324   2.680302   3.746778   4.980942
    15  O    2.479399   3.075643   2.984835   4.558196   5.928552
    16  C    3.681383   3.906434   3.768534   5.263612   6.598291
    17  C    4.766794   5.255923   5.200343   5.087924   6.415788
    18  O    4.816629   5.519202   5.705385   3.940906   5.184762
    19  H    4.019701   4.881057   5.152798   3.102666   4.431687
    20  C    6.116202   6.394339   6.280545   6.346023   7.583505
    21  O    7.279006   7.702828   7.608327   6.837030   8.006700
    22  H    8.136369   8.457004   8.336162   7.747413   8.871450
    23  C    4.423899   3.945839   3.272539   7.509407   8.816945
    24  O    3.766820   3.234920   2.339293   7.479997   8.764338
    25  H    4.430889   3.656255   2.717505   8.359997   9.604152
    26  C    4.533568   4.473401   4.008641   6.730632   8.087128
    27  O    5.858423   5.687296   5.257502   7.671693   8.985871
    28  C    6.643495   6.692401   6.375522   7.637013   8.923834
    29  O    7.846906   7.737457   7.426459   8.797753  10.014322
    30  H    8.544800   8.463018   8.079012   9.521274  10.766772
    31  H    4.410367   5.484371   6.225446   3.362715   3.257492
    32  H    4.822736   5.882083   6.477155   1.070000   2.027644
    33  H    4.590172   5.895198   6.438424   1.070000   2.027644
    34  H    3.214832   3.991312   4.813276   2.112274   2.762636
    35  H    2.884047   4.237829   4.770896   2.838696   3.628771
    36  H    2.089339   2.459115   3.412419   4.074843   4.651440
    37  H    1.070000   2.080941   2.112811   4.861592   5.995773
    38  H    2.133918   2.318391   2.836112   4.093822   5.191831
    39  H    5.441438   4.918797   4.167721   8.519261   9.844940
    40  H    4.465786   3.747845   3.234924   7.526435   8.749202
    41  H    4.794353   4.939997   4.387040   6.905779   8.314360
    42  H    3.726804   3.706350   3.740217   5.275759   6.493461
    43  H    4.991135   5.626987   5.460102   5.340589   6.723348
    44  H    6.228959   6.384415   6.384955   6.325026   7.454674
    45  H    7.032576   7.196516   6.795726   7.999270   9.333012
                   11         12         13         14         15
    11  H    0.000000
    12  C    3.273141   0.000000
    13  O    4.237033   1.434403   0.000000
    14  C    5.561344   2.467341   1.435360   0.000000
    15  O    6.361203   3.571466   2.200925   1.434756   0.000000
    16  C    6.888085   4.434263   3.088246   2.432682   1.434519
    17  C    6.489287   4.692652   3.385754   3.362682   2.419784
    18  O    5.153627   3.857524   2.807993   3.336896   2.917816
    19  H    4.537375   2.911258   1.843047   2.605108   2.458781
    20  C    7.542395   6.040133   4.812679   4.708912   3.780557
    21  O    7.795544   6.826254   5.678427   5.845355   4.918938
    22  H    8.624961   7.734681   6.606291   6.702806   5.777434
    23  C    9.251099   6.392103   5.141537   3.951731   3.059471
    24  O    9.319235   6.235717   5.091136   3.798944   3.108930
    25  H   10.196189   7.055880   5.986629   4.639708   4.079793
    26  C    8.386341   5.849472   4.482151   3.622215   2.436106
    27  O    9.177596   6.912528   5.578119   4.828277   3.732794
    28  C    8.958824   7.145953   5.829168   5.409589   4.300599
    29  O   10.001630   8.323319   7.072734   6.613724   5.610914
    30  H   10.729457   9.085271   7.792154   7.349437   6.245162
    31  H    4.199508   3.058764   4.221349   4.903303   6.036374
    32  H    2.019459   2.102031   2.499651   3.849711   4.463205
    33  H    2.349579   2.102031   2.664314   4.049779   4.655007
    34  H    3.470160   1.070000   2.039389   2.682421   3.942132
    35  H    4.437071   2.136961   2.638340   3.275987   4.149310
    36  H    5.546553   2.641833   3.135159   2.773721   4.161987
    37  H    6.731112   3.571109   2.937048   2.155926   2.581002
    38  H    5.744600   2.816320   2.058884   1.070000   2.058388
    39  H   10.249108   7.439997   6.159901   5.007391   4.028865
    40  H    9.200080   6.349628   5.220692   3.964438   3.387758
    41  H    8.592151   6.119481   4.698889   3.987413   2.607672
    42  H    6.806388   4.361326   3.211964   2.452859   2.054714
    43  H    6.785002   5.032962   3.674856   3.740859   2.577046
    44  H    7.405791   5.996333   4.909343   4.781435   4.119345
    45  H    9.344086   7.580697   6.210376   5.864573   4.605422
                   16         17         18         19         20
    16  C    0.000000
    17  C    1.520496   0.000000
    18  O    2.483040   1.434790   0.000000
    19  H    2.532725   1.990972   0.999404   0.000000
    20  C    2.536096   1.519681   2.433257   3.286471   0.000000
    21  O    3.842093   2.516376   2.975549   3.934922   1.434579
    22  H    4.593337   3.402180   3.895184   4.873023   2.064607
    23  C    2.594346   3.873004   5.060633   5.082496   4.283564
    24  O    3.298500   4.678898   5.708051   5.488954   5.411006
    25  H    4.211566   5.607888   6.655618   6.449097   6.226480
    26  C    1.519603   2.454100   3.769226   3.962095   2.853284
    27  O    2.493405   2.881326   4.233755   4.712229   2.462285
    28  C    2.986423   2.585385   3.823597   4.548115   1.519904
    29  O    4.228217   3.877821   4.953273   5.753814   2.549930
    30  H    4.925367   4.507447   5.627497   6.439436   3.197039
    31  H    7.199009   7.586995   6.809609   5.829246   9.013367
    32  H    4.894066   4.481932   3.186768   2.520547   5.599164
    33  H    5.497771   5.241395   4.180338   3.326092   6.571745
    34  H    4.587512   4.948975   4.108990   3.287893   6.154605
    35  H    5.428212   5.839009   5.286375   4.290090   7.333386
    36  H    5.107919   6.035229   5.683355   4.835316   7.304846
    37  H    3.934720   4.968570   5.158309   4.371679   6.361373
    38  H    2.462692   3.476494   3.433437   2.877383   4.599343
    39  H    3.459061   4.540259   5.841708   5.968906   4.688471
    40  H    2.787938   4.137613   5.185757   5.216471   4.445664
    41  H    2.088439   2.648091   3.991804   4.153037   3.156138
    42  H    1.070000   2.130064   2.738812   2.794506   2.830900
    43  H    2.085071   1.070000   2.012076   2.391272   2.086152
    44  H    2.808979   2.077575   2.596154   3.444773   1.070000
    45  H    3.485142   2.938811   4.209013   4.907144   2.086700
                   21         22         23         24         25
    21  O    0.000000
    22  H    1.000180   0.000000
    23  C    5.610647   6.095963   0.000000
    24  O    6.710485   7.303503   1.435652   0.000000
    25  H    7.540742   8.066202   1.992208   0.999884   0.000000
    26  C    4.139337   4.701705   1.520117   2.601868   3.401461
    27  O    3.645427   3.923333   2.336324   3.705344   4.292827
    28  C    2.352473   2.513663   3.702223   4.996695   5.667272
    29  O    2.995916   2.645091   4.573335   5.972430   6.492264
    30  H    3.356045   2.876305   5.077292   6.440889   6.922927
    31  H    9.758344  10.701344   8.714820   8.140163   8.811107
    32  H    5.981394   6.857178   7.319960   7.493690   8.405257
    33  H    6.969382   7.922406   7.702792   7.588036   8.495792
    34  H    7.017899   7.856846   6.468854   6.400414   7.154288
    35  H    8.111501   9.080705   6.921590   6.356753   7.117457
    36  H    8.423067   9.253630   6.088022   5.568243   6.096241
    37  H    7.466161   8.348320   4.443229   3.580095   4.254639
    38  H    5.822332   6.590890   3.907159   3.973457   4.718686
    39  H    5.916938   6.274028   1.070000   2.018217   2.194129
    40  H    5.847869   6.275185   1.070000   2.018217   2.333455
    41  H    4.204853   4.820485   2.093273   2.808294   3.640922
    42  H    4.202082   4.851243   2.836516   3.608488   4.400252
    43  H    2.693230   3.622351   4.096609   4.754354   5.711445
    44  H    2.009867   2.377165   4.558180   5.734977   6.495593
    45  H    2.457335   2.630569   4.070395   5.240169   5.923822
                   26         27         28         29         30
    26  C    0.000000
    27  O    1.434547   0.000000
    28  C    2.463785   1.435079   0.000000
    29  O    3.628188   2.278016   1.435321   0.000000
    30  H    4.166647   2.825297   1.974930   0.960000   0.000000
    31  H    8.449121   9.676024  10.042762  11.280784  12.009500
    32  H    6.386390   7.169812   6.977526   8.070824   8.793611
    33  H    6.881325   7.889984   7.826483   9.071108   9.721007
    34  H    6.017423   6.976244   7.250913   8.308872   9.136706
    35  H    6.580611   7.866829   8.252807   9.567817  10.227003
    36  H    6.188635   7.351317   8.040091   9.118716   9.923555
    37  H    4.575235   5.984557   6.785497   8.063669   8.671950
    38  H    3.665442   4.674194   5.287981   6.334745   7.152204
    39  H    2.091382   2.384010   3.773046   4.437729   4.781023
    40  H    2.091382   2.600203   3.955854   4.631255   5.264009
    41  H    1.070000   2.020176   2.734374   4.011660   4.354230
    42  H    2.129263   2.781923   3.329790   4.323723   5.148382
    43  H    2.656000   3.205343   2.864522   4.256000   4.698038
    44  H    3.307628   2.821083   2.083758   2.660866   3.489148
    45  H    2.811893   2.019891   1.070000   2.016699   2.061844
                   31         32         33         34         35
    31  H    0.000000
    32  H    4.421476   0.000000
    33  H    3.364936   1.726416   0.000000
    34  H    3.473606   2.461492   2.975005   0.000000
    35  H    2.124378   3.727107   2.578602   3.000934   0.000000
    36  H    3.412274   4.672169   4.579083   2.371117   2.984287
    37  H    4.690720   5.318158   4.817572   4.052157   2.923572
    38  H    5.381663   4.064222   4.623923   2.611517   4.054892
    39  H    9.749217   8.292113   8.677305   7.529850   7.918138
    40  H    8.727309   7.316901   7.862898   6.248064   7.101722
    41  H    8.578681   6.599299   6.890979   6.459065   6.585916
    42  H    7.198061   4.880082   5.707750   4.259671   5.643144
    43  H    7.728917   4.814302   5.277666   5.483958   5.840136
    44  H    9.039601   5.529254   6.717293   5.927341   7.527658
    45  H   10.380456   7.365457   8.050809   7.819615   8.487860
                   36         37         38         39         40
    36  H    0.000000
    37  H    2.982938   0.000000
    38  H    2.788961   2.992109   0.000000
    39  H    7.132837   5.374714   4.967280   0.000000
    40  H    5.836977   4.718596   3.638144   1.720521   0.000000
    41  H    6.630938   4.606231   4.287011   2.421764   2.955087
    42  H    4.795666   4.239079   2.012740   3.741193   2.607402
    43  H    6.471813   4.968606   4.116156   4.666128   4.602833
    44  H    7.160847   6.641674   4.441362   5.023362   4.464974
    45  H    8.588672   7.020817   5.918044   4.012316   4.556103
                   41         42         43         44         45
    41  H    0.000000
    42  H    2.978430   0.000000
    43  H    2.399562   2.975649   0.000000
    44  H    3.874586   2.686195   2.937585   0.000000
    45  H    2.661984   4.070765   2.817824   2.930591   0.000000
 Stoichiometry    C12H22O11
 Framework group  C1[X(C12H22O11)]
 Deg. of freedom   129
 Full point group                 C1      NOp   1
 Largest Abelian subgroup         C1      NOp   1
 Largest concise Abelian subgroup C1      NOp   1
                         Standard orientation:                         
 ---------------------------------------------------------------------
 Center     Atomic      Atomic             Coordinates (Angstroms)
 Number     Number       Type             X           Y           Z
 ---------------------------------------------------------------------
      1          8           0       -5.038538   -0.478705    0.218926
      2          6           0       -3.745344   -0.115362   -0.285704
      3          6           0       -3.305798    1.252984    0.210840
      4          8           0       -4.225457    2.265657   -0.220972
      5          1           0       -5.131630    1.843593   -0.183330
      6          6           0       -1.888177    1.688589   -0.118503
      7          8           0       -1.445289    2.680267    0.819851
      8          1           0       -0.782429    3.216663    0.297479
      9          6           0       -2.974562   -2.578076   -0.147005
     10          8           0       -4.095535   -3.289966    0.395995
     11          1           0       -3.767787   -4.232438    0.335776
     12          6           0       -2.738587   -1.126810    0.239460
     13          8           0       -1.442620   -0.736823   -0.235819
     14          6           0       -0.925083    0.544014    0.153885
     15          8           0        0.270425    0.585122   -0.638325
     16          6           0        1.482447    0.216157    0.034515
     17          6           0        1.910452   -1.177643   -0.396811
     18          8           0        0.948435   -2.204164   -0.115032
     19          1           0        0.035045   -1.837116   -0.287662
     20          6           0        3.284427   -1.566185    0.123435
     21          8           0        3.855032   -2.774751   -0.397906
     22          1           0        4.760556   -3.000590   -0.038207
     23          6           0        2.429740    2.630993    0.077311
     24          8           0        1.409192    3.473599   -0.479100
     25          1           0        1.600384    4.418699   -0.214522
     26          6           0        2.611825    1.172516   -0.310561
     27          8           0        3.894962    0.817108    0.223452
     28          6           0        4.377410   -0.516675    0.005007
     29          8           0        5.549031   -0.628462    0.826562
     30          1           0        6.332001   -0.611475    0.271343
     31          1           0       -5.651798   -0.576527   -0.513156
     32          1           0       -2.093697   -3.123879    0.119595
     33          1           0       -3.064627   -2.611224   -1.212692
     34          1           0       -2.734378   -1.065508    1.307695
     35          1           0       -3.753300   -0.130396   -1.355568
     36          1           0       -3.369162    1.218871    1.278418
     37          1           0       -1.806055    2.038244   -1.126420
     38          1           0       -0.668514    0.527906    1.192544
     39          1           0        3.362916    3.115214   -0.121717
     40          1           0        2.288881    2.646141    1.137891
     41          1           0        2.706871    1.150253   -1.376099
     42          1           0        1.318952    0.226293    1.091901
     43          1           0        1.997819   -1.140525   -1.462592
     44          1           0        3.153564   -1.734173    1.172032
     45          1           0        4.716790   -0.556090   -1.008979
 ---------------------------------------------------------------------
 Rotational constants (GHZ):      0.3957340      0.1445524      0.1088756
 Standard basis: 6-31+G(2d,p) (6D, 7F)
 There are   685 symmetry adapted basis functions of A   symmetry.
 Integral buffers will be    131072 words long.
 Raffenetti 2 integral format.
 Two-electron integral symmetry is turned on.
   685 basis functions,  1028 primitive gaussians,   685 cartesian basis functions
    91 alpha electrons       91 beta electrons
       nuclear repulsion energy      2270.7974654060 Hartrees.
 NAtoms=   45 NActive=   45 NUniq=   45 SFac= 1.00D+00 NAtFMM=   50 NAOKFM=F Big=F
 One-electron integrals computed using PRISM.
 NBasis=   685 RedAO= T  NBF=   685
 NBsUse=   685 1.00D-06 NBFU=   685
 Harris functional with IExCor=  402 diagonalized for initial guess.
 ExpMin= 4.38D-02 ExpMax= 5.48D+03 ExpMxC= 8.25D+02 IAcc=2 IRadAn=         0 AccDes= 0.00D+00
 HarFok:  IExCor=  402 AccDes= 0.00D+00 IRadAn=         0 IDoV= 1
 ScaDFX=  1.000000  1.000000  1.000000  1.000000
 FoFCou: FMM=F IPFlag=           0 FMFlag=      100000 FMFlg1=           0
         NFxFlg=           0 DoJE=T BraDBF=F KetDBF=T FulRan=T
         Omega=  0.000000  0.000000  1.000000  0.000000  0.000000 ICntrl=     500 IOpCl=  0
         NMat0=    1 NMatS0=    1 NMatT0=    0 NMatD0=    1 NMtDS0=    0 NMtDT0=    0
         I1Cent=           4 NGrid=           0.
 Petite list used in FoFCou.
 Initial guess orbital symmetries:
       Occupied  (A) (A) (A) (A) (A) (A) (A) (A) (A) (A) (A) (A)
                 (A) (A) (A) (A) (A) (A) (A) (A) (A) (A) (A) (A)
                 (A) (A) (A) (A) (A) (A) (A) (A) (A) (A) (A) (A)
                 (A) (A) (A) (A) (A) (A) (A) (A) (A) (A) (A) (A)
                 (A) (A) (A) (A) (A) (A) (A) (A) (A) (A) (A) (A)
                 (A) (A) (A) (A) (A) (A) (A) (A) (A) (A) (A) (A)
                 (A) (A) (A) (A) (A) (A) (A) (A) (A) (A) (A) (A)
                 (A) (A) (A) (A) (A) (A) (A)
       Virtual   (A) (A) (A) (A) (A) (A) (A) (A) (A) (A) (A) (A)
                 (A) (A) (A) (A) (A) (A) (A) (A) (A) (A) (A) (A)
                 (A) (A) (A) (A) (A) (A) (A) (A) (A) (A) (A) (A)
                 (A) (A) (A) (A) (A) (A) (A) (A) (A) (A) (A) (A)
                 (A) (A) (A) (A) (A) (A) (A) (A) (A) (A) (A) (A)
                 (A) (A) (A) (A) (A) (A) (A) (A) (A) (A) (A) (A)
                 (A) (A) (A) (A) (A) (A) (A) (A) (A) (A) (A) (A)
                 (A) (A) (A) (A) (A) (A) (A) (A) (A) (A) (A) (A)
                 (A) (A) (A) (A) (A) (A) (A) (A) (A) (A) (A) (A)
                 (A) (A) (A) (A) (A) (A) (A) (A) (A) (A) (A) (A)
                 (A) (A) (A) (A) (A) (A) (A) (A) (A) (A) (A) (A)
                 (A) (A) (A) (A) (A) (A) (A) (A) (A) (A) (A) (A)
                 (A) (A) (A) (A) (A) (A) (A) (A) (A) (A) (A) (A)
                 (A) (A) (A) (A) (A) (A) (A) (A) (A) (A) (A) (A)
                 (A) (A) (A) (A) (A) (A) (A) (A) (A) (A) (A) (A)
                 (A) (A) (A) (A) (A) (A) (A) (A) (A) (A) (A) (A)
                 (A) (A) (A) (A) (A) (A) (A) (A) (A) (A) (A) (A)
                 (A) (A) (A) (A) (A) (A) (A) (A) (A) (A) (A) (A)
                 (A) (A) (A) (A) (A) (A) (A) (A) (A) (A) (A) (A)
                 (A) (A) (A) (A) (A) (A) (A) (A) (A) (A) (A) (A)
                 (A) (A) (A) (A) (A) (A) (A) (A) (A) (A) (A) (A)
                 (A) (A) (A) (A) (A) (A) (A) (A) (A) (A) (A) (A)
                 (A) (A) (A) (A) (A) (A) (A) (A) (A) (A) (A) (A)
                 (A) (A) (A) (A) (A) (A) (A) (A) (A) (A) (A) (A)
                 (A) (A) (A) (A) (A) (A) (A) (A) (A) (A) (A) (A)
                 (A) (A) (A) (A) (A) (A) (A) (A) (A) (A) (A) (A)
                 (A) (A) (A) (A) (A) (A) (A) (A) (A) (A) (A) (A)
                 (A) (A) (A) (A) (A) (A) (A) (A) (A) (A) (A) (A)
                 (A) (A) (A) (A) (A) (A) (A) (A) (A) (A) (A) (A)
                 (A) (A) (A) (A) (A) (A) (A) (A) (A) (A) (A) (A)
                 (A) (A) (A) (A) (A) (A) (A) (A) (A) (A) (A) (A)
                 (A) (A) (A) (A) (A) (A) (A) (A) (A) (A) (A) (A)
                 (A) (A) (A) (A) (A) (A) (A) (A) (A) (A) (A) (A)
                 (A) (A) (A) (A) (A) (A) (A) (A) (A) (A) (A) (A)
                 (A) (A) (A) (A) (A) (A) (A) (A) (A) (A) (A) (A)
                 (A) (A) (A) (A) (A) (A) (A) (A) (A) (A) (A) (A)
                 (A) (A) (A) (A) (A) (A) (A) (A) (A) (A) (A) (A)
                 (A) (A) (A) (A) (A) (A) (A) (A) (A) (A) (A) (A)
                 (A) (A) (A) (A) (A) (A) (A) (A) (A) (A) (A) (A)
                 (A) (A) (A) (A) (A) (A) (A) (A) (A) (A) (A) (A)
                 (A) (A) (A) (A) (A) (A) (A) (A) (A) (A) (A) (A)
                 (A) (A) (A) (A) (A) (A) (A) (A) (A) (A) (A) (A)
                 (A) (A) (A) (A) (A) (A) (A) (A) (A) (A) (A) (A)
                 (A) (A) (A) (A) (A) (A) (A) (A) (A) (A) (A) (A)
                 (A) (A) (A) (A) (A) (A) (A) (A) (A) (A) (A) (A)
                 (A) (A) (A) (A) (A) (A) (A) (A) (A) (A) (A) (A)
                 (A) (A) (A) (A) (A) (A) (A) (A) (A) (A) (A) (A)
                 (A) (A) (A) (A) (A) (A) (A) (A) (A) (A) (A) (A)
                 (A) (A) (A) (A) (A) (A) (A) (A) (A) (A) (A) (A)
                 (A) (A) (A) (A) (A) (A)
 The electronic state of the initial guess is 1-A.
 Requested convergence on RMS density matrix=1.00D-08 within 128 cycles.
 Requested convergence on MAX density matrix=1.00D-06.
 Requested convergence on             energy=1.00D-06.
 No special actions if energy rises.
 SCF Done:  E(RB3LYP) =  -1297.98088579     A.U. after   13 cycles
             Convg  =    0.4757D-08             -V/T =  2.0065
 Range of M.O.s used for correlation:     1   685
 NBasis=   685 NAE=    91 NBE=    91 NFC=     0 NFV=     0
 NROrb=    685 NOA=    91 NOB=    91 NVA=   594 NVB=   594

 **** Warning!!: The largest alpha MO coefficient is  0.77452935D+02

          Differentiating once with respect to electric field.
                with respect to dipole field.
          Electric field/nuclear overlap derivatives assumed to be zero.
          There are     3 degrees of freedom in the 1st order CPHF.  IDoFFX=0.
      3 vectors produced by pass  0 Test12= 1.80D-12 3.33D-08 XBig12= 1.24D+02 1.42D+00.
 AX will form     3 AO Fock derivatives at one time.
      3 vectors produced by pass  1 Test12= 1.80D-12 3.33D-08 XBig12= 2.45D+01 4.68D-01.
      3 vectors produced by pass  2 Test12= 1.80D-12 3.33D-08 XBig12= 1.06D+01 2.27D-01.
      3 vectors produced by pass  3 Test12= 1.80D-12 3.33D-08 XBig12= 1.03D+00 9.17D-02.
      3 vectors produced by pass  4 Test12= 1.80D-12 3.33D-08 XBig12= 2.89D-01 4.52D-02.
      3 vectors produced by pass  5 Test12= 1.80D-12 3.33D-08 XBig12= 6.36D-02 1.95D-02.
      3 vectors produced by pass  6 Test12= 1.80D-12 3.33D-08 XBig12= 2.00D-02 1.39D-02.
      3 vectors produced by pass  7 Test12= 1.80D-12 3.33D-08 XBig12= 2.83D-03 6.03D-03.
      3 vectors produced by pass  8 Test12= 1.80D-12 3.33D-08 XBig12= 5.35D-04 1.95D-03.
      3 vectors produced by pass  9 Test12= 1.80D-12 3.33D-08 XBig12= 1.55D-04 1.27D-03.
      3 vectors produced by pass 10 Test12= 1.80D-12 3.33D-08 XBig12= 3.64D-05 5.12D-04.
      3 vectors produced by pass 11 Test12= 1.80D-12 3.33D-08 XBig12= 8.89D-06 3.13D-04.
      3 vectors produced by pass 12 Test12= 1.80D-12 3.33D-08 XBig12= 1.23D-06 8.52D-05.
      3 vectors produced by pass 13 Test12= 1.80D-12 3.33D-08 XBig12= 4.26D-07 5.35D-05.
      3 vectors produced by pass 14 Test12= 1.80D-12 3.33D-08 XBig12= 5.97D-08 2.40D-05.
      3 vectors produced by pass 15 Test12= 1.80D-12 3.33D-08 XBig12= 5.62D-09 7.84D-06.
      3 vectors produced by pass 16 Test12= 1.80D-12 3.33D-08 XBig12= 1.56D-09 4.67D-06.
      3 vectors produced by pass 17 Test12= 1.80D-12 3.33D-08 XBig12= 1.39D-10 1.31D-06.
      3 vectors produced by pass 18 Test12= 1.80D-12 3.33D-08 XBig12= 1.34D-11 2.45D-07.
      3 vectors produced by pass 19 Test12= 1.80D-12 3.33D-08 XBig12= 9.74D-12 4.00D-07.
      3 vectors produced by pass 20 Test12= 1.80D-12 3.33D-08 XBig12= 2.02D-12 7.83D-08.
      2 vectors produced by pass 21 Test12= 1.80D-12 3.33D-08 XBig12= 1.38D-12 1.26D-07.
 Inverted reduced A of dimension    65 with in-core refinement.
 End of Minotr Frequency-dependent properties file   721 does not exist.
 End of Minotr Frequency-dependent properties file   722 does not exist.
 Symmetrizing basis deriv contribution to polar:
 IMax=3 JMax=2 DiffMx= 0.00D+00
 G2DrvN: will do    16 centers at a time, making    3 passes doing MaxLOS=2.
 Calling FoFCou, ICntrl=  3107 FMM=F I1Cent=   0 AccDes= 0.00D+00.
 Calling FoFCou, ICntrl=  3107 FMM=F I1Cent=   0 AccDes= 0.00D+00.
 Calling FoFCou, ICntrl=  3107 FMM=F I1Cent=   0 AccDes= 0.00D+00.
 FoFDir/FoFCou used for L=0 through L=2.
 End of G2Drv Frequency-dependent properties file   721 does not exist.
 End of G2Drv Frequency-dependent properties file   722 does not exist.
          IDoAtm=111111111111111111111111111111111111111111111
          Differentiating once with respect to electric field.
                with respect to dipole field.
          Differentiating once with respect to nuclear coordinates.
          There are   138 degrees of freedom in the 1st order CPHF.  IDoFFX=5.
 Will reuse    3 saved solutions.
    135 vectors produced by pass  0 Test12= 5.41D-14 1.00D-09 XBig12= 1.51D-01 6.50D-02.
 AX will form    45 AO Fock derivatives at one time.
    135 vectors produced by pass  1 Test12= 5.41D-14 1.00D-09 XBig12= 1.70D-02 1.06D-02.
    132 vectors produced by pass  2 Test12= 5.41D-14 1.00D-09 XBig12= 1.09D-04 1.15D-03.
    132 vectors produced by pass  3 Test12= 5.41D-14 1.00D-09 XBig12= 4.65D-07 5.27D-05.
    132 vectors produced by pass  4 Test12= 5.41D-14 1.00D-09 XBig12= 1.01D-09 2.99D-06.
    132 vectors produced by pass  5 Test12= 5.41D-14 1.00D-09 XBig12= 3.78D-12 1.20D-07.
     79 vectors produced by pass  6 Test12= 5.41D-14 1.00D-09 XBig12= 1.39D-13 2.54D-08.
 Inverted reduced A of dimension   877 with in-core refinement.
 Isotropic polarizability for W=    0.000000      192.33 Bohr**3.
 End of Minotr Frequency-dependent properties file   721 does not exist.
 End of Minotr Frequency-dependent properties file   722 does not exist.

 **********************************************************************

            Population analysis using the SCF density.

 **********************************************************************

 Orbital symmetries:
       Occupied  (A) (A) (A) (A) (A) (A) (A) (A) (A) (A) (A) (A)
                 (A) (A) (A) (A) (A) (A) (A) (A) (A) (A) (A) (A)
                 (A) (A) (A) (A) (A) (A) (A) (A) (A) (A) (A) (A)
                 (A) (A) (A) (A) (A) (A) (A) (A) (A) (A) (A) (A)
                 (A) (A) (A) (A) (A) (A) (A) (A) (A) (A) (A) (A)
                 (A) (A) (A) (A) (A) (A) (A) (A) (A) (A) (A) (A)
                 (A) (A) (A) (A) (A) (A) (A) (A) (A) (A) (A) (A)
                 (A) (A) (A) (A) (A) (A) (A)
       Virtual   (A) (A) (A) (A) (A) (A) (A) (A) (A) (A) (A) (A)
                 (A) (A) (A) (A) (A) (A) (A) (A) (A) (A) (A) (A)
                 (A) (A) (A) (A) (A) (A) (A) (A) (A) (A) (A) (A)
                 (A) (A) (A) (A) (A) (A) (A) (A) (A) (A) (A) (A)
                 (A) (A) (A) (A) (A) (A) (A) (A) (A) (A) (A) (A)
                 (A) (A) (A) (A) (A) (A) (A) (A) (A) (A) (A) (A)
                 (A) (A) (A) (A) (A) (A) (A) (A) (A) (A) (A) (A)
                 (A) (A) (A) (A) (A) (A) (A) (A) (A) (A) (A) (A)
                 (A) (A) (A) (A) (A) (A) (A) (A) (A) (A) (A) (A)
                 (A) (A) (A) (A) (A) (A) (A) (A) (A) (A) (A) (A)
                 (A) (A) (A) (A) (A) (A) (A) (A) (A) (A) (A) (A)
                 (A) (A) (A) (A) (A) (A) (A) (A) (A) (A) (A) (A)
                 (A) (A) (A) (A) (A) (A) (A) (A) (A) (A) (A) (A)
                 (A) (A) (A) (A) (A) (A) (A) (A) (A) (A) (A) (A)
                 (A) (A) (A) (A) (A) (A) (A) (A) (A) (A) (A) (A)
                 (A) (A) (A) (A) (A) (A) (A) (A) (A) (A) (A) (A)
                 (A) (A) (A) (A) (A) (A) (A) (A) (A) (A) (A) (A)
                 (A) (A) (A) (A) (A) (A) (A) (A) (A) (A) (A) (A)
                 (A) (A) (A) (A) (A) (A) (A) (A) (A) (A) (A) (A)
                 (A) (A) (A) (A) (A) (A) (A) (A) (A) (A) (A) (A)
                 (A) (A) (A) (A) (A) (A) (A) (A) (A) (A) (A) (A)
                 (A) (A) (A) (A) (A) (A) (A) (A) (A) (A) (A) (A)
                 (A) (A) (A) (A) (A) (A) (A) (A) (A) (A) (A) (A)
                 (A) (A) (A) (A) (A) (A) (A) (A) (A) (A) (A) (A)
                 (A) (A) (A) (A) (A) (A) (A) (A) (A) (A) (A) (A)
                 (A) (A) (A) (A) (A) (A) (A) (A) (A) (A) (A) (A)
                 (A) (A) (A) (A) (A) (A) (A) (A) (A) (A) (A) (A)
                 (A) (A) (A) (A) (A) (A) (A) (A) (A) (A) (A) (A)
                 (A) (A) (A) (A) (A) (A) (A) (A) (A) (A) (A) (A)
                 (A) (A) (A) (A) (A) (A) (A) (A) (A) (A) (A) (A)
                 (A) (A) (A) (A) (A) (A) (A) (A) (A) (A) (A) (A)
                 (A) (A) (A) (A) (A) (A) (A) (A) (A) (A) (A) (A)
                 (A) (A) (A) (A) (A) (A) (A) (A) (A) (A) (A) (A)
                 (A) (A) (A) (A) (A) (A) (A) (A) (A) (A) (A) (A)
                 (A) (A) (A) (A) (A) (A) (A) (A) (A) (A) (A) (A)
                 (A) (A) (A) (A) (A) (A) (A) (A) (A) (A) (A) (A)
                 (A) (A) (A) (A) (A) (A) (A) (A) (A) (A) (A) (A)
                 (A) (A) (A) (A) (A) (A) (A) (A) (A) (A) (A) (A)
                 (A) (A) (A) (A) (A) (A) (A) (A) (A) (A) (A) (A)
                 (A) (A) (A) (A) (A) (A) (A) (A) (A) (A) (A) (A)
                 (A) (A) (A) (A) (A) (A) (A) (A) (A) (A) (A) (A)
                 (A) (A) (A) (A) (A) (A) (A) (A) (A) (A) (A) (A)
                 (A) (A) (A) (A) (A) (A) (A) (A) (A) (A) (A) (A)
                 (A) (A) (A) (A) (A) (A) (A) (A) (A) (A) (A) (A)
                 (A) (A) (A) (A) (A) (A) (A) (A) (A) (A) (A) (A)
                 (A) (A) (A) (A) (A) (A) (A) (A) (A) (A) (A) (A)
                 (A) (A) (A) (A) (A) (A) (A) (A) (A) (A) (A) (A)
                 (A) (A) (A) (A) (A) (A) (A) (A) (A) (A) (A) (A)
                 (A) (A) (A) (A) (A) (A) (A) (A) (A) (A) (A) (A)
                 (A) (A) (A) (A) (A) (A)
 The electronic state is 1-A.
 Alpha  occ. eigenvalues --  -19.18170 -19.18064 -19.17982 -19.17590 -19.17557
 Alpha  occ. eigenvalues --  -19.17091 -19.16482 -19.15927 -19.15700 -19.15687
 Alpha  occ. eigenvalues --  -19.13892 -10.30485 -10.30365 -10.25807 -10.25703
 Alpha  occ. eigenvalues --  -10.25575 -10.25531 -10.25379 -10.25040 -10.24630
 Alpha  occ. eigenvalues --  -10.24589 -10.24448 -10.24237  -1.10014  -1.08504
 Alpha  occ. eigenvalues --   -1.05837  -1.04217  -1.03718  -1.03546  -1.03025
 Alpha  occ. eigenvalues --   -1.02853  -1.02409  -1.01747  -1.00523  -0.82230
 Alpha  occ. eigenvalues --   -0.80413  -0.79096  -0.78451  -0.71691  -0.70288
 Alpha  occ. eigenvalues --   -0.67732  -0.65168  -0.62904  -0.62849  -0.61142
 Alpha  occ. eigenvalues --   -0.59845  -0.56330  -0.55856  -0.55179  -0.54500
 Alpha  occ. eigenvalues --   -0.54050  -0.53326  -0.53097  -0.52009  -0.51168
 Alpha  occ. eigenvalues --   -0.50351  -0.50045  -0.49750  -0.49134  -0.46224
 Alpha  occ. eigenvalues --   -0.45948  -0.44846  -0.44606  -0.43898  -0.43570
 Alpha  occ. eigenvalues --   -0.43097  -0.42086  -0.41781  -0.40222  -0.38725
 Alpha  occ. eigenvalues --   -0.37964  -0.37481  -0.37068  -0.36482  -0.36056
 Alpha  occ. eigenvalues --   -0.35588  -0.35459  -0.35018  -0.34264  -0.33897
 Alpha  occ. eigenvalues --   -0.32986  -0.31765  -0.30598  -0.29929  -0.29413
 Alpha  occ. eigenvalues --   -0.29204  -0.29047  -0.28529  -0.27645  -0.27101
 Alpha  occ. eigenvalues --   -0.26489
 Alpha virt. eigenvalues --   -0.02098  -0.02024  -0.01720  -0.00476   0.00736
 Alpha virt. eigenvalues --    0.01071   0.01710   0.02402   0.02865   0.03166
 Alpha virt. eigenvalues --    0.03676   0.04151   0.04818   0.05272   0.05632
 Alpha virt. eigenvalues --    0.05893   0.06278   0.07201   0.07432   0.08240
 Alpha virt. eigenvalues --    0.08407   0.08609   0.09348   0.09869   0.10164
 Alpha virt. eigenvalues --    0.10599   0.10733   0.11314   0.11381   0.11938
 Alpha virt. eigenvalues --    0.12249   0.12878   0.13253   0.13496   0.13620
 Alpha virt. eigenvalues --    0.14005   0.14100   0.14496   0.14834   0.15069
 Alpha virt. eigenvalues --    0.15528   0.15755   0.16474   0.16731   0.16792
 Alpha virt. eigenvalues --    0.17046   0.17456   0.17744   0.18070   0.18129
 Alpha virt. eigenvalues --    0.18666   0.18705   0.19227   0.19316   0.19676
 Alpha virt. eigenvalues --    0.20413   0.20913   0.20953   0.21192   0.21586
 Alpha virt. eigenvalues --    0.21690   0.22265   0.22480   0.22951   0.23313
 Alpha virt. eigenvalues --    0.23422   0.23673   0.24234   0.24301   0.24513
 Alpha virt. eigenvalues --    0.24705   0.24943   0.25338   0.25464   0.25855
 Alpha virt. eigenvalues --    0.26032   0.26433   0.26654   0.26794   0.27045
 Alpha virt. eigenvalues --    0.27381   0.27946   0.28090   0.28367   0.28573
 Alpha virt. eigenvalues --    0.28896   0.29194   0.29541   0.29920   0.30395
 Alpha virt. eigenvalues --    0.30896   0.31294   0.31703   0.31803   0.32275
 Alpha virt. eigenvalues --    0.32802   0.32870   0.33161   0.33316   0.33371
 Alpha virt. eigenvalues --    0.33878   0.34216   0.34907   0.35127   0.35774
 Alpha virt. eigenvalues --    0.36104   0.36660   0.36943   0.37212   0.37681
 Alpha virt. eigenvalues --    0.37844   0.38330   0.38665   0.38907   0.39565
 Alpha virt. eigenvalues --    0.39730   0.40252   0.40388   0.40575   0.40906
 Alpha virt. eigenvalues --    0.41451   0.42582   0.42800   0.43187   0.43277
 Alpha virt. eigenvalues --    0.43563   0.43961   0.44680   0.45863   0.45980
 Alpha virt. eigenvalues --    0.47306   0.47364   0.47982   0.48889   0.49181
 Alpha virt. eigenvalues --    0.50521   0.51430   0.54201   0.57748   0.58713
 Alpha virt. eigenvalues --    0.59211   0.60290   0.60596   0.60987   0.61910
 Alpha virt. eigenvalues --    0.62715   0.63024   0.63785   0.65234   0.66334
 Alpha virt. eigenvalues --    0.67695   0.68227   0.68507   0.69295   0.70110
 Alpha virt. eigenvalues --    0.71115   0.71447   0.72708   0.74121   0.74738
 Alpha virt. eigenvalues --    0.75056   0.75510   0.76258   0.76426   0.77048
 Alpha virt. eigenvalues --    0.78123   0.78751   0.79367   0.80600   0.81078
 Alpha virt. eigenvalues --    0.82268   0.83520   0.84120   0.84715   0.85221
 Alpha virt. eigenvalues --    0.87140   0.87804   0.88274   0.88673   0.89022
 Alpha virt. eigenvalues --    0.89898   0.90257   0.90698   0.90819   0.91499
 Alpha virt. eigenvalues --    0.91837   0.92202   0.92608   0.93510   0.93902
 Alpha virt. eigenvalues --    0.94581   0.94670   0.95163   0.95290   0.96139
 Alpha virt. eigenvalues --    0.96461   0.96910   0.97178   0.98384   0.98814
 Alpha virt. eigenvalues --    0.98896   0.99548   1.00177   1.01033   1.01836
 Alpha virt. eigenvalues --    1.02835   1.03697   1.04810   1.05313   1.05941
 Alpha virt. eigenvalues --    1.06329   1.06385   1.06800   1.07786   1.08471
 Alpha virt. eigenvalues --    1.08578   1.09375   1.10029   1.10696   1.11227
 Alpha virt. eigenvalues --    1.11924   1.12425   1.13006   1.13272   1.13708
 Alpha virt. eigenvalues --    1.14853   1.15299   1.16200   1.16454   1.16616
 Alpha virt. eigenvalues --    1.17324   1.17706   1.17976   1.18235   1.19060
 Alpha virt. eigenvalues --    1.19513   1.20126   1.21107   1.21486   1.22270
 Alpha virt. eigenvalues --    1.22532   1.23034   1.23465   1.24887   1.25329
 Alpha virt. eigenvalues --    1.25805   1.26362   1.26693   1.27245   1.27599
 Alpha virt. eigenvalues --    1.28523   1.28640   1.30027   1.30544   1.31221
 Alpha virt. eigenvalues --    1.31636   1.32850   1.33420   1.33579   1.33878
 Alpha virt. eigenvalues --    1.34206   1.34862   1.35892   1.36935   1.37253
 Alpha virt. eigenvalues --    1.37684   1.38671   1.39548   1.39793   1.40585
 Alpha virt. eigenvalues --    1.41198   1.42037   1.42546   1.43221   1.43772
 Alpha virt. eigenvalues --    1.45486   1.46092   1.46491   1.47060   1.47369
 Alpha virt. eigenvalues --    1.48001   1.49260   1.49918   1.51296   1.51797
 Alpha virt. eigenvalues --    1.52316   1.52698   1.53981   1.54255   1.54643
 Alpha virt. eigenvalues --    1.55667   1.57204   1.58608   1.59727   1.60991
 Alpha virt. eigenvalues --    1.61290   1.61410   1.62765   1.63324   1.63709
 Alpha virt. eigenvalues --    1.65346   1.65888   1.66922   1.67362   1.68982
 Alpha virt. eigenvalues --    1.70111   1.71476   1.72746   1.73178   1.75246
 Alpha virt. eigenvalues --    1.75442   1.76257   1.78199   1.78831   1.79757
 Alpha virt. eigenvalues --    1.80272   1.81059   1.81450   1.81951   1.83401
 Alpha virt. eigenvalues --    1.84186   1.85802   1.86465   1.86991   1.87920
 Alpha virt. eigenvalues --    1.89649   1.90645   1.91563   1.92459   1.93791
 Alpha virt. eigenvalues --    1.94382   1.95676   1.96565   1.97650   1.98248
 Alpha virt. eigenvalues --    1.99310   2.00869   2.02512   2.02871   2.03730
 Alpha virt. eigenvalues --    2.06051   2.07515   2.08358   2.08818   2.09182
 Alpha virt. eigenvalues --    2.11659   2.13498   2.14644   2.15885   2.16495
 Alpha virt. eigenvalues --    2.19500   2.19704   2.21621   2.23395   2.25736
 Alpha virt. eigenvalues --    2.26463   2.27085   2.27410   2.29471   2.30617
 Alpha virt. eigenvalues --    2.32357   2.33043   2.34019   2.36196   2.37922
 Alpha virt. eigenvalues --    2.38229   2.39099   2.42331   2.43835   2.51581
 Alpha virt. eigenvalues --    2.52693   2.53437   2.54745   2.55643   2.56032
 Alpha virt. eigenvalues --    2.58085   2.59480   2.64545   2.65537   2.67211
 Alpha virt. eigenvalues --    2.69091   2.69772   2.70260   2.70864   2.72189
 Alpha virt. eigenvalues --    2.73065   2.74433   2.75005   2.76514   2.78517
 Alpha virt. eigenvalues --    2.79245   2.81253   2.82204   2.84362   2.86968
 Alpha virt. eigenvalues --    2.87462   2.88354   2.90963   2.91651   2.92684
 Alpha virt. eigenvalues --    2.93507   2.93631   2.95703   2.96393   2.96645
 Alpha virt. eigenvalues --    2.97193   2.97701   2.98359   2.99214   3.01120
 Alpha virt. eigenvalues --    3.01488   3.01867   3.03183   3.03420   3.04705
 Alpha virt. eigenvalues --    3.05115   3.05840   3.05933   3.07390   3.07694
 Alpha virt. eigenvalues --    3.09014   3.09397   3.10065   3.11937   3.13045
 Alpha virt. eigenvalues --    3.13143   3.15346   3.17842   3.19913   3.21740
 Alpha virt. eigenvalues --    3.23185   3.23935   3.29779   3.73521   3.77477
 Alpha virt. eigenvalues --    3.99790   4.02594   4.05023   4.06390   4.09921
 Alpha virt. eigenvalues --    4.13452   4.14150   4.14598   4.16026   4.17357
 Alpha virt. eigenvalues --    4.18641   4.19293   4.20074   4.21446   4.21685
 Alpha virt. eigenvalues --    4.22628   4.24349   4.25254   4.25741   4.26036
 Alpha virt. eigenvalues --    4.27035   4.27981   4.28078   4.28963   4.29456
 Alpha virt. eigenvalues --    4.29989   4.30904   4.31507   4.31669   4.32194
 Alpha virt. eigenvalues --    4.32404   4.32952   4.34243   4.34504   4.34642
 Alpha virt. eigenvalues --    4.34704   4.35476   4.37000   4.37908   4.38799
 Alpha virt. eigenvalues --    4.39331   4.40000   4.41558   4.42835   4.43380
 Alpha virt. eigenvalues --    4.44229   4.44987   4.45828   4.48874   4.49581
 Alpha virt. eigenvalues --    4.50550   4.51298   4.52293   4.53357   4.53783
 Alpha virt. eigenvalues --    4.55511   4.56413   4.57472   4.58241   4.59057
 Alpha virt. eigenvalues --    4.60569   4.61611   4.62159   4.63243   4.63385
 Alpha virt. eigenvalues --    4.64055   4.65474   4.65778   4.66277   4.67351
 Alpha virt. eigenvalues --    4.68208   4.68797   4.69823   4.70395   4.70920
 Alpha virt. eigenvalues --    4.71604   4.71968   4.72379   4.72538   4.73068
 Alpha virt. eigenvalues --    4.74313   4.75003   4.75808   4.76340   4.76866
 Alpha virt. eigenvalues --    4.77150   4.77627   4.78569   4.79589   4.79959
 Alpha virt. eigenvalues --    4.81178   4.82423   4.83503   4.85023   4.86273
 Alpha virt. eigenvalues --    4.86999   4.87821   4.89290   4.89735   4.90241
 Alpha virt. eigenvalues --    4.91321   4.91746   4.93914   4.96007   4.96161
 Alpha virt. eigenvalues --    4.97718   5.00088   5.00726   5.02033   5.04288
 Alpha virt. eigenvalues --    5.05155   5.07018   5.07685   5.08930   5.13472
 Alpha virt. eigenvalues --    5.19176   5.21155   5.23255   5.28650   5.35023
 Alpha virt. eigenvalues --    5.44570   5.88064   5.89701   5.93284   6.37105
 Alpha virt. eigenvalues --    6.72006   6.72367   6.74847   6.76016   6.81745
 Alpha virt. eigenvalues --    6.86914   6.90171   6.94785   6.95491   7.05329
 Alpha virt. eigenvalues --    7.07110  11.84145  11.90770  12.08931  12.13062
 Alpha virt. eigenvalues --   12.24898  12.34338  12.65278  12.78152  12.84487
 Alpha virt. eigenvalues --   12.93245  13.06715  13.14068  13.16350  13.20077
 Alpha virt. eigenvalues --   13.25474  13.30864  13.36116  13.40930  13.47198
 Alpha virt. eigenvalues --   13.55388  13.58895  13.69047  13.88257
          Condensed to atoms (all electrons):
              1          2          3          4          5          6
     1  O    8.204596   0.288914  -0.067102  -0.016246   0.021747   0.028329
     2  C    0.288914   6.681713  -0.102705   0.038175  -0.043108  -1.099075
     3  C   -0.067102  -0.102705   6.652236   0.088911   0.003198  -0.333886
     4  O   -0.016246   0.038175   0.088911   8.233494   0.233119   0.002333
     5  H    0.021747  -0.043108   0.003198   0.233119   0.436653  -0.008882
     6  C    0.028329  -1.099075  -0.333886   0.002333  -0.008882   9.269525
     7  O    0.000182   0.012416  -0.015956   0.003320  -0.000519   0.020902
     8  H    0.000006  -0.007587   0.008888  -0.000774   0.000019   0.081197
     9  C   -0.028476  -0.096110  -0.454169   0.009178  -0.000539   0.472727
    10  O   -0.017597  -0.001970   0.017788  -0.000177   0.000014  -0.004092
    11  H    0.001031  -0.012912  -0.003092   0.000002   0.000000   0.001267
    12  C   -0.140396  -0.340075  -0.658819   0.019879   0.020223   0.503123
    13  O    0.001282  -0.073035  -0.090223  -0.001710  -0.000042   0.127123
    14  C    0.000407   0.380972   0.603715  -0.019493   0.005059  -2.626340
    15  O   -0.000151  -0.000149  -0.015115   0.000747  -0.000002  -0.011449
    16  C    0.000787   0.072443   0.009966  -0.004447   0.000699  -0.344520
    17  C   -0.000008  -0.035502   0.036529   0.000603   0.000008  -0.025303
    18  O    0.000059   0.010365  -0.002887  -0.000012   0.000000  -0.006326
    19  H   -0.000069  -0.006323   0.005582   0.000003   0.000000   0.004509
    20  C    0.000058   0.011271  -0.011264  -0.000027   0.000000   0.041098
    21  O    0.000000   0.000000   0.000000   0.000000   0.000000  -0.000071
    22  H    0.000000   0.000000   0.000001   0.000000   0.000000  -0.000037
    23  C    0.000020   0.006023  -0.016954   0.000062  -0.000008  -0.066473
    24  O    0.000000  -0.000305  -0.011016   0.000013  -0.000001  -0.006838
    25  H    0.000000   0.000062   0.001161   0.000003   0.000000  -0.001442
    26  C   -0.000035  -0.003261  -0.019296  -0.000014   0.000003  -0.055951
    27  O    0.000000  -0.000037   0.000426   0.000000   0.000000   0.001246
    28  C   -0.000001  -0.001059   0.002138   0.000003   0.000000  -0.010154
    29  O    0.000000   0.000003   0.000004   0.000000   0.000000  -0.000196
    30  H    0.000000   0.000000   0.000000   0.000000   0.000000   0.000006
    31  H    0.262871   0.039526  -0.037597   0.001200  -0.002094  -0.002919
    32  H   -0.000532  -0.015611   0.005587   0.000003   0.000000  -0.002179
    33  H    0.002528   0.000559  -0.009805   0.000041  -0.000001   0.010591
    34  H    0.006453   0.013355  -0.024211   0.000758  -0.000007  -0.022465
    35  H   -0.012088   0.323122  -0.042201   0.002182  -0.000209  -0.009470
    36  H   -0.002191   0.023183   0.301396  -0.025932  -0.001502  -0.185035
    37  H   -0.000227   0.022461  -0.098118   0.002546  -0.000117   0.364065
    38  H    0.000032  -0.005479  -0.042854  -0.000180   0.000005   0.047799
    39  H    0.000000   0.000007  -0.000113   0.000000   0.000000  -0.000349
    40  H    0.000000   0.000056  -0.000157  -0.000001   0.000000  -0.002302
    41  H    0.000000  -0.000172   0.000408   0.000000   0.000000  -0.006389
    42  H   -0.000001  -0.002565   0.004035   0.000005   0.000000  -0.000063
    43  H    0.000000   0.000647   0.000273   0.000000   0.000000   0.004820
    44  H    0.000000   0.000148   0.000014   0.000000   0.000000   0.000565
    45  H    0.000000   0.000000   0.000010   0.000000   0.000000  -0.000028
              7          8          9         10         11         12
     1  O    0.000182   0.000006  -0.028476  -0.017597   0.001031  -0.140396
     2  C    0.012416  -0.007587  -0.096110  -0.001970  -0.012912  -0.340075
     3  C   -0.015956   0.008888  -0.454169   0.017788  -0.003092  -0.658819
     4  O    0.003320  -0.000774   0.009178  -0.000177   0.000002   0.019879
     5  H   -0.000519   0.000019  -0.000539   0.000014   0.000000   0.020223
     6  C    0.020902   0.081197   0.472727  -0.004092   0.001267   0.503123
     7  O    8.175302   0.251826   0.001321   0.000006   0.000000  -0.002578
     8  H    0.251826   0.386175   0.000193   0.000000   0.000000   0.001063
     9  C    0.001321   0.000193   7.630403   0.042199   0.013211  -1.443643
    10  O    0.000006   0.000000   0.042199   8.226458   0.226344   0.076094
    11  H    0.000000   0.000000   0.013211   0.226344   0.451766   0.010195
    12  C   -0.002578   0.001063  -1.443643   0.076094   0.010195   8.822994
    13  O    0.002604  -0.000665  -0.001421  -0.002598  -0.000428   0.027779
    14  C    0.034691  -0.079504  -0.807089   0.006677  -0.004051  -0.874684
    15  O    0.016984  -0.000714  -0.005341   0.000057   0.000004   0.007042
    16  C    0.045269   0.002596  -0.143111  -0.001219   0.000014   0.027761
    17  C   -0.007348   0.001929  -0.011106   0.000032  -0.000126  -0.121844
    18  O    0.000195  -0.000017  -0.010471  -0.000149  -0.000008  -0.003023
    19  H   -0.000134   0.000001   0.006714  -0.000001  -0.000008  -0.011937
    20  C    0.002252  -0.000053   0.003352   0.000072   0.000023  -0.011920
    21  O   -0.000001   0.000000   0.000179   0.000000   0.000000  -0.000156
    22  H    0.000000   0.000000  -0.000006   0.000000   0.000000   0.000008
    23  C    0.019616  -0.006219  -0.000523   0.000002   0.000000   0.003135
    24  O   -0.021745   0.011251   0.000108   0.000000   0.000000   0.001797
    25  H    0.000733  -0.000988  -0.000012   0.000000   0.000000  -0.000316
    26  C   -0.006001  -0.001073  -0.001496  -0.000020   0.000002   0.030927
    27  O   -0.000131  -0.000016  -0.000011   0.000000   0.000000  -0.000262
    28  C   -0.000350   0.000070  -0.000695  -0.000006   0.000000   0.001747
    29  O   -0.000002   0.000000  -0.000010   0.000000   0.000000   0.000013
    30  H    0.000000   0.000000   0.000000   0.000000   0.000000   0.000000
    31  H   -0.000011   0.000000   0.000799  -0.000309  -0.000018  -0.005354
    32  H   -0.000012   0.000000   0.407789  -0.020649  -0.014661  -0.031085
    33  H    0.000008   0.000000   0.627004  -0.054785  -0.000131  -0.264067
    34  H   -0.000216   0.000001   0.056012   0.000339  -0.000324   0.125011
    35  H    0.000307   0.000004  -0.030669  -0.000873  -0.000008  -0.048525
    36  H    0.003638  -0.000049   0.012752  -0.000173   0.000000   0.030697
    37  H   -0.019463  -0.010320   0.008638   0.000006   0.000000   0.038157
    38  H   -0.011213   0.000267   0.012691   0.000046   0.000000   0.030196
    39  H   -0.000272   0.000079   0.000002   0.000000   0.000000   0.000054
    40  H    0.000548  -0.000132   0.000020   0.000000   0.000000   0.000336
    41  H   -0.000045  -0.000003   0.000082   0.000000   0.000000   0.000847
    42  H   -0.002000   0.000054  -0.000195   0.000001   0.000000   0.001629
    43  H   -0.000002   0.000000  -0.000680   0.000000   0.000000   0.000251
    44  H    0.000003   0.000000  -0.000101   0.000000   0.000000   0.000520
    45  H    0.000000   0.000000   0.000003   0.000000   0.000000   0.000019
             13         14         15         16         17         18
     1  O    0.001282   0.000407  -0.000151   0.000787  -0.000008   0.000059
     2  C   -0.073035   0.380972  -0.000149   0.072443  -0.035502   0.010365
     3  C   -0.090223   0.603715  -0.015115   0.009966   0.036529  -0.002887
     4  O   -0.001710  -0.019493   0.000747  -0.004447   0.000603  -0.000012
     5  H   -0.000042   0.005059  -0.000002   0.000699   0.000008   0.000000
     6  C    0.127123  -2.626340  -0.011449  -0.344520  -0.025303  -0.006326
     7  O    0.002604   0.034691   0.016984   0.045269  -0.007348   0.000195
     8  H   -0.000665  -0.079504  -0.000714   0.002596   0.001929  -0.000017
     9  C   -0.001421  -0.807089  -0.005341  -0.143111  -0.011106  -0.010471
    10  O   -0.002598   0.006677   0.000057  -0.001219   0.000032  -0.000149
    11  H   -0.000428  -0.004051   0.000004   0.000014  -0.000126  -0.000008
    12  C    0.027779  -0.874684   0.007042   0.027761  -0.121844  -0.003023
    13  O    8.229311   0.122126  -0.028793  -0.003997   0.001408  -0.028156
    14  C    0.122126   9.461783   0.208890  -0.778742   0.150540  -0.021933
    15  O   -0.028793   0.208890   8.004952   0.182475  -0.004659  -0.000474
    16  C   -0.003997  -0.778742   0.182475   9.930136  -1.523745   0.000972
    17  C    0.001408   0.150540  -0.004659  -1.523745   7.865847   0.186062
    18  O   -0.028156  -0.021933  -0.000474   0.000972   0.186062   8.244252
    19  H    0.035349   0.012911   0.007860  -0.067013   0.050402   0.227543
    20  C   -0.011833  -0.260044   0.008470  -0.843369  -0.268033  -0.038463
    21  O   -0.000043   0.004561   0.000219   0.054942  -0.085605   0.009489
    22  H    0.000001  -0.000498  -0.000017  -0.012379   0.021078  -0.000471
    23  C    0.003601   0.056597  -0.025049  -0.048752  -0.288796   0.010342
    24  O    0.000124   0.098134  -0.015938  -0.022953   0.006347   0.000007
    25  H   -0.000008  -0.010017   0.001051  -0.012468  -0.001901  -0.000001
    26  C   -0.017945  -0.457204  -0.060760  -1.771089  -0.234637   0.038976
    27  O    0.000090   0.007547   0.000646   0.043866  -0.051309  -0.000743
    28  C    0.002680   0.031730   0.003228   0.813267   0.040775  -0.010529
    29  O    0.000012  -0.000543  -0.000090  -0.017676   0.009523   0.000037
    30  H    0.000000   0.000133   0.000001   0.002097   0.002637  -0.000011
    31  H   -0.000646   0.001519  -0.000004   0.000148  -0.000023  -0.000001
    32  H   -0.001093   0.000218  -0.000104   0.000720   0.001744  -0.000369
    33  H   -0.004290  -0.002698  -0.000413  -0.004916   0.002233  -0.000075
    34  H   -0.021138   0.116446  -0.002207  -0.007426   0.008794  -0.000319
    35  H    0.009195   0.078677  -0.000226  -0.005024   0.002262   0.000040
    36  H    0.004614   0.081693   0.000551  -0.004635   0.001515   0.000030
    37  H    0.006942  -0.019408  -0.007757  -0.017241   0.000462   0.000087
    38  H   -0.038904   0.286658  -0.041384  -0.010679   0.019887  -0.001209
    39  H    0.000012   0.011202   0.000516  -0.004853   0.001152   0.000005
    40  H    0.000045   0.002105   0.001499   0.053144  -0.001056   0.000057
    41  H   -0.000031   0.057544  -0.000885   0.008727  -0.031698   0.000586
    42  H   -0.002836   0.007951  -0.033158   0.136446   0.040896  -0.002223
    43  H   -0.000954  -0.011117  -0.006199  -0.104472   0.259388  -0.036592
    44  H    0.000138  -0.012013   0.000587   0.067955  -0.203119   0.006237
    45  H    0.000014   0.001328   0.000268   0.051482   0.009785   0.000458
             19         20         21         22         23         24
     1  O   -0.000069   0.000058   0.000000   0.000000   0.000020   0.000000
     2  C   -0.006323   0.011271   0.000000   0.000000   0.006023  -0.000305
     3  C    0.005582  -0.011264   0.000000   0.000001  -0.016954  -0.011016
     4  O    0.000003  -0.000027   0.000000   0.000000   0.000062   0.000013
     5  H    0.000000   0.000000   0.000000   0.000000  -0.000008  -0.000001
     6  C    0.004509   0.041098  -0.000071  -0.000037  -0.066473  -0.006838
     7  O   -0.000134   0.002252  -0.000001   0.000000   0.019616  -0.021745
     8  H    0.000001  -0.000053   0.000000   0.000000  -0.006219   0.011251
     9  C    0.006714   0.003352   0.000179  -0.000006  -0.000523   0.000108
    10  O   -0.000001   0.000072   0.000000   0.000000   0.000002   0.000000
    11  H   -0.000008   0.000023   0.000000   0.000000   0.000000   0.000000
    12  C   -0.011937  -0.011920  -0.000156   0.000008   0.003135   0.001797
    13  O    0.035349  -0.011833  -0.000043   0.000001   0.003601   0.000124
    14  C    0.012911  -0.260044   0.004561  -0.000498   0.056597   0.098134
    15  O    0.007860   0.008470   0.000219  -0.000017  -0.025049  -0.015938
    16  C   -0.067013  -0.843369   0.054942  -0.012379  -0.048752  -0.022953
    17  C    0.050402  -0.268033  -0.085605   0.021078  -0.288796   0.006347
    18  O    0.227543  -0.038463   0.009489  -0.000471   0.010342   0.000007
    19  H    0.365837  -0.006473  -0.000309   0.000011  -0.003093  -0.000003
    20  C   -0.006473   7.223855   0.129700  -0.013939   0.099454  -0.007072
    21  O   -0.000309   0.129700   8.227287   0.237128  -0.000698   0.000004
    22  H    0.000011  -0.013939   0.237128   0.425414   0.000058   0.000000
    23  C   -0.003093   0.099454  -0.000698   0.000058   6.162513   0.010094
    24  O   -0.000003  -0.007072   0.000004   0.000000   0.010094   8.320593
    25  H    0.000000   0.001181   0.000000   0.000000  -0.016588   0.237808
    26  C   -0.008561   0.831201  -0.031542   0.004479  -0.506711   0.046946
    27  O   -0.000008  -0.068153   0.000187  -0.000542  -0.100585   0.000907
    28  C    0.003049  -1.090471   0.042643  -0.006369  -0.160918   0.006666
    29  O   -0.000002  -0.039014  -0.002961   0.010076   0.011019  -0.000027
    30  H    0.000000  -0.000718  -0.001267  -0.001227  -0.000071  -0.000001
    31  H    0.000000   0.000001   0.000000   0.000000   0.000000   0.000000
    32  H    0.001485  -0.001408   0.000000   0.000000  -0.000009   0.000000
    33  H    0.000061   0.000225   0.000000   0.000000  -0.000008   0.000000
    34  H    0.000046   0.000343   0.000000   0.000000  -0.000020   0.000000
    35  H   -0.000011  -0.000007   0.000000   0.000000   0.000050   0.000003
    36  H    0.000000  -0.000016   0.000000   0.000000   0.000204   0.000017
    37  H   -0.000015   0.000380   0.000000   0.000000   0.001420   0.000904
    38  H   -0.000248   0.008892   0.000003   0.000000  -0.002040   0.000048
    39  H    0.000000  -0.001602  -0.000001   0.000000   0.400466  -0.029677
    40  H    0.000000  -0.001353   0.000000   0.000000   0.607799  -0.060331
    41  H    0.000022  -0.049368   0.000238   0.000003   0.084017   0.000412
    42  H    0.000517   0.031873  -0.000408   0.000006   0.002414  -0.000174
    43  H   -0.002239   0.031237  -0.001660  -0.000153   0.020922  -0.000041
    44  H   -0.000172   0.343468  -0.032202  -0.003884   0.007624   0.000007
    45  H    0.000001  -0.206456  -0.000406  -0.000523  -0.003020   0.000041
             25         26         27         28         29         30
     1  O    0.000000  -0.000035   0.000000  -0.000001   0.000000   0.000000
     2  C    0.000062  -0.003261  -0.000037  -0.001059   0.000003   0.000000
     3  C    0.001161  -0.019296   0.000426   0.002138   0.000004   0.000000
     4  O    0.000003  -0.000014   0.000000   0.000003   0.000000   0.000000
     5  H    0.000000   0.000003   0.000000   0.000000   0.000000   0.000000
     6  C   -0.001442  -0.055951   0.001246  -0.010154  -0.000196   0.000006
     7  O    0.000733  -0.006001  -0.000131  -0.000350  -0.000002   0.000000
     8  H   -0.000988  -0.001073  -0.000016   0.000070   0.000000   0.000000
     9  C   -0.000012  -0.001496  -0.000011  -0.000695  -0.000010   0.000000
    10  O    0.000000  -0.000020   0.000000  -0.000006   0.000000   0.000000
    11  H    0.000000   0.000002   0.000000   0.000000   0.000000   0.000000
    12  C   -0.000316   0.030927  -0.000262   0.001747   0.000013   0.000000
    13  O   -0.000008  -0.017945   0.000090   0.002680   0.000012   0.000000
    14  C   -0.010017  -0.457204   0.007547   0.031730  -0.000543   0.000133
    15  O    0.001051  -0.060760   0.000646   0.003228  -0.000090   0.000001
    16  C   -0.012468  -1.771089   0.043866   0.813267  -0.017676   0.002097
    17  C   -0.001901  -0.234637  -0.051309   0.040775   0.009523   0.002637
    18  O   -0.000001   0.038976  -0.000743  -0.010529   0.000037  -0.000011
    19  H    0.000000  -0.008561  -0.000008   0.003049  -0.000002   0.000000
    20  C    0.001181   0.831201  -0.068153  -1.090471  -0.039014  -0.000718
    21  O    0.000000  -0.031542   0.000187   0.042643  -0.002961  -0.001267
    22  H    0.000000   0.004479  -0.000542  -0.006369   0.010076  -0.001227
    23  C   -0.016588  -0.506711  -0.100585  -0.160918   0.011019  -0.000071
    24  O    0.237808   0.046946   0.000907   0.006666  -0.000027  -0.000001
    25  H    0.430945   0.038424  -0.000531  -0.001463  -0.000001   0.000000
    26  C    0.038424   9.190618   0.134040  -0.961962  -0.028787  -0.001813
    27  O   -0.000531   0.134040   8.210163   0.181473  -0.041647   0.000393
    28  C   -0.001463  -0.961962   0.181473   6.193296   0.306392  -0.013183
    29  O   -0.000001  -0.028787  -0.041647   0.306392   8.091213   0.263681
    30  H    0.000000  -0.001813   0.000393  -0.013183   0.263681   0.423279
    31  H    0.000000  -0.000002   0.000000   0.000000   0.000000   0.000000
    32  H    0.000000   0.000175   0.000000   0.000065   0.000000   0.000000
    33  H    0.000000  -0.000171   0.000000  -0.000004   0.000000   0.000000
    34  H    0.000000  -0.000533   0.000001   0.000000   0.000000   0.000000
    35  H    0.000000  -0.000314   0.000000  -0.000003   0.000000   0.000000
    36  H    0.000000  -0.000335   0.000000  -0.000007   0.000000   0.000000
    37  H    0.000005  -0.000775   0.000001  -0.000059   0.000000   0.000000
    38  H    0.000007   0.012661   0.000280  -0.000368  -0.000003   0.000000
    39  H   -0.009482  -0.025918  -0.010028  -0.001283  -0.000138  -0.000001
    40  H   -0.002653  -0.307686   0.003287   0.004312  -0.000127   0.000000
    41  H   -0.000214   0.135059  -0.032623   0.069408  -0.001384   0.000018
    42  H   -0.000008   0.051359   0.005527   0.006712  -0.000478   0.000002
    43  H    0.000000   0.118194   0.000611  -0.042043  -0.000084   0.000007
    44  H    0.000000   0.019998   0.002923   0.042988  -0.003645  -0.000078
    45  H    0.000000  -0.036928  -0.056669   0.534779  -0.039228  -0.010040
             31         32         33         34         35         36
     1  O    0.262871  -0.000532   0.002528   0.006453  -0.012088  -0.002191
     2  C    0.039526  -0.015611   0.000559   0.013355   0.323122   0.023183
     3  C   -0.037597   0.005587  -0.009805  -0.024211  -0.042201   0.301396
     4  O    0.001200   0.000003   0.000041   0.000758   0.002182  -0.025932
     5  H   -0.002094   0.000000  -0.000001  -0.000007  -0.000209  -0.001502
     6  C   -0.002919  -0.002179   0.010591  -0.022465  -0.009470  -0.185035
     7  O   -0.000011  -0.000012   0.000008  -0.000216   0.000307   0.003638
     8  H    0.000000   0.000000   0.000000   0.000001   0.000004  -0.000049
     9  C    0.000799   0.407789   0.627004   0.056012  -0.030669   0.012752
    10  O   -0.000309  -0.020649  -0.054785   0.000339  -0.000873  -0.000173
    11  H   -0.000018  -0.014661  -0.000131  -0.000324  -0.000008   0.000000
    12  C   -0.005354  -0.031085  -0.264067   0.125011  -0.048525   0.030697
    13  O   -0.000646  -0.001093  -0.004290  -0.021138   0.009195   0.004614
    14  C    0.001519   0.000218  -0.002698   0.116446   0.078677   0.081693
    15  O   -0.000004  -0.000104  -0.000413  -0.002207  -0.000226   0.000551
    16  C    0.000148   0.000720  -0.004916  -0.007426  -0.005024  -0.004635
    17  C   -0.000023   0.001744   0.002233   0.008794   0.002262   0.001515
    18  O   -0.000001  -0.000369  -0.000075  -0.000319   0.000040   0.000030
    19  H    0.000000   0.001485   0.000061   0.000046  -0.000011   0.000000
    20  C    0.000001  -0.001408   0.000225   0.000343  -0.000007  -0.000016
    21  O    0.000000   0.000000   0.000000   0.000000   0.000000   0.000000
    22  H    0.000000   0.000000   0.000000   0.000000   0.000000   0.000000
    23  C    0.000000  -0.000009  -0.000008  -0.000020   0.000050   0.000204
    24  O    0.000000   0.000000   0.000000   0.000000   0.000003   0.000017
    25  H    0.000000   0.000000   0.000000   0.000000   0.000000   0.000000
    26  C   -0.000002   0.000175  -0.000171  -0.000533  -0.000314  -0.000335
    27  O    0.000000   0.000000   0.000000   0.000001   0.000000   0.000000
    28  C    0.000000   0.000065  -0.000004   0.000000  -0.000003  -0.000007
    29  O    0.000000   0.000000   0.000000   0.000000   0.000000   0.000000
    30  H    0.000000   0.000000   0.000000   0.000000   0.000000   0.000000
    31  H    0.417974   0.000019  -0.000197  -0.000221  -0.013183  -0.000098
    32  H    0.000019   0.576704  -0.048106  -0.004417   0.000018   0.000004
    33  H   -0.000197  -0.048106   0.596504   0.006507   0.003322  -0.000002
    34  H   -0.000221  -0.004417   0.006507   0.623471   0.006193   0.002755
    35  H   -0.013183   0.000018   0.003322   0.006193   0.607185   0.006156
    36  H   -0.000098   0.000004  -0.000002   0.002755   0.006156   0.616098
    37  H    0.000008   0.000000  -0.000004  -0.000061   0.001235   0.006115
    38  H    0.000001  -0.000025  -0.000008   0.002883  -0.000035   0.000797
    39  H    0.000000   0.000000   0.000000   0.000000   0.000000   0.000000
    40  H    0.000000   0.000000   0.000000   0.000000   0.000000   0.000000
    41  H    0.000000   0.000000   0.000000   0.000000   0.000000   0.000000
    42  H    0.000000   0.000000   0.000000  -0.000003   0.000000  -0.000001
    43  H    0.000000   0.000001   0.000000  -0.000001   0.000000   0.000000
    44  H    0.000000   0.000000   0.000000   0.000000   0.000000   0.000000
    45  H    0.000000   0.000000   0.000000   0.000000   0.000000   0.000000
             37         38         39         40         41         42
     1  O   -0.000227   0.000032   0.000000   0.000000   0.000000  -0.000001
     2  C    0.022461  -0.005479   0.000007   0.000056  -0.000172  -0.002565
     3  C   -0.098118  -0.042854  -0.000113  -0.000157   0.000408   0.004035
     4  O    0.002546  -0.000180   0.000000  -0.000001   0.000000   0.000005
     5  H   -0.000117   0.000005   0.000000   0.000000   0.000000   0.000000
     6  C    0.364065   0.047799  -0.000349  -0.002302  -0.006389  -0.000063
     7  O   -0.019463  -0.011213  -0.000272   0.000548  -0.000045  -0.002000
     8  H   -0.010320   0.000267   0.000079  -0.000132  -0.000003   0.000054
     9  C    0.008638   0.012691   0.000002   0.000020   0.000082  -0.000195
    10  O    0.000006   0.000046   0.000000   0.000000   0.000000   0.000001
    11  H    0.000000   0.000000   0.000000   0.000000   0.000000   0.000000
    12  C    0.038157   0.030196   0.000054   0.000336   0.000847   0.001629
    13  O    0.006942  -0.038904   0.000012   0.000045  -0.000031  -0.002836
    14  C   -0.019408   0.286658   0.011202   0.002105   0.057544   0.007951
    15  O   -0.007757  -0.041384   0.000516   0.001499  -0.000885  -0.033158
    16  C   -0.017241  -0.010679  -0.004853   0.053144   0.008727   0.136446
    17  C    0.000462   0.019887   0.001152  -0.001056  -0.031698   0.040896
    18  O    0.000087  -0.001209   0.000005   0.000057   0.000586  -0.002223
    19  H   -0.000015  -0.000248   0.000000   0.000000   0.000022   0.000517
    20  C    0.000380   0.008892  -0.001602  -0.001353  -0.049368   0.031873
    21  O    0.000000   0.000003  -0.000001   0.000000   0.000238  -0.000408
    22  H    0.000000   0.000000   0.000000   0.000000   0.000003   0.000006
    23  C    0.001420  -0.002040   0.400466   0.607799   0.084017   0.002414
    24  O    0.000904   0.000048  -0.029677  -0.060331   0.000412  -0.000174
    25  H    0.000005   0.000007  -0.009482  -0.002653  -0.000214  -0.000008
    26  C   -0.000775   0.012661  -0.025918  -0.307686   0.135059   0.051359
    27  O    0.000001   0.000280  -0.010028   0.003287  -0.032623   0.005527
    28  C   -0.000059  -0.000368  -0.001283   0.004312   0.069408   0.006712
    29  O    0.000000  -0.000003  -0.000138  -0.000127  -0.001384  -0.000478
    30  H    0.000000   0.000000  -0.000001   0.000000   0.000018   0.000002
    31  H    0.000008   0.000001   0.000000   0.000000   0.000000   0.000000
    32  H    0.000000  -0.000025   0.000000   0.000000   0.000000   0.000000
    33  H   -0.000004  -0.000008   0.000000   0.000000   0.000000   0.000000
    34  H   -0.000061   0.002883   0.000000   0.000000   0.000000  -0.000003
    35  H    0.001235  -0.000035   0.000000   0.000000   0.000000   0.000000
    36  H    0.006115   0.000797   0.000000   0.000000   0.000000  -0.000001
    37  H    0.567468   0.004494   0.000000  -0.000002   0.000001   0.000014
    38  H    0.004494   0.592003   0.000000   0.000019  -0.000004   0.008638
    39  H    0.000000   0.000000   0.574841  -0.044698  -0.005142   0.000018
    40  H   -0.000002   0.000019  -0.044698   0.589500   0.006747   0.003056
    41  H    0.000001  -0.000004  -0.005142   0.006747   0.632970   0.006857
    42  H    0.000014   0.008638   0.000018   0.003056   0.006857   0.617473
    43  H   -0.000002  -0.000016   0.000005  -0.000008   0.002416   0.006454
    44  H    0.000000  -0.000005   0.000001  -0.000010  -0.000004   0.001803
    45  H    0.000000   0.000000  -0.000037  -0.000008   0.003666   0.000003
             43         44         45
     1  O    0.000000   0.000000   0.000000
     2  C    0.000647   0.000148   0.000000
     3  C    0.000273   0.000014   0.000010
     4  O    0.000000   0.000000   0.000000
     5  H    0.000000   0.000000   0.000000
     6  C    0.004820   0.000565  -0.000028
     7  O   -0.000002   0.000003   0.000000
     8  H    0.000000   0.000000   0.000000
     9  C   -0.000680  -0.000101   0.000003
    10  O    0.000000   0.000000   0.000000
    11  H    0.000000   0.000000   0.000000
    12  C    0.000251   0.000520   0.000019
    13  O   -0.000954   0.000138   0.000014
    14  C   -0.011117  -0.012013   0.001328
    15  O   -0.006199   0.000587   0.000268
    16  C   -0.104472   0.067955   0.051482
    17  C    0.259388  -0.203119   0.009785
    18  O   -0.036592   0.006237   0.000458
    19  H   -0.002239  -0.000172   0.000001
    20  C    0.031237   0.343468  -0.206456
    21  O   -0.001660  -0.032202  -0.000406
    22  H   -0.000153  -0.003884  -0.000523
    23  C    0.020922   0.007624  -0.003020
    24  O   -0.000041   0.000007   0.000041
    25  H    0.000000   0.000000   0.000000
    26  C    0.118194   0.019998  -0.036928
[...]
 6,0.00009650,0.00004276,0.00030959,0.00007835,0.00019252,-0.00003977,0
 .00030269,-0.00569709,-0.02038310,-0.00130210,0.00975389,-0.34074354,0
 .02934310,-0.04474221,-0.00811148,0.00113934,-0.00380704,0.00185142,-0
 .00032995,0.00102789,-0.00046004,0.00016082,0.00013072,-0.00064195,0.0
 0002008,0.00056074,0.00034646,-0.00007516,-0.00003968,-0.00002312,0.00
 006187,-0.00007226,0.00034755,0.00057778,0.00051284,0.00020327,0.00001
 579,-0.00009319,0.00000739,-0.00004370,-0.00001890,-0.01108133,0.00070
 125,-0.00250388,0.00167065,0.00053187,-0.00081683,-0.00009780,-0.00019
 267,-0.00007156,0.00006613,0.00001681,-0.00009330,0.00000699,0.0000020
 6,-0.00000726,-0.00000322,-0.00000216,-0.00000296,-0.00000598,0.000012
 87,-0.00000352,0.00001438,-0.00000119,-0.00001343,0.00003670,0.0000052
 1,0.00003795,0.00001442,-0.00000336,-0.00001354,0.00001887,0.00000575,
 0.00002314,0.00002142,0.00020962,-0.00028445,0.00205731,0.00000252,0.0
 0095594,0.00031681,0.00005361,0.00001984,0.00045434,-0.00101880,-0.000
 10700,0.00025086,-0.00089292,-0.00088442,0.37180964,-0.00000056,-0.000
 02115,0.00003215,0.00000123,0.00004039,-0.00002564,0.00001495,0.000026
 76,-0.00001421,0.00000049,-0.00003254,-0.00000049,0.00000060,0.0000087
 1,-0.00000473,-0.00018823,0.00009643,0.00004895,0.00012525,-0.00010591
 ,-0.00021752,-0.00009884,-0.00005569,0.00012611,0.00001625,-0.00002488
 ,-0.00001273,-0.00000952,0.00002389,0.00002504,0.00000776,-0.00000621,
 -0.00000464,-0.00002068,0.00000615,-0.00004806,0.00026647,-0.00001389,
 0.00020240,-0.00121940,0.00119976,-0.00054614,-0.00924478,0.00114738,0
 .00295921,0.03124796,-0.04696274,0.00319229,0.03518968,-0.00560074,0.0
 0813585,-0.00254364,0.00399472,-0.00013255,0.00046682,-0.00037236,-0.0
 0040646,0.00139066,0.00116060,-0.00159528,-0.00049901,-0.00014903,0.00
 008630,-0.00012044,-0.00004881,0.00005473,-0.00135142,0.00179509,0.000
 72517,0.00031460,-0.00002842,-0.00013065,-0.00002485,-0.00005961,0.000
 00303,-0.02522646,0.00157175,-0.00549066,0.00159117,0.00089703,0.00119
 225,0.00020369,-0.00059669,0.00011110,-0.00000897,0.00012032,0.0000440
 5,-0.00001735,0.00002176,-0.00000109,0.00000208,-0.00000036,-0.0000026
 9,0.00000769,-0.00001615,0.00000059,-0.00001061,0.00000003,0.00000837,
 -0.00001071,0.00001962,-0.00000558,-0.00000076,-0.00000701,0.00000312,
 0.00000131,0.00000582,0.00001008,0.00005696,-0.00001943,0.00000526,0.0
 0016270,0.00031608,0.00014373,0.00035512,0.00021832,0.00010812,0.00082
 118,-0.00008342,0.00020112,-0.00166752,-0.00244666,-0.00336376,-0.0304
 2647,0.04972051,-0.00000759,-0.00001349,-0.00003044,0.00001112,0.00000
 609,0.00002576,0.00001763,0.00005911,0.00001956,-0.00001942,-0.0000022
 9,-0.00002598,0.00000084,0.00000197,-0.00000205,0.00000080,0.00007915,
 -0.00021931,-0.00019260,-0.00000200,0.00002935,0.00004561,-0.00007966,
 -0.00001959,-0.00002643,0.00004065,-0.00003344,-0.00000346,-0.00003072
 ,-0.00000281,0.00000132,-0.00000101,-0.00000633,-0.00002940,-0.0000869
 6,-0.00010855,-0.00093057,-0.00032523,-0.00016745,0.00843592,0.0001263
 4,0.00242195,0.03570077,0.00192772,-0.01381894,-0.05345662,0.00405452,
 -0.04907385,-0.01105028,-0.00006524,-0.00063844,0.00128845,-0.00006699
 ,0.00084079,0.00023912,0.00019032,-0.00012381,-0.00097108,-0.00027357,
 0.00048721,0.00033176,-0.00003554,0.00005716,0.00001411,-0.00002035,-0
 .00001786,-0.00006918,0.00144933,0.00081478,0.00019388,-0.00005774,0.0
 0000787,-0.00002528,0.00000217,0.00004682,-0.02594731,0.00119634,-0.00
 358168,0.00161448,0.00075231,0.00189940,-0.00027952,0.00008803,-0.0002
 4033,0.00008177,0.00001707,-0.00015654,0.00001314,0.00000812,0.0000034
 9,-0.00000024,0.00000494,0.00000367,-0.00000480,-0.00001238,-0.0000006
 7,-0.00000020,0.00000446,0.00000346,-0.00001905,-0.00002598,-0.0000722
 2,-0.00000920,0.00000750,0.00001095,-0.00003136,-0.00000696,-0.0000426
 9,-0.00020556,-0.00013879,0.00006143,-0.00117744,0.00018136,-0.0008581
 6,0.00019921,0.00019061,0.00002089,0.00068704,-0.00050948,0.00014276,-
 0.00141462,-0.00281885,-0.00345262,0.04683167,-0.00776856,0.06617851,0
 .00001255,0.00003114,-0.00005014,-0.00004012,-0.00003286,0.00003418,-0
 .00001456,-0.00005433,0.00001297,0.00002277,0.00005463,-0.00001461,-0.
 00000651,-0.00001540,0.00000737,0.00005642,-0.00000362,0.00004475,0.00
 002246,0.00009240,0.00000504,-0.00003470,-0.00001515,-0.00004030,-0.00
 004331,-0.00004335,0.00015124,0.00001137,-0.00002421,-0.00010277,-0.00
 001625,0.00002376,0.00003118,0.00001916,0.00004612,0.00009363,0.000042
 32,0.00056554,-0.00030628,0.00010599,-0.00066100,-0.00040967,0.0019463
 4,-0.00075743,0.00053505,-0.01254934,0.00294439,0.00048602,-0.34520807
 ,0.02469406,-0.00859334,-0.00776955,-0.01102652,-0.01258683,-0.0005093
 2,-0.00094302,0.00094096,-0.01734908,0.00225120,0.00369774,0.00188697,
 -0.00039111,-0.00026318,0.00020958,0.00003018,-0.00014480,0.00070441,0
 .00026816,0.00020161,0.00000077,-0.00004002,0.00005075,-0.00000235,0.0
 0001183,-0.00001159,-0.00103794,-0.00109019,-0.00056539,0.00043041,0.0
 0057109,0.00003565,-0.00117380,-0.00115905,-0.00094524,0.00044676,0.00
 007321,0.00031042,-0.00006010,0.00008182,0.00011999,-0.00000789,-0.000
 00420,0.00000544,0.00002291,0.00006655,-0.00000605,0.00001852,0.000005
 49,-0.00002210,0.00000922,-0.00001520,0.00001637,0.00000766,0.00000002
 ,-0.00000987,0.00001090,-0.00000022,0.00000392,0.00000304,0.00002148,-
 0.00002924,0.00008072,-0.00001330,0.00029582,-0.00001593,0.00012139,0.
 00000739,0.00007920,-0.00036978,-0.00002268,0.00127900,0.00033461,0.00
 047944,0.00045953,0.00131630,-0.00024968,0.37738772,0.00000280,0.00002
 317,-0.00005316,-0.00002708,-0.00003190,0.00003301,0.00001662,0.000004
 26,-0.00000419,-0.00000092,0.00003551,-0.00002509,0.00000249,-0.000008
 76,0.00000365,-0.00016133,-0.00009049,-0.00011037,-0.00005966,0.000087
 07,0.00009291,0.00002898,0.00001100,-0.00003896,-0.00003289,-0.0000307
 1,0.00013393,0.00000550,-0.00003313,-0.00008854,-0.00001536,0.00002165
 ,0.00002248,0.00005693,0.00006166,0.00008678,0.00006973,0.00053105,-0.
 00024491,0.00033556,-0.00000239,-0.00006963,-0.00124295,0.00233824,-0.
 00205770,0.03554312,-0.00875129,0.00211308,0.02359899,-0.03935354,0.00
 613475,-0.03183866,-0.01022360,-0.01663277,-0.00075263,-0.00022245,0.0
 0115581,-0.00918368,0.00264142,0.00241037,0.00016470,0.00073881,-0.001
 39357,0.00014327,0.00005436,-0.00015193,-0.00003539,-0.00007391,0.0000
 0145,-0.00007423,-0.00001861,0.00003773,0.00000698,0.00001565,-0.00000
 037,0.00222751,0.00187646,0.00106930,-0.00037326,-0.00024076,-0.000234
 75,0.00014830,-0.00035649,-0.00025575,0.00002137,-0.00001747,0.0002538
 4,-0.00000598,0.00006854,0.00004150,-0.00000467,-0.00000026,0.00000462
 ,0.00000026,0.00006241,0.00000225,0.00001959,0.00001450,-0.00003084,-0
 .00000399,-0.00002088,0.00000175,-0.00000054,0.00000205,-0.00000223,-0
 .00000240,-0.00000127,-0.00000353,-0.00000779,-0.00002638,0.00003741,-
 0.00029740,-0.00000926,-0.00008474,-0.00009881,-0.00003616,-0.00000251
 ,-0.00025571,0.00012977,-0.00003015,-0.00073141,-0.00059203,-0.0003623
 2,0.00087784,-0.00560496,0.00200683,-0.01710464,0.05688716,0.00001293,
 0.00001712,-0.00003060,-0.00004191,-0.00001552,0.00001828,-0.00000502,
 -0.00004200,0.00001087,0.00001484,0.00002935,-0.00000511,-0.00000440,-
 0.00000832,0.00000503,-0.00000322,0.00001724,0.00007346,0.00002868,0.0
 0004082,-0.00002079,-0.00002088,0.00000050,0.00000508,-0.00005998,-0.0
 0004861,0.00012432,0.00002775,-0.00001177,-0.00006715,-0.00001724,0.00
 001547,0.00002443,0.00000810,0.00003952,0.00005308,0.00023178,0.000392
 12,-0.00032882,-0.00038041,-0.00034203,-0.00052510,-0.00015461,-0.0012
 5153,0.00140816,-0.01282569,0.00519847,0.00064147,-0.00729732,0.006503
 96,-0.04036043,-0.02974951,-0.01504607,-0.01181012,-0.00144907,-0.0004
 3185,0.00097981,0.03720773,-0.00149890,-0.00291858,-0.00236816,-0.0009
 3787,0.00249969,-0.00016596,-0.00032134,0.00029254,0.00011366,0.000113
 70,0.00009329,0.00001510,-0.00000748,-0.00000022,0.00000096,-0.0000093
 2,-0.00000778,0.00047525,-0.00101266,-0.00050064,-0.00014747,-0.000442
 76,-0.00016410,0.00109345,0.00106191,0.00206730,-0.00048694,0.00005097
 ,-0.00026627,-0.00003381,-0.00011085,-0.00009950,-0.00000622,-0.000001
 93,0.00000030,0.00000059,0.00005818,0.00000051,0.00003206,0.00000769,-
 0.00004032,0.00001765,-0.00001413,0.00002084,0.00000987,0.00000024,-0.
 00001320,0.00000850,0.00000023,0.00000407,0.00001181,0.00003204,-0.000
 02414,0.00018967,-0.00000341,0.00001441,0.00003452,0.00007622,0.000006
 30,0.00003650,-0.00008795,-0.00003280,0.00023839,-0.00024146,0.0003140
 9,-0.00049050,0.00201262,-0.00040776,0.01390000,0.00490992,0.05521078,
 0.00000603,0.00000018,-0.00000886,-0.00000486,-0.00000283,0.00000763,-
 0.00001811,-0.00002102,0.00000845,0.00001386,0.00000838,-0.00000394,-0
 .00000469,-0.00000209,0.00000298,0.00002486,0.00002282,0.00004005,0.00
 002623,-0.00000002,-0.00001178,-0.00001320,-0.00000113,-0.00000375,-0.
 00001977,-0.00000289,0.00001436,0.00002271,-0.00000340,-0.00000779,-0.
 00001341,0.00000528,0.00000557,-0.00002615,0.00001176,0.00000783,0.000
 03384,0.00004823,-0.00004786,-0.00017596,-0.00011471,-0.00001690,0.000
 60308,-0.00019022,0.00032901,-0.00079864,0.00130219,-0.00043728,-0.018
 90874,-0.00509292,0.00167106,0.00241135,0.00063683,-0.00112944,0.00030
 441,-0.00003987,-0.00010519,-0.34147809,-0.03484601,-0.02502083,-0.010
 25630,0.01267640,-0.00872987,0.00002750,0.00039601,0.00033072,-0.00007
 931,0.00000561,-0.00002105,0.00005570,-0.00000177,0.00000519,-0.000014
 56,-0.00000386,-0.00000296,-0.00010571,-0.00007987,-0.00020968,0.00094
 970,-0.00162662,0.00042172,-0.00970993,-0.00171487,-0.00238477,0.00152
 702,-0.00023138,-0.00021656,0.00023683,0.00025284,0.00032640,-0.000002
 85,0.00000108,0.00000158,-0.00000881,0.00000815,-0.00000271,0.00001235
 ,0.00000057,-0.00000940,0.00001218,-0.00000749,0.00000868,0.00000582,0
 .00000055,-0.00000521,0.00000712,0.00000041,0.00000198,0.00000504,0.00
 000910,-0.00001034,0.00003616,-0.00001842,0.00004133,0.00000858,-0.000
 00943,0.00002001,0.00004798,-0.00005460,0.00001453,0.00011589,0.000151
 61,0.00005683,0.00060456,-0.00072850,0.00030111,0.00002771,-0.00101675
 ,0.00255217,0.37379700,0.00000150,-0.00000437,0.00001212,0.00000220,0.
 00000410,-0.00000783,-0.00000375,0.00000652,-0.00000368,0.00000131,-0.
 00000952,0.00000469,-0.00000063,0.00000307,-0.00000188,-0.00000318,0.0
 0000833,-0.00000431,0.00001240,-0.00001261,-0.00000450,-0.00000639,0.0
 0000028,-0.00000323,0.00000280,0.00000500,-0.00002180,-0.00000083,0.00
 000570,0.00001854,0.00000460,-0.00000425,-0.00000687,-0.00000738,-0.00
 000522,-0.00001602,0.00001677,-0.00005893,0.00003756,-0.00001064,0.000
 07997,0.00000232,0.00019127,-0.00000194,-0.00005523,-0.00083072,0.0004
 1226,-0.00032090,-0.00841112,0.00126737,0.00047955,0.00107660,0.000357
 25,0.00012309,0.00001054,-0.00009029,-0.00010520,-0.03867846,-0.040739
 56,-0.00673539,0.04196531,-0.01724191,0.01491756,0.00096181,0.00114020
 ,-0.00056769,-0.00006123,0.00004500,-0.00002792,0.00002232,-0.00002436
 ,-0.00000079,-0.00000709,0.00000023,0.00000198,-0.00013936,-0.00023435
 ,0.00003228,0.00176586,0.00120628,0.00071190,-0.03018359,-0.00294082,-
 0.00598088,0.00221746,0.00113278,0.00179019,-0.00004719,0.00014549,0.0
 0053339,0.00000061,0.00000046,-0.00000235,-0.00000026,-0.00000842,0.00
 000147,-0.00000149,-0.00000316,0.00000296,0.00000265,0.00000301,0.0000
 0176,0.00000103,-0.00000061,-0.00000050,0.00000013,0.00000053,0.000000
 44,0.00000098,0.00000182,-0.00000361,0.00001783,-0.00000075,0.00001926
 ,0.00000391,-0.00001751,0.00000021,0.00002933,-0.00004863,0.00001353,0
 .00012913,0.00010467,-0.00002027,0.00021797,-0.00003962,0.00000530,-0.
 00017624,0.00004331,0.00153766,0.03065850,0.05860167,-0.00000421,-0.00
 001127,-0.00000218,0.00000688,0.00001146,0.00000097,0.00000987,0.00002
 038,0.00000856,-0.00000309,-0.00000968,-0.00001390,0.00000132,0.000004
 66,-0.00000185,-0.00002057,-0.00002946,-0.00002612,-0.00000814,-0.0000
 0456,-0.00000641,0.00000338,-0.00000813,0.00000531,0.00001507,0.000021
 26,-0.00003163,-0.00001028,-0.00000736,0.00001580,0.00000602,-0.000003
 28,-0.00000947,0.00001158,-0.00000607,0.00000725,-0.00001606,-0.000203
 30,0.00006520,0.00007093,0.00022629,0.00018206,-0.00055860,0.00006463,
 -0.00042778,0.00068337,-0.00130103,0.00128166,0.03629643,0.00561076,-0
 .00236873,-0.00191072,0.00026066,0.00356965,-0.00010457,0.00032403,0.0
 0009439,-0.02438831,-0.00689056,-0.04444825,-0.01614293,0.01062782,-0.
 00313813,-0.00119448,0.00006058,0.00021644,0.00000446,-0.00001855,0.00
 007214,0.00000487,-0.00000076,0.00000304,-0.00000818,-0.00000167,0.000
 00182,0.00037051,0.00009868,-0.00041586,0.00141122,-0.00004563,0.00060
 282,-0.02863826,-0.00693658,-0.00510561,0.00151402,0.00137872,0.002556
 88,-0.00007216,0.00038719,0.00049573,0.00000066,0.00000247,0.00000020,
 -0.00000280,-0.00001430,0.00000394,-0.00000624,-0.00000136,0.00000703,
 -0.00000740,0.00000561,-0.00001015,-0.00000267,-0.00000045,0.00000350,
 -0.00000244,0.00000052,-0.00000169,-0.00000088,-0.00000725,0.00000726,
 -0.00003313,0.00000682,-0.00005053,-0.00000426,0.00003470,0.00001085,-
 0.00000360,0.00001908,0.00000277,-0.00013291,-0.00003922,-0.00012301,-
 0.00042227,0.00036594,-0.00010041,0.00217200,0.00126051,-0.00582025,0.
 03247030,-0.00264898,0.05630997,0.00000200,-0.00000932,-0.00003338,-0.
 00001113,0.00000855,0.00001975,-0.00000265,-0.00000583,0.00002802,0.00
 001207,0.00000902,-0.00003225,-0.00000345,0.00000024,0.00000328,-0.000
 02248,-0.00000395,0.00000700,0.00001188,-0.00000281,-0.00004250,-0.000
 00130,-0.00000800,0.00003731,-0.00001229,0.00001697,0.00001393,0.00000
 403,-0.00002207,-0.00001774,-0.00000510,0.00000647,0.00000217,0.000013
 58,0.00001483,0.00004745,0.00001264,-0.00004252,-0.00010508,0.00003325
 ,0.00005230,0.00012858,0.00001639,-0.00000195,-0.00025934,0.00000684,0
 .00023070,0.00027472,-0.00068700,-0.00072778,0.00043758,0.00034818,0.0
 0002878,-0.00028549,0.00000176,-0.00008596,-0.00001837,-0.00942720,0.0
 0186575,-0.00713435,0.00293147,0.00067579,0.00260249,-0.00073601,-0.00
 042568,-0.00011330,0.00031126,-0.00020626,-0.00015239,0.00000563,0.000
 22795,-0.00010627,-0.00000482,-0.00000955,-0.00002901,0.00041789,0.000
 18724,-0.00028510,0.00440938,0.00886072,-0.00331939,-0.31772022,0.0194
 1808,-0.08868768,-0.02604901,0.00090955,0.00927995,0.00029748,-0.00004
 087,0.00033690,-0.00000421,0.00000340,0.00000420,-0.00000128,0.0000053
 8,-0.00000050,0.00000640,-0.00000032,-0.00000437,0.00000072,-0.0000021
 7,-0.00000292,0.00000360,-0.00000093,-0.00000269,0.00000347,-0.0000001
 5,-0.00000035,0.00000087,0.00000037,0.00000116,0.00000605,-0.00000593,
 -0.00000543,-0.00001239,-0.00002982,-0.00000519,-0.00002205,-0.0001358
 9,0.00008365,-0.00011533,0.00064889,-0.00127002,-0.00001210,-0.0001422
 0,0.00011114,0.00053441,0.00005758,-0.00055364,0.00071556,-0.00074529,
 -0.00135372,0.34474321,0.00000284,0.00001772,0.00001459,-0.00000134,-0
 .00001956,-0.00000707,-0.00000258,-0.00000154,-0.00001777,-0.00000334,
 0.00000850,0.00001956,0.00000080,-0.00000379,-0.00000123,0.00002242,-0
 .00003437,-0.00001599,-0.00000994,0.00005137,0.00006806,-0.00001181,-0
 .00000314,-0.00007874,-0.00000187,-0.00002310,0.00002131,0.00000457,0.
 00001279,-0.00000761,-0.00000368,0.00000096,0.00000604,-0.00000664,0.0
 0001343,-0.00000755,0.00001183,0.00018575,0.00002715,-0.00010895,-0.00
 010056,-0.00019252,0.00005393,0.00031124,0.00041213,-0.00040430,-0.000
 83045,0.00016104,-0.00085690,-0.00019105,0.00120166,0.00034480,0.00003
 297,-0.00061934,0.00012926,-0.00017501,0.00007561,-0.02176804,-0.00045
 358,-0.01206601,-0.00017831,0.00293333,-0.00023334,-0.00057936,-0.0003
 3018,-0.00000188,-0.00009148,0.00023677,0.00022441,-0.00019415,-0.0004
 3531,0.00018816,-0.00002568,0.00002053,0.00004547,0.00426402,0.0008493
 6,-0.00358481,0.03312926,-0.02697116,0.02342520,0.01990611,-0.03851461
 ,0.00353575,-0.00161573,0.00618015,0.00022160,0.00014028,0.00006065,-0
 .00041216,0.00000096,-0.00000368,-0.00000201,0.00000507,0.00000998,-0.
 00000205,0.00000024,0.00000219,-0.00000067,0.00000135,-0.00000314,0.00
 000313,-0.00000058,0.00000092,0.00000018,0.00000015,-0.00000044,0.0000
 0179,0.00000007,0.00000441,-0.00000725,0.00000535,-0.00000199,0.000007
 48,0.00003749,0.00002842,-0.00002670,-0.00018095,0.00017276,-0.0000256
 5,-0.00138627,0.00043610,0.00019065,-0.00000523,-0.00009487,-0.0000584
 3,0.00033543,0.00009866,-0.00022817,-0.00038584,-0.00308850,-0.0026033
 3,-0.03057330,0.05961109,-0.00000132,-0.00000747,-0.00005031,-0.000011
 34,0.00000770,0.00003184,0.00000111,-0.00000685,0.00003810,0.00001037,
 0.00001874,-0.00004561,-0.00000170,-0.00000205,0.00000462,-0.00001978,
 -0.00003006,-0.00000378,0.00000219,0.00002000,-0.00003985,-0.00000067,
 -0.00001698,0.00003381,-0.00000742,0.00002251,0.00002819,-0.00000407,-
 0.00003135,-0.00003300,-0.00000260,0.00000900,0.00000568,0.00002515,0.
 00002154,0.00007149,0.00000153,-0.00003893,-0.00014974,0.00008344,0.00
 005660,0.00018693,0.00006029,0.00005941,-0.00044085,0.00002271,-0.0001
 9593,0.00000903,-0.00138351,0.00048398,0.00173760,0.00059233,-0.000217
 51,-0.00030599,0.00008419,-0.00002602,0.00007374,-0.02917362,-0.002120
 03,-0.00930181,0.00249410,0.00248267,0.00229573,-0.00000912,-0.0004445
 8,0.00002976,0.00014663,-0.00003031,0.00003413,0.00010635,0.00021971,-
 0.00011850,0.00000263,-0.00001888,-0.00001876,-0.00222386,-0.00056618,
 0.00289482,-0.01114213,0.01529455,-0.00477295,-0.09784277,0.00187276,-
 0.07504910,0.04317517,-0.00363429,-0.01021386,0.00289838,0.00052993,0.
 00367124,-0.00000407,0.00000301,0.00000677,0.00000121,0.00000925,-0.00
 000199,0.00000410,-0.00000061,-0.00000405,-0.00000267,-0.00000232,-0.0
 0000427,0.00000201,-0.00000077,-0.00000299,0.00000301,-0.00000065,-0.0
 0000116,-0.00000098,0.00000125,0.00000127,0.00000238,-0.00001087,0.000
 00161,-0.00001578,-0.00003055,0.00000155,0.00012724,-0.00014929,-0.000
 01319,0.00098537,-0.00020955,-0.00019756,0.00013288,-0.00002612,0.0001
 2612,0.00073478,0.00006415,-0.00042445,-0.00025331,-0.00370795,-0.0034
 2330,0.09040118,-0.00965067,0.09333306\\0.00008789,-0.01492649,-0.0029
 0181,0.01031495,0.01082697,-0.00703747,-0.00406205,-0.01765301,0.02301
 272,-0.00375838,0.01500175,0.02143016,0.00042184,-0.01491717,-0.026311
 28,0.02189290,0.00937992,-0.01219663,-0.03118579,-0.02347487,-0.008680
 91,0.02168001,0.01049872,0.01314014,-0.00902040,0.00368566,-0.00034244
 ,0.00495598,0.01883377,-0.01626782,0.00407621,-0.02757399,0.01938658,0
 .00356230,-0.00592641,0.00588449,-0.00441598,0.01622481,0.00879004,-0.
 03527219,0.03512991,-0.01347671,0.01304436,-0.01915473,0.00455907,0.00
 392245,0.00674544,-0.00579697,-0.01774066,0.02411581,0.00702840,0.0057
 9515,-0.01342524,0.00540474,0.00259928,0.00395096,-0.02159834,0.041896
 45,0.01252622,-0.03554018,-0.01132886,0.01377188,-0.00439946,-0.003491
 68,-0.01716543,0.03246827,0.01875381,-0.02006982,-0.00368136,-0.007413
 47,-0.01196788,0.00892695,-0.00480066,0.03390793,0.00144735,-0.0233824
 6,-0.00668183,0.00393454,0.01895215,-0.00198239,0.00965578,-0.01572739
 ,-0.03643553,-0.00357717,0.00411917,0.01435927,0.03081909,-0.00367913,
 -0.00182649,0.00094004,-0.00097099,0.00285890,0.00079363,0.00354673,0.
 00415987,-0.01851036,-0.02187032,0.00202592,-0.00082608,0.02170910,-0.
 00268342,0.00200676,-0.01874714,0.00259700,-0.00011816,0.02249552,0.00
 006715,-0.00080570,-0.01606252,-0.00280119,0.00046713,0.01729883,-0.00
 227356,-0.00185131,-0.00348373,-0.00286428,-0.01822666,0.02172149,-0.0
 0100014,-0.00079246,-0.02384865,0.00365990,0.00102455,0.01931607,-0.00
 224605,0.00299052,-0.02418554,-0.00147020,-0.00013653,0.02370589,0.000
 74944,0.00455027,-0.02142055,0.00344295,-0.00558541\\\@


 ... IT IS NO ONE DREAME THAT
     CAN PLEASE THESE ALL ...

                -- BEN JONSON
 Job cpu time:  1 days  7 hours 14 minutes 53.3 seconds.
 File lengths (MBytes):  RWF=   1769 Int=      0 D2E=      0 Chk=     28 Scr=      1
 Normal termination of Gaussian 09 at Fri Mar 25 22:05:22 2016.
Gaussian '09 finished on node014 at Fri Mar 25 22:05:22 EDT 2016.
