Gaussian '09 started on node031 at Fri Feb 19 11:07:00 EST 2016.
 Entering Gaussian System, Link 0=/usr/local/gaussian/g09/g09
 Initial command:
 /usr/local/gaussian/g09/l1.exe /home/srmcgrat/thesis/gaussian/cellobiose/280/10000/1/2dfp/gaussian18592/Gau-18628.inp -scrdir=/home/srmcgrat/thesis/gaussian/cellobiose/280/10000/1/2dfp/gaussian18592/
 Entering Link 1 = /usr/local/gaussian/g09/l1.exe PID=     18630.
  
 Copyright (c) 1988,1990,1992,1993,1995,1998,2003,2009,2010,
            Gaussian, Inc.  All Rights Reserved.
  
 This is part of the Gaussian(R) 09 program.  It is based on
 the Gaussian(R) 03 system (copyright 2003, Gaussian, Inc.),
 the Gaussian(R) 98 system (copyright 1998, Gaussian, Inc.),
 the Gaussian(R) 94 system (copyright 1995, Gaussian, Inc.),
 the Gaussian 92(TM) system (copyright 1992, Gaussian, Inc.),
 the Gaussian 90(TM) system (copyright 1990, Gaussian, Inc.),
 the Gaussian 88(TM) system (copyright 1988, Gaussian, Inc.),
 the Gaussian 86(TM) system (copyright 1986, Carnegie Mellon
 University), and the Gaussian 82(TM) system (copyright 1983,
 Carnegie Mellon University). Gaussian is a federally registered
 trademark of Gaussian, Inc.
  
 This software contains proprietary and confidential information,
 including trade secrets, belonging to Gaussian, Inc.
  
 This software is provided under written license and may be
 used, copied, transmitted, or stored only in accord with that
 written license.
  
 The following legend is applicable only to US Government
 contracts under FAR:
  
                    RESTRICTED RIGHTS LEGEND
  
 Use, reproduction and disclosure by the US Government is
 subject to restrictions as set forth in subparagraphs (a)
 and (c) of the Commercial Computer Software - Restricted
 Rights clause in FAR 52.227-19.
  
 Gaussian, Inc.
 340 Quinnipiac St., Bldg. 40, Wallingford CT 06492
  
  
 ---------------------------------------------------------------
 Warning -- This program may not be used in any manner that
 competes with the business of Gaussian, Inc. or will provide
 assistance to any competitor of Gaussian, Inc.  The licensee
 of this program is prohibited from giving any competitor of
 Gaussian, Inc. access to this program.  By using this program,
 the user acknowledges that Gaussian, Inc. is engaged in the
 business of creating and licensing software in the field of
 computational chemistry and represents and warrants to the
 licensee that it is not a competitor of Gaussian, Inc. and that
 it will not use this program in any manner prohibited above.
 ---------------------------------------------------------------
  

 Cite this work as:
 Gaussian 09, Revision B.01,
 M. J. Frisch, G. W. Trucks, H. B. Schlegel, G. E. Scuseria, 
 M. A. Robb, J. R. Cheeseman, G. Scalmani, V. Barone, B. Mennucci, 
 G. A. Petersson, H. Nakatsuji, M. Caricato, X. Li, H. P. Hratchian, 
 A. F. Izmaylov, J. Bloino, G. Zheng, J. L. Sonnenberg, M. Hada, 
 M. Ehara, K. Toyota, R. Fukuda, J. Hasegawa, M. Ishida, T. Nakajima, 
 Y. Honda, O. Kitao, H. Nakai, T. Vreven, J. A. Montgomery, Jr., 
 J. E. Peralta, F. Ogliaro, M. Bearpark, J. J. Heyd, E. Brothers, 
 K. N. Kudin, V. N. Staroverov, T. Keith, R. Kobayashi, J. Normand, 
 K. Raghavachari, A. Rendell, J. C. Burant, S. S. Iyengar, J. Tomasi, 
 M. Cossi, N. Rega, J. M. Millam, M. Klene, J. E. Knox, J. B. Cross, 
 V. Bakken, C. Adamo, J. Jaramillo, R. Gomperts, R. E. Stratmann, 
 O. Yazyev, A. J. Austin, R. Cammi, C. Pomelli, J. W. Ochterski, 
 R. L. Martin, K. Morokuma, V. G. Zakrzewski, G. A. Voth, 
 P. Salvador, J. J. Dannenberg, S. Dapprich, A. D. Daniels, 
 O. Farkas, J. B. Foresman, J. V. Ortiz, J. Cioslowski, 
 and D. J. Fox, Gaussian, Inc., Wallingford CT, 2010.
 
 ******************************************
 Gaussian 09:  EM64L-G09RevB.01 12-Aug-2010
                19-Feb-2016 
 ******************************************
 --------------------------------------------------
 # freq=raman b3lyp/6-31+g(2df,p) geom=connectivity
 --------------------------------------------------
 1/10=4,30=1,38=1,57=2/1,3;
 2/12=2,17=6,18=5,40=1/2;
 3/5=1,6=6,7=114,11=2,16=1,25=1,30=1,71=2,74=-5/1,2,3;
 4//1;
 5/5=2,38=5,98=1/2;
 8/6=4,10=90,11=11/1;
 10/13=10,15=4/2;
 11/6=3,8=1,9=11,15=111,16=1/1,2,10;
 10/6=1/2;
 6/7=2,8=2,9=2,10=2,18=1,28=1/1;
 7/8=1,10=1,25=1/1,2,3,16;
 1/10=4,30=1/3;
 99//99;
 -------------
 280 10000.com
 -------------
 Symbolic Z-matrix:
 Charge =  0 Multiplicity = 1
 O                     7.417     7.604     12.298 
 C                     7.963     7.908     13.59 
 C                     7.36      9.237     14.015 
 O                     7.484     10.278    13.034 
 H                     7.131     9.921     12.169 
 C                     7.763     9.626     15.428 
 O                     7.035     10.728    15.988 
 H                     7.467     10.881    16.877 
 C                     8.322     5.486     14.172 
 O                     7.593     4.768     13.165 
 H                     7.94      3.83      13.153 
 C                     7.704     6.806     14.604 
 O                     8.32      7.185     15.844 
 C                     7.693     8.389     16.309 
 O                     8.504     8.56      17.48 
 C                     7.909     8.272     18.753 
 C                     8.497     6.956     19.236 
 O                     8.33      5.911     18.268 
 H                     8.451     6.222     17.325 
 C                     8.042     6.502     20.614 
 O                     8.681     5.324     21.127 
 H                     8.343     4.984     22.004 
 C                     7.664     10.619    19.416 
 O                     8.114     11.316    18.246 
 H                     8.071     12.307    18.373 
 C                     8.166     9.26      19.879 
 O                     7.677     8.888     21.176 
 C                     8.273     7.648     21.585 
 O                     7.553     7.516     22.819 
 H                     8.1323    7.45735   11.67475 
 H                     9.02099   8.03262   13.48983 
 H                     6.30821   9.05018   14.07613 
 H                     6.65045   6.68386   14.74543 
 H                     8.40887   4.85849   15.03432 
 H                     9.305     5.68268   13.79793 
 H                     6.6796    8.19177   16.59011 
 H                     8.79015   9.92302   15.38747 
 H                     7.82782   11.2867   20.2359 
 H                     6.60426   10.51848   19.30765 
 H                     9.22869   9.34307   19.97222 
 H                     6.85292   8.15668   18.62535 
 H                     8.1753    7.43825   23.54584 
 H                     9.31809   7.77904   21.77346 
 H                     6.98989   6.31265   20.56806 
 H                     9.55151   7.11913   19.31531 
 

 GradGradGradGradGradGradGradGradGradGradGradGradGradGradGradGradGradGrad
 Berny optimization.
 Initialization pass.
 Trust Radius=3.00D-01 FncErr=1.00D-07 GrdErr=1.00D-07
 Number of steps in this run=      2 maximum allowed number of steps=      2.
 GradGradGradGradGradGradGradGradGradGradGradGradGradGradGradGradGradGrad

                          Input orientation:                          
 ---------------------------------------------------------------------
 Center     Atomic      Atomic             Coordinates (Angstroms)
 Number     Number       Type             X           Y           Z
 ---------------------------------------------------------------------
      1          8           0        7.417000    7.604000   12.298000
      2          6           0        7.963000    7.908000   13.590000
      3          6           0        7.360000    9.237000   14.015000
      4          8           0        7.484000   10.278000   13.034000
      5          1           0        7.131000    9.921000   12.169000
      6          6           0        7.763000    9.626000   15.428000
      7          8           0        7.035000   10.728000   15.988000
      8          1           0        7.467000   10.881000   16.877000
      9          6           0        8.322000    5.486000   14.172000
     10          8           0        7.593000    4.768000   13.165000
     11          1           0        7.940000    3.830000   13.153000
     12          6           0        7.704000    6.806000   14.604000
     13          8           0        8.320000    7.185000   15.844000
     14          6           0        7.693000    8.389000   16.309000
     15          8           0        8.504000    8.560000   17.480000
     16          6           0        7.909000    8.272000   18.753000
     17          6           0        8.497000    6.956000   19.236000
     18          8           0        8.330000    5.911000   18.268000
     19          1           0        8.451000    6.222000   17.325000
     20          6           0        8.042000    6.502000   20.614000
     21          8           0        8.681000    5.324000   21.127000
     22          1           0        8.343000    4.984000   22.004000
     23          6           0        7.664000   10.619000   19.416000
     24          8           0        8.114000   11.316000   18.246000
     25          1           0        8.071000   12.307000   18.373000
     26          6           0        8.166000    9.260000   19.879000
     27          8           0        7.677000    8.888000   21.176000
     28          6           0        8.273000    7.648000   21.585000
     29          8           0        7.553000    7.516000   22.819000
     30          1           0        8.132301    7.457353   11.674751
     31          1           0        9.020986    8.032624   13.489830
     32          1           0        6.308210    9.050182   14.076130
     33          1           0        6.650445    6.683857   14.745435
     34          1           0        8.408873    4.858495   15.034317
     35          1           0        9.304999    5.682681   13.797930
     36          1           0        6.679601    8.191775   16.590115
     37          1           0        8.790151    9.923015   15.387473
     38          1           0        7.827819   11.286703   20.235900
     39          1           0        6.604256   10.518485   19.307651
     40          1           0        9.228689    9.343075   19.972223
     41          1           0        6.852919    8.156681   18.625348
     42          1           0        8.175300    7.438250   23.545841
     43          1           0        9.318088    7.779044   21.773465
     44          1           0        6.989890    6.312646   20.568060
     45          1           0        9.551513    7.119131   19.315313
 ---------------------------------------------------------------------
                    Distance matrix (angstroms):
                    1          2          3          4          5
     1  O    0.000000
     2  C    1.435199   0.000000
     3  C    2.370238   1.520025   0.000000
     4  O    2.774250   2.481023   1.435764   0.000000
     5  H    2.338146   2.600699   1.981922   1.000141   0.000000
     6  C    3.742339   2.523840   1.519967   2.496834   3.332796
     7  O    4.849887   3.816279   2.494280   3.021625   3.904514
     8  H    5.631027   4.459721   3.302307   3.890057   4.816613
     9  C    2.969314   2.516682   3.875577   4.996054   5.009962
    10  O    2.970785   3.190161   4.555080   5.512635   5.268669
    11  H    3.904821   4.101412   5.505914   6.465199   6.222782
    12  C    2.456992   1.519763   2.524880   3.816816   3.995094
    13  O    3.683081   2.393887   2.911622   4.261648   4.733396
    14  C    4.096404   2.774387   2.468285   3.786506   4.449996
    15  O    5.380393   3.981191   3.711238   4.874304   5.651917
    16  C    6.508096   5.176097   4.866341   6.075494   6.831804
    17  C    7.051393   5.750546   5.809868   7.108211   7.784579
    18  O    6.272218   5.099645   5.485543   6.868854   7.396993
    19  H    5.315055   4.126859   4.608319   5.983219   6.481461
    20  C    8.411949   7.163774   7.175803   8.486810   9.156282
    21  O    9.205832   7.999934   8.224181   9.564077  10.187280
    22  H   10.095955   8.915692   9.103759  10.451087  11.071140
    23  C    7.734155   6.432822   5.583291   6.393638   7.300021
    24  O    7.045811   5.771967   4.774109   5.351569   6.312071
    25  H    7.710483   6.499227   5.377972   5.741631   6.713137
    26  C    7.795826   6.435886   5.919177   6.953810   7.807192
    27  O    8.974137   7.654384   7.176504   8.262053   9.082470
    28  C    9.326470   8.005231   7.788671   8.981037   9.753551
    29  O   10.522247   9.246416   8.972709  10.167577  10.926326
    30  H    0.960000   1.974822   3.039795   3.197483   2.704892
    31  H    2.043759   1.070000   2.117829   2.758953   2.980370
    32  H    2.546096   2.068631   1.070000   1.994004   2.252211
    33  H    2.724740   2.134562   2.748735   4.067147   4.165098
    34  H    4.001130   3.403577   4.616324   5.850444   5.955834
    35  H    3.083147   2.606960   4.057502   5.001658   5.034186
    36  H    4.394483   3.275413   2.861233   4.200636   4.768672
    37  H    4.099783   2.824071   2.097530   2.714937   3.620961
    38  H    8.760213   7.456668   6.566562   7.280320   8.211308
    39  H    7.634788   6.430579   5.497773   6.339596   7.182951
    40  H    8.074670   6.662895   6.244338   7.215051   8.100900
    41  H    6.376439   5.162252   4.762303   6.013437   6.698849
    42  H   11.274591   9.969177   9.733300  10.910585  11.691326
    43  H    9.665879   8.295902   8.133482   9.272913  10.080530
    44  H    8.381164   7.223948   7.185501   8.528203   9.142448
    45  H    7.350778   5.993739   6.114035   7.328572   8.048549
                    6          7          8          9         10
     6  C    0.000000
     7  O    1.434569   0.000000
     8  H    1.939650   1.000177   0.000000
     9  C    4.362295   5.694979   6.095414   0.000000
    10  O    5.361924   6.618330   7.152873   1.435623   0.000000
    11  H    6.229010   7.512566   7.988023   1.981570   1.000198
    12  C    2.938513   4.212493   4.672079   1.520180   2.497296
    13  O    2.538067   3.771579   3.931299   2.383734   3.680687
    14  C    1.520273   2.450903   2.565885   3.659210   4.796496
    15  O    2.428197   3.014009   2.612665   4.519454   5.816220
    16  C    3.593085   3.800136   3.243705   5.377539   6.603303
    17  C    4.708346   5.187960   4.693762   5.275947   6.516257
    18  O    4.710447   5.484425   5.232643   4.117998   5.281120
    19  H    3.957167   4.908835   4.782807   3.240331   4.489530
    20  C    6.060678   6.346101   5.785450   6.527635   7.661329
    21  O    7.199203   7.636875   7.100461   6.966143   8.055205
    22  H    8.070213   8.420015   7.863086   7.848100   8.873392
    23  C    4.110960   3.486934   2.560073   7.367509   8.562374
    24  O    3.304607   2.570710   1.575435   7.115451   8.304475
    25  H    3.994452   3.042164   2.153209   8.014826   9.175417
    26  C    4.484168   4.309764   3.482563   6.843775   8.098407
    27  O    5.795821   5.541941   4.743158   7.813171   9.008750
    28  C    6.487005   6.507338   5.767772   7.721995   8.924864
    29  O    7.689153   7.566230   6.829201   8.915317  10.037570
    30  H    4.350435   5.523162   6.263176   3.187236   3.121587
    31  H    2.806756   4.177325   4.690526   2.727495   3.578048
    32  H    2.067736   2.645476   3.541124   4.094867   4.562667
    33  H    3.218676   4.248169   4.777692   2.134897   2.656444
    34  H    4.827136   6.103124   6.368137   1.070000   2.041613
    35  H    4.537032   5.950172   6.315175   1.070000   2.041613
    36  H    2.140389   2.630834   2.816777   3.983211   4.928280
    37  H    1.070000   2.022174   2.210691   4.624245   5.739925
    38  H    5.087046   4.357220   3.402498   8.406144   9.620096
    39  H    4.146192   3.354031   2.604575   7.392663   8.472181
    40  H    4.783121   4.754400   3.879325   7.024364   8.363317
    41  H    3.634581   3.687877   3.294803   5.396577   6.468870
    42  H    8.417575   8.321279   7.538412   9.576100  10.734578
    43  H    6.789291   6.883345   6.084737   8.002032   9.281594
    44  H    6.164109   6.361945   5.892489   6.585397   7.586499
    45  H    4.959272   5.516139   4.943908   5.534663   6.869494
                   11         12         13         14         15
    11  H    0.000000
    12  C    3.319288   0.000000
    13  O    4.317627   1.435513   0.000000
    14  C    5.550300   2.326593   1.434911   0.000000
    15  O    6.435365   3.462354   2.144989   1.434644   0.000000
    16  C    7.147890   4.405154   3.132534   2.456315   1.434398
    17  C    6.861852   4.701784   3.404326   3.356670   2.378319
    18  O    5.535873   3.823323   2.738421   3.222411   2.769191
    19  H    4.836152   2.881476   1.771409   2.510520   2.343732
    20  C    7.925687   6.027168   4.826663   4.713342   3.777666
    21  O    8.146520   6.760206   5.612818   5.795127   4.878897
    22  H    8.935006   7.647745   6.541447   6.667050   5.768906
    23  C    9.240772   6.139700   4.998187   3.824551   2.948419
    24  O    9.055889   5.811399   4.783012   3.535044   2.886935
    25  H    9.956158   6.678402   5.717755   4.444514   3.876203
    26  C    8.647257   5.836196   4.539886   3.705033   2.521794
    27  O    9.487943   6.893957   5.634171   4.892540   3.801569
    28  C    9.262108   7.054579   5.759832   5.359259   4.211428
    29  O   10.352194   8.247007   7.024847   6.569766   5.522613
    30  H    3.921720   3.031205   4.182349   4.747337   5.920718
    31  H    4.352474   2.116703   2.598454   3.136602   4.057937
    32  H    5.546640   2.695038   3.263674   2.709338   4.080209
    33  H    3.513303   1.070000   2.060437   2.537552   3.799134
    34  H    2.194766   2.115371   2.464977   3.821225   4.437517
    35  H    2.389892   2.115371   2.722791   4.028421   4.741119
    36  H    5.694510   2.629528   2.064265   1.070000   2.062987
    37  H    6.545263   3.392542   2.815348   2.099084   2.513635
    38  H   10.285061   7.197939   6.029510   4.882151   3.935367
    39  H    9.186935   6.092316   5.104192   3.835620   3.284052
    40  H    8.863211   6.130191   4.746075   4.085070   2.711006
    41  H    7.060348   4.326652   3.291259   2.474909   2.049526
    42  H   11.003907   8.976546   7.707362   7.314944   6.177442
    43  H    9.581570   7.413051   6.042154   5.733527   4.439197
    44  H    7.877142   6.026887   4.984671   4.790115   4.108436
    45  H    7.168645   5.070289   3.683881   3.755604   2.557687
                   16         17         18         19         20
    16  C    0.000000
    17  C    1.520161   0.000000
    18  O    2.446791   1.434203   0.000000
    19  H    2.556452   2.047631   1.000305   0.000000
    20  C    2.571752   1.520534   2.436379   3.326139   0.000000
    21  O    3.862973   2.504628   2.939669   3.913376   1.434982
    22  H    4.644168   3.402106   3.849311   4.841214   2.080150
    23  C    2.451123   3.760832   4.891495   4.932064   4.304390
    24  O    3.092735   4.487359   5.409359   5.187547   5.365371
    25  H    4.056090   5.436860   6.402103   6.186269   6.222616
    26  C    1.519891   2.414835   3.719949   3.979144   2.856950
    27  O    2.510818   2.858080   4.212529   4.747297   2.478319
    28  C    2.922686   2.459033   3.744717   4.495860   1.519710
    29  O    4.150979   3.747349   4.887878   5.715319   2.475751
    30  H    7.128472   7.586623   6.775044   5.792493   8.990607
    31  H    5.384679   5.869595   5.273486   4.279225   7.352212
    32  H    5.004119   5.983365   5.613722   4.810958   7.227932
    33  H    4.490739   4.863024   3.978276   3.179538   6.034033
    34  H    5.072523   4.696960   3.401572   2.666111   5.828256
    35  H    5.762474   5.643298   4.580861   3.668843   6.980349
    36  H    2.489162   3.439591   3.277354   2.749168   4.571993
    37  H    3.850850   4.868293   4.960387   4.191246   6.291236
    38  H    3.360657   4.494729   5.746564   5.874769   4.804395
    39  H    2.656443   4.034713   5.028716   5.079483   4.461592
    40  H    2.091718   2.602983   3.935880   4.165777   3.145126
    41  H    1.070000   2.125449   2.711559   2.826262   2.847213
    42  H    4.872102   4.348653   5.496547   6.344615   3.080588
    43  H    3.369235   2.791113   4.093188   4.792188   2.145600
    44  H    2.824584   2.111793   2.692116   3.558159   1.070000
    45  H    2.084023   1.070000   2.012099   2.444856   2.084722
                   21         22         23         24         25
    21  O    0.000000
    22  H    0.999486   0.000000
    23  C    5.656751   6.237949   0.000000
    24  O    6.672759   7.366765   1.434297   0.000000
    25  H    7.531195   8.178293   2.025547   1.000029   0.000000
    26  C    4.161109   4.778193   1.520939   2.626124   3.400187
    27  O    3.703041   4.046030   2.468629   3.830281   4.438649
    28  C    2.403581   2.697658   3.728577   4.962703   5.662511
    29  O    2.990002   2.774770   4.606662   5.972190   6.556594
    30  H    9.705528  10.623335   8.375097   7.620420   8.269786
    31  H    8.110400   9.068895   6.606833   5.850157   6.558819
    32  H    8.320417   9.139219   5.728313   5.077659   5.672511
    33  H    6.833501   7.644673   6.190866   5.987712   6.840829
    34  H    6.116497   6.971124   7.275809   7.218118   8.169528
    35  H    7.364326   8.291754   7.656555   7.275857   8.144669
    36  H    5.728268   6.508984   3.853062   3.815788   4.695716
    37  H    7.355612   8.268751   4.240476   3.250963   3.887664
    38  H    6.088990   6.566251   1.070000   2.010587   2.137882
    39  H    5.882650   6.397191   1.070000   2.010587   2.494734
    40  H    4.217397   4.890204   2.094187   2.848651   3.561265
    41  H    4.198122   4.868423   2.710350   3.422795   4.332729
    42  H    3.252165   2.903229   5.237765   6.567268   7.104497
    43  H    2.617448   2.969211   4.044626   5.138375   5.798343
    44  H    2.037078   2.378682   4.508476   5.629311   6.474517
    45  H    2.694902   3.639825   3.977678   4.563286   5.476665
                   26         27         28         29         30
    26  C    0.000000
    27  O    1.435170   0.000000
    28  C    2.349559   1.435304   0.000000
    29  O    3.472881   2.144110   1.434775   0.000000
    30  H    8.400022   9.619136   9.913081  11.159449   0.000000
    31  H    6.561931   7.849533   8.138746   9.458081   2.101240
    32  H    6.096614   7.232430   7.887309   8.963314   3.410430
    33  H    5.940278   6.874898   7.095203   8.166365   3.496182
    34  H    6.550053   7.381925   7.121183   8.270196   4.256435
    35  H    7.146604   8.207337   8.097281   9.370714   3.005423
    36  H    3.763941   4.744457   5.271005   6.326018   5.177887
    37  H    4.582899   5.984764   6.622120   7.908973   4.505171
    38  H    2.085490   2.580758   3.906202   4.578879   9.383491
    39  H    2.085490   2.701849   4.026252   4.716418   8.364605
    40  H    1.070000   2.015915   2.527384   3.774954   8.579397
    41  H    2.124414   2.778446   3.321886   4.299687   7.101878
    42  H    4.094457   2.822450   1.974446   0.960000  11.871183
    43  H    2.666371   2.068796   1.070000   2.068301  10.173180
    44  H    3.247297   2.733891   2.112749   2.613787   9.039160
    45  H    2.611648   3.178813   2.658152   4.053070   7.778608
                   31         32         33         34         35
    31  H    0.000000
    32  H    2.956066   0.000000
    33  H    3.002529   2.482859   0.000000
    34  H    3.582627   4.785515   2.550974   0.000000
    35  H    2.387011   4.516438   2.991116   1.735218   0.000000
    36  H    3.888338   2.682334   2.382753   4.064682   4.580891
    37  H    2.688478   2.939641   3.934806   5.091116   4.557648
    38  H    7.584335   6.727109   7.260689   8.289508   8.662251
    39  H    6.772528   5.441725   5.959893   7.318027   7.812557
    40  H    6.616784   6.586265   6.406098   6.720600   7.178175
    41  H    5.575791   4.668022   4.154989   5.118059   5.952927
    42  H   10.108996   9.785692   8.963338   8.896951   9.968953
    43  H    8.292839   8.362064   7.596641   7.400837   8.246458
    44  H    7.562078   7.078415   5.844312   5.894945   7.182705
    45  H    5.920488   6.457323   5.430419   4.974237   5.706635
                   36         37         38         39         40
    36  H    0.000000
    37  H    2.982945   0.000000
    38  H    4.918204   5.127667   0.000000
    39  H    3.578304   4.527749   1.717240   0.000000
    40  H    4.388849   4.642044   2.410322   2.951422   0.000000
    41  H    2.042901   4.166129   3.652580   2.470928   2.977563
    42  H    7.154512   8.550500   5.087930   5.469760   4.184343
    43  H    5.830873   6.756939   4.109584   4.577080   2.387187
    44  H    4.410381   6.566140   5.055067   4.407542   3.814544
    45  H    4.101847   4.885628   4.602961   4.499110   2.341297
                   41         42         43         44         45
    41  H    0.000000
    42  H    5.145492   0.000000
    43  H    4.016255   2.136216   0.000000
    44  H    2.682044   3.396963   3.003968   0.000000
    45  H    2.972368   4.460175   2.555872   2.963394   0.000000
 Stoichiometry    C12H22O11
 Framework group  C1[X(C12H22O11)]
 Deg. of freedom   129
 Full point group                 C1      NOp   1
 Largest Abelian subgroup         C1      NOp   1
 Largest concise Abelian subgroup C1      NOp   1
                         Standard orientation:                         
 ---------------------------------------------------------------------
 Center     Atomic      Atomic             Coordinates (Angstroms)
 Number     Number       Type             X           Y           Z
 ---------------------------------------------------------------------
      1          8           0        4.970641   -0.385638   -0.282612
      2          6           0        3.651133   -0.137246    0.224336
      3          6           0        3.256142    1.250716   -0.253177
      4          8           0        4.227403    2.268396    0.033871
      5          1           0        5.110430    1.948169   -0.309641
      6          6           0        1.823186    1.599515    0.114620
      7          8           0        1.300370    2.775821   -0.518590
      8          1           0        0.389575    2.884812   -0.119932
      9          6           0        3.055314   -2.581535    0.288689
     10          8           0        4.100592   -3.220642   -0.459609
     11          1           0        4.095953   -4.190645   -0.215746
     12          6           0        2.654138   -1.200874   -0.205056
     13          8           0        1.382738   -0.885678    0.382216
     14          6           0        0.949288    0.380762   -0.134720
     15          8           0       -0.263115    0.467864    0.627314
     16          6           0       -1.502487    0.250748   -0.061390
     17          6           0       -2.013466   -1.119103    0.354903
     18          8           0       -1.036165   -2.143781    0.127189
     19          1           0       -0.101401   -1.851361    0.330458
     20          6           0       -3.364775   -1.515941   -0.218254
     21          8           0       -3.908644   -2.753982    0.261990
     22          1           0       -4.766015   -3.052080   -0.156370
     23          6           0       -2.155810    2.613069   -0.086112
     24          8           0       -1.012379    3.252844    0.497379
     25          1           0       -1.138690    4.243189    0.554992
     26          6           0       -2.642210    1.209670    0.241213
     27          8           0       -3.910985    0.897702   -0.352588
     28          6           0       -4.348623   -0.397746    0.083741
     29          8           0       -5.542740   -0.446441   -0.710169
     30          1           0        5.555596   -0.611054    0.444447
     31          1           0        3.695202   -0.127894    1.293387
     32          1           0        3.250841    1.178711   -1.320739
     33          1           0        2.568623   -1.208076   -1.271609
     34          1           0        2.190729   -3.211355    0.261863
     35          1           0        3.376726   -2.493532    1.305473
     36          1           0        0.722304    0.295133   -1.176856
     37          1           0        1.809015    1.783813    1.168534
     38          1           0       -2.984383    3.262416    0.105500
     39          1           0       -1.991601    2.627054   -1.143344
     40          1           0       -2.791438    1.177969    1.300281
     41          1           0       -1.319168    0.249545   -1.115569
     42          1           0       -6.301219   -0.588021   -0.138972
     43          1           0       -4.592119   -0.379485    1.125507
     44          1           0       -3.263133   -1.590854   -1.280778
     45          1           0       -2.148516   -1.070388    1.415227
 ---------------------------------------------------------------------
 Rotational constants (GHZ):      0.4109640      0.1467673      0.1109426
 Standard basis: 6-31+G(2df,p) (6D, 7F)
 There are   846 symmetry adapted basis functions of A   symmetry.
 Integral buffers will be    131072 words long.
 Raffenetti 2 integral format.
 Two-electron integral symmetry is turned on.
   846 basis functions,  1258 primitive gaussians,   915 cartesian basis functions
    91 alpha electrons       91 beta electrons
       nuclear repulsion energy      2292.4170119021 Hartrees.
 NAtoms=   45 NActive=   45 NUniq=   45 SFac= 1.00D+00 NAtFMM=   50 NAOKFM=F Big=F
 One-electron integrals computed using PRISM.
 NBasis=   846 RedAO= T  NBF=   846
 NBsUse=   846 1.00D-06 NBFU=   846
 Harris functional with IExCor=  402 diagonalized for initial guess.
 ExpMin= 4.38D-02 ExpMax= 5.48D+03 ExpMxC= 8.25D+02 IAcc=2 IRadAn=         0 AccDes= 0.00D+00
 HarFok:  IExCor=  402 AccDes= 0.00D+00 IRadAn=         0 IDoV= 1
 ScaDFX=  1.000000  1.000000  1.000000  1.000000
 FoFCou: FMM=F IPFlag=           0 FMFlag=      100000 FMFlg1=           0
         NFxFlg=           0 DoJE=T BraDBF=F KetDBF=T FulRan=T
         Omega=  0.000000  0.000000  1.000000  0.000000  0.000000 ICntrl=     500 IOpCl=  0
         NMat0=    1 NMatS0=    1 NMatT0=    0 NMatD0=    1 NMtDS0=    0 NMtDT0=    0
         I1Cent=           4 NGrid=           0.
 Petite list used in FoFCou.
 Initial guess orbital symmetries:
       Occupied  (A) (A) (A) (A) (A) (A) (A) (A) (A) (A) (A) (A)
                 (A) (A) (A) (A) (A) (A) (A) (A) (A) (A) (A) (A)
                 (A) (A) (A) (A) (A) (A) (A) (A) (A) (A) (A) (A)
                 (A) (A) (A) (A) (A) (A) (A) (A) (A) (A) (A) (A)
                 (A) (A) (A) (A) (A) (A) (A) (A) (A) (A) (A) (A)
                 (A) (A) (A) (A) (A) (A) (A) (A) (A) (A) (A) (A)
                 (A) (A) (A) (A) (A) (A) (A) (A) (A) (A) (A) (A)
                 (A) (A) (A) (A) (A) (A) (A)
       Virtual   (A) (A) (A) (A) (A) (A) (A) (A) (A) (A) (A) (A)
                 (A) (A) (A) (A) (A) (A) (A) (A) (A) (A) (A) (A)
                 (A) (A) (A) (A) (A) (A) (A) (A) (A) (A) (A) (A)
                 (A) (A) (A) (A) (A) (A) (A) (A) (A) (A) (A) (A)
                 (A) (A) (A) (A) (A) (A) (A) (A) (A) (A) (A) (A)
                 (A) (A) (A) (A) (A) (A) (A) (A) (A) (A) (A) (A)
                 (A) (A) (A) (A) (A) (A) (A) (A) (A) (A) (A) (A)
                 (A) (A) (A) (A) (A) (A) (A) (A) (A) (A) (A) (A)
                 (A) (A) (A) (A) (A) (A) (A) (A) (A) (A) (A) (A)
                 (A) (A) (A) (A) (A) (A) (A) (A) (A) (A) (A) (A)
                 (A) (A) (A) (A) (A) (A) (A) (A) (A) (A) (A) (A)
                 (A) (A) (A) (A) (A) (A) (A) (A) (A) (A) (A) (A)
                 (A) (A) (A) (A) (A) (A) (A) (A) (A) (A) (A) (A)
                 (A) (A) (A) (A) (A) (A) (A) (A) (A) (A) (A) (A)
                 (A) (A) (A) (A) (A) (A) (A) (A) (A) (A) (A) (A)
                 (A) (A) (A) (A) (A) (A) (A) (A) (A) (A) (A) (A)
                 (A) (A) (A) (A) (A) (A) (A) (A) (A) (A) (A) (A)
                 (A) (A) (A) (A) (A) (A) (A) (A) (A) (A) (A) (A)
                 (A) (A) (A) (A) (A) (A) (A) (A) (A) (A) (A) (A)
                 (A) (A) (A) (A) (A) (A) (A) (A) (A) (A) (A) (A)
                 (A) (A) (A) (A) (A) (A) (A) (A) (A) (A) (A) (A)
                 (A) (A) (A) (A) (A) (A) (A) (A) (A) (A) (A) (A)
                 (A) (A) (A) (A) (A) (A) (A) (A) (A) (A) (A) (A)
                 (A) (A) (A) (A) (A) (A) (A) (A) (A) (A) (A) (A)
                 (A) (A) (A) (A) (A) (A) (A) (A) (A) (A) (A) (A)
                 (A) (A) (A) (A) (A) (A) (A) (A) (A) (A) (A) (A)
                 (A) (A) (A) (A) (A) (A) (A) (A) (A) (A) (A) (A)
                 (A) (A) (A) (A) (A) (A) (A) (A) (A) (A) (A) (A)
                 (A) (A) (A) (A) (A) (A) (A) (A) (A) (A) (A) (A)
                 (A) (A) (A) (A) (A) (A) (A) (A) (A) (A) (A) (A)
                 (A) (A) (A) (A) (A) (A) (A) (A) (A) (A) (A) (A)
                 (A) (A) (A) (A) (A) (A) (A) (A) (A) (A) (A) (A)
                 (A) (A) (A) (A) (A) (A) (A) (A) (A) (A) (A) (A)
                 (A) (A) (A) (A) (A) (A) (A) (A) (A) (A) (A) (A)
                 (A) (A) (A) (A) (A) (A) (A) (A) (A) (A) (A) (A)
                 (A) (A) (A) (A) (A) (A) (A) (A) (A) (A) (A) (A)
                 (A) (A) (A) (A) (A) (A) (A) (A) (A) (A) (A) (A)
                 (A) (A) (A) (A) (A) (A) (A) (A) (A) (A) (A) (A)
                 (A) (A) (A) (A) (A) (A) (A) (A) (A) (A) (A) (A)
                 (A) (A) (A) (A) (A) (A) (A) (A) (A) (A) (A) (A)
                 (A) (A) (A) (A) (A) (A) (A) (A) (A) (A) (A) (A)
                 (A) (A) (A) (A) (A) (A) (A) (A) (A) (A) (A) (A)
                 (A) (A) (A) (A) (A) (A) (A) (A) (A) (A) (A) (A)
                 (A) (A) (A) (A) (A) (A) (A) (A) (A) (A) (A) (A)
                 (A) (A) (A) (A) (A) (A) (A) (A) (A) (A) (A) (A)
                 (A) (A) (A) (A) (A) (A) (A) (A) (A) (A) (A) (A)
                 (A) (A) (A) (A) (A) (A) (A) (A) (A) (A) (A) (A)
                 (A) (A) (A) (A) (A) (A) (A) (A) (A) (A) (A) (A)
                 (A) (A) (A) (A) (A) (A) (A) (A) (A) (A) (A) (A)
                 (A) (A) (A) (A) (A) (A) (A) (A) (A) (A) (A) (A)
                 (A) (A) (A) (A) (A) (A) (A) (A) (A) (A) (A) (A)
                 (A) (A) (A) (A) (A) (A) (A) (A) (A) (A) (A) (A)
                 (A) (A) (A) (A) (A) (A) (A) (A) (A) (A) (A) (A)
                 (A) (A) (A) (A) (A) (A) (A) (A) (A) (A) (A) (A)
                 (A) (A) (A) (A) (A) (A) (A) (A) (A) (A) (A) (A)
                 (A) (A) (A) (A) (A) (A) (A) (A) (A) (A) (A) (A)
                 (A) (A) (A) (A) (A) (A) (A) (A) (A) (A) (A) (A)
                 (A) (A) (A) (A) (A) (A) (A) (A) (A) (A) (A) (A)
                 (A) (A) (A) (A) (A) (A) (A) (A) (A) (A) (A) (A)
                 (A) (A) (A) (A) (A) (A) (A) (A) (A) (A) (A) (A)
                 (A) (A) (A) (A) (A) (A) (A) (A) (A) (A) (A) (A)
                 (A) (A) (A) (A) (A) (A) (A) (A) (A) (A) (A) (A)
                 (A) (A) (A) (A) (A) (A) (A) (A) (A) (A) (A)
 The electronic state of the initial guess is 1-A.
 Requested convergence on RMS density matrix=1.00D-08 within 128 cycles.
 Requested convergence on MAX density matrix=1.00D-06.
 Requested convergence on             energy=1.00D-06.
 No special actions if energy rises.
 SCF Done:  E(RB3LYP) =  -1297.99935779     A.U. after   13 cycles
             Convg  =    0.4233D-08             -V/T =  2.0065
 Range of M.O.s used for correlation:     1   846
 NBasis=   846 NAE=    91 NBE=    91 NFC=     0 NFV=     0
 NROrb=    846 NOA=    91 NOB=    91 NVA=   755 NVB=   755

 **** Warning!!: The largest alpha MO coefficient is  0.72195150D+02

          Differentiating once with respect to electric field.
                with respect to dipole field.
          Electric field/nuclear overlap derivatives assumed to be zero.
          There are     3 degrees of freedom in the 1st order CPHF.  IDoFFX=0.
      3 vectors produced by pass  0 Test12= 2.29D-12 3.33D-08 XBig12= 1.25D+02 1.11D+00.
 AX will form     3 AO Fock derivatives at one time.
      3 vectors produced by pass  1 Test12= 2.29D-12 3.33D-08 XBig12= 2.54D+01 4.04D-01.
      3 vectors produced by pass  2 Test12= 2.29D-12 3.33D-08 XBig12= 1.07D+01 2.44D-01.
      3 vectors produced by pass  3 Test12= 2.29D-12 3.33D-08 XBig12= 1.12D+00 8.22D-02.
      3 vectors produced by pass  4 Test12= 2.29D-12 3.33D-08 XBig12= 3.14D-01 4.65D-02.
      3 vectors produced by pass  5 Test12= 2.29D-12 3.33D-08 XBig12= 6.09D-02 1.69D-02.
      3 vectors produced by pass  6 Test12= 2.29D-12 3.33D-08 XBig12= 1.83D-02 1.39D-02.
      3 vectors produced by pass  7 Test12= 2.29D-12 3.33D-08 XBig12= 2.76D-03 5.24D-03.
      3 vectors produced by pass  8 Test12= 2.29D-12 3.33D-08 XBig12= 4.13D-04 1.55D-03.
      3 vectors produced by pass  9 Test12= 2.29D-12 3.33D-08 XBig12= 1.48D-04 1.03D-03.
      3 vectors produced by pass 10 Test12= 2.29D-12 3.33D-08 XBig12= 3.63D-05 5.11D-04.
      3 vectors produced by pass 11 Test12= 2.29D-12 3.33D-08 XBig12= 9.28D-06 2.33D-04.
      3 vectors produced by pass 12 Test12= 2.29D-12 3.33D-08 XBig12= 1.43D-06 1.34D-04.
      3 vectors produced by pass 13 Test12= 2.29D-12 3.33D-08 XBig12= 5.67D-07 7.40D-05.
      3 vectors produced by pass 14 Test12= 2.29D-12 3.33D-08 XBig12= 8.45D-08 3.88D-05.
      3 vectors produced by pass 15 Test12= 2.29D-12 3.33D-08 XBig12= 1.38D-08 1.24D-05.
      3 vectors produced by pass 16 Test12= 2.29D-12 3.33D-08 XBig12= 2.82D-09 4.44D-06.
      3 vectors produced by pass 17 Test12= 2.29D-12 3.33D-08 XBig12= 2.35D-10 1.14D-06.
      3 vectors produced by pass 18 Test12= 2.29D-12 3.33D-08 XBig12= 6.26D-11 5.95D-07.
      3 vectors produced by pass 19 Test12= 2.29D-12 3.33D-08 XBig12= 1.50D-11 2.28D-07.
      2 vectors produced by pass 20 Test12= 2.29D-12 3.33D-08 XBig12= 1.01D-11 2.30D-07.
      2 vectors produced by pass 21 Test12= 2.29D-12 3.33D-08 XBig12= 1.85D-12 9.06D-08.
      1 vectors produced by pass 22 Test12= 2.29D-12 3.33D-08 XBig12= 2.72D-13 5.23D-08.
 Inverted reduced A of dimension    65 with in-core refinement.
 End of Minotr Frequency-dependent properties file   721 does not exist.
 End of Minotr Frequency-dependent properties file   722 does not exist.
 Symmetrizing basis deriv contribution to polar:
 IMax=3 JMax=2 DiffMx= 0.00D+00
 G2DrvN: will do     8 centers at a time, making    6 passes doing MaxLOS=3.
 Calling FoFCou, ICntrl=  3107 FMM=F I1Cent=   0 AccDes= 0.00D+00.
 Calling FoFCou, ICntrl=  3107 FMM=F I1Cent=   0 AccDes= 0.00D+00.
 Calling FoFCou, ICntrl=  3107 FMM=F I1Cent=   0 AccDes= 0.00D+00.
 Calling FoFCou, ICntrl=  3107 FMM=F I1Cent=   0 AccDes= 0.00D+00.
 Calling FoFCou, ICntrl=  3107 FMM=F I1Cent=   0 AccDes= 0.00D+00.
 Calling FoFCou, ICntrl=  3107 FMM=F I1Cent=   0 AccDes= 0.00D+00.
 FoFDir/FoFCou used for L=0 through L=3.
 End of G2Drv Frequency-dependent properties file   721 does not exist.
 End of G2Drv Frequency-dependent properties file   722 does not exist.
          IDoAtm=111111111111111111111111111111111111111111111
          Differentiating once with respect to electric field.
                with respect to dipole field.
          Differentiating once with respect to nuclear coordinates.
          There are   138 degrees of freedom in the 1st order CPHF.  IDoFFX=5.
 Will reuse    3 saved solutions.
    135 vectors produced by pass  0 Test12= 6.87D-14 1.00D-09 XBig12= 1.60D-01 6.14D-02.
 AX will form    27 AO Fock derivatives at one time.
    135 vectors produced by pass  1 Test12= 6.87D-14 1.00D-09 XBig12= 2.40D-02 1.08D-02.
    132 vectors produced by pass  2 Test12= 6.87D-14 1.00D-09 XBig12= 1.50D-04 1.33D-03.
    132 vectors produced by pass  3 Test12= 6.87D-14 1.00D-09 XBig12= 8.94D-07 6.31D-05.
    132 vectors produced by pass  4 Test12= 6.87D-14 1.00D-09 XBig12= 2.47D-09 2.80D-06.
    132 vectors produced by pass  5 Test12= 6.87D-14 1.00D-09 XBig12= 5.86D-12 1.36D-07.
     95 vectors produced by pass  6 Test12= 6.87D-14 1.00D-09 XBig12= 2.73D-13 3.40D-08.
      1 vectors produced by pass  7 Test12= 6.87D-14 1.00D-09 XBig12= 7.58D-16 1.33D-09.
 Inverted reduced A of dimension   894 with in-core refinement.
 Isotropic polarizability for W=    0.000000      192.69 Bohr**3.
 End of Minotr Frequency-dependent properties file   721 does not exist.
 End of Minotr Frequency-dependent properties file   722 does not exist.

 **********************************************************************

            Population analysis using the SCF density.

 **********************************************************************

 Orbital symmetries:
       Occupied  (A) (A) (A) (A) (A) (A) (A) (A) (A) (A) (A) (A)
                 (A) (A) (A) (A) (A) (A) (A) (A) (A) (A) (A) (A)
                 (A) (A) (A) (A) (A) (A) (A) (A) (A) (A) (A) (A)
                 (A) (A) (A) (A) (A) (A) (A) (A) (A) (A) (A) (A)
                 (A) (A) (A) (A) (A) (A) (A) (A) (A) (A) (A) (A)
                 (A) (A) (A) (A) (A) (A) (A) (A) (A) (A) (A) (A)
                 (A) (A) (A) (A) (A) (A) (A) (A) (A) (A) (A) (A)
                 (A) (A) (A) (A) (A) (A) (A)
       Virtual   (A) (A) (A) (A) (A) (A) (A) (A) (A) (A) (A) (A)
                 (A) (A) (A) (A) (A) (A) (A) (A) (A) (A) (A) (A)
                 (A) (A) (A) (A) (A) (A) (A) (A) (A) (A) (A) (A)
                 (A) (A) (A) (A) (A) (A) (A) (A) (A) (A) (A) (A)
                 (A) (A) (A) (A) (A) (A) (A) (A) (A) (A) (A) (A)
                 (A) (A) (A) (A) (A) (A) (A) (A) (A) (A) (A) (A)
                 (A) (A) (A) (A) (A) (A) (A) (A) (A) (A) (A) (A)
                 (A) (A) (A) (A) (A) (A) (A) (A) (A) (A) (A) (A)
                 (A) (A) (A) (A) (A) (A) (A) (A) (A) (A) (A) (A)
                 (A) (A) (A) (A) (A) (A) (A) (A) (A) (A) (A) (A)
                 (A) (A) (A) (A) (A) (A) (A) (A) (A) (A) (A) (A)
                 (A) (A) (A) (A) (A) (A) (A) (A) (A) (A) (A) (A)
                 (A) (A) (A) (A) (A) (A) (A) (A) (A) (A) (A) (A)
                 (A) (A) (A) (A) (A) (A) (A) (A) (A) (A) (A) (A)
                 (A) (A) (A) (A) (A) (A) (A) (A) (A) (A) (A) (A)
                 (A) (A) (A) (A) (A) (A) (A) (A) (A) (A) (A) (A)
                 (A) (A) (A) (A) (A) (A) (A) (A) (A) (A) (A) (A)
                 (A) (A) (A) (A) (A) (A) (A) (A) (A) (A) (A) (A)
                 (A) (A) (A) (A) (A) (A) (A) (A) (A) (A) (A) (A)
                 (A) (A) (A) (A) (A) (A) (A) (A) (A) (A) (A) (A)
                 (A) (A) (A) (A) (A) (A) (A) (A) (A) (A) (A) (A)
                 (A) (A) (A) (A) (A) (A) (A) (A) (A) (A) (A) (A)
                 (A) (A) (A) (A) (A) (A) (A) (A) (A) (A) (A) (A)
                 (A) (A) (A) (A) (A) (A) (A) (A) (A) (A) (A) (A)
                 (A) (A) (A) (A) (A) (A) (A) (A) (A) (A) (A) (A)
                 (A) (A) (A) (A) (A) (A) (A) (A) (A) (A) (A) (A)
                 (A) (A) (A) (A) (A) (A) (A) (A) (A) (A) (A) (A)
                 (A) (A) (A) (A) (A) (A) (A) (A) (A) (A) (A) (A)
                 (A) (A) (A) (A) (A) (A) (A) (A) (A) (A) (A) (A)
                 (A) (A) (A) (A) (A) (A) (A) (A) (A) (A) (A) (A)
                 (A) (A) (A) (A) (A) (A) (A) (A) (A) (A) (A) (A)
                 (A) (A) (A) (A) (A) (A) (A) (A) (A) (A) (A) (A)
                 (A) (A) (A) (A) (A) (A) (A) (A) (A) (A) (A) (A)
                 (A) (A) (A) (A) (A) (A) (A) (A) (A) (A) (A) (A)
                 (A) (A) (A) (A) (A) (A) (A) (A) (A) (A) (A) (A)
                 (A) (A) (A) (A) (A) (A) (A) (A) (A) (A) (A) (A)
                 (A) (A) (A) (A) (A) (A) (A) (A) (A) (A) (A) (A)
                 (A) (A) (A) (A) (A) (A) (A) (A) (A) (A) (A) (A)
                 (A) (A) (A) (A) (A) (A) (A) (A) (A) (A) (A) (A)
                 (A) (A) (A) (A) (A) (A) (A) (A) (A) (A) (A) (A)
                 (A) (A) (A) (A) (A) (A) (A) (A) (A) (A) (A) (A)
                 (A) (A) (A) (A) (A) (A) (A) (A) (A) (A) (A) (A)
                 (A) (A) (A) (A) (A) (A) (A) (A) (A) (A) (A) (A)
                 (A) (A) (A) (A) (A) (A) (A) (A) (A) (A) (A) (A)
                 (A) (A) (A) (A) (A) (A) (A) (A) (A) (A) (A) (A)
                 (A) (A) (A) (A) (A) (A) (A) (A) (A) (A) (A) (A)
                 (A) (A) (A) (A) (A) (A) (A) (A) (A) (A) (A) (A)
                 (A) (A) (A) (A) (A) (A) (A) (A) (A) (A) (A) (A)
                 (A) (A) (A) (A) (A) (A) (A) (A) (A) (A) (A) (A)
                 (A) (A) (A) (A) (A) (A) (A) (A) (A) (A) (A) (A)
                 (A) (A) (A) (A) (A) (A) (A) (A) (A) (A) (A) (A)
                 (A) (A) (A) (A) (A) (A) (A) (A) (A) (A) (A) (A)
                 (A) (A) (A) (A) (A) (A) (A) (A) (A) (A) (A) (A)
                 (A) (A) (A) (A) (A) (A) (A) (A) (A) (A) (A) (A)
                 (A) (A) (A) (A) (A) (A) (A) (A) (A) (A) (A) (A)
                 (A) (A) (A) (A) (A) (A) (A) (A) (A) (A) (A) (A)
                 (A) (A) (A) (A) (A) (A) (A) (A) (A) (A) (A) (A)
                 (A) (A) (A) (A) (A) (A) (A) (A) (A) (A) (A) (A)
                 (A) (A) (A) (A) (A) (A) (A) (A) (A) (A) (A) (A)
                 (A) (A) (A) (A) (A) (A) (A) (A) (A) (A) (A) (A)
                 (A) (A) (A) (A) (A) (A) (A) (A) (A) (A) (A) (A)
                 (A) (A) (A) (A) (A) (A) (A) (A) (A) (A) (A) (A)
                 (A) (A) (A) (A) (A) (A) (A) (A) (A) (A) (A)
 The electronic state is 1-A.
 Alpha  occ. eigenvalues --  -19.19694 -19.19170 -19.18518 -19.17763 -19.17446
 Alpha  occ. eigenvalues --  -19.16744 -19.16316 -19.16226 -19.15001 -19.13323
 Alpha  occ. eigenvalues --  -19.12923 -10.30567 -10.30430 -10.26039 -10.25519
 Alpha  occ. eigenvalues --  -10.25518 -10.25481 -10.25162 -10.24968 -10.24294
 Alpha  occ. eigenvalues --  -10.24291 -10.24002 -10.23922  -1.10668  -1.09437
 Alpha  occ. eigenvalues --   -1.06375  -1.05116  -1.03818  -1.02966  -1.02646
 Alpha  occ. eigenvalues --   -1.02146  -1.01521  -1.00135  -0.99583  -0.82503
 Alpha  occ. eigenvalues --   -0.80483  -0.79365  -0.78412  -0.72052  -0.69932
 Alpha  occ. eigenvalues --   -0.67142  -0.64959  -0.63575  -0.62641  -0.61429
 Alpha  occ. eigenvalues --   -0.60176  -0.56472  -0.56152  -0.55471  -0.54549
 Alpha  occ. eigenvalues --   -0.54161  -0.53634  -0.52879  -0.51649  -0.51008
 Alpha  occ. eigenvalues --   -0.50741  -0.50232  -0.49535  -0.48702  -0.46958
 Alpha  occ. eigenvalues --   -0.46183  -0.45094  -0.44256  -0.43679  -0.42916
 Alpha  occ. eigenvalues --   -0.42578  -0.41704  -0.40973  -0.40330  -0.39956
 Alpha  occ. eigenvalues --   -0.39026  -0.37632  -0.37255  -0.36150  -0.35649
 Alpha  occ. eigenvalues --   -0.35081  -0.34501  -0.34138  -0.33827  -0.33325
 Alpha  occ. eigenvalues --   -0.32743  -0.31740  -0.30697  -0.30571  -0.29702
 Alpha  occ. eigenvalues --   -0.29428  -0.28705  -0.28317  -0.27451  -0.27001
 Alpha  occ. eigenvalues --   -0.26015
 Alpha virt. eigenvalues --   -0.02330  -0.01770  -0.01709  -0.00058   0.00235
 Alpha virt. eigenvalues --    0.00901   0.01820   0.02200   0.02928   0.03532
 Alpha virt. eigenvalues --    0.03706   0.04229   0.04783   0.05257   0.05512
 Alpha virt. eigenvalues --    0.06501   0.06529   0.07395   0.07766   0.08088
 Alpha virt. eigenvalues --    0.08247   0.08877   0.08979   0.09732   0.09946
 Alpha virt. eigenvalues --    0.10440   0.11090   0.11412   0.11692   0.11808
 Alpha virt. eigenvalues --    0.12346   0.13022   0.13196   0.13628   0.13743
 Alpha virt. eigenvalues --    0.13805   0.14187   0.14693   0.14955   0.15481
 Alpha virt. eigenvalues --    0.15538   0.16250   0.16853   0.17186   0.17413
 Alpha virt. eigenvalues --    0.17492   0.17656   0.17968   0.18055   0.18727
 Alpha virt. eigenvalues --    0.18976   0.19416   0.19444   0.19919   0.20097
 Alpha virt. eigenvalues --    0.20797   0.20982   0.21391   0.21580   0.21868
 Alpha virt. eigenvalues --    0.22270   0.22741   0.22850   0.23127   0.23309
 Alpha virt. eigenvalues --    0.23517   0.23947   0.24073   0.24296   0.24759
 Alpha virt. eigenvalues --    0.24898   0.25364   0.25802   0.25821   0.25955
 Alpha virt. eigenvalues --    0.26295   0.26548   0.26878   0.27060   0.27295
 Alpha virt. eigenvalues --    0.27616   0.28047   0.28104   0.28562   0.28955
 Alpha virt. eigenvalues --    0.29202   0.29555   0.29730   0.30739   0.30894
 Alpha virt. eigenvalues --    0.31243   0.31304   0.31620   0.31775   0.32243
 Alpha virt. eigenvalues --    0.32307   0.32663   0.33327   0.33698   0.33743
 Alpha virt. eigenvalues --    0.34139   0.34610   0.34862   0.35402   0.35484
 Alpha virt. eigenvalues --    0.36049   0.36295   0.37066   0.37285   0.37553
 Alpha virt. eigenvalues --    0.37932   0.38439   0.38756   0.39221   0.39530
 Alpha virt. eigenvalues --    0.39630   0.39888   0.40471   0.40698   0.41180
 Alpha virt. eigenvalues --    0.41741   0.42525   0.42975   0.43043   0.43312
 Alpha virt. eigenvalues --    0.43907   0.44340   0.45349   0.45944   0.46517
 Alpha virt. eigenvalues --    0.46910   0.47634   0.48432   0.48723   0.49343
 Alpha virt. eigenvalues --    0.50176   0.51120   0.53503   0.57238   0.58463
 Alpha virt. eigenvalues --    0.58796   0.59530   0.60126   0.61164   0.61881
 Alpha virt. eigenvalues --    0.62578   0.63175   0.64357   0.65073   0.66104
 Alpha virt. eigenvalues --    0.66534   0.67365   0.68380   0.69337   0.70112
 Alpha virt. eigenvalues --    0.70484   0.71155   0.71500   0.72902   0.73273
 Alpha virt. eigenvalues --    0.73895   0.74796   0.75153   0.76413   0.76607
 Alpha virt. eigenvalues --    0.77447   0.78380   0.78668   0.79956   0.81061
 Alpha virt. eigenvalues --    0.82181   0.82564   0.82956   0.83256   0.84471
 Alpha virt. eigenvalues --    0.86207   0.87037   0.87871   0.88835   0.89368
 Alpha virt. eigenvalues --    0.89506   0.89902   0.90535   0.91002   0.91652
 Alpha virt. eigenvalues --    0.92231   0.92446   0.92873   0.93216   0.93456
 Alpha virt. eigenvalues --    0.93826   0.94255   0.95249   0.95450   0.95641
 Alpha virt. eigenvalues --    0.96598   0.97077   0.97486   0.97923   0.98364
 Alpha virt. eigenvalues --    0.98761   0.99382   1.00197   1.01661   1.02021
 Alpha virt. eigenvalues --    1.02434   1.03242   1.03959   1.04986   1.05475
 Alpha virt. eigenvalues --    1.05722   1.06549   1.06777   1.07630   1.07987
 Alpha virt. eigenvalues --    1.08146   1.08538   1.09555   1.10277   1.10986
 Alpha virt. eigenvalues --    1.11261   1.11900   1.12522   1.12966   1.14003
 Alpha virt. eigenvalues --    1.14263   1.14754   1.15192   1.15989   1.16472
 Alpha virt. eigenvalues --    1.16930   1.17870   1.18014   1.18310   1.18753
 Alpha virt. eigenvalues --    1.19268   1.19673   1.20511   1.21374   1.21728
 Alpha virt. eigenvalues --    1.22602   1.23318   1.23947   1.24137   1.24721
 Alpha virt. eigenvalues --    1.25069   1.25837   1.26177   1.27467   1.28114
 Alpha virt. eigenvalues --    1.28418   1.28881   1.29520   1.30132   1.30889
 Alpha virt. eigenvalues --    1.31621   1.32626   1.33016   1.33538   1.33849
 Alpha virt. eigenvalues --    1.34503   1.34936   1.35472   1.36217   1.36695
 Alpha virt. eigenvalues --    1.37335   1.37820   1.38760   1.38927   1.40021
 Alpha virt. eigenvalues --    1.40221   1.40617   1.40959   1.41673   1.43662
 Alpha virt. eigenvalues --    1.44739   1.44877   1.46016   1.47193   1.47294
 Alpha virt. eigenvalues --    1.48438   1.49066   1.50041   1.50332   1.50475
 Alpha virt. eigenvalues --    1.51577   1.52579   1.53081   1.54058   1.55071
 Alpha virt. eigenvalues --    1.55783   1.56323   1.57152   1.58448   1.59376
 Alpha virt. eigenvalues --    1.60432   1.60884   1.61834   1.62160   1.64134
 Alpha virt. eigenvalues --    1.65022   1.65318   1.66250   1.66673   1.67210
 Alpha virt. eigenvalues --    1.67884   1.69436   1.70134   1.71476   1.72410
 Alpha virt. eigenvalues --    1.73027   1.73631   1.74128   1.75190   1.75719
 Alpha virt. eigenvalues --    1.76678   1.77231   1.79475   1.80646   1.81720
 Alpha virt. eigenvalues --    1.82224   1.82943   1.84240   1.86073   1.86854
 Alpha virt. eigenvalues --    1.87364   1.88580   1.89472   1.89614   1.90880
 Alpha virt. eigenvalues --    1.91763   1.92451   1.93462   1.95103   1.95832
 Alpha virt. eigenvalues --    1.97283   1.97572   1.98808   1.99825   2.00653
 Alpha virt. eigenvalues --    2.01278   2.02567   2.02868   2.04480   2.05622
 Alpha virt. eigenvalues --    2.07180   2.07512   2.09791   2.10188   2.12497
 Alpha virt. eigenvalues --    2.14494   2.15501   2.17550   2.19719   2.20483
 Alpha virt. eigenvalues --    2.20624   2.21323   2.23952   2.25396   2.25992
 Alpha virt. eigenvalues --    2.26662   2.29908   2.30535   2.31864   2.33020
 Alpha virt. eigenvalues --    2.33947   2.37694   2.39101   2.41065   2.42314
 Alpha virt. eigenvalues --    2.43401   2.47081   2.47536   2.48489   2.50213
 Alpha virt. eigenvalues --    2.51173   2.52327   2.53925   2.54636   2.55223
 Alpha virt. eigenvalues --    2.55960   2.57198   2.57984   2.59250   2.59945
 Alpha virt. eigenvalues --    2.61122   2.62228   2.63569   2.64283   2.65800
 Alpha virt. eigenvalues --    2.66770   2.67588   2.68198   2.70050   2.71615
 Alpha virt. eigenvalues --    2.74405   2.74851   2.75323   2.76967   2.78525
 Alpha virt. eigenvalues --    2.78828   2.80038   2.81434   2.82677   2.83829
 Alpha virt. eigenvalues --    2.84965   2.85110   2.86041   2.87219   2.87699
 Alpha virt. eigenvalues --    2.90111   2.90725   2.91204   2.92213   2.93557
 Alpha virt. eigenvalues --    2.94542   2.94615   2.96571   2.97736   2.97946
 Alpha virt. eigenvalues --    2.99922   3.00529   3.01414   3.02078   3.02411
 Alpha virt. eigenvalues --    3.02994   3.03998   3.04436   3.05901   3.07458
 Alpha virt. eigenvalues --    3.07487   3.08916   3.09910   3.10376   3.12006
 Alpha virt. eigenvalues --    3.12347   3.13823   3.14289   3.16949   3.18421
 Alpha virt. eigenvalues --    3.19240   3.19832   3.21326   3.22461   3.22609
 Alpha virt. eigenvalues --    3.24149   3.26501   3.27433   3.27966   3.28684
 Alpha virt. eigenvalues --    3.28804   3.29299   3.29574   3.31804   3.34224
 Alpha virt. eigenvalues --    3.34914   3.36653   3.37534   3.37874   3.39719
 Alpha virt. eigenvalues --    3.39955   3.41350   3.42361   3.42942   3.43858
 Alpha virt. eigenvalues --    3.46789   3.48238   3.49303   3.50478   3.52800
 Alpha virt. eigenvalues --    3.53317   3.55785   3.56185   3.58116   3.59621
 Alpha virt. eigenvalues --    3.61424   3.62599   3.63476   3.66170   3.67573
 Alpha virt. eigenvalues --    3.68326   3.69183   3.72391   3.72782   3.75566
 Alpha virt. eigenvalues --    3.76429   3.77227   3.78044   3.78975   3.80471
 Alpha virt. eigenvalues --    3.81605   3.82418   3.83155   3.84164   3.85833
 Alpha virt. eigenvalues --    3.86168   3.87921   3.88155   3.90305   3.90820
 Alpha virt. eigenvalues --    3.93612   3.95808   3.96416   3.99784   4.00448
 Alpha virt. eigenvalues --    4.04184   4.05026   4.05488   4.09558   4.15096
 Alpha virt. eigenvalues --    4.15696   4.15910   4.17179   4.18438   4.18700
 Alpha virt. eigenvalues --    4.21449   4.22920   4.23434   4.24897   4.25581
 Alpha virt. eigenvalues --    4.27755   4.28864   4.28991   4.30126   4.30865
 Alpha virt. eigenvalues --    4.31473   4.31930   4.32836   4.34428   4.35241
 Alpha virt. eigenvalues --    4.36326   4.36741   4.37113   4.38271   4.39663
 Alpha virt. eigenvalues --    4.40473   4.41183   4.41879   4.42691   4.43519
 Alpha virt. eigenvalues --    4.44576   4.45664   4.47006   4.47473   4.47945
 Alpha virt. eigenvalues --    4.48360   4.49935   4.50173   4.50584   4.50925
 Alpha virt. eigenvalues --    4.51569   4.52963   4.53210   4.54476   4.54699
 Alpha virt. eigenvalues --    4.55855   4.56731   4.57287   4.57843   4.58534
 Alpha virt. eigenvalues --    4.59396   4.60065   4.61021   4.61481   4.61702
 Alpha virt. eigenvalues --    4.62310   4.63265   4.64060   4.65119   4.65315
 Alpha virt. eigenvalues --    4.65828   4.67197   4.67739   4.67931   4.68630
 Alpha virt. eigenvalues --    4.68822   4.69958   4.70498   4.71335   4.71833
 Alpha virt. eigenvalues --    4.72442   4.73318   4.74062   4.74829   4.75109
 Alpha virt. eigenvalues --    4.75348   4.75729   4.77616   4.78228   4.78673
 Alpha virt. eigenvalues --    4.79395   4.79838   4.80798   4.82125   4.82397
 Alpha virt. eigenvalues --    4.82860   4.83365   4.84491   4.85271   4.86082
 Alpha virt. eigenvalues --    4.86995   4.87862   4.89046   4.91132   4.91500
 Alpha virt. eigenvalues --    4.91871   4.92922   4.93330   4.94135   4.95182
 Alpha virt. eigenvalues --    4.96884   4.97646   4.98873   4.99682   5.01929
 Alpha virt. eigenvalues --    5.03493   5.04673   5.06265   5.08947   5.10289
 Alpha virt. eigenvalues --    5.10924   5.12712   5.15171   5.17848   5.17973
 Alpha virt. eigenvalues --    5.19108   5.20200   5.20442   5.21904   5.23672
 Alpha virt. eigenvalues --    5.24135   5.25426   5.25964   5.28477   5.29493
 Alpha virt. eigenvalues --    5.31182   5.32167   5.32781   5.33844   5.34719
 Alpha virt. eigenvalues --    5.35964   5.36840   5.37134   5.39737   5.40479
 Alpha virt. eigenvalues --    5.41521   5.41999   5.42331   5.42568   5.43676
 Alpha virt. eigenvalues --    5.44630   5.45123   5.46115   5.47647   5.48027
 Alpha virt. eigenvalues --    5.48795   5.49498   5.50522   5.51978   5.53603
 Alpha virt. eigenvalues --    5.54297   5.54765   5.55950   5.56417   5.57550
 Alpha virt. eigenvalues --    5.59010   5.59432   5.62858   5.63766   5.65137
 Alpha virt. eigenvalues --    5.67137   5.68983   5.70136   5.70733   5.73658
 Alpha virt. eigenvalues --    5.77079   5.78325   5.79635   5.81188   5.82589
 Alpha virt. eigenvalues --    5.84695   5.85102   5.87639   5.88497   5.89766
 Alpha virt. eigenvalues --    5.90978   5.91693   5.93453   5.93733   5.94957
 Alpha virt. eigenvalues --    5.95423   5.95979   5.97094   5.97784   6.00563
 Alpha virt. eigenvalues --    6.01360   6.02677   6.03473   6.03861   6.05304
 Alpha virt. eigenvalues --    6.06904   6.07448   6.08292   6.09754   6.11910
 Alpha virt. eigenvalues --    6.12781   6.14553   6.16557   6.20442   6.22718
 Alpha virt. eigenvalues --    6.26709   6.28008   6.32844   6.34088   6.39154
 Alpha virt. eigenvalues --    6.56219   6.62432   6.99885   7.05471   7.09952
 Alpha virt. eigenvalues --    7.15993   7.19549   7.24601   7.25560   7.30032
 Alpha virt. eigenvalues --    7.31890   7.34959   7.47367   7.56647   7.70841
 Alpha virt. eigenvalues --    7.76598   8.13857  12.04727  12.11810  12.24197
 Alpha virt. eigenvalues --   12.32076  12.44989  12.52358  12.83241  12.93818
 Alpha virt. eigenvalues --   13.00783  13.07644  13.24540  13.37804  13.42890
 Alpha virt. eigenvalues --   13.46875  13.51863  13.57509  13.63639  13.65741
 Alpha virt. eigenvalues --   13.69431  13.71936  13.93086  14.14353  14.31405
          Condensed to atoms (all electrons):
              1          2          3          4          5          6
     1  O    8.082088   0.317833  -0.120729  -0.011370   0.016683   0.014387
     2  C    0.317833   6.801181  -0.091451  -0.030418  -0.062508  -0.573357
     3  C   -0.120729  -0.091451   6.823183   0.249193  -0.005823  -0.113783
     4  O   -0.011370  -0.030418   0.249193   8.084849   0.249021  -0.087825
     5  H    0.016683  -0.062508  -0.005823   0.249021   0.407358   0.038328
     6  C    0.014387  -0.573357  -0.113783  -0.087825   0.038328   7.741364
     7  O    0.000218   0.005681  -0.120060   0.004617  -0.000457   0.366697
     8  H    0.000007  -0.003327   0.016026  -0.000262   0.000009  -0.007720
     9  C   -0.003905   0.055922  -0.279973   0.006379  -0.001673   0.257891
    10  O   -0.018219   0.001261  -0.000020  -0.000120   0.000005  -0.004825
    11  H    0.000789  -0.011396  -0.000945   0.000000   0.000000   0.000589
    12  C   -0.098607  -0.698124  -0.612844   0.033838   0.005625   0.380126
    13  O    0.001308  -0.079934  -0.013435  -0.001832   0.000029   0.010483
    14  C   -0.003957   0.131676   0.259895  -0.006115   0.004314  -1.873754
    15  O    0.000010  -0.005748  -0.000806   0.000540  -0.000006  -0.044017
    16  C    0.001692   0.065441  -0.122806  -0.003958   0.000603  -0.200269
    17  C    0.000012  -0.067414   0.033878   0.000322   0.000007   0.090787
    18  O    0.000040   0.007714   0.000546  -0.000012   0.000000  -0.004629
    19  H   -0.000033  -0.001847   0.003077   0.000005   0.000000   0.000881
    20  C    0.000030   0.009107  -0.007975  -0.000031   0.000001   0.046924
    21  O    0.000000   0.000047  -0.000029   0.000000   0.000000  -0.000414
    22  H    0.000000  -0.000001   0.000001   0.000000   0.000000  -0.000019
    23  C    0.000037   0.010249  -0.028433  -0.000298   0.000001  -0.156907
    24  O    0.000006   0.001135   0.000179  -0.000052  -0.000002  -0.019404
    25  H    0.000000   0.000027   0.001359   0.000001   0.000000   0.002704
    26  C   -0.000105  -0.007080  -0.025709   0.000541   0.000006   0.102779
    27  O    0.000000   0.000039   0.000264   0.000000   0.000000   0.003087
    28  C    0.000001  -0.001248   0.001127   0.000010   0.000000  -0.007896
    29  O    0.000000   0.000002   0.000010   0.000000   0.000000  -0.000236
    30  H    0.269509   0.032123  -0.025922   0.000042  -0.001653   0.001833
    31  H   -0.010209   0.257590   0.024401   0.000234   0.000198  -0.029197
    32  H    0.002292  -0.087969   0.318863  -0.024147  -0.004522  -0.117688
    33  H    0.006032   0.029424  -0.025957   0.000082   0.000018  -0.020495
    34  H   -0.000555  -0.019756  -0.001618   0.000014   0.000000  -0.006555
    35  H    0.003921   0.032322   0.006320  -0.000014   0.000000   0.007547
    36  H    0.000020  -0.016514  -0.060182  -0.000061   0.000007   0.074724
    37  H   -0.000246  -0.002916  -0.102122   0.000058  -0.000119   0.385089
    38  H    0.000000   0.000011   0.000248   0.000000   0.000000   0.002177
    39  H    0.000000   0.000045  -0.000820   0.000000   0.000000  -0.012646
    40  H    0.000000   0.000005   0.000399   0.000000   0.000000  -0.007858
    41  H   -0.000001  -0.001982   0.004624   0.000005   0.000000   0.020427
    42  H    0.000000   0.000000   0.000000   0.000000   0.000000   0.000006
    43  H    0.000000   0.000009   0.000004   0.000000   0.000000  -0.000089
    44  H    0.000000   0.000155   0.000011   0.000000   0.000000   0.001193
    45  H    0.000000   0.000397   0.000870   0.000000   0.000000   0.009924
              7          8          9         10         11         12
     1  O    0.000218   0.000007  -0.003905  -0.018219   0.000789  -0.098607
     2  C    0.005681  -0.003327   0.055922   0.001261  -0.011396  -0.698124
     3  C   -0.120060   0.016026  -0.279973  -0.000020  -0.000945  -0.612844
     4  O    0.004617  -0.000262   0.006379  -0.000120   0.000000   0.033838
     5  H   -0.000457   0.000009  -0.001673   0.000005   0.000000   0.005625
     6  C    0.366697  -0.007720   0.257891  -0.004825   0.000589   0.380126
     7  O    8.100580   0.257616  -0.000760  -0.000007   0.000000  -0.002874
     8  H    0.257616   0.334817   0.000015   0.000000   0.000000  -0.002398
     9  C   -0.000760   0.000015   7.029108   0.046373  -0.000732  -0.856577
    10  O   -0.000007   0.000000   0.046373   8.127276   0.232438   0.098885
    11  H    0.000000   0.000000  -0.000732   0.232438   0.437105   0.016929
    12  C   -0.002874  -0.002398  -0.856577   0.098885   0.016929   8.897191
    13  O    0.001072  -0.000254  -0.039081   0.000603  -0.000802   0.055424
    14  C   -0.092660  -0.045494  -0.817262   0.020807  -0.004065  -0.960974
    15  O    0.002870   0.010753  -0.007661   0.000125  -0.000002  -0.024562
    16  C    0.050923   0.025228  -0.116756  -0.000880  -0.000290  -0.075119
    17  C   -0.003319   0.001418   0.010502  -0.000293   0.000077  -0.090074
    18  O   -0.000063  -0.000031  -0.004209  -0.000182  -0.000003  -0.009529
    19  H   -0.000061  -0.000003  -0.000181   0.000007  -0.000001  -0.005196
    20  C    0.001846   0.000846   0.000939  -0.000030   0.000007  -0.017317
    21  O   -0.000003   0.000000   0.000231   0.000000   0.000000  -0.000105
    22  H    0.000000   0.000000  -0.000003   0.000000   0.000000   0.000022
    23  C    0.038816   0.022065  -0.004442  -0.000024   0.000000  -0.011587
    24  O   -0.041611  -0.040327  -0.000115   0.000000   0.000000   0.000372
    25  H    0.002146  -0.001228  -0.000016   0.000000   0.000000  -0.000337
    26  C   -0.041031  -0.031302   0.015817  -0.000025  -0.000003   0.047376
    27  O   -0.000065  -0.000038   0.000067   0.000000   0.000000   0.000184
    28  C   -0.001026  -0.000321   0.000121   0.000007   0.000000   0.003208
    29  O   -0.000002   0.000000  -0.000008   0.000000   0.000000   0.000080
    30  H   -0.000023   0.000000  -0.002461   0.000672  -0.000031  -0.014480
    31  H    0.000493   0.000005  -0.063559  -0.000913  -0.000013  -0.016403
    32  H    0.002397   0.000001   0.010292  -0.000237   0.000000   0.086296
    33  H    0.000368   0.000002   0.033226  -0.000035  -0.000219   0.089670
    34  H   -0.000007   0.000000   0.400183  -0.022047  -0.009620  -0.012948
    35  H    0.000007   0.000000   0.531678  -0.046417  -0.001479  -0.229369
    36  H   -0.002003  -0.000141   0.031417   0.000107   0.000000   0.097185
    37  H   -0.035512  -0.003147   0.016728   0.000012   0.000000   0.075030
    38  H   -0.000660   0.000303   0.000000   0.000000   0.000000   0.000102
    39  H    0.001690   0.000435  -0.000013   0.000000   0.000000  -0.000110
    40  H   -0.000156   0.000012   0.000063   0.000000   0.000000   0.001005
    41  H   -0.001807  -0.000243   0.000326   0.000001   0.000000   0.003096
    42  H    0.000000   0.000000   0.000000   0.000000   0.000000  -0.000001
    43  H    0.000000   0.000000  -0.000003   0.000000   0.000000   0.000062
    44  H    0.000003   0.000000  -0.000086   0.000000   0.000000   0.000142
    45  H   -0.000001  -0.000003  -0.000212   0.000000   0.000000  -0.002707
             13         14         15         16         17         18
     1  O    0.001308  -0.003957   0.000010   0.001692   0.000012   0.000040
     2  C   -0.079934   0.131676  -0.005748   0.065441  -0.067414   0.007714
     3  C   -0.013435   0.259895  -0.000806  -0.122806   0.033878   0.000546
     4  O   -0.001832  -0.006115   0.000540  -0.003958   0.000322  -0.000012
     5  H    0.000029   0.004314  -0.000006   0.000603   0.000007   0.000000
     6  C    0.010483  -1.873754  -0.044017  -0.200269   0.090787  -0.004629
     7  O    0.001072  -0.092660   0.002870   0.050923  -0.003319  -0.000063
     8  H   -0.000254  -0.045494   0.010753   0.025228   0.001418  -0.000031
     9  C   -0.039081  -0.817262  -0.007661  -0.116756   0.010502  -0.004209
    10  O    0.000603   0.020807   0.000125  -0.000880  -0.000293  -0.000182
    11  H   -0.000802  -0.004065  -0.000002  -0.000290   0.000077  -0.000003
    12  C    0.055424  -0.960974  -0.024562  -0.075119  -0.090074  -0.009529
    13  O    7.886267   0.297634  -0.011389  -0.010460   0.028760  -0.021099
    14  C    0.297634   9.595926   0.263854  -0.898298   0.018442   0.011653
    15  O   -0.011389   0.263854   7.755408   0.249905  -0.009633  -0.004063
    16  C   -0.010460  -0.898298   0.249905  10.880681  -2.129117  -0.024845
    17  C    0.028760   0.018442  -0.009633  -2.129117   7.807409   0.265302
    18  O   -0.021099   0.011653  -0.004063  -0.024845   0.265302   8.136520
    19  H    0.027683  -0.011024   0.010923  -0.040092   0.008758   0.240842
    20  C   -0.011814  -0.221106   0.018043  -0.985742   0.234781  -0.088422
    21  O   -0.000078   0.003051   0.000033   0.055106  -0.120080   0.007224
    22  H    0.000001  -0.000249  -0.000006  -0.009927   0.019330  -0.000383
    23  C    0.005767   0.051411  -0.028114   0.544909  -0.485568   0.014948
    24  O   -0.001000   0.070308  -0.025021   0.015436  -0.001788   0.000027
    25  H   -0.000014  -0.010522   0.002596  -0.008223  -0.000483  -0.000001
    26  C   -0.026861  -0.429530  -0.081825  -2.265665   0.305388   0.016113
    27  O    0.000220   0.012140   0.002366   0.041615  -0.001788  -0.001179
    28  C    0.000996   0.054910   0.006662   0.736845  -0.072147  -0.009383
    29  O    0.000029   0.000411  -0.000140  -0.024032  -0.012957   0.000442
    30  H   -0.000688   0.001886  -0.000003   0.000175  -0.000040  -0.000001
    31  H    0.004056   0.093830   0.000030  -0.006692   0.002286   0.000048
    32  H    0.002797   0.044270   0.000808  -0.012849   0.002321   0.000051
    33  H   -0.021727   0.158931  -0.000044  -0.003997   0.007158  -0.000170
    34  H   -0.003198  -0.002894  -0.000344   0.004297   0.002281  -0.000174
    35  H   -0.005339   0.003224  -0.000522  -0.003175   0.001015  -0.000049
    36  H   -0.032002   0.176701  -0.030601  -0.025076   0.013055  -0.002046
    37  H    0.007486  -0.049523  -0.014339  -0.034551   0.003263   0.000143
    38  H    0.000046   0.009500   0.001413   0.024624   0.008836   0.000017
    39  H   -0.000021   0.003341   0.001270   0.060589  -0.014647   0.000079
    40  H   -0.000325   0.042978  -0.005038   0.015256  -0.065209   0.000679
    41  H   -0.004229  -0.037664  -0.027317   0.125441   0.037816  -0.001856
    42  H    0.000000   0.000042   0.000003   0.001362   0.007890  -0.000016
    43  H    0.000029   0.000705   0.000208   0.057591  -0.033228   0.000718
    44  H    0.000097  -0.008811   0.000160   0.094230  -0.179958   0.008941
    45  H   -0.002108  -0.002010  -0.006263  -0.079655   0.300286  -0.024581
             19         20         21         22         23         24
     1  O   -0.000033   0.000030   0.000000   0.000000   0.000037   0.000006
     2  C   -0.001847   0.009107   0.000047  -0.000001   0.010249   0.001135
     3  C    0.003077  -0.007975  -0.000029   0.000001  -0.028433   0.000179
     4  O    0.000005  -0.000031   0.000000   0.000000  -0.000298  -0.000052
     5  H    0.000000   0.000001   0.000000   0.000000   0.000001  -0.000002
     6  C    0.000881   0.046924  -0.000414  -0.000019  -0.156907  -0.019404
     7  O   -0.000061   0.001846  -0.000003   0.000000   0.038816  -0.041611
     8  H   -0.000003   0.000846   0.000000   0.000000   0.022065  -0.040327
     9  C   -0.000181   0.000939   0.000231  -0.000003  -0.004442  -0.000115
    10  O    0.000007  -0.000030   0.000000   0.000000  -0.000024   0.000000
    11  H   -0.000001   0.000007   0.000000   0.000000   0.000000   0.000000
    12  C   -0.005196  -0.017317  -0.000105   0.000022  -0.011587   0.000372
    13  O    0.027683  -0.011814  -0.000078   0.000001   0.005767  -0.001000
    14  C   -0.011024  -0.221106   0.003051  -0.000249   0.051411   0.070308
    15  O    0.010923   0.018043   0.000033  -0.000006  -0.028114  -0.025021
    16  C   -0.040092  -0.985742   0.055106  -0.009927   0.544909   0.015436
    17  C    0.008758   0.234781  -0.120080   0.019330  -0.485568  -0.001788
    18  O    0.240842  -0.088422   0.007224  -0.000383   0.014948   0.000027
    19  H    0.336489   0.007781  -0.000338   0.000011  -0.004071   0.000008
    20  C    0.007781   6.798518   0.194617  -0.011419   0.016226  -0.004675
    21  O   -0.000338   0.194617   8.088601   0.248084   0.001461   0.000004
    22  H    0.000011  -0.011419   0.248084   0.409181   0.000153   0.000000
    23  C   -0.004071   0.016226   0.001461   0.000153   6.975792  -0.009977
    24  O    0.000008  -0.004675   0.000004   0.000000  -0.009977   8.307695
    25  H    0.000000   0.000850   0.000000   0.000000  -0.018898   0.253351
    26  C    0.003105   0.588776  -0.019163   0.006708  -1.310239   0.088916
    27  O    0.000046  -0.100513   0.001506  -0.000550  -0.093811   0.002231
    28  C    0.003931  -0.617894   0.022862  -0.016231  -0.164005   0.004730
    29  O   -0.000001  -0.023878   0.007071   0.007918   0.008240   0.000000
    30  H    0.000000   0.000001   0.000000   0.000000   0.000002   0.000000
    31  H   -0.000027  -0.000012   0.000000   0.000000   0.000019   0.000010
    32  H   -0.000001  -0.000044   0.000000   0.000000   0.000134   0.000073
    33  H   -0.000119   0.000341  -0.000001   0.000000   0.000052  -0.000004
    34  H    0.001080  -0.000293   0.000002   0.000000  -0.000001   0.000000
    35  H    0.000014   0.000027   0.000000   0.000000  -0.000012   0.000000
    36  H   -0.000078   0.010404   0.000008   0.000000  -0.001168   0.000025
    37  H   -0.000020   0.000248   0.000000   0.000000   0.003345   0.000759
    38  H    0.000000  -0.002495  -0.000006   0.000000   0.373055  -0.015758
    39  H    0.000000   0.001111   0.000006   0.000000   0.646009  -0.070117
    40  H    0.000018  -0.029802   0.000240   0.000003   0.103609  -0.001070
    41  H    0.000347   0.039007  -0.000436   0.000005  -0.033835   0.000415
    42  H    0.000000  -0.029774  -0.001683  -0.000846  -0.001258  -0.000001
    43  H    0.000002  -0.116179   0.004675  -0.000204   0.002332   0.000044
    44  H   -0.000091   0.316089  -0.021581  -0.005194   0.008771   0.000015
    45  H   -0.001574  -0.000030  -0.003298  -0.000178   0.015321  -0.000015
             25         26         27         28         29         30
     1  O    0.000000  -0.000105   0.000000   0.000001   0.000000   0.269509
     2  C    0.000027  -0.007080   0.000039  -0.001248   0.000002   0.032123
     3  C    0.001359  -0.025709   0.000264   0.001127   0.000010  -0.025922
     4  O    0.000001   0.000541   0.000000   0.000010   0.000000   0.000042
     5  H    0.000000   0.000006   0.000000   0.000000   0.000000  -0.001653
     6  C    0.002704   0.102779   0.003087  -0.007896  -0.000236   0.001833
     7  O    0.002146  -0.041031  -0.000065  -0.001026  -0.000002  -0.000023
     8  H   -0.001228  -0.031302  -0.000038  -0.000321   0.000000   0.000000
     9  C   -0.000016   0.015817   0.000067   0.000121  -0.000008  -0.002461
    10  O    0.000000  -0.000025   0.000000   0.000007   0.000000   0.000672
    11  H    0.000000  -0.000003   0.000000   0.000000   0.000000  -0.000031
    12  C   -0.000337   0.047376   0.000184   0.003208   0.000080  -0.014480
    13  O   -0.000014  -0.026861   0.000220   0.000996   0.000029  -0.000688
    14  C   -0.010522  -0.429530   0.012140   0.054910   0.000411   0.001886
    15  O    0.002596  -0.081825   0.002366   0.006662  -0.000140  -0.000003
    16  C   -0.008223  -2.265665   0.041615   0.736845  -0.024032   0.000175
    17  C   -0.000483   0.305388  -0.001788  -0.072147  -0.012957  -0.000040
    18  O   -0.000001   0.016113  -0.001179  -0.009383   0.000442  -0.000001
    19  H    0.000000   0.003105   0.000046   0.003931  -0.000001   0.000000
    20  C    0.000850   0.588776  -0.100513  -0.617894  -0.023878   0.000001
    21  O    0.000000  -0.019163   0.001506   0.022862   0.007071   0.000000
    22  H    0.000000   0.006708  -0.000550  -0.016231   0.007918   0.000000
    23  C   -0.018898  -1.310239  -0.093811  -0.164005   0.008240   0.000002
    24  O    0.253351   0.088916   0.002231   0.004730   0.000000   0.000000
    25  H    0.388017   0.019404  -0.000646  -0.001303  -0.000002   0.000000
    26  C    0.019404   9.874996   0.180414  -0.897503  -0.012652  -0.000002
    27  O   -0.000646   0.180414   7.908087   0.232765  -0.068777   0.000000
    28  C   -0.001303  -0.897503   0.232765   5.976956   0.308092   0.000000
    29  O   -0.000002  -0.012652  -0.068777   0.308092   8.031113   0.000000
    30  H    0.000000  -0.000002   0.000000   0.000000   0.000000   0.403427
    31  H    0.000000  -0.000596   0.000000   0.000003   0.000000  -0.013102
    32  H    0.000000  -0.000978   0.000000   0.000010   0.000000  -0.000076
    33  H    0.000000  -0.001450   0.000000   0.000022   0.000000  -0.000192
    34  H    0.000000   0.000515   0.000000   0.000009   0.000000   0.000030
    35  H    0.000000  -0.000152   0.000000   0.000004   0.000000  -0.000617
    36  H    0.000008   0.022921   0.000187  -0.001242  -0.000002   0.000003
    37  H   -0.000005  -0.007818   0.000001  -0.000047   0.000000   0.000021
    38  H   -0.013004  -0.075906   0.000523   0.006709  -0.000138   0.000000
    39  H    0.001317  -0.320630   0.000358  -0.000671  -0.000129   0.000000
    40  H   -0.000113   0.173438  -0.040217   0.050300  -0.001056   0.000000
    41  H   -0.000010   0.121984  -0.000244   0.000003  -0.000433   0.000000
    42  H    0.000000  -0.004424   0.002732   0.013500   0.266025   0.000000
    43  H    0.000000   0.000798  -0.041477   0.413599  -0.021096   0.000000
    44  H    0.000000   0.015779  -0.001928   0.018943  -0.000720   0.000000
    45  H    0.000000   0.070975  -0.000947  -0.047862   0.000593   0.000000
             31         32         33         34         35         36
     1  O   -0.010209   0.002292   0.006032  -0.000555   0.003921   0.000020
     2  C    0.257590  -0.087969   0.029424  -0.019756   0.032322  -0.016514
     3  C    0.024401   0.318863  -0.025957  -0.001618   0.006320  -0.060182
     4  O    0.000234  -0.024147   0.000082   0.000014  -0.000014  -0.000061
     5  H    0.000198  -0.004522   0.000018   0.000000   0.000000   0.000007
     6  C   -0.029197  -0.117688  -0.020495  -0.006555   0.007547   0.074724
     7  O    0.000493   0.002397   0.000368  -0.000007   0.000007  -0.002003
     8  H    0.000005   0.000001   0.000002   0.000000   0.000000  -0.000141
     9  C   -0.063559   0.010292   0.033226   0.400183   0.531678   0.031417
    10  O   -0.000913  -0.000237  -0.000035  -0.022047  -0.046417   0.000107
    11  H   -0.000013   0.000000  -0.000219  -0.009620  -0.001479   0.000000
    12  C   -0.016403   0.086296   0.089670  -0.012948  -0.229369   0.097185
    13  O    0.004056   0.002797  -0.021727  -0.003198  -0.005339  -0.032002
    14  C    0.093830   0.044270   0.158931  -0.002894   0.003224   0.176701
    15  O    0.000030   0.000808  -0.000044  -0.000344  -0.000522  -0.030601
    16  C   -0.006692  -0.012849  -0.003997   0.004297  -0.003175  -0.025076
    17  C    0.002286   0.002321   0.007158   0.002281   0.001015   0.013055
    18  O    0.000048   0.000051  -0.000170  -0.000174  -0.000049  -0.002046
    19  H   -0.000027  -0.000001  -0.000119   0.001080   0.000014  -0.000078
    20  C   -0.000012  -0.000044   0.000341  -0.000293   0.000027   0.010404
    21  O    0.000000   0.000000  -0.000001   0.000002   0.000000   0.000008
    22  H    0.000000   0.000000   0.000000   0.000000   0.000000   0.000000
    23  C    0.000019   0.000134   0.000052  -0.000001  -0.000012  -0.001168
    24  O    0.000010   0.000073  -0.000004   0.000000   0.000000   0.000025
    25  H    0.000000   0.000000   0.000000   0.000000   0.000000   0.000008
    26  C   -0.000596  -0.000978  -0.001450   0.000515  -0.000152   0.022921
    27  O    0.000000   0.000000   0.000000   0.000000   0.000000   0.000187
    28  C    0.000003   0.000010   0.000022   0.000009   0.000004  -0.001242
    29  O    0.000000   0.000000   0.000000   0.000000   0.000000  -0.000002
    30  H   -0.013102  -0.000076  -0.000192   0.000030  -0.000617   0.000003
    31  H    0.611708   0.007029   0.006208   0.000126   0.003872  -0.000040
    32  H    0.007029   0.637475   0.002826   0.000005  -0.000002   0.001877
    33  H    0.006208   0.002826   0.604818  -0.002551   0.005961   0.002476
    34  H    0.000126   0.000005  -0.002551   0.571202  -0.047707  -0.000029
    35  H    0.003872  -0.000002   0.005961  -0.047707   0.598131  -0.000019
    36  H   -0.000040   0.001877   0.002476  -0.000029  -0.000019   0.593968
    37  H    0.002193   0.007453  -0.000053   0.000001  -0.000013   0.005590
    38  H    0.000000   0.000000   0.000000   0.000000   0.000000  -0.000001
    39  H    0.000000   0.000000   0.000000   0.000000   0.000000   0.000001
    40  H    0.000000   0.000000   0.000000   0.000000   0.000000  -0.000007
    41  H    0.000000  -0.000002  -0.000023   0.000000   0.000000   0.008141
    42  H    0.000000   0.000000   0.000000   0.000000   0.000000   0.000000
    43  H    0.000000   0.000000   0.000000   0.000000   0.000000   0.000000
    44  H    0.000000   0.000000   0.000000   0.000000   0.000000  -0.000007
    45  H    0.000000   0.000000  -0.000001  -0.000001   0.000000  -0.000036
             37         38         39         40         41         42
[...]
 0.00000272,-0.00000026,-0.00000083,-0.00000629,-0.00000869,-0.00001254
 ,0.00000293,-0.00001814,0.00004258,-0.00001419,0.00000177,-0.00001275,
 -0.00000032,-0.00001356,0.00006450,-0.00008815,0.00002442,-0.00011773,
 0.00045637,0.00080526,0.00011833,-0.00012324,-0.00005738,0.00046687,-0
 .00000117,0.00010638,-0.00000095,-0.00162485,-0.00176806,0.00261837,-0
 .00033013,0.00032369,-0.00040007,0.00032595,0.00000671,0.00002685,-0.0
 0017824,0.00005844,0.00021123,0.00000743,-0.00013411,0.00004290,0.0000
 1656,-0.00000987,0.00002994,0.00087652,-0.00082477,0.00080310,-0.00064
 693,-0.00083348,0.00185438,0.00967346,-0.00039228,0.02495795,-0.258830
 74,0.02749435,-0.27110189,0.00000192,-0.00000002,-0.00000060,-0.000001
 52,0.,0.00000081,-0.00000126,-0.00000024,-0.00000036,-0.00000033,0.000
 00080,0.00000134,0.00000160,-0.00000225,-0.00000063,-0.00000203,-0.000
 00143,0.00000265,-0.00000051,0.00000036,-0.00000039,-0.00000204,-0.000
 00027,0.00000082,0.00000049,-0.00001441,-0.00000397,0.00000219,0.00001
 083,-0.00000837,0.00001374,0.00005246,-0.00019555,0.00000243,-0.000016
 64,0.00001404,0.24976314,0.00000056,-0.00000911,0.00000011,-0.00000054
 ,0.00000299,-0.00000347,-0.00000068,0.00000457,-0.00000437,0.00000203,
 -0.00001191,0.00000584,-0.00000157,0.00000354,-0.00000020,-0.00000038,
 0.00001882,0.00001184,0.00000285,-0.00002082,-0.00000961,0.00000156,0.
 00000917,0.00000642,0.00000294,0.00000897,-0.00000079,-0.00000420,-0.0
 0000932,0.00000309,0.00000199,0.00000304,-0.00000562,0.00000263,0.0000
 1267,0.00000435,0.00000277,0.00000111,-0.00000320,-0.00003341,0.000013
 47,-0.00002653,0.00000620,0.00000224,0.00009301,-0.00008869,-0.0001646
 8,-0.00009726,0.00024774,-0.00084083,0.00013887,0.00008267,-0.00006035
 ,-0.00046775,0.00001898,-0.00009512,-0.00003221,0.00014217,0.00216339,
 -0.00461838,0.00056907,-0.00030989,0.00165760,-0.00036845,-0.00139437,
 -0.00105235,-0.00036553,0.00032319,0.00033581,0.00002592,-0.00026533,0
 .00002392,0.00002238,-0.00000882,0.00008188,0.00005671,-0.00161500,0.0
 0075616,-0.00079294,-0.00458054,0.00600669,0.00355311,-0.00185447,-0.0
 0250158,0.02108828,0.00519219,0.03343784,0.00000020,0.00000426,-0.0000
 0137,-0.00000002,0.00000013,0.00000037,-0.00000106,-0.00000016,0.00000
 032,-0.00000098,0.00000059,-0.00000058,-0.00000012,-0.00000090,0.00000
 241,-0.00000085,-0.00000028,-0.00000019,0.00000212,0.00000118,0.000001
 32,0.00000124,-0.00000045,-0.00000060,-0.00002985,-0.00007736,-0.00001
 077,0.00001449,0.00000713,0.00000190,-0.00015897,-0.00004912,0.0002005
 5,-0.00000693,0.00001395,0.00000038,-0.02460851,0.00297839,0.00001061,
 0.00000563,0.00007560,0.00000516,-0.00000641,-0.00004929,-0.00001453,0
 .00001712,-0.00005692,0.00000804,-0.00003344,0.00006537,-0.00000477,0.
 00000528,-0.00000935,0.00000370,0.00002814,0.00000617,0.00001853,-0.00
 002508,0.00007093,-0.00002677,0.00000958,-0.00008008,-0.00000820,-0.00
 002818,-0.00004560,0.00001525,0.00004141,0.00005360,0.00000036,-0.0000
 0882,-0.00001180,-0.00003930,-0.00002781,-0.00008113,0.00000921,0.0000
 3058,0.00016815,-0.00009079,-0.00004666,-0.00022683,0.00005706,-0.0000
 4495,0.00036734,-0.00004228,0.00005475,-0.00004044,-0.00014481,-0.0008
 2999,-0.00023103,0.00010843,0.00013357,0.00011804,-0.00000259,-0.00000
 720,-0.00014561,0.00178522,0.00137828,-0.00375015,0.00015305,0.0004631
 2,0.00108428,-0.00015183,-0.00111008,-0.00004383,0.00021854,0.00012482
 ,-0.00020134,-0.00004122,-0.00008533,0.00013780,-0.00000158,0.00003782
 ,-0.00000539,-0.00011121,0.00079196,0.00000360,0.00237605,0.00062011,-
 0.00344491,-0.02814024,0.00175062,-0.02388649,-0.21585850,0.03113108,-
 0.31113393,0.00000356,-0.00000095,-0.00001406,0.00000062,0.00000043,0.
 00000199,-0.00000039,-0.00000085,0.00000254,0.00000383,0.00000100,0.00
 000503,0.00000246,-0.00001056,0.00000423,-0.00000038,0.00000085,0.0000
 0450,0.00000057,0.00000841,0.00000579,0.00000122,0.00000132,-0.0000031
 8,-0.00001180,0.00000094,0.00000106,0.00000560,-0.00003000,0.00002118,
 0.00011649,0.00007939,-0.00008545,0.00000352,-0.00000737,0.00001013,0.
 23868932,-0.03447489,0.33752037,0.00000280,-0.00000707,-0.00001898,-0.
 00000828,0.00000684,0.00001170,0.00000013,-0.00000361,0.00001870,0.000
 00550,0.00000352,-0.00002187,-0.00000232,0.00000133,0.00000310,-0.0000
 2795,0.00001299,0.00000947,0.00000753,-0.00002135,-0.00006674,0.000017
 99,0.00001506,0.00007518,-0.00001105,0.00001005,0.00000125,0.00000744,
 -0.00000904,-0.00000595,-0.00000361,0.00000053,0.00000029,0.00000397,-
 0.00000065,0.00001801,0.00002063,-0.00005277,-0.00005839,0.00002896,0.
 00005466,0.00010040,0.00001181,-0.00005690,-0.00029246,0.00012465,0.00
 046625,0.00005765,-0.00064572,-0.00054680,0.00046113,0.00040049,0.0001
 7685,0.00008156,-0.00000681,-0.00000796,-0.00007673,-0.00755240,0.0010
 0359,-0.00199018,0.00222471,-0.00045186,0.00156963,-0.00022592,-0.0001
 3033,-0.00010545,0.00062119,-0.00010368,-0.00012600,-0.00001685,0.0002
 2136,-0.00014791,-0.00001879,-0.00001801,-0.00003584,-0.00038193,-0.00
 080083,0.00142572,-0.01229298,0.01170543,-0.00591831,-0.33542656,-0.05
 010090,-0.05786504,-0.01478077,-0.00383450,0.00664958,-0.00000307,0.00
 000125,0.00000248,0.00000346,0.00000007,-0.00000257,0.00000350,0.00000
 109,0.00000027,0.00000285,0.00000006,-0.00000138,-0.00000352,-0.000001
 62,0.00000128,0.00000407,0.00000073,-0.00000456,0.00000562,-0.00000127
 ,-0.00000039,0.00000641,-0.00000056,-0.00000081,-0.00001539,-0.0000367
 5,0.00001639,0.00008357,-0.00021910,0.00014368,0.00069362,0.00046430,-
 0.00120981,0.00004268,-0.00013839,0.00022296,0.00052778,0.00030609,0.0
 0066194,0.36520778,0.00000032,0.00001400,0.00000505,0.00000060,-0.0000
 1632,-0.00000173,-0.00000579,-0.00000027,-0.00000920,-0.00000085,0.000
 00829,0.00000923,0.00000030,-0.00000277,-0.00000152,0.00002273,-0.0000
 4687,-0.00002298,0.00000953,0.00006084,0.00010018,-0.00004601,-0.00004
 353,-0.00013994,0.00000135,-0.00001497,0.00001473,0.00000441,0.0000097
 2,-0.00000757,-0.00000384,-0.00000048,0.00000568,-0.00000787,0.0000161
 7,0.00000878,-0.00001315,0.00013524,-0.00001034,-0.00007683,-0.0000577
 4,-0.00010807,0.00003259,0.00029858,0.00021112,-0.00030680,-0.00073871
 ,0.00022307,-0.00125153,-0.00033209,0.00155929,0.00053157,0.00007981,-
 0.00056904,0.00016025,-0.00012781,0.00008821,-0.02490849,-0.00243937,-
 0.00822915,0.00088465,0.00342535,0.00111849,-0.00025512,-0.00016807,0.
 00001719,0.00003020,0.00015323,-0.00000107,-0.00011609,-0.00022955,0.0
 0018968,-0.00000386,0.00003745,0.00003493,0.00393276,0.00168666,-0.004
 43456,0.03649278,-0.00982898,0.01399098,-0.05078132,-0.04992899,-0.010
 63273,-0.00527967,0.00305456,0.00141237,-0.00000017,-0.00000226,-0.000
 00023,0.00000037,0.00000103,-0.00000106,0.00000187,-0.00000055,0.00000
 123,0.00000275,-0.00000373,0.00000237,-0.00000288,0.00000811,-0.000000
 37,0.00000186,0.00000274,-0.00000338,0.00000757,-0.00000361,0.00000481
 ,-0.00000301,0.00000502,-0.00000451,0.00003562,0.00000967,-0.00000484,
 -0.00019035,0.00006282,-0.00002766,-0.00143797,0.00022985,-0.00005829,
 0.00000883,-0.00014755,-0.00001160,-0.00023158,0.00042464,-0.00041248,
 0.04228556,0.05739877,-0.00000174,-0.00000187,-0.00002993,-0.00000657,
 0.00000077,0.00001938,0.00000490,-0.00000438,0.00002463,-0.00000140,0.
 00001269,-0.00002811,0.00000090,-0.00000102,0.00000324,-0.00001199,-0.
 00001814,-0.00000601,0.00000060,0.00001198,-0.00003004,0.00000538,-0.0
 0000661,0.00003198,-0.00000428,0.00001085,0.00001653,0.00000027,-0.000
 01489,-0.00001971,-0.00000239,0.00000255,0.00000413,0.00001326,0.00001
 056,0.00003607,-0.00000195,-0.00001446,-0.00009137,0.00005796,0.000036
 29,0.00010920,0.00004747,0.00004028,-0.00033307,0.00012263,-0.00018454
 ,-0.00016487,-0.00171422,0.00001637,0.00164229,0.00059660,0.00000300,-
 0.00014859,0.00005911,0.00002281,0.00006590,-0.02390772,-0.00460960,-0
 .00206951,0.00202485,0.00104656,0.00143916,0.00019434,-0.00017718,-0.0
 0010421,0.00009607,0.00002808,0.00001536,0.00005714,0.00011472,-0.0000
 8621,-0.00000534,-0.00001619,-0.00001148,-0.00267581,-0.00065257,0.002
 91553,-0.01190326,0.00648540,-0.00218315,-0.06352690,-0.01351486,-0.05
 815873,0.03901435,0.00505156,-0.00962843,-0.00000263,0.00000046,0.0000
 0453,0.00000157,0.00000041,-0.00000257,0.00000192,0.00000028,-0.000000
 18,0.00000080,-0.00000143,-0.00000144,-0.00000335,0.00000387,-0.000000
 28,0.00000264,0.00000044,-0.00000487,0.00000518,-0.00000623,0.00000519
 ,0.00000244,0.00000140,-0.00000161,-0.00000496,-0.00001105,0.00000035,
 0.00013838,-0.00008833,0.00000750,0.00087971,0.00008085,-0.00006383,0.
 00015711,0.00003774,0.00011255,0.00202295,0.00040461,0.00349681,0.0577
 4283,0.00902037,0.06642743,0.00000393,-0.00000142,-0.00001127,-0.00000
 136,-0.00000006,0.00000883,-0.00001109,-0.00001863,0.00001276,0.000009
 41,0.00000716,-0.00000911,-0.00000361,-0.00000102,0.00000359,0.0000159
 2,0.00001408,0.00003136,0.00002187,0.00000356,-0.00001561,-0.00001368,
 -0.00000400,0.00000477,-0.00001288,0.00000243,0.00000240,0.00001710,-0
 .00000021,-0.00000565,-0.00000774,0.00000046,0.00000306,-0.00002324,0.
 00000169,0.00001207,0.00002639,-0.00000528,-0.00004419,-0.00010981,-0.
 00007676,0.00005860,0.00047795,0.00004924,0.00015695,-0.00049612,0.000
 80733,-0.00030868,-0.01291425,-0.00596673,0.00072623,0.00161257,0.0008
 5247,-0.00043390,0.00017100,0.00008822,-0.00002186,-0.33874532,-0.0641
 2766,-0.00910545,-0.01739300,0.01147874,-0.00773345,0.00023621,0.00027
 930,0.00038187,-0.00002976,-0.00003352,-0.00000640,0.00004277,0.000033
 87,-0.00002902,-0.00001046,-0.00000515,-0.00000347,-0.00014132,-0.0001
 2484,-0.00008286,0.00166084,-0.00086190,0.00046108,-0.00776752,-0.0016
 9216,0.00033821,0.00142759,0.00027001,0.00003619,-0.00000265,0.0000005
 2,0.00000229,0.00000464,0.00000177,-0.00000453,0.00000695,0.00000137,0
 .00000052,0.00001094,-0.00000285,0.00000563,-0.00000928,0.00000013,0.0
 0000177,0.00000690,0.00000240,-0.00000830,0.00003083,-0.00000858,0.000
 02615,0.00000605,0.00000806,-0.00000783,0.00000308,-0.00000379,0.00001
 317,0.00003728,-0.00003537,0.00001344,0.00005693,0.00015550,0.00001514
 ,0.00063195,-0.00061347,0.00033614,0.00020989,0.00029133,0.00027090,0.
 00054644,-0.00016971,-0.00015056,0.37010677,0.00000393,-0.00000280,0.0
 0001622,0.00000084,0.00000510,-0.00000899,-0.00000773,0.00000267,-0.00
 000720,0.00000498,-0.00000868,0.00000944,-0.00000239,0.00000211,-0.000
 00132,0.00000047,0.00001425,0.00000272,0.00001909,-0.00000852,0.000000
 34,-0.00001655,-0.00000227,-0.00001174,-0.00000298,-0.00000054,-0.0000
 1658,0.00000187,0.00000687,0.00001678,0.00000289,-0.00000208,-0.000004
 78,-0.00001165,-0.00001057,-0.00002128,0.00002704,-0.00003886,0.000047
 20,-0.00004121,0.00004463,-0.00002752,0.00022250,-0.00003053,0.0000124
 3,-0.00091209,0.00046289,-0.00032357,-0.00970218,-0.00117000,0.0005113
 9,0.00099336,0.00060707,0.00024679,0.00002937,-0.00001224,-0.00008490,
 -0.06606348,-0.05189470,-0.00492744,0.04078189,-0.00994993,0.00929168,
 0.00056321,0.00160334,-0.00066722,-0.00006220,0.00000241,-0.00004706,0
 .00003204,-0.00001316,-0.00000968,-0.00000467,0.00000317,0.00000227,-0
 .00024413,-0.00029360,0.00020266,0.00120964,0.00191918,0.00050734,-0.0
 2865987,-0.00659934,-0.00217206,0.00167874,0.00149987,0.00174309,0.000
 00064,0.00000009,-0.00000289,0.00000177,-0.00000081,-0.00000077,0.0000
 0126,0.00000085,0.00000126,0.00000193,0.00000383,0.00000220,0.00000440
 ,-0.00000632,0.00000057,-0.00000026,-0.00000243,0.00000281,0.00002006,
 0.00000559,0.00002648,0.00000276,0.00000343,-0.00000540,0.00000582,-0.
 00002332,0.00000134,0.00004316,-0.00004987,0.00002913,0.00017225,0.000
 15698,-0.00004039,0.00030003,-0.00005312,0.00016051,0.00004910,0.00010
 496,0.00040689,-0.00044359,-0.00331189,-0.00316705,0.06023847,0.067167
 61,-0.00000179,-0.00001094,-0.00000057,0.00000121,0.00001234,0.0000021
 0,0.00000987,0.00002429,0.00000689,-0.00000467,-0.00000893,-0.00001166
 ,0.00000092,0.00000431,-0.00000198,-0.00001607,-0.00002501,-0.00002662
 ,-0.00001359,-0.00000768,-0.00001278,0.00001348,-0.00000518,0.00001496
 ,0.00000281,0.00001719,-0.00001887,-0.00000909,-0.00001135,0.00001051,
 0.00000468,0.00000038,-0.00000849,0.00002017,-0.00000975,0.00000307,0.
 00001719,-0.00014901,0.00008105,0.00003063,0.00018161,0.00014207,-0.00
 058227,-0.00014538,-0.00037908,0.00098995,-0.00118358,0.00132117,0.034
 39747,0.00945216,-0.00168946,-0.00203316,-0.00017763,0.00316168,-0.000
 19586,0.00018840,0.00002258,-0.00676732,-0.00472446,-0.04298526,-0.015
 19394,0.00722508,-0.00072193,-0.00098470,-0.00025421,0.00045390,0.0000
 3677,0.00001740,0.00008792,-0.00000827,-0.00000154,-0.00000736,-0.0000
 0469,-0.00000288,0.00000307,0.00028261,0.00016566,-0.00039429,0.001274
 35,0.00105556,0.00068004,-0.02544325,-0.00912196,-0.00271365,0.0006921
 3,0.00148950,0.00241034,0.00000074,0.00000262,-0.00000072,-0.00000267,
 -0.00000186,0.00000397,-0.00000396,-0.00000034,-0.00000141,-0.00000952
 ,0.00000429,-0.00000973,0.00000658,-0.00000771,0.00000144,-0.00000421,
 -0.00000335,0.00000798,-0.00003699,0.00000059,-0.00005606,-0.00000078,
 -0.00000842,0.00000991,-0.00001084,0.00003448,0.00000448,-0.00000725,0
 .00002065,-0.00000165,-0.00013872,-0.00004964,-0.00016162,-0.00060703,
 0.00034327,-0.00014811,-0.00006505,0.00021810,0.00038044,-0.00094032,-
 0.00297807,-0.00279401,0.01326266,-0.00352744,0.04900329,-0.00000014,0
 .00003391,-0.00005556,-0.00002143,-0.00004248,0.00003245,-0.00000486,-
 0.00007069,0.00002349,0.00000920,0.00005552,-0.00001568,-0.00000116,-0
 .00001430,0.00000848,0.00008975,-0.00001167,0.00008582,0.00006034,0.00
 013744,0.00006916,-0.00010730,-0.00007976,-0.00014398,0.00000156,-0.00
 002979,0.00010705,0.00000079,-0.00001258,-0.00008121,-0.00001208,0.000
 00753,0.00002624,0.00001464,0.00005096,0.00010916,-0.00009677,0.000410
 09,-0.00036833,0.00020754,-0.00060421,-0.00026548,0.00229978,-0.000643
 94,0.00098046,-0.02020115,0.00079632,-0.00062648,-0.34082878,-0.036388
 88,-0.01303184,0.00092220,-0.00897305,-0.00984554,-0.00005796,-0.00096
 018,0.00088379,-0.01613312,-0.00149218,0.00280790,0.00179120,-0.000179
 67,0.00000353,0.00015275,0.00001219,-0.00008761,0.00067006,0.00037348,
 0.00012976,0.00003249,-0.00005361,0.00011083,-0.00000754,0.00001445,-0
 .00000162,-0.00100749,-0.00186982,-0.00093891,0.00062449,0.00048346,0.
 00018214,-0.00142766,-0.00141793,-0.00120383,0.00066047,0.00019577,0.0
 0014751,-0.00000755,-0.00000626,0.00000980,0.00000635,0.00000275,-0.00
 000914,0.00001284,0.00000294,0.00000267,0.00001286,-0.00000946,0.00001
 273,-0.00001366,0.00004642,-0.00000281,0.00001100,0.00001014,-0.000026
 12,0.00015121,0.00002107,0.00027146,0.00000570,0.00002975,-0.00004247,
 -0.00000515,0.00015865,-0.00000941,0.00022707,-0.00039122,0.00006020,0
 .00133033,0.00066757,0.00060982,-0.00018269,0.00246888,-0.00073143,-0.
 00004310,0.00001768,0.00016194,0.00081832,0.00064440,0.00067372,0.0003
 1087,-0.00023850,0.00204181,0.36973576,-0.00000835,0.00003537,-0.00006
 633,-0.00001434,-0.00005422,0.00003711,0.00001612,0.00000761,-0.000004
 24,-0.00001409,0.00004399,-0.00003265,0.00000728,-0.00000986,0.0000016
 5,-0.00010736,-0.00013423,-0.00014504,-0.00005432,0.00006901,0.0001397
 1,0.00002566,0.00000700,-0.00011178,0.00000902,-0.00002940,0.00012251,
 0.00000151,-0.00002016,-0.00008873,-0.00001528,0.00000977,0.00002627,0
 .00004704,0.00009634,0.00011589,-0.00006452,0.00062040,-0.00031424,0.0
 0032728,0.00001359,-0.00021575,-0.00132454,0.00180679,-0.00203929,0.03
 280774,-0.00217267,0.00277459,-0.03873155,-0.04149316,0.00451312,-0.02
 826747,-0.01733419,-0.01945074,-0.00100110,-0.00054428,0.00139491,-0.0
 1379671,0.00003784,0.00232369,0.00035605,0.00085838,-0.00128908,0.0001
 8402,0.00007622,-0.00020682,0.00029695,0.00009501,0.00008549,-0.000050
 93,-0.00001129,0.00009604,-0.00000023,0.00002212,-0.00000428,0.0017660
 2,0.00185405,0.00089898,-0.00025358,-0.00016850,-0.00021062,0.00036209
 ,-0.00039767,-0.00075853,0.00018162,-0.00001881,0.00022452,-0.00000676
 ,-0.00000315,0.00000974,0.00000015,0.00000402,-0.00000678,-0.00000090,
 -0.00000118,-0.00000241,0.00001086,-0.00002739,0.00000842,-0.00003638,
 0.00005318,0.00000409,0.00001032,0.00001957,-0.00003657,-0.00022947,-0
 .00008100,0.00001233,-0.00001491,-0.00001948,0.00002618,-0.00012620,-0
 .00002721,-0.00000673,-0.00027664,-0.00008488,-0.00006990,-0.00013091,
 -0.00080560,-0.00029008,0.00185541,-0.00484608,0.00206326,-0.00000231,
 0.00007426,0.00006795,0.00024994,0.00032356,0.00004551,-0.00083501,-0.
 00013129,0.00195843,0.04684879,0.06228761,0.00000297,0.00002237,-0.000
 03852,-0.00002378,-0.00002775,0.00002287,0.00000610,-0.00004949,0.0000
 1704,0.00000618,0.00003273,-0.00000759,0.00000023,-0.00000891,0.000006
 40,-0.00000098,0.00001719,0.00007724,0.00003633,0.00005406,-0.00000683
 ,-0.00004838,-0.00001830,-0.00001577,-0.00000586,-0.00003874,0.0000917
 3,0.00001718,-0.00000081,-0.00005846,-0.00001346,0.00000381,0.00002272
 ,0.00000726,0.00003961,0.00008236,0.00012495,0.00042726,-0.00040050,-0
 .00026383,-0.00045143,-0.00042467,0.00010084,-0.00114388,0.00139502,-0
 .01353074,0.00226421,0.00026970,-0.01330566,0.00486366,-0.03930038,-0.
 02617548,-0.02065407,-0.01305724,-0.00163043,-0.00067951,0.00096167,0.
 03559145,0.00586648,-0.00320324,-0.00175192,-0.00124108,0.00218680,-0.
 00011063,-0.00030064,0.00028185,0.00012550,0.00010751,0.00003179,0.000
 01488,-0.00002138,0.00001455,0.00000048,-0.00000959,-0.00000151,0.0007
 4600,-0.00112766,-0.00033267,-0.00016775,-0.00028411,-0.00020937,0.001
 54759,0.00103424,0.00137921,-0.00051517,-0.00005444,0.00000970,-0.0000
 0636,-0.00000431,0.00000463,0.00000815,0.00000426,-0.00001493,0.000009
 30,0.00000177,0.00000532,0.00002576,-0.00001318,0.00002761,-0.00003477
 ,0.00003882,0.00000458,0.00001558,0.00001632,-0.00004168,0.00019552,0.
 00002475,0.00000179,0.00001531,0.00003588,-0.00002730,0.00004115,0.000
 08285,-0.00000032,0.00007903,-0.00010551,-0.00000558,0.00042570,-0.000
 34030,0.00029420,-0.00085570,0.00183234,-0.00051692,-0.00004891,-0.000
 08167,-0.00005817,-0.00038550,-0.00034736,-0.00041555,0.00179638,0.001
 83376,-0.00566758,0.01793549,0.00840022,0.05661601\\0.00330892,-0.0008
 2947,-0.00460286,0.00191611,-0.01111822,0.01585948,0.02647283,-0.01020
 585,0.00605207,-0.00600408,0.01277512,0.01135516,-0.01058415,-0.006565
 13,-0.02954487,-0.01085361,-0.01622194,0.01094620,-0.00369735,0.027275
 99,0.00250200,0.00776904,-0.00422034,0.01449348,0.00548440,0.01153676,
 0.00680507,-0.00522857,0.02047671,-0.00225873,0.01150071,-0.03197188,-
 0.00145067,-0.00975941,0.00807468,0.01452807,0.01882258,-0.00926897,0.
 03424606,-0.03835656,0.01232820,-0.04071071,0.01419518,-0.03017744,-0.
 01659178,0.00027597,0.03373833,-0.01299359,-0.01417933,0.03722348,0.02
 808617,0.00826004,0.00134524,0.00390594,0.00036136,-0.00122851,-0.0281
 1176,0.01347493,0.00431393,-0.01960871,-0.00871618,0.00593198,-0.00488
 119,-0.00031211,-0.02235567,0.03045860,0.02555589,-0.02806896,-0.02966
 814,-0.02176013,-0.01326572,-0.00297789,-0.00012864,0.03528550,-0.0018
 5157,-0.02585135,-0.02211170,0.03604638,-0.00263625,-0.00325749,0.0450
 4666,0.04212195,-0.02380419,-0.03019107,-0.01275175,0.02285968,0.00764
 017,0.00013134,0.00295801,-0.00042172,-0.02040318,-0.00036681,0.000013
 79,0.02454739,0.00632337,-0.00188383,0.02006296,0.00373227,-0.00261827
 ,-0.00247838,0.00774077,-0.01744671,-0.02013915,-0.00408541,0.00409040
 ,0.01921780,0.00487932,-0.00355987,-0.02233467,-0.00301002,-0.00039772
 ,-0.00004653,-0.01036214,-0.01664239,0.02141808,0.00142485,-0.00013558
 ,-0.02364880,-0.00130213,-0.00040703,0.01972402,0.00082864,0.00191907,
 -0.00147971,-0.00054515,-0.00169434,-0.01999702,-0.00251665,-0.0023349
 0,0.02055500,0.00177760,0.00008081,-0.02382958,-0.00597065,-0.00108970
 \\\@


 IT'S WHAT A FELLER THINKS HE KNOWS THAT HURTS HIM...
                    ------
           KIN HUBBARD
 Job cpu time:  4 days  0 hours 33 minutes 59.3 seconds.
 File lengths (MBytes):  RWF=   2340 Int=      0 D2E=      0 Chk=     43 Scr=      1
 Normal termination of Gaussian 09 at Tue Feb 23 11:42:42 2016.
Gaussian '09 finished on node031 at Tue Feb 23 11:42:42 EST 2016.
