Gaussian '09 started on node031 at Thu Mar  3 09:43:39 EST 2016.
 Entering Gaussian System, Link 0=/usr/local/gaussian/g09/g09
 Initial command:
 /usr/local/gaussian/g09/l1.exe /home/srmcgrat/thesis/gaussian/cellobiose/280/5000/1/dfp/gaussian2443/Gau-2482.inp -scrdir=/home/srmcgrat/thesis/gaussian/cellobiose/280/5000/1/dfp/gaussian2443/
 Entering Link 1 = /usr/local/gaussian/g09/l1.exe PID=      2484.
  
 Copyright (c) 1988,1990,1992,1993,1995,1998,2003,2009,2010,
            Gaussian, Inc.  All Rights Reserved.
  
 This is part of the Gaussian(R) 09 program.  It is based on
 the Gaussian(R) 03 system (copyright 2003, Gaussian, Inc.),
 the Gaussian(R) 98 system (copyright 1998, Gaussian, Inc.),
 the Gaussian(R) 94 system (copyright 1995, Gaussian, Inc.),
 the Gaussian 92(TM) system (copyright 1992, Gaussian, Inc.),
 the Gaussian 90(TM) system (copyright 1990, Gaussian, Inc.),
 the Gaussian 88(TM) system (copyright 1988, Gaussian, Inc.),
 the Gaussian 86(TM) system (copyright 1986, Carnegie Mellon
 University), and the Gaussian 82(TM) system (copyright 1983,
 Carnegie Mellon University). Gaussian is a federally registered
 trademark of Gaussian, Inc.
  
 This software contains proprietary and confidential information,
 including trade secrets, belonging to Gaussian, Inc.
  
 This software is provided under written license and may be
 used, copied, transmitted, or stored only in accord with that
 written license.
  
 The following legend is applicable only to US Government
 contracts under FAR:
  
                    RESTRICTED RIGHTS LEGEND
  
 Use, reproduction and disclosure by the US Government is
 subject to restrictions as set forth in subparagraphs (a)
 and (c) of the Commercial Computer Software - Restricted
 Rights clause in FAR 52.227-19.
  
 Gaussian, Inc.
 340 Quinnipiac St., Bldg. 40, Wallingford CT 06492
  
  
 ---------------------------------------------------------------
 Warning -- This program may not be used in any manner that
 competes with the business of Gaussian, Inc. or will provide
 assistance to any competitor of Gaussian, Inc.  The licensee
 of this program is prohibited from giving any competitor of
 Gaussian, Inc. access to this program.  By using this program,
 the user acknowledges that Gaussian, Inc. is engaged in the
 business of creating and licensing software in the field of
 computational chemistry and represents and warrants to the
 licensee that it is not a competitor of Gaussian, Inc. and that
 it will not use this program in any manner prohibited above.
 ---------------------------------------------------------------
  

 Cite this work as:
 Gaussian 09, Revision B.01,
 M. J. Frisch, G. W. Trucks, H. B. Schlegel, G. E. Scuseria, 
 M. A. Robb, J. R. Cheeseman, G. Scalmani, V. Barone, B. Mennucci, 
 G. A. Petersson, H. Nakatsuji, M. Caricato, X. Li, H. P. Hratchian, 
 A. F. Izmaylov, J. Bloino, G. Zheng, J. L. Sonnenberg, M. Hada, 
 M. Ehara, K. Toyota, R. Fukuda, J. Hasegawa, M. Ishida, T. Nakajima, 
 Y. Honda, O. Kitao, H. Nakai, T. Vreven, J. A. Montgomery, Jr., 
 J. E. Peralta, F. Ogliaro, M. Bearpark, J. J. Heyd, E. Brothers, 
 K. N. Kudin, V. N. Staroverov, T. Keith, R. Kobayashi, J. Normand, 
 K. Raghavachari, A. Rendell, J. C. Burant, S. S. Iyengar, J. Tomasi, 
 M. Cossi, N. Rega, J. M. Millam, M. Klene, J. E. Knox, J. B. Cross, 
 V. Bakken, C. Adamo, J. Jaramillo, R. Gomperts, R. E. Stratmann, 
 O. Yazyev, A. J. Austin, R. Cammi, C. Pomelli, J. W. Ochterski, 
 R. L. Martin, K. Morokuma, V. G. Zakrzewski, G. A. Voth, 
 P. Salvador, J. J. Dannenberg, S. Dapprich, A. D. Daniels, 
 O. Farkas, J. B. Foresman, J. V. Ortiz, J. Cioslowski, 
 and D. J. Fox, Gaussian, Inc., Wallingford CT, 2010.
 
 ******************************************
 Gaussian 09:  EM64L-G09RevB.01 12-Aug-2010
                 3-Mar-2016 
 ******************************************
 -------------------------------------------------
 # freq=raman b3lyp/6-31+g(df,p) geom=connectivity
 -------------------------------------------------
 1/10=4,30=1,38=1,57=2/1,3;
 2/12=2,17=6,18=5,40=1/2;
 3/5=1,6=6,7=113,11=2,16=1,25=1,30=1,71=2,74=-5/1,2,3;
 4//1;
 5/5=2,38=5,98=1/2;
 8/6=4,10=90,11=11/1;
 10/13=10,15=4/2;
 11/6=3,8=1,9=11,15=111,16=1/1,2,10;
 10/6=1/2;
 6/7=2,8=2,9=2,10=2,18=1,28=1/1;
 7/8=1,10=1,25=1/1,2,3,16;
 1/10=4,30=1/3;
 99//99;
 ------------
 280 5000.com
 ------------
 Symbolic Z-matrix:
 Charge =  0 Multiplicity = 1
 O                     7.63      7.47      12.175 
 C                     8.112     7.746     13.498 
 C                     7.673     9.139     13.92 
 O                     8.187     10.174    13.07 
 H                     8.166     9.907     12.106 
 C                     8.054     9.5       15.346 
 O                     7.52      10.768    15.756 
 H                     7.825     10.951    16.691 
 C                     8.428     5.398     14.342 
 O                     7.984     4.644     13.205 
 H                     8.248     3.685     13.308 
 C                     7.789     6.753     14.602 
 O                     8.195     7.19      15.907 
 C                     7.673     8.444     16.371 
 O                     8.532     8.729     17.484 
 C                     8.141     8.34      18.809 
 C                     8.922     7.173     19.39 
 O                     8.881     5.984     18.587 
 H                     8.895     6.31      17.641 
 C                     8.375     6.739     20.741 
 O                     9.14      5.655     21.288 
 H                     8.84      5.389     22.204 
 C                     7.842     10.787    19.415 
 O                     8.222     11.464    18.208 
 H                     7.904     12.402    18.34 
 C                     8.43      9.443     19.813 
 O                     7.806     9.103     21.06 
 C                     8.434     7.955     21.65 
 O                     7.77401   7.64656   22.88052 
 H                     8.37501   7.34636   11.58231 
 H                     6.60543   9.17013   13.85507 
 H                     9.17921   7.77329   13.42578 
 H                     9.12017   9.58734   15.36959 
 H                     6.72775   6.61735   14.61797 
 H                     8.27106   4.79441   15.21146 
 H                     9.4815    5.55239   14.23613 
 H                     6.63214   8.42317   16.61814 
 H                     8.04486   11.46086   20.22102 
 H                     9.48671   9.5377    19.95195 
 H                     7.09577   8.11141   18.82047 
 H                     9.94259   7.47052   19.51157 
 H                     7.35652   6.43113   20.62782 
 H                     9.45859   8.18642   21.85387 
 H                     6.78088   10.6564   19.37186 
 H                     8.42926   7.47598   23.56108 
 

 GradGradGradGradGradGradGradGradGradGradGradGradGradGradGradGradGradGrad
 Berny optimization.
 Initialization pass.
 Trust Radius=3.00D-01 FncErr=1.00D-07 GrdErr=1.00D-07
 Number of steps in this run=      2 maximum allowed number of steps=      2.
 GradGradGradGradGradGradGradGradGradGradGradGradGradGradGradGradGradGrad

                          Input orientation:                          
 ---------------------------------------------------------------------
 Center     Atomic      Atomic             Coordinates (Angstroms)
 Number     Number       Type             X           Y           Z
 ---------------------------------------------------------------------
      1          8           0        7.630000    7.470000   12.175000
      2          6           0        8.112000    7.746000   13.498000
      3          6           0        7.673000    9.139000   13.920000
      4          8           0        8.187000   10.174000   13.070000
      5          1           0        8.166000    9.907000   12.106000
      6          6           0        8.054000    9.500000   15.346000
      7          8           0        7.520000   10.768000   15.756000
      8          1           0        7.825000   10.951000   16.691000
      9          6           0        8.428000    5.398000   14.342000
     10          8           0        7.984000    4.644000   13.205000
     11          1           0        8.248000    3.685000   13.308000
     12          6           0        7.789000    6.753000   14.602000
     13          8           0        8.195000    7.190000   15.907000
     14          6           0        7.673000    8.444000   16.371000
     15          8           0        8.532000    8.729000   17.484000
     16          6           0        8.141000    8.340000   18.809000
     17          6           0        8.922000    7.173000   19.390000
     18          8           0        8.881000    5.984000   18.587000
     19          1           0        8.895000    6.310000   17.641000
     20          6           0        8.375000    6.739000   20.741000
     21          8           0        9.140000    5.655000   21.288000
     22          1           0        8.840000    5.389000   22.204000
     23          6           0        7.842000   10.787000   19.415000
     24          8           0        8.222000   11.464000   18.208000
     25          1           0        7.904000   12.402000   18.340000
     26          6           0        8.430000    9.443000   19.813000
     27          8           0        7.806000    9.103000   21.060000
     28          6           0        8.434000    7.955000   21.650000
     29          8           0        7.774012    7.646564   22.880521
     30          1           0        8.375007    7.346356   11.582314
     31          1           0        6.605425    9.170126   13.855071
     32          1           0        9.179211    7.773293   13.425783
     33          1           0        9.120168    9.587345   15.369588
     34          1           0        6.727754    6.617347   14.617975
     35          1           0        8.271062    4.794413   15.211456
     36          1           0        9.481497    5.552386   14.236131
     37          1           0        6.632140    8.423172   16.618136
     38          1           0        8.044865   11.460855   20.221018
     39          1           0        9.486705    9.537696   19.951947
     40          1           0        7.095767    8.111406   18.820468
     41          1           0        9.942589    7.470521   19.511567
     42          1           0        7.356519    6.431126   20.627823
     43          1           0        9.458588    8.186422   21.853870
     44          1           0        6.780877   10.656399   19.371861
     45          1           0        8.429256    7.475979   23.561077
 ---------------------------------------------------------------------
                    Distance matrix (angstroms):
                    1          2          3          4          5
     1  O    0.000000
     2  C    1.434862   0.000000
     3  C    2.415043   1.520281   0.000000
     4  O    2.902222   2.466575   1.434546   0.000000
     5  H    2.496202   2.571089   2.030633   1.000513   0.000000
     6  C    3.788920   2.548526   1.519526   2.377423   3.267383
     7  O    4.869545   3.818575   2.459257   2.830604   3.805409
     8  H    5.705229   4.533171   3.314346   3.721077   4.714705
     9  C    3.102560   2.515014   3.839686   4.948357   5.039784
    10  O    3.028612   3.118435   4.562124   5.535371   5.379600
    11  H    3.998980   4.067716   5.518268   6.493650   6.337571
    12  C    2.535685   1.519603   2.484266   3.769439   4.039785
    13  O    3.784897   2.473723   2.831829   4.117389   4.672315
    14  C    4.307777   2.988989   2.547631   3.762140   4.535818
    15  O    5.530295   4.126849   3.688913   4.657300   5.517656
    16  C    6.710289   5.344193   4.975917   6.025097   6.883772
    17  C    7.335782   5.974955   5.945255   7.034815   7.816837
    18  O    6.699772   5.440030   5.761439   6.962401   7.609502
    19  H    5.729134   4.454170   4.831394   6.027089   6.641240
    20  C    8.629354   7.317395   7.264905   8.407069   9.200170
    21  O    9.413878   8.131000   8.281170   9.426828  10.165496
    22  H   10.313850   9.048750   9.167827  10.332114  11.083150
    23  C    7.966494   6.658188   5.739294   6.383872   7.368912
    24  O    7.259448   6.001643   4.908561   5.297581   6.297761
    25  H    7.899805   6.720607   5.498812   5.728610   6.719853
    26  C    7.929172   6.546767   5.949194   6.786859   7.725467
    27  O    9.035535   7.688883   7.141329   8.070459   8.997229
    28  C    9.521411   8.161034   7.857091   8.865741   9.745259
    29  O   10.707946   9.389134   9.084521  10.139271  11.016058
    30  H    0.960000   1.974523   3.028393   3.200645   2.621990
    31  H    2.600542   2.103664   1.070000   2.031127   2.457158
    32  H    2.014075   1.070000   2.092386   2.621919   2.705759
    33  H    4.112072   2.812435   2.096810   2.550112   3.415204
    34  H    2.740290   2.108160   2.781976   4.144322   4.381824
    35  H    4.097535   3.416591   4.571758   5.790756   5.982762
    36  H    3.369503   2.689294   4.029194   4.939120   5.023013
    37  H    4.652496   3.519062   2.979218   4.251148   4.991377
    38  H    8.990965   7.681382   6.725483   7.267273   8.263332
    39  H    8.258549   6.837647   6.311329   7.032447   7.964894
    40  H    6.697690   5.430923   5.040212   6.205882   7.032328
    41  H    7.692418   6.292054   6.261029   7.203102   7.995945
    42  H    8.520814   7.289309   7.240693   8.474638   9.238962
    43  H    9.876108   8.475130   8.187919   9.095261   9.982592
    44  H    7.916373   6.689137   5.728977   6.474824   7.434575
    45  H   11.414097  10.071697   9.812641  10.835161  11.713153
                    6          7          8          9         10
     6  C    0.000000
     7  O    1.435646   0.000000
     8  H    1.991700   1.000369   0.000000
     9  C    4.239610   5.626789   6.059473   0.000000
    10  O    5.307496   6.650284   7.208032   1.434720   0.000000
    11  H    6.164844   7.529381   8.026106   2.008961   0.999993
    12  C    2.858281   4.186204   4.689181   1.520508   2.537226
    13  O    2.381324   3.644243   3.859621   2.390560   3.718527
    14  C    1.520172   2.408861   2.531907   3.736975   4.955833
    15  O    2.322492   2.857910   2.462921   4.580234   5.941159
    16  C    3.653155   3.949890   3.376848   5.356475   6.714900
    17  C    4.745765   5.300527   4.770880   5.373729   6.747585
    18  O    4.852862   5.723071   5.420428   4.309133   5.618375
    19  H    4.018757   5.031661   4.856571   3.454451   4.825305
    20  C    6.068953   6.466382   5.869067   6.538218   7.831552
    21  O    7.160362   7.705206   7.135072   6.987125   8.227597
    22  H    8.034319   8.500161   7.896787   7.872793   9.070268
    23  C    4.272947   3.673190   2.728985   7.424288   8.736173
    24  O    3.475135   2.643771   1.649869   7.196162   8.461622
    25  H    4.172306   3.081309   2.197918   8.081745   9.303827
    26  C    4.483159   4.363826   3.519513   6.803960   8.178935
    27  O    5.733141   5.566546   4.743799   7.697105   9.034124
    28  C    6.501680   6.594513   5.825683   7.742425   9.082029
    29  O    7.764189   7.782461   7.016557   8.853818  10.132877
    30  H    4.348167   5.464279   6.276515   3.378574   3.176275
    31  H    2.104770   2.646352   3.563898   4.217560   4.775864
    32  H    2.816887   4.141397   4.753247   2.654390   3.357044
    33  H    1.070000   2.025784   2.298510   4.368712   5.514796
    34  H    3.255555   4.376148   4.927670   2.110404   2.732902
    35  H    4.712512   6.045193   6.347565   1.070000   2.032460
    36  H    4.342029   5.775821   6.157549   1.070000   2.032460
    37  H    2.190793   2.651376   2.796094   4.190176   5.268696
    38  H    5.254602   4.548837   3.573419   8.453866   9.782522
    39  H    4.823776   4.794533   3.923323   7.051911   8.469219
    40  H    3.862426   4.077798   3.623495   5.403156   6.659230
    41  H    5.003749   5.553971   4.955151   5.771806   7.183181
    42  H    6.148343   6.524558   6.012263   6.459643   7.660669
    43  H    6.786068   6.899760   6.080027   8.078713   9.461824
    44  H    4.377860   3.692318   2.892058   7.460783   8.696357
    45  H    8.469060   8.519588   7.722620   9.450364  10.745543
                   11         12         13         14         15
    11  H    0.000000
    12  C    3.361211   0.000000
    13  O    4.363787   1.434862   0.000000
    14  C    5.688644   2.449959   1.435373   0.000000
    15  O    6.554507   3.572471   2.229130   1.434530   0.000000
    16  C    7.207043   4.510135   3.122022   2.484690   1.435210
    17  C    7.043518   4.938120   3.558104   3.505682   2.491199
    18  O    5.792576   4.202862   3.017852   3.524418   2.978831
    19  H    5.107262   3.264201   2.066678   2.767696   2.451118
    20  C    8.036948   6.166921   4.858329   4.743072   3.820052
    21  O    8.267827   6.908936   5.674893   5.840163   4.928444
    22  H    9.077053   7.794582   6.581173   6.687212   5.790411
    23  C    9.375430   6.280202   5.036773   3.845016   2.905207
    24  O    9.193667   5.948466   4.854112   3.577201   2.846138
    25  H   10.071020   6.774738   5.759263   4.426747   3.823356
    26  C    8.689230   5.899280   4.515315   3.663115   2.438122
    27  O    9.468030   6.872303   5.510381   4.736950   3.668069
    28  C    9.373178   7.178797   5.798655   5.355939   4.238424
    29  O   10.370719   8.326620   7.001120   6.558962   5.555957
    30  H    4.049648   3.132727   4.331254   4.962776   6.063518
    31  H    5.751865   2.793072   3.264669   2.827875   4.132240
    32  H    4.194659   2.087384   2.732277   3.375326   4.219169
    33  H    6.312566   3.224083   2.625264   2.098657   2.356573
    34  H    3.553286   1.070000   2.035271   2.702452   3.991050
    35  H    2.203287   2.107103   2.495677   3.875784   4.551211
    36  H    2.422823   2.107103   2.669955   4.023650   4.641237
    37  H    6.001523   2.862272   2.113991   1.070000   2.110147
    38  H   10.406489   7.335035   6.072355   4.905338   3.897640
    39  H    8.940384   6.265674   4.851987   4.160394   2.766986
    40  H    7.162961   4.485679   3.247399   2.538447   2.056778
    41  H    7.462309   5.408940   4.015678   3.995230   2.772104
    42  H    7.868656   6.049891   4.854391   4.719360   4.067629
    43  H    9.734486   7.578380   6.160744   5.772047   4.499857
    44  H    9.355387   6.245351   5.101071   3.833505   3.216414
    45  H   10.932976   9.010976   7.662999   7.294258   6.205762
                   16         17         18         19         20
    16  C    0.000000
    17  C    1.519675   0.000000
    18  O    2.479439   1.435344   0.000000
    19  H    2.460415   1.950512   1.000694   0.000000
    20  C    2.520036   1.520778   2.337900   3.172450   0.000000
    21  O    3.788491   2.440134   2.733262   3.713443   1.435092
    22  H    4.552255   3.332863   3.665842   4.655345   2.044283
    23  C    2.538591   3.772005   4.983364   4.929444   4.292863
    24  O    3.182316   4.505530   5.532479   5.228588   5.363313
    25  H    4.095848   5.429665   6.496635   6.211533   6.168972
    26  C    1.519258   2.360909   3.697453   3.840508   2.859340
    27  O    2.400291   2.785544   4.123047   4.547123   2.452349
    28  C    2.881901   2.440752   3.669689   4.357824   1.519348
    29  O    4.146423   3.704845   4.735384   5.522282   2.400502
    30  H    7.298430   7.828743   7.153857   6.168638   9.178802
    31  H    5.252477   6.323802   6.141726   5.268371   7.513840
    32  H    5.511630   5.999866   5.470709   4.471024   7.431616
    33  H    3.787373   4.693831   4.836635   3.993871   6.125391
    34  H    4.746524   5.281637   4.559688   3.732305   6.341897
    35  H    5.052764   4.851971   3.630625   2.930697   5.862430
    36  H    5.520766   5.431556   4.413270   3.537102   6.704156
    37  H    2.661477   3.806523   3.857895   3.260718   4.782468
    38  H    3.426773   4.454847   5.776251   5.823275   4.761857
    39  H    2.133478   2.495288   3.854700   4.013554   3.113068
    40  H    1.070000   2.130751   2.787009   2.805967   2.684842
    41  H    2.120217   1.070000   2.047325   2.437883   2.122254
    42  H    2.750878   2.129158   2.586295   3.361950   1.070000
    43  H    3.321273   2.717647   3.982048   4.646166   2.123128
    44  H    2.744531   4.088863   5.182455   5.133866   4.445423
    45  H    4.838581   4.210995   5.212631   6.051755   2.915290
                   21         22         23         24         25
    21  O    0.000000
    22  H    0.999906   0.000000
    23  C    5.615190   6.157348   0.000000
    24  O    6.638795   7.297641   1.435123   0.000000
    25  H    7.465950   8.061561   1.941055   0.999196   0.000000
    26  C    4.126581   4.724394   1.520028   2.589156   3.346952
    27  O    3.704085   4.021404   2.354395   3.725759   4.276845
    28  C    2.432998   2.656334   3.655942   4.919897   5.568915
    29  O    2.892814   2.586620   4.677264   6.050287   6.576276
    30  H    9.881611  10.810535   8.571645   7.802443   8.452674
    31  H    8.603989   9.433709   5.920829   5.179108   5.678547
    32  H    8.142675   9.102583   6.836760   6.116140   6.870271
    33  H    7.105725   8.025820   4.408883   3.519251   4.269040
    34  H    7.157812   7.969830   6.452829   6.213783   6.978483
    35  H    6.198391   7.040802   7.332460   7.311981   8.233948
    36  H    7.060879   7.995321   7.543860   7.232514   8.139254
    37  H    5.979947   6.729244   3.856669   3.781793   4.518132
    38  H    6.003809   6.436760   1.070000   2.020799   2.108038
    39  H    4.120749   4.764625   2.134040   2.889892   3.647954
    40  H    4.037515   4.679971   2.840623   3.589347   4.392413
    41  H    2.663828   3.577377   3.926937   4.539559   5.463324
    42  H    2.054023   2.402307   4.547556   5.651055   6.417570
    43  H    2.613390   2.886315   3.914645   5.056089   5.703956
    44  H    5.852439   6.325068   1.070000   2.020799   2.318031
    45  H    2.997999   2.523063   5.338323   6.678526   7.197307
                   26         27         28         29         30
    26  C    0.000000
    27  O    1.435265   0.000000
    28  C    2.364049   1.435405   0.000000
    29  O    3.614857   2.331636   1.430000   0.000000
    30  H    8.493711   9.655884  10.086240  11.318163   0.000000
    31  H    6.237023   7.304580   8.098218   9.227437   3.409249
    32  H    6.644229   7.869886   8.259909   9.559431   2.056063
    33  H    4.499009   5.860241   6.525255   7.873557   4.463265
    34  H    6.153880   6.988617   7.358666   8.391878   3.529891
    35  H    6.542846   7.279126   7.174309   8.197340   4.437779
    36  H    6.880697   7.872696   7.863540   9.056852   3.389011
    37  H    3.805195   4.644381   5.365216   6.412836   5.436600
    38  H    2.094409   2.514046   3.805842   4.657804   9.574200
    39  H    1.070000   2.059494   2.548823   3.884102   8.722878
    40  H    2.130362   2.550136   3.133940   4.142478   7.390036
    41  H    2.503890   3.102845   2.661476   4.010433   8.083674
    42  H    3.299649   2.743669   2.127911   2.593500   9.148562
    43  H    2.608089   2.049730   1.070000   2.045301  10.362660
    44  H    2.094409   2.512715   3.901319   4.728226   8.612472
    45  H    4.232878   3.048120   1.970203   0.960000  11.979587
                   31         32         33         34         35
    31  H    0.000000
    32  H    2.959697   0.000000
    33  H    2.965091   2.659445   0.000000
    34  H    2.667146   2.960941   3.887088   0.000000
    35  H    4.874525   3.589859   4.870131   2.461119   0.000000
    36  H    4.637353   2.383373   4.206682   2.977088   1.729432
    37  H    2.862374   4.135340   3.017359   2.696440   4.222879
    38  H    6.916987   7.814095   5.310621   7.522529   8.341962
    39  H    6.753427   6.767458   4.597263   6.677687   6.815334
    40  H    5.100637   5.792900   4.264408   4.475332   5.040707
    41  H    6.783898   6.140944   4.723697   5.916952   5.333527
    42  H    7.344143   7.549371   6.381318   6.045519   5.731688
    43  H    8.549210   8.442830   6.642517   7.891617   7.552324
    44  H    5.716185   7.029947   4.757453   6.238285   7.341151
    45  H   10.020133  10.167351   8.487386   9.143929   8.771089
                   36         37         38         39         40
    36  H    0.000000
    37  H    4.694060   0.000000
    38  H    8.531870   4.919763   0.000000
    39  H    6.968018   4.528245   2.418645   0.000000
    40  H    5.766840   2.272095   3.752484   3.005185   0.000000
    41  H    5.632236   4.498729   4.475204   2.162170   2.998792
    42  H    6.792750   4.535478   5.092886   3.826916   2.481504
    43  H    8.060311   5.954643   3.922592   2.333247   3.845787
    44  H    7.727874   3.548581   1.722174   2.984879   2.623010
    45  H    9.579251   7.234033   5.213731   4.288904   4.965414
                   41         42         43         44         45
    41  H    0.000000
    42  H    3.002354   0.000000
    43  H    2.496628   3.000492   0.000000
    44  H    4.490631   4.445417   4.408093   0.000000
    45  H    4.323047   3.293397   2.116320   5.511965   0.000000
 Stoichiometry    C12H22O11
 Framework group  C1[X(C12H22O11)]
 Deg. of freedom   129
 Full point group                 C1      NOp   1
 Largest Abelian subgroup         C1      NOp   1
 Largest concise Abelian subgroup C1      NOp   1
                         Standard orientation:                         
 ---------------------------------------------------------------------
 Center     Atomic      Atomic             Coordinates (Angstroms)
 Number     Number       Type             X           Y           Z
 ---------------------------------------------------------------------
      1          8           0       -5.139455   -0.365373    0.326793
      2          6           0       -3.783398   -0.193342   -0.109493
      3          6           0       -3.323981    1.222267    0.200734
      4          8           0       -4.101798    2.226482   -0.465952
      5          1           0       -5.076285    1.999782   -0.468869
      6          6           0       -1.866506    1.485840   -0.138757
      7          8           0       -1.429196    2.788056    0.278463
      8          1           0       -0.473131    2.901532    0.006800
      9          6           0       -3.026971   -2.591842   -0.127220
     10          8           0       -4.216197   -3.249824    0.332368
     11          1           0       -4.141718   -4.235029    0.178066
     12          6           0       -2.740805   -1.186149    0.376847
     13          8           0       -1.399537   -0.845249   -0.002121
     14          6           0       -0.908352    0.439726    0.407603
     15          8           0        0.257328    0.587611   -0.415315
     16          6           0        1.543157    0.193878    0.086129
     17          6           0        2.111358   -1.072118   -0.533397
     18          8           0        1.256678   -2.218578   -0.409455
     19          1           0        0.327523   -1.860696   -0.509355
     20          6           0        3.413415   -1.494572    0.129133
     21          8           0        3.950480   -2.675102   -0.485197
     22          1           0        4.838048   -2.941166   -0.109370
     23          6           0        2.238699    2.634355    0.154980
     24          8           0        1.082512    3.310936   -0.359849
     25          1           0        1.238923    4.272315   -0.136964
     26          6           0        2.607035    1.220394   -0.263978
     27          8           0        3.805546    0.903596    0.459345
     28          6           0        4.375928   -0.327233   -0.009816
     29          8           0        5.557568   -0.608145    0.744980
     30          1           0       -5.699086   -0.546897   -0.431799
     31          1           0       -3.440599    1.371676    1.253814
     32          1           0       -3.801122   -0.279525   -1.175870
     33          1           0       -1.786090    1.455822   -1.205309
     34          1           0       -2.783587   -1.206141    1.445805
     35          1           0       -2.193310   -3.207053    0.140035
     36          1           0       -3.073464   -2.549019   -1.195351
     37          1           0       -0.714499    0.522889    1.456605
     38          1           0        3.082189    3.251381   -0.074591
     39          1           0        2.802406    1.194370   -1.315668
     40          1           0        1.492659    0.079990    1.148851
     41          1           0        2.296353   -0.892084   -1.571792
     42          1           0        3.236449   -1.685436    1.166993
     43          1           0        4.640389   -0.216388   -1.040676
     44          1           0        2.137156    2.621590    1.220074
     45          1           0        6.261907   -0.874413    0.149490
 ---------------------------------------------------------------------
 Rotational constants (GHZ):      0.4086523      0.1432909      0.1089135
 Standard basis: 6-31+G(df,p) (6D, 7F)
 There are   708 symmetry adapted basis functions of A   symmetry.
 Integral buffers will be    131072 words long.
 Raffenetti 2 integral format.
 Two-electron integral symmetry is turned on.
   708 basis functions,  1120 primitive gaussians,   777 cartesian basis functions
    91 alpha electrons       91 beta electrons
       nuclear repulsion energy      2280.2202420101 Hartrees.
 NAtoms=   45 NActive=   45 NUniq=   45 SFac= 1.00D+00 NAtFMM=   50 NAOKFM=F Big=F
 One-electron integrals computed using PRISM.
 NBasis=   708 RedAO= T  NBF=   708
 NBsUse=   708 1.00D-06 NBFU=   708
 Harris functional with IExCor=  402 diagonalized for initial guess.
 ExpMin= 4.38D-02 ExpMax= 5.48D+03 ExpMxC= 8.25D+02 IAcc=2 IRadAn=         0 AccDes= 0.00D+00
 HarFok:  IExCor=  402 AccDes= 0.00D+00 IRadAn=         0 IDoV= 1
 ScaDFX=  1.000000  1.000000  1.000000  1.000000
 FoFCou: FMM=F IPFlag=           0 FMFlag=      100000 FMFlg1=           0
         NFxFlg=           0 DoJE=T BraDBF=F KetDBF=T FulRan=T
         Omega=  0.000000  0.000000  1.000000  0.000000  0.000000 ICntrl=     500 IOpCl=  0
         NMat0=    1 NMatS0=    1 NMatT0=    0 NMatD0=    1 NMtDS0=    0 NMtDT0=    0
         I1Cent=           4 NGrid=           0.
 Petite list used in FoFCou.
 Initial guess orbital symmetries:
       Occupied  (A) (A) (A) (A) (A) (A) (A) (A) (A) (A) (A) (A)
                 (A) (A) (A) (A) (A) (A) (A) (A) (A) (A) (A) (A)
                 (A) (A) (A) (A) (A) (A) (A) (A) (A) (A) (A) (A)
                 (A) (A) (A) (A) (A) (A) (A) (A) (A) (A) (A) (A)
                 (A) (A) (A) (A) (A) (A) (A) (A) (A) (A) (A) (A)
                 (A) (A) (A) (A) (A) (A) (A) (A) (A) (A) (A) (A)
                 (A) (A) (A) (A) (A) (A) (A) (A) (A) (A) (A) (A)
                 (A) (A) (A) (A) (A) (A) (A)
       Virtual   (A) (A) (A) (A) (A) (A) (A) (A) (A) (A) (A) (A)
                 (A) (A) (A) (A) (A) (A) (A) (A) (A) (A) (A) (A)
                 (A) (A) (A) (A) (A) (A) (A) (A) (A) (A) (A) (A)
                 (A) (A) (A) (A) (A) (A) (A) (A) (A) (A) (A) (A)
                 (A) (A) (A) (A) (A) (A) (A) (A) (A) (A) (A) (A)
                 (A) (A) (A) (A) (A) (A) (A) (A) (A) (A) (A) (A)
                 (A) (A) (A) (A) (A) (A) (A) (A) (A) (A) (A) (A)
                 (A) (A) (A) (A) (A) (A) (A) (A) (A) (A) (A) (A)
                 (A) (A) (A) (A) (A) (A) (A) (A) (A) (A) (A) (A)
                 (A) (A) (A) (A) (A) (A) (A) (A) (A) (A) (A) (A)
                 (A) (A) (A) (A) (A) (A) (A) (A) (A) (A) (A) (A)
                 (A) (A) (A) (A) (A) (A) (A) (A) (A) (A) (A) (A)
                 (A) (A) (A) (A) (A) (A) (A) (A) (A) (A) (A) (A)
                 (A) (A) (A) (A) (A) (A) (A) (A) (A) (A) (A) (A)
                 (A) (A) (A) (A) (A) (A) (A) (A) (A) (A) (A) (A)
                 (A) (A) (A) (A) (A) (A) (A) (A) (A) (A) (A) (A)
                 (A) (A) (A) (A) (A) (A) (A) (A) (A) (A) (A) (A)
                 (A) (A) (A) (A) (A) (A) (A) (A) (A) (A) (A) (A)
                 (A) (A) (A) (A) (A) (A) (A) (A) (A) (A) (A) (A)
                 (A) (A) (A) (A) (A) (A) (A) (A) (A) (A) (A) (A)
                 (A) (A) (A) (A) (A) (A) (A) (A) (A) (A) (A) (A)
                 (A) (A) (A) (A) (A) (A) (A) (A) (A) (A) (A) (A)
                 (A) (A) (A) (A) (A) (A) (A) (A) (A) (A) (A) (A)
                 (A) (A) (A) (A) (A) (A) (A) (A) (A) (A) (A) (A)
                 (A) (A) (A) (A) (A) (A) (A) (A) (A) (A) (A) (A)
                 (A) (A) (A) (A) (A) (A) (A) (A) (A) (A) (A) (A)
                 (A) (A) (A) (A) (A) (A) (A) (A) (A) (A) (A) (A)
                 (A) (A) (A) (A) (A) (A) (A) (A) (A) (A) (A) (A)
                 (A) (A) (A) (A) (A) (A) (A) (A) (A) (A) (A) (A)
                 (A) (A) (A) (A) (A) (A) (A) (A) (A) (A) (A) (A)
                 (A) (A) (A) (A) (A) (A) (A) (A) (A) (A) (A) (A)
                 (A) (A) (A) (A) (A) (A) (A) (A) (A) (A) (A) (A)
                 (A) (A) (A) (A) (A) (A) (A) (A) (A) (A) (A) (A)
                 (A) (A) (A) (A) (A) (A) (A) (A) (A) (A) (A) (A)
                 (A) (A) (A) (A) (A) (A) (A) (A) (A) (A) (A) (A)
                 (A) (A) (A) (A) (A) (A) (A) (A) (A) (A) (A) (A)
                 (A) (A) (A) (A) (A) (A) (A) (A) (A) (A) (A) (A)
                 (A) (A) (A) (A) (A) (A) (A) (A) (A) (A) (A) (A)
                 (A) (A) (A) (A) (A) (A) (A) (A) (A) (A) (A) (A)
                 (A) (A) (A) (A) (A) (A) (A) (A) (A) (A) (A) (A)
                 (A) (A) (A) (A) (A) (A) (A) (A) (A) (A) (A) (A)
                 (A) (A) (A) (A) (A) (A) (A) (A) (A) (A) (A) (A)
                 (A) (A) (A) (A) (A) (A) (A) (A) (A) (A) (A) (A)
                 (A) (A) (A) (A) (A) (A) (A) (A) (A) (A) (A) (A)
                 (A) (A) (A) (A) (A) (A) (A) (A) (A) (A) (A) (A)
                 (A) (A) (A) (A) (A) (A) (A) (A) (A) (A) (A) (A)
                 (A) (A) (A) (A) (A) (A) (A) (A) (A) (A) (A) (A)
                 (A) (A) (A) (A) (A) (A) (A) (A) (A) (A) (A) (A)
                 (A) (A) (A) (A) (A) (A) (A) (A) (A) (A) (A) (A)
                 (A) (A) (A) (A) (A) (A) (A) (A) (A) (A) (A) (A)
                 (A) (A) (A) (A) (A) (A) (A) (A) (A) (A) (A) (A)
                 (A) (A) (A) (A) (A)
 The electronic state of the initial guess is 1-A.
 Requested convergence on RMS density matrix=1.00D-08 within 128 cycles.
 Requested convergence on MAX density matrix=1.00D-06.
 Requested convergence on             energy=1.00D-06.
 No special actions if energy rises.
 SCF Done:  E(RB3LYP) =  -1297.96900189     A.U. after   14 cycles
             Convg  =    0.1769D-08             -V/T =  2.0087
 Range of M.O.s used for correlation:     1   708
 NBasis=   708 NAE=    91 NBE=    91 NFC=     0 NFV=     0
 NROrb=    708 NOA=    91 NOB=    91 NVA=   617 NVB=   617

 **** Warning!!: The largest alpha MO coefficient is  0.65945268D+02

          Differentiating once with respect to electric field.
                with respect to dipole field.
          Electric field/nuclear overlap derivatives assumed to be zero.
          There are     3 degrees of freedom in the 1st order CPHF.  IDoFFX=0.
      3 vectors produced by pass  0 Test12= 1.87D-12 3.33D-08 XBig12= 1.20D+02 1.11D+00.
 AX will form     3 AO Fock derivatives at one time.
      3 vectors produced by pass  1 Test12= 1.87D-12 3.33D-08 XBig12= 2.05D+01 4.04D-01.
      3 vectors produced by pass  2 Test12= 1.87D-12 3.33D-08 XBig12= 8.85D+00 1.73D-01.
      3 vectors produced by pass  3 Test12= 1.87D-12 3.33D-08 XBig12= 9.47D-01 7.64D-02.
      3 vectors produced by pass  4 Test12= 1.87D-12 3.33D-08 XBig12= 3.02D-01 3.96D-02.
      3 vectors produced by pass  5 Test12= 1.87D-12 3.33D-08 XBig12= 5.03D-02 1.42D-02.
      3 vectors produced by pass  6 Test12= 1.87D-12 3.33D-08 XBig12= 1.88D-02 1.31D-02.
      3 vectors produced by pass  7 Test12= 1.87D-12 3.33D-08 XBig12= 2.04D-03 5.40D-03.
      3 vectors produced by pass  8 Test12= 1.87D-12 3.33D-08 XBig12= 4.60D-04 2.05D-03.
      3 vectors produced by pass  9 Test12= 1.87D-12 3.33D-08 XBig12= 1.15D-04 1.25D-03.
      3 vectors produced by pass 10 Test12= 1.87D-12 3.33D-08 XBig12= 3.75D-05 6.59D-04.
      3 vectors produced by pass 11 Test12= 1.87D-12 3.33D-08 XBig12= 6.13D-06 3.09D-04.
      3 vectors produced by pass 12 Test12= 1.87D-12 3.33D-08 XBig12= 7.23D-07 8.71D-05.
      3 vectors produced by pass 13 Test12= 1.87D-12 3.33D-08 XBig12= 2.27D-07 3.30D-05.
      3 vectors produced by pass 14 Test12= 1.87D-12 3.33D-08 XBig12= 2.96D-08 1.31D-05.
      3 vectors produced by pass 15 Test12= 1.87D-12 3.33D-08 XBig12= 7.35D-09 8.79D-06.
      3 vectors produced by pass 16 Test12= 1.87D-12 3.33D-08 XBig12= 9.53D-10 2.95D-06.
      3 vectors produced by pass 17 Test12= 1.87D-12 3.33D-08 XBig12= 6.34D-11 6.04D-07.
      3 vectors produced by pass 18 Test12= 1.87D-12 3.33D-08 XBig12= 1.39D-11 2.80D-07.
      3 vectors produced by pass 19 Test12= 1.87D-12 3.33D-08 XBig12= 1.69D-11 3.92D-07.
      3 vectors produced by pass 20 Test12= 1.87D-12 3.33D-08 XBig12= 7.28D-12 2.23D-07.
      1 vectors produced by pass 21 Test12= 1.87D-12 3.33D-08 XBig12= 2.56D-12 2.35D-07.
 Inverted reduced A of dimension    64 with in-core refinement.
 End of Minotr Frequency-dependent properties file   721 does not exist.
 End of Minotr Frequency-dependent properties file   722 does not exist.
 Symmetrizing basis deriv contribution to polar:
 IMax=3 JMax=2 DiffMx= 0.00D+00
 G2DrvN: will do    12 centers at a time, making    4 passes doing MaxLOS=3.
 Calling FoFCou, ICntrl=  3107 FMM=F I1Cent=   0 AccDes= 0.00D+00.
 Calling FoFCou, ICntrl=  3107 FMM=F I1Cent=   0 AccDes= 0.00D+00.
 Calling FoFCou, ICntrl=  3107 FMM=F I1Cent=   0 AccDes= 0.00D+00.
 Calling FoFCou, ICntrl=  3107 FMM=F I1Cent=   0 AccDes= 0.00D+00.
 FoFDir/FoFCou used for L=0 through L=3.
 End of G2Drv Frequency-dependent properties file   721 does not exist.
 End of G2Drv Frequency-dependent properties file   722 does not exist.
          IDoAtm=111111111111111111111111111111111111111111111
          Differentiating once with respect to electric field.
                with respect to dipole field.
          Differentiating once with respect to nuclear coordinates.
          There are   138 degrees of freedom in the 1st order CPHF.  IDoFFX=5.
 Will reuse    3 saved solutions.
    135 vectors produced by pass  0 Test12= 5.61D-14 1.00D-09 XBig12= 2.11D-01 7.57D-02.
 AX will form    34 AO Fock derivatives at one time.
    135 vectors produced by pass  1 Test12= 5.61D-14 1.00D-09 XBig12= 3.43D-02 1.71D-02.
    132 vectors produced by pass  2 Test12= 5.61D-14 1.00D-09 XBig12= 1.69D-04 1.38D-03.
    132 vectors produced by pass  3 Test12= 5.61D-14 1.00D-09 XBig12= 6.88D-07 7.84D-05.
    132 vectors produced by pass  4 Test12= 5.61D-14 1.00D-09 XBig12= 1.47D-09 2.78D-06.
    132 vectors produced by pass  5 Test12= 5.61D-14 1.00D-09 XBig12= 5.31D-12 1.78D-07.
     84 vectors produced by pass  6 Test12= 5.61D-14 1.00D-09 XBig12= 1.71D-13 2.46D-08.
 Inverted reduced A of dimension   882 with in-core refinement.
 Isotropic polarizability for W=    0.000000      188.07 Bohr**3.
 End of Minotr Frequency-dependent properties file   721 does not exist.
 End of Minotr Frequency-dependent properties file   722 does not exist.

 **********************************************************************

            Population analysis using the SCF density.

 **********************************************************************

 Orbital symmetries:
       Occupied  (A) (A) (A) (A) (A) (A) (A) (A) (A) (A) (A) (A)
                 (A) (A) (A) (A) (A) (A) (A) (A) (A) (A) (A) (A)
                 (A) (A) (A) (A) (A) (A) (A) (A) (A) (A) (A) (A)
                 (A) (A) (A) (A) (A) (A) (A) (A) (A) (A) (A) (A)
                 (A) (A) (A) (A) (A) (A) (A) (A) (A) (A) (A) (A)
                 (A) (A) (A) (A) (A) (A) (A) (A) (A) (A) (A) (A)
                 (A) (A) (A) (A) (A) (A) (A) (A) (A) (A) (A) (A)
                 (A) (A) (A) (A) (A) (A) (A)
       Virtual   (A) (A) (A) (A) (A) (A) (A) (A) (A) (A) (A) (A)
                 (A) (A) (A) (A) (A) (A) (A) (A) (A) (A) (A) (A)
                 (A) (A) (A) (A) (A) (A) (A) (A) (A) (A) (A) (A)
                 (A) (A) (A) (A) (A) (A) (A) (A) (A) (A) (A) (A)
                 (A) (A) (A) (A) (A) (A) (A) (A) (A) (A) (A) (A)
                 (A) (A) (A) (A) (A) (A) (A) (A) (A) (A) (A) (A)
                 (A) (A) (A) (A) (A) (A) (A) (A) (A) (A) (A) (A)
                 (A) (A) (A) (A) (A) (A) (A) (A) (A) (A) (A) (A)
                 (A) (A) (A) (A) (A) (A) (A) (A) (A) (A) (A) (A)
                 (A) (A) (A) (A) (A) (A) (A) (A) (A) (A) (A) (A)
                 (A) (A) (A) (A) (A) (A) (A) (A) (A) (A) (A) (A)
                 (A) (A) (A) (A) (A) (A) (A) (A) (A) (A) (A) (A)
                 (A) (A) (A) (A) (A) (A) (A) (A) (A) (A) (A) (A)
                 (A) (A) (A) (A) (A) (A) (A) (A) (A) (A) (A) (A)
                 (A) (A) (A) (A) (A) (A) (A) (A) (A) (A) (A) (A)
                 (A) (A) (A) (A) (A) (A) (A) (A) (A) (A) (A) (A)
                 (A) (A) (A) (A) (A) (A) (A) (A) (A) (A) (A) (A)
                 (A) (A) (A) (A) (A) (A) (A) (A) (A) (A) (A) (A)
                 (A) (A) (A) (A) (A) (A) (A) (A) (A) (A) (A) (A)
                 (A) (A) (A) (A) (A) (A) (A) (A) (A) (A) (A) (A)
                 (A) (A) (A) (A) (A) (A) (A) (A) (A) (A) (A) (A)
                 (A) (A) (A) (A) (A) (A) (A) (A) (A) (A) (A) (A)
                 (A) (A) (A) (A) (A) (A) (A) (A) (A) (A) (A) (A)
                 (A) (A) (A) (A) (A) (A) (A) (A) (A) (A) (A) (A)
                 (A) (A) (A) (A) (A) (A) (A) (A) (A) (A) (A) (A)
                 (A) (A) (A) (A) (A) (A) (A) (A) (A) (A) (A) (A)
                 (A) (A) (A) (A) (A) (A) (A) (A) (A) (A) (A) (A)
                 (A) (A) (A) (A) (A) (A) (A) (A) (A) (A) (A) (A)
                 (A) (A) (A) (A) (A) (A) (A) (A) (A) (A) (A) (A)
                 (A) (A) (A) (A) (A) (A) (A) (A) (A) (A) (A) (A)
                 (A) (A) (A) (A) (A) (A) (A) (A) (A) (A) (A) (A)
                 (A) (A) (A) (A) (A) (A) (A) (A) (A) (A) (A) (A)
                 (A) (A) (A) (A) (A) (A) (A) (A) (A) (A) (A) (A)
                 (A) (A) (A) (A) (A) (A) (A) (A) (A) (A) (A) (A)
                 (A) (A) (A) (A) (A) (A) (A) (A) (A) (A) (A) (A)
                 (A) (A) (A) (A) (A) (A) (A) (A) (A) (A) (A) (A)
                 (A) (A) (A) (A) (A) (A) (A) (A) (A) (A) (A) (A)
                 (A) (A) (A) (A) (A) (A) (A) (A) (A) (A) (A) (A)
                 (A) (A) (A) (A) (A) (A) (A) (A) (A) (A) (A) (A)
                 (A) (A) (A) (A) (A) (A) (A) (A) (A) (A) (A) (A)
                 (A) (A) (A) (A) (A) (A) (A) (A) (A) (A) (A) (A)
                 (A) (A) (A) (A) (A) (A) (A) (A) (A) (A) (A) (A)
                 (A) (A) (A) (A) (A) (A) (A) (A) (A) (A) (A) (A)
                 (A) (A) (A) (A) (A) (A) (A) (A) (A) (A) (A) (A)
                 (A) (A) (A) (A) (A) (A) (A) (A) (A) (A) (A) (A)
                 (A) (A) (A) (A) (A) (A) (A) (A) (A) (A) (A) (A)
                 (A) (A) (A) (A) (A) (A) (A) (A) (A) (A) (A) (A)
                 (A) (A) (A) (A) (A) (A) (A) (A) (A) (A) (A) (A)
                 (A) (A) (A) (A) (A) (A) (A) (A) (A) (A) (A) (A)
                 (A) (A) (A) (A) (A) (A) (A) (A) (A) (A) (A) (A)
                 (A) (A) (A) (A) (A) (A) (A) (A) (A) (A) (A) (A)
                 (A) (A) (A) (A) (A)
 The electronic state is 1-A.
 Alpha  occ. eigenvalues --  -19.20089 -19.19480 -19.19190 -19.19138 -19.18996
 Alpha  occ. eigenvalues --  -19.17635 -19.17269 -19.17007 -19.15515 -19.14980
 Alpha  occ. eigenvalues --  -19.13034 -10.31165 -10.31071 -10.26954 -10.26244
 Alpha  occ. eigenvalues --  -10.25983 -10.25786 -10.25250 -10.25148 -10.24681
 Alpha  occ. eigenvalues --  -10.24402 -10.23992 -10.23694  -1.10059  -1.09380
 Alpha  occ. eigenvalues --   -1.06129  -1.05022  -1.04310  -1.03823  -1.03011
 Alpha  occ. eigenvalues --   -1.02524  -1.01454  -1.00749  -0.99161  -0.82860
 Alpha  occ. eigenvalues --   -0.80298  -0.79730  -0.78202  -0.72258  -0.69913
 Alpha  occ. eigenvalues --   -0.67307  -0.64953  -0.63183  -0.62684  -0.62005
 Alpha  occ. eigenvalues --   -0.59969  -0.56652  -0.55949  -0.55226  -0.55025
 Alpha  occ. eigenvalues --   -0.54194  -0.53693  -0.53067  -0.51757  -0.50922
 Alpha  occ. eigenvalues --   -0.50684  -0.50329  -0.49626  -0.48682  -0.46793
 Alpha  occ. eigenvalues --   -0.46204  -0.45339  -0.44272  -0.43788  -0.43473
 Alpha  occ. eigenvalues --   -0.42556  -0.41628  -0.40985  -0.40558  -0.39810
 Alpha  occ. eigenvalues --   -0.38435  -0.38083  -0.37861  -0.36056  -0.35390
 Alpha  occ. eigenvalues --   -0.35152  -0.34703  -0.34435  -0.34350  -0.33522
 Alpha  occ. eigenvalues --   -0.32868  -0.31535  -0.31360  -0.30510  -0.29704
 Alpha  occ. eigenvalues --   -0.29372  -0.28804  -0.28718  -0.27060  -0.26729
 Alpha  occ. eigenvalues --   -0.26078
 Alpha virt. eigenvalues --   -0.02306  -0.02117  -0.01902  -0.00385   0.00030
 Alpha virt. eigenvalues --    0.00890   0.01638   0.02341   0.03015   0.03424
 Alpha virt. eigenvalues --    0.03733   0.04345   0.04521   0.05162   0.05718
 Alpha virt. eigenvalues --    0.06203   0.06395   0.07348   0.07789   0.07917
 Alpha virt. eigenvalues --    0.08771   0.08856   0.09206   0.09580   0.09990
 Alpha virt. eigenvalues --    0.10198   0.10811   0.11361   0.11743   0.11884
 Alpha virt. eigenvalues --    0.12568   0.12912   0.13060   0.13693   0.13813
 Alpha virt. eigenvalues --    0.14248   0.14439   0.14848   0.14994   0.15599
 Alpha virt. eigenvalues --    0.15925   0.16099   0.16518   0.16706   0.17237
 Alpha virt. eigenvalues --    0.17386   0.17659   0.17825   0.18100   0.18653
 Alpha virt. eigenvalues --    0.18706   0.19073   0.19299   0.19698   0.20055
 Alpha virt. eigenvalues --    0.20351   0.20808   0.21120   0.21394   0.21915
 Alpha virt. eigenvalues --    0.22153   0.22322   0.22473   0.23072   0.23267
 Alpha virt. eigenvalues --    0.23607   0.23891   0.24175   0.24378   0.24619
 Alpha virt. eigenvalues --    0.24939   0.25042   0.25357   0.25570   0.25907
 Alpha virt. eigenvalues --    0.26410   0.26748   0.26962   0.27046   0.27460
 Alpha virt. eigenvalues --    0.27804   0.27938   0.28231   0.28459   0.28642
 Alpha virt. eigenvalues --    0.29071   0.29264   0.30015   0.30333   0.30990
 Alpha virt. eigenvalues --    0.31134   0.31311   0.31748   0.32017   0.32328
 Alpha virt. eigenvalues --    0.32565   0.32707   0.33101   0.34069   0.34282
 Alpha virt. eigenvalues --    0.34413   0.34836   0.35191   0.35586   0.35646
 Alpha virt. eigenvalues --    0.36424   0.36589   0.36961   0.37353   0.37667
 Alpha virt. eigenvalues --    0.37954   0.38147   0.39081   0.39245   0.39765
 Alpha virt. eigenvalues --    0.39973   0.40513   0.40938   0.41437   0.41529
 Alpha virt. eigenvalues --    0.42142   0.42375   0.43364   0.43521   0.44285
 Alpha virt. eigenvalues --    0.44521   0.45460   0.46001   0.46328   0.46861
 Alpha virt. eigenvalues --    0.47321   0.48250   0.49256   0.49496   0.50224
 Alpha virt. eigenvalues --    0.51502   0.51783   0.56434   0.62229   0.62943
 Alpha virt. eigenvalues --    0.64000   0.65380   0.67213   0.68225   0.69301
 Alpha virt. eigenvalues --    0.70149   0.70412   0.71055   0.72797   0.73796
 Alpha virt. eigenvalues --    0.74038   0.74973   0.75689   0.77232   0.78178
 Alpha virt. eigenvalues --    0.78513   0.79591   0.80780   0.81812   0.82478
 Alpha virt. eigenvalues --    0.84570   0.85036   0.86935   0.87347   0.88127
 Alpha virt. eigenvalues --    0.89843   0.90947   0.91601   0.92259   0.93720
 Alpha virt. eigenvalues --    0.94774   0.95168   0.96374   0.97438   0.98914
 Alpha virt. eigenvalues --    1.00010   1.01415   1.01825   1.02016   1.02915
 Alpha virt. eigenvalues --    1.03710   1.03833   1.04681   1.05201   1.06000
 Alpha virt. eigenvalues --    1.06774   1.07193   1.07635   1.08826   1.09774
 Alpha virt. eigenvalues --    1.09860   1.11156   1.11709   1.13751   1.14681
 Alpha virt. eigenvalues --    1.15404   1.16654   1.17508   1.18421   1.19514
 Alpha virt. eigenvalues --    1.20351   1.21135   1.22229   1.23587   1.23902
 Alpha virt. eigenvalues --    1.24222   1.24597   1.25635   1.26492   1.27831
 Alpha virt. eigenvalues --    1.28097   1.28514   1.29283   1.29598   1.30321
 Alpha virt. eigenvalues --    1.31153   1.32078   1.32287   1.32814   1.33832
 Alpha virt. eigenvalues --    1.34157   1.35094   1.35541   1.36033   1.36219
 Alpha virt. eigenvalues --    1.37618   1.38460   1.39675   1.40930   1.41581
 Alpha virt. eigenvalues --    1.42537   1.43662   1.44450   1.45648   1.46441
 Alpha virt. eigenvalues --    1.46936   1.47300   1.48207   1.50119   1.50797
 Alpha virt. eigenvalues --    1.51194   1.52578   1.53275   1.54090   1.54313
 Alpha virt. eigenvalues --    1.55105   1.56257   1.56598   1.56934   1.58529
 Alpha virt. eigenvalues --    1.59037   1.59311   1.59942   1.61160   1.62028
 Alpha virt. eigenvalues --    1.63014   1.64116   1.64883   1.65642   1.65776
 Alpha virt. eigenvalues --    1.66247   1.66492   1.68093   1.68308   1.69758
 Alpha virt. eigenvalues --    1.70107   1.71003   1.71571   1.72546   1.73037
 Alpha virt. eigenvalues --    1.73805   1.74334   1.75157   1.75467   1.76941
 Alpha virt. eigenvalues --    1.77187   1.77937   1.78266   1.79434   1.80355
 Alpha virt. eigenvalues --    1.81742   1.82371   1.83277   1.83427   1.84030
 Alpha virt. eigenvalues --    1.85409   1.85985   1.87049   1.87287   1.88155
 Alpha virt. eigenvalues --    1.88984   1.89359   1.89649   1.90658   1.91209
 Alpha virt. eigenvalues --    1.91702   1.92233   1.92855   1.93541   1.93997
 Alpha virt. eigenvalues --    1.95999   1.96310   1.98310   1.99004   1.99769
 Alpha virt. eigenvalues --    2.00401   2.01949   2.02591   2.02998   2.03900
 Alpha virt. eigenvalues --    2.04600   2.06755   2.07387   2.07764   2.08688
 Alpha virt. eigenvalues --    2.08957   2.09840   2.11777   2.12560   2.12988
 Alpha virt. eigenvalues --    2.13693   2.15113   2.16284   2.16910   2.18210
 Alpha virt. eigenvalues --    2.20364   2.21222   2.21670   2.23034   2.24485
 Alpha virt. eigenvalues --    2.25101   2.26519   2.27403   2.29194   2.30275
 Alpha virt. eigenvalues --    2.31188   2.32047   2.33435   2.34397   2.35863
 Alpha virt. eigenvalues --    2.36210   2.36898   2.37280   2.38890   2.40103
 Alpha virt. eigenvalues --    2.41611   2.42956   2.43089   2.43547   2.44617
 Alpha virt. eigenvalues --    2.46531   2.47029   2.48057   2.49100   2.50557
 Alpha virt. eigenvalues --    2.51368   2.52592   2.53830   2.54183   2.54759
 Alpha virt. eigenvalues --    2.56039   2.57473   2.57660   2.58478   2.58870
 Alpha virt. eigenvalues --    2.59775   2.61000   2.61860   2.62956   2.63550
 Alpha virt. eigenvalues --    2.65019   2.65250   2.66066   2.66812   2.67584
 Alpha virt. eigenvalues --    2.68301   2.69796   2.71834   2.72340   2.73978
 Alpha virt. eigenvalues --    2.75216   2.75843   2.76805   2.77204   2.79079
 Alpha virt. eigenvalues --    2.79702   2.81215   2.81707   2.82349   2.83356
 Alpha virt. eigenvalues --    2.83845   2.85118   2.85892   2.86819   2.87419
 Alpha virt. eigenvalues --    2.88987   2.89630   2.91473   2.91940   2.93309
 Alpha virt. eigenvalues --    2.95334   2.97303   2.98065   2.98469   2.99696
 Alpha virt. eigenvalues --    3.00506   3.02386   3.03606   3.04305   3.04747
 Alpha virt. eigenvalues --    3.05901   3.07423   3.08600   3.09160   3.09683
 Alpha virt. eigenvalues --    3.11025   3.12508   3.13361   3.13716   3.14212
 Alpha virt. eigenvalues --    3.15419   3.16674   3.18080   3.19795   3.20532
 Alpha virt. eigenvalues --    3.23656   3.24038   3.26945   3.27168   3.29026
 Alpha virt. eigenvalues --    3.29487   3.30387   3.31158   3.32216   3.32666
 Alpha virt. eigenvalues --    3.35706   3.36534   3.38266   3.38986   3.39289
 Alpha virt. eigenvalues --    3.40039   3.42099   3.42939   3.43204   3.44122
 Alpha virt. eigenvalues --    3.46278   3.46660   3.48282   3.49370   3.49486
 Alpha virt. eigenvalues --    3.51336   3.51432   3.51990   3.52425   3.53530
 Alpha virt. eigenvalues --    3.54273   3.55360   3.55776   3.57848   3.58932
 Alpha virt. eigenvalues --    3.59476   3.59939   3.61089   3.61810   3.62074
 Alpha virt. eigenvalues --    3.63646   3.66314   3.68156   3.69821   3.70024
 Alpha virt. eigenvalues --    3.73288   3.73704   3.75150   3.76028   3.77139
 Alpha virt. eigenvalues --    3.79689   3.81396   3.82086   3.83790   3.85102
 Alpha virt. eigenvalues --    3.85718   3.87109   3.89352   3.90374   3.90983
 Alpha virt. eigenvalues --    3.93689   3.94899   3.96054   3.97902   3.98284
 Alpha virt. eigenvalues --    3.99153   3.99779   4.00119   4.02261   4.03380
 Alpha virt. eigenvalues --    4.04252   4.07203   4.08749   4.09135   4.11312
 Alpha virt. eigenvalues --    4.14669   4.15765   4.17309   4.18824   4.21364
 Alpha virt. eigenvalues --    4.23386   4.23597   4.28661   4.30554   4.34319
 Alpha virt. eigenvalues --    4.36347   4.39093   4.41609   4.42708   4.43386
 Alpha virt. eigenvalues --    4.45549   4.46236   4.49188   4.52914   4.54235
 Alpha virt. eigenvalues --    4.56719   4.62751   4.66281   4.67979   4.73046
 Alpha virt. eigenvalues --    4.74379   4.74852   4.78524   4.80224   4.89293
 Alpha virt. eigenvalues --    4.89784   4.93012   4.98205   5.01971   5.03109
 Alpha virt. eigenvalues --    5.04291   5.07986   5.11230   5.11856   5.12157
 Alpha virt. eigenvalues --    5.13323   5.13720   5.14082   5.15515   5.16715
 Alpha virt. eigenvalues --    5.17108   5.18374   5.19179   5.19800   5.20489
 Alpha virt. eigenvalues --    5.20978   5.22861   5.23022   5.25446   5.25643
 Alpha virt. eigenvalues --    5.26877   5.27384   5.28952   5.29683   5.29901
 Alpha virt. eigenvalues --    5.31204   5.33215   5.35431   5.38730   5.39346
 Alpha virt. eigenvalues --    5.39913   5.40798   5.42390   5.42656   5.42754
 Alpha virt. eigenvalues --    5.44514   5.44944   5.47081   5.48408   5.51825
 Alpha virt. eigenvalues --    5.53444   5.55434   5.57206   5.60065   5.62217
 Alpha virt. eigenvalues --    5.64557   5.64965   5.66583   5.67372   5.68410
 Alpha virt. eigenvalues --    5.69463   5.70462   5.71587   5.72534   5.74108
 Alpha virt. eigenvalues --    5.75723   5.76006   5.77032   5.78721   5.79385
 Alpha virt. eigenvalues --    5.81070   5.82104   5.83096   5.84094   5.85991
 Alpha virt. eigenvalues --    5.88932   5.91725   5.95304   6.02417   6.06655
 Alpha virt. eigenvalues --    6.08687   6.11046   6.11987   6.20719   6.21010
 Alpha virt. eigenvalues --    6.22787   6.23567   6.25804   6.26459   6.32122
 Alpha virt. eigenvalues --    6.34066   6.37188
          Condensed to atoms (all electrons):
              1          2          3          4          5          6
     1  O    8.208545   0.373009  -0.168881  -0.010226   0.024588   0.087270
     2  C    0.373009  10.808227  -2.459129   0.013732  -0.047299  -3.246390
     3  C   -0.168881  -2.459129  10.630004   0.213137   0.026702  -0.769837
     4  O   -0.010226   0.013732   0.213137   8.221364   0.192424  -0.172260
     5  H    0.024588  -0.047299   0.026702   0.192424   0.425327   0.014530
     6  C    0.087270  -3.246390  -0.769837  -0.172260   0.014530  12.543924
     7  O   -0.001495   0.058804  -0.181864   0.007096  -0.000586   0.371694
     8  H    0.000023  -0.012449   0.042709  -0.000500   0.000012   0.006394
     9  C    0.001363   0.169754  -0.099687   0.008725  -0.002968   0.045530
    10  O   -0.003961   0.033325   0.019072  -0.000029  -0.000048  -0.008959
    11  H    0.000400  -0.011044  -0.002253   0.000003   0.000000  -0.000436
    12  C   -0.205809  -1.767975  -0.369638  -0.001842   0.020716   0.719775
    13  O    0.008264  -0.062135  -0.002419   0.000468   0.000066  -0.212366
    14  C    0.003278   1.400722  -0.269717   0.072167  -0.008411  -3.347146
    15  O    0.000354  -0.065049   0.059605  -0.001603   0.000089   0.135619
    16  C    0.001227   0.132472  -0.441714  -0.003703   0.000822   0.007156
    17  C    0.000526  -0.033047   0.026887   0.000583   0.000066   0.148777
    18  O    0.000008   0.005401  -0.002091  -0.000014   0.000000   0.017864
    19  H   -0.000007  -0.003780   0.006729   0.000002   0.000000   0.001477
    20  C    0.000049  -0.006223  -0.003074  -0.000125   0.000001   0.069389
    21  O    0.000000   0.000059  -0.000032   0.000000   0.000000  -0.000834
    22  H    0.000000   0.000001   0.000002   0.000000   0.000000  -0.000022
    23  C    0.000107   0.005064  -0.019942   0.000075   0.000000  -0.111438
    24  O    0.000001   0.005286   0.001921  -0.000160  -0.000006  -0.021974
    25  H    0.000000  -0.000126   0.000084  -0.000003   0.000000  -0.001640
    26  C   -0.000361   0.072506  -0.043942   0.001542   0.000006  -0.288854
    27  O    0.000000  -0.000030   0.000630   0.000001   0.000000   0.006224
    28  C    0.000000  -0.001368  -0.000917  -0.000003   0.000000   0.001947
    29  O    0.000000   0.000007   0.000048   0.000000   0.000000  -0.000379
    30  H    0.238431   0.017738  -0.010733   0.000712  -0.003101   0.003328
    31  H   -0.012823   0.227473   0.239532  -0.051155  -0.002263  -0.325777
    32  H   -0.060650   0.531552  -0.142075  -0.000201  -0.001539  -0.017562
    33  H   -0.001177   0.123956  -0.224490   0.005384  -0.000028   0.289477
    34  H    0.004731   0.057422  -0.081595  -0.000148  -0.000018  -0.000128
    35  H   -0.000098  -0.017331  -0.003294   0.000022   0.000000   0.001292
    36  H    0.002674  -0.006512   0.001303  -0.000043   0.000000   0.011483
    37  H   -0.000009   0.032326  -0.062270  -0.000436   0.000003  -0.019325
    38  H    0.000000   0.000025  -0.000009   0.000000   0.000000   0.001662
    39  H    0.000000  -0.000186   0.001018   0.000000   0.000000   0.004003
    40  H   -0.000001  -0.001254   0.001601  -0.000002   0.000000   0.008221
    41  H    0.000000   0.000548  -0.000110   0.000000   0.000000   0.003185
    42  H    0.000000   0.000020   0.000076   0.000000   0.000000  -0.000385
    43  H    0.000000  -0.000005   0.000021   0.000000   0.000000  -0.000062
    44  H    0.000000  -0.000109   0.000538   0.000001   0.000000  -0.000008
    45  H    0.000000   0.000000   0.000000   0.000000   0.000000   0.000003
              7          8          9         10         11         12
     1  O   -0.001495   0.000023   0.001363  -0.003961   0.000400  -0.205809
     2  C    0.058804  -0.012449   0.169754   0.033325  -0.011044  -1.767975
     3  C   -0.181864   0.042709  -0.099687   0.019072  -0.002253  -0.369638
     4  O    0.007096  -0.000500   0.008725  -0.000029   0.000003  -0.001842
     5  H   -0.000586   0.000012  -0.002968  -0.000048   0.000000   0.020716
     6  C    0.371694   0.006394   0.045530  -0.008959  -0.000436   0.719775
     7  O    8.253098   0.204973   0.000815   0.000028   0.000000   0.023906
     8  H    0.204973   0.335402  -0.000021   0.000000   0.000000  -0.000487
     9  C    0.000815  -0.000021   6.840851   0.050784   0.012364  -1.711213
    10  O    0.000028   0.000000   0.050784   8.311431   0.191674   0.024886
    11  H    0.000000   0.000000   0.012364   0.191674   0.430255   0.024888
    12  C    0.023906  -0.000487  -1.711213   0.024886   0.024888  10.447026
    13  O    0.013603   0.000763   0.005013   0.001427  -0.000518  -0.084375
    14  C   -0.146389  -0.032978  -0.235113   0.010725  -0.003025  -0.967223
    15  O   -0.006038   0.021969  -0.017120  -0.000104   0.000006   0.035999
    16  C    0.003493  -0.002509  -0.085794  -0.001237   0.000059   0.133730
    17  C    0.004546   0.002525  -0.041798  -0.000410  -0.000010  -0.107939
    18  O   -0.000090   0.000011   0.008777  -0.000046   0.000008  -0.016323
    19  H   -0.000061  -0.000003   0.000388  -0.000015  -0.000002   0.000348
    20  C    0.002333   0.000680   0.005824   0.000131   0.000003  -0.020386
    21  O   -0.000004   0.000000   0.000062   0.000000   0.000000  -0.000014
    22  H    0.000000   0.000000   0.000003   0.000000   0.000000   0.000015
    23  C    0.000072   0.019340  -0.001272  -0.000016   0.000000  -0.004654
    24  O   -0.021712  -0.024757   0.000396   0.000000   0.000000   0.000637
    25  H    0.002623  -0.001873  -0.000011   0.000000   0.000000  -0.000215
    26  C    0.001570  -0.031832   0.009525   0.000089   0.000009   0.053605
    27  O    0.000125   0.000095  -0.000124   0.000000   0.000000  -0.000227
    28  C    0.000129  -0.000172  -0.000572  -0.000003   0.000000   0.005119
    29  O   -0.000003   0.000000  -0.000011   0.000000   0.000000   0.000049
    30  H   -0.000021   0.000000  -0.011020  -0.000289   0.000003   0.013912
    31  H    0.006988  -0.000092   0.018713   0.000194   0.000000  -0.058039
    32  H    0.000064   0.000005   0.018902  -0.000016   0.000003  -0.203657
    33  H   -0.047374  -0.006585   0.012662   0.000029   0.000000  -0.003384
    34  H   -0.000149   0.000002   0.060654   0.005064  -0.000105   0.159415
    35  H   -0.000010   0.000000   0.404996  -0.045716  -0.010502  -0.012079
    36  H   -0.000012   0.000000   0.596757  -0.067539  -0.001671  -0.261177
    37  H    0.001836  -0.000845   0.005117   0.000045   0.000000  -0.001310
    38  H   -0.000553   0.000259  -0.000005   0.000000   0.000000  -0.000115
    39  H   -0.000012   0.000020   0.000045   0.000000   0.000000   0.000038
    40  H   -0.000311   0.000080   0.000271   0.000001   0.000000   0.000078
    41  H   -0.000013   0.000003   0.000012   0.000000   0.000000   0.001550
    42  H    0.000000   0.000000  -0.000063   0.000000   0.000000   0.000643
    43  H    0.000000   0.000000  -0.000003   0.000000   0.000000   0.000019
    44  H    0.001122   0.000746   0.000016   0.000000   0.000000   0.000500
    45  H    0.000000   0.000000   0.000000   0.000000   0.000000   0.000000
             13         14         15         16         17         18
     1  O    0.008264   0.003278   0.000354   0.001227   0.000526   0.000008
     2  C   -0.062135   1.400722  -0.065049   0.132472  -0.033047   0.005401
     3  C   -0.002419  -0.269717   0.059605  -0.441714   0.026887  -0.002091
     4  O    0.000468   0.072167  -0.001603  -0.003703   0.000583  -0.000014
     5  H    0.000066  -0.008411   0.000089   0.000822   0.000066   0.000000
     6  C   -0.212366  -3.347146   0.135619   0.007156   0.148777   0.017864
     7  O    0.013603  -0.146389  -0.006038   0.003493   0.004546  -0.000090
     8  H    0.000763  -0.032978   0.021969  -0.002509   0.002525   0.000011
     9  C    0.005013  -0.235113  -0.017120  -0.085794  -0.041798   0.008777
    10  O    0.001427   0.010725  -0.000104  -0.001237  -0.000410  -0.000046
    11  H   -0.000518  -0.003025   0.000006   0.000059  -0.000010   0.000008
    12  C   -0.084375  -0.967223   0.035999   0.133730  -0.107939  -0.016323
    13  O    8.434481   0.271873  -0.074548   0.136061  -0.102917   0.019705
    14  C    0.271873   9.801936   0.099615  -0.678517  -0.240495  -0.050608
    15  O   -0.074548   0.099615   8.272468  -0.182587   0.177587  -0.008499
    16  C    0.136061  -0.678517  -0.182587  14.431176  -3.518945  -0.059340
    17  C   -0.102917  -0.240495   0.177587  -3.518945   9.752323   0.381317
    18  O    0.019705  -0.050608  -0.008499  -0.059340   0.381317   8.183879
    19  H    0.016898  -0.006978   0.022585  -0.158713   0.097439   0.186556
    20  C   -0.019264  -0.151662   0.049237  -2.152347   0.009256  -0.187523
    21  O   -0.000111  -0.000005  -0.000666   0.007363  -0.135470   0.005594
    22  H   -0.000004  -0.000097   0.000041  -0.006267   0.020946  -0.000405
    23  C    0.032019  -0.045076  -0.049540   0.765726  -0.731856   0.013850
    24  O   -0.002504   0.080198  -0.026472  -0.041384  -0.007393  -0.000010
    25  H    0.000028  -0.006272   0.002234   0.000068  -0.000527   0.000000
    26  C   -0.023562  -0.305215  -0.094389  -3.441072   0.260082  -0.017532
    27  O    0.000436  -0.009791   0.012350  -0.084642  -0.053272   0.001973
    28  C    0.002017   0.009068   0.009366   0.731841   0.139211   0.029803
    29  O    0.000015  -0.000743   0.000261  -0.011749   0.021306  -0.000701
    30  H   -0.000962  -0.001937  -0.000016   0.000087  -0.000042   0.000000
    31  H    0.008881   0.155938  -0.001685   0.007751   0.000006   0.000003
    32  H    0.011780   0.080209  -0.001114   0.002629   0.000401   0.000019
    33  H    0.022082   0.029787  -0.019981   0.036651  -0.001327  -0.000002
    34  H   -0.038891   0.066458  -0.002053   0.003305   0.002311  -0.000023
    35  H   -0.002741   0.002221  -0.000372   0.002244   0.000637  -0.000411
    36  H    0.005994   0.002547  -0.000515  -0.002583   0.000036   0.000022
    37  H   -0.050621   0.297526  -0.064053   0.048646   0.023671  -0.000644
    38  H   -0.000009  -0.004575  -0.000113   0.027999  -0.007990   0.000040
    39  H   -0.000327   0.028116   0.004344   0.006875   0.008524   0.000020
    40  H   -0.001765   0.008537  -0.060146   0.318807  -0.008420  -0.000617
    41  H    0.003113   0.011304  -0.015440   0.151297   0.223113  -0.046634
    42  H    0.000504   0.002576  -0.001784   0.124093  -0.220921   0.005999
    43  H    0.000011   0.003305   0.000119   0.072567  -0.004757  -0.001003
    44  H    0.000121   0.004926   0.003618  -0.007634   0.009672   0.000000
    45  H    0.000000  -0.000035  -0.000003  -0.001865   0.005537  -0.000031
             19         20         21         22         23         24
     1  O   -0.000007   0.000049   0.000000   0.000000   0.000107   0.000001
     2  C   -0.003780  -0.006223   0.000059   0.000001   0.005064   0.005286
     3  C    0.006729  -0.003074  -0.000032   0.000002  -0.019942   0.001921
     4  O    0.000002  -0.000125   0.000000   0.000000   0.000075  -0.000160
     5  H    0.000000   0.000001   0.000000   0.000000   0.000000  -0.000006
     6  C    0.001477   0.069389  -0.000834  -0.000022  -0.111438  -0.021974
     7  O   -0.000061   0.002333  -0.000004   0.000000   0.000072  -0.021712
     8  H   -0.000003   0.000680   0.000000   0.000000   0.019340  -0.024757
     9  C    0.000388   0.005824   0.000062   0.000003  -0.001272   0.000396
    10  O   -0.000015   0.000131   0.000000   0.000000  -0.000016   0.000000
    11  H   -0.000002   0.000003   0.000000   0.000000   0.000000   0.000000
    12  C    0.000348  -0.020386  -0.000014   0.000015  -0.004654   0.000637
    13  O    0.016898  -0.019264  -0.000111  -0.000004   0.032019  -0.002504
    14  C   -0.006978  -0.151662  -0.000005  -0.000097  -0.045076   0.080198
    15  O    0.022585   0.049237  -0.000666   0.000041  -0.049540  -0.026472
    16  C   -0.158713  -2.152347   0.007363  -0.006267   0.765726  -0.041384
    17  C    0.097439   0.009256  -0.135470   0.020946  -0.731856  -0.007393
    18  O    0.186556  -0.187523   0.005594  -0.000405   0.013850  -0.000010
    19  H    0.375441   0.035036  -0.001113   0.000018  -0.005274   0.000042
    20  C    0.035036   8.988259   0.227396  -0.006134  -0.078664  -0.005440
    21  O   -0.001113   0.227396   8.201924   0.205703   0.007637   0.000042
    22  H    0.000018  -0.006134   0.205703   0.421990   0.000059   0.000000
    23  C   -0.005274  -0.078664   0.007637   0.000059   6.929678  -0.087111
    24  O    0.000042  -0.005440   0.000042   0.000000  -0.087111   8.505984
    25  H    0.000000   0.000568   0.000000   0.000000   0.014785   0.198999
    26  C    0.033036   0.676283   0.028782   0.004679  -1.363358   0.125997
    27  O    0.000147  -0.164845   0.011852   0.000345  -0.070981   0.001981
    28  C   -0.006680  -1.373797  -0.033110  -0.012309  -0.116477   0.007009
    29  O    0.000039  -0.164506   0.007069   0.018534  -0.013468   0.000105
    30  H    0.000000   0.000000   0.000000   0.000000   0.000003   0.000000
    31  H    0.000000  -0.000035   0.000000   0.000000   0.000436   0.000110
    32  H    0.000005   0.000037   0.000000   0.000000   0.000164   0.000010
    33  H    0.000024   0.000407   0.000001   0.000000   0.005138   0.001715
    34  H    0.000093   0.000506   0.000000   0.000000   0.000386   0.000004
    35  H    0.000369  -0.001140  -0.000001   0.000000  -0.000010   0.000000
    36  H    0.000035   0.000222   0.000000   0.000000   0.000025   0.000000
    37  H    0.000343   0.008496  -0.000002   0.000000   0.008140   0.000379
    38  H    0.000000   0.001823  -0.000006   0.000000   0.488876  -0.048294
    39  H    0.000027  -0.031183  -0.000214   0.000005  -0.009606   0.004399
    40  H   -0.000263   0.036502  -0.000784   0.000003   0.011883  -0.000495
    41  H   -0.003613  -0.090068   0.002855  -0.000142   0.039685  -0.000241
    42  H    0.000006   0.390050  -0.045030  -0.004853   0.018296  -0.000015
    43  H    0.000002  -0.131537   0.002358  -0.000575   0.000218   0.000018
    44  H    0.000001  -0.002150  -0.000004   0.000000   0.526748  -0.075696
    45  H    0.000000  -0.032624  -0.000394  -0.001723   0.000336   0.000000
             25         26         27         28         29         30
     1  O    0.000000  -0.000361   0.000000   0.000000   0.000000   0.238431
     2  C   -0.000126   0.072506  -0.000030  -0.001368   0.000007   0.017738
     3  C    0.000084  -0.043942   0.000630  -0.000917   0.000048  -0.010733
     4  O   -0.000003   0.001542   0.000001  -0.000003   0.000000   0.000712
     5  H    0.000000   0.000006   0.000000   0.000000   0.000000  -0.003101
     6  C   -0.001640  -0.288854   0.006224   0.001947  -0.000379   0.003328
     7  O    0.002623   0.001570   0.000125   0.000129  -0.000003  -0.000021
     8  H   -0.001873  -0.031832   0.000095  -0.000172   0.000000   0.000000
     9  C   -0.000011   0.009525  -0.000124  -0.000572  -0.000011  -0.011020
    10  O    0.000000   0.000089   0.000000  -0.000003   0.000000  -0.000289
    11  H    0.000000   0.000009   0.000000   0.000000   0.000000   0.000003
    12  C   -0.000215   0.053605  -0.000227   0.005119   0.000049   0.013912
    13  O    0.000028  -0.023562   0.000436   0.002017   0.000015  -0.000962
    14  C   -0.006272  -0.305215  -0.009791   0.009068  -0.000743  -0.001937
    15  O    0.002234  -0.094389   0.012350   0.009366   0.000261  -0.000016
    16  C    0.000068  -3.441072  -0.084642   0.731841  -0.011749   0.000087
    17  C   -0.000527   0.260082  -0.053272   0.139211   0.021306  -0.000042
    18  O    0.000000  -0.017532   0.001973   0.029803  -0.000701   0.000000
    19  H    0.000000   0.033036   0.000147  -0.006680   0.000039   0.000000
    20  C    0.000568   0.676283  -0.164845  -1.373797  -0.164506   0.000000
    21  O    0.000000   0.028782   0.011852  -0.033110   0.007069   0.000000
    22  H    0.000000   0.004679   0.000345  -0.012309   0.018534   0.000000
    23  C    0.014785  -1.363358  -0.070981  -0.116477  -0.013468   0.000003
    24  O    0.198999   0.125997   0.001981   0.007009   0.000105   0.000000
    25  H    0.403740   0.011904  -0.000349  -0.002077   0.000002   0.000000
    26  C    0.011904  11.032041   0.361495  -0.847759  -0.040187  -0.000010
    27  O   -0.000349   0.361495   8.211731   0.135820  -0.044474   0.000000
    28  C   -0.002077  -0.847759   0.135820   6.335037   0.388359   0.000000
    29  O    0.000002  -0.040187  -0.044474   0.388359   8.208567   0.000000
    30  H    0.000000  -0.000010   0.000000   0.000000   0.000000   0.382777
    31  H    0.000000   0.001463   0.000000  -0.000015   0.000000   0.000247
    32  H    0.000000   0.000362   0.000000  -0.000010   0.000000  -0.010591
    33  H   -0.000021   0.007788   0.000003  -0.000152   0.000000   0.000024
    34  H    0.000000  -0.000033   0.000000  -0.000069   0.000000  -0.000091
    35  H    0.000000  -0.000206   0.000000   0.000089   0.000000  -0.000014
    36  H    0.000000  -0.000041   0.000000  -0.000017   0.000000  -0.000056
    37  H    0.000015   0.003777   0.000107  -0.001442  -0.000003   0.000001
    38  H   -0.009305  -0.121237  -0.001853  -0.001155  -0.000133   0.000000
    39  H   -0.000131   0.216618  -0.041343   0.041130  -0.000735   0.000000
    40  H    0.000005  -0.075863   0.001147  -0.001189  -0.000892   0.000000
    41  H    0.000000  -0.059968   0.004496  -0.010288  -0.000715   0.000000
    42  H    0.000000  -0.009358   0.004183  -0.015391  -0.004647   0.000000
    43  H    0.000000  -0.058806  -0.063079   0.458590  -0.056705   0.000000
    44  H   -0.002479  -0.192341   0.007761   0.010590  -0.000109   0.000000
    45  H    0.000000   0.013118   0.003433   0.019544   0.233998   0.000000
             31         32         33         34         35         36
     1  O   -0.012823  -0.060650  -0.001177   0.004731  -0.000098   0.002674
     2  C    0.227473   0.531552   0.123956   0.057422  -0.017331  -0.006512
     3  C    0.239532  -0.142075  -0.224490  -0.081595  -0.003294   0.001303
     4  O   -0.051155  -0.000201   0.005384  -0.000148   0.000022  -0.000043
     5  H   -0.002263  -0.001539  -0.000028  -0.000018   0.000000   0.000000
     6  C   -0.325777  -0.017562   0.289477  -0.000128   0.001292   0.011483
     7  O    0.006988   0.000064  -0.047374  -0.000149  -0.000010  -0.000012
     8  H   -0.000092   0.000005  -0.006585   0.000002   0.000000   0.000000
     9  C    0.018713   0.018902   0.012662   0.060654   0.404996   0.596757
    10  O    0.000194  -0.000016   0.000029   0.005064  -0.045716  -0.067539
    11  H    0.000000   0.000003   0.000000  -0.000105  -0.010502  -0.001671
    12  C   -0.058039  -0.203657  -0.003384   0.159415  -0.012079  -0.261177
    13  O    0.008881   0.011780   0.022082  -0.038891  -0.002741   0.005994
    14  C    0.155938   0.080209   0.029787   0.066458   0.002221   0.002547
    15  O   -0.001685  -0.001114  -0.019981  -0.002053  -0.000372  -0.000515
    16  C    0.007751   0.002629   0.036651   0.003305   0.002244  -0.002583
    17  C    0.000006   0.000401  -0.001327   0.002311   0.000637   0.000036
    18  O    0.000003   0.000019  -0.000002  -0.000023  -0.000411   0.000022
    19  H    0.000000   0.000005   0.000024   0.000093   0.000369   0.000035
    20  C   -0.000035   0.000037   0.000407   0.000506  -0.001140   0.000222
    21  O    0.000000   0.000000   0.000001   0.000000  -0.000001   0.000000
    22  H    0.000000   0.000000   0.000000   0.000000   0.000000   0.000000
    23  C    0.000436   0.000164   0.005138   0.000386  -0.000010   0.000025
    24  O    0.000110   0.000010   0.001715   0.000004   0.000000   0.000000
    25  H    0.000000   0.000000  -0.000021   0.000000   0.000000   0.000000
    26  C    0.001463   0.000362   0.007788  -0.000033  -0.000206  -0.000041
    27  O    0.000000   0.000000   0.000003   0.000000   0.000000   0.000000
    28  C   -0.000015  -0.000010  -0.000152  -0.000069   0.000089  -0.000017
    29  O    0.000000   0.000000   0.000000   0.000000   0.000000   0.000000
    30  H    0.000247  -0.010591   0.000024  -0.000091  -0.000014  -0.000056
    31  H    0.619120   0.006911   0.007416   0.003152   0.000006   0.000002
    32  H    0.006911   0.632059   0.003130   0.007297   0.000097   0.006784
    33  H    0.007416   0.003130   0.597357   0.000025   0.000004  -0.000018
    34  H    0.003152   0.007297   0.000025   0.605382  -0.007477   0.006803
    35  H    0.000006   0.000097   0.000004  -0.007477   0.595474  -0.052507
    36  H    0.000002   0.006784  -0.000018   0.006803  -0.052507   0.620240
    37  H    0.001879  -0.000001   0.004770   0.003663  -0.000021  -0.000007
    38  H    0.000000   0.000000   0.000001   0.000000   0.000000   0.000000
    39  H    0.000000   0.000000  -0.000013   0.000000   0.000000   0.000000
    40  H   -0.000002   0.000000  -0.000002  -0.000006   0.000000   0.000000
    41  H    0.000000   0.000000  -0.000006   0.000000   0.000000   0.000000
    42  H    0.000000   0.000000   0.000000   0.000000   0.000000   0.000000
    43  H    0.000000   0.000000   0.000000   0.000000   0.000000   0.000000
    44  H    0.000000   0.000000  -0.000007   0.000000   0.000000   0.000000
    45  H    0.000000   0.000000   0.000000   0.000000   0.000000   0.000000
             37         38         39         40         41         42
     1  O   -0.000009   0.000000   0.000000  -0.000001   0.000000   0.000000
     2  C    0.032326   0.000025  -0.000186  -0.001254   0.000548   0.000020
     3  C   -0.062270  -0.000009   0.001018   0.001601  -0.000110   0.000076
     4  O   -0.000436   0.000000   0.000000  -0.000002   0.000000   0.000000
     5  H    0.000003   0.000000   0.000000   0.000000   0.000000   0.000000
     6  C   -0.019325   0.001662   0.004003   0.008221   0.003185  -0.000385
     7  O    0.001836  -0.000553  -0.000012  -0.000311  -0.000013   0.000000
     8  H   -0.000845   0.000259   0.000020   0.000080   0.000003   0.000000
     9  C    0.005117  -0.000005   0.000045   0.000271   0.000012  -0.000063
    10  O    0.000045   0.000000   0.000000   0.000001   0.000000   0.000000
    11  H    0.000000   0.000000   0.000000   0.000000   0.000000   0.000000
    12  C   -0.001310  -0.000115   0.000038   0.000078   0.001550   0.000643
    13  O   -0.050621  -0.000009  -0.000327  -0.001765   0.003113   0.000504
    14  C    0.297526  -0.004575   0.028116   0.008537   0.011304   0.002576
    15  O   -0.064053  -0.000113   0.004344  -0.060146  -0.015440  -0.001784
    16  C    0.048646   0.027999   0.006875   0.318807   0.151297   0.124093
    17  C    0.023671  -0.007990   0.008524  -0.008420   0.223113  -0.220921
    18  O   -0.000644   0.000040   0.000020  -0.000617  -0.046634   0.005999
    19  H    0.000343   0.000000   0.000027  -0.000263  -0.003613   0.000006
    20  C    0.008496   0.001823  -0.031183   0.036502  -0.090068   0.390050
    21  O   -0.000002  -0.000006  -0.000214  -0.000784   0.002855  -0.045030
    22  H    0.000000   0.000000   0.000005   0.000003  -0.000142  -0.004853
    23  C    0.008140   0.488876  -0.009606   0.011883   0.039685   0.018296
    24  O    0.000379  -0.048294   0.004399  -0.000495  -0.000241  -0.000015
    25  H    0.000015  -0.009305  -0.000131   0.000005   0.000000   0.000000
    26  C    0.003777  -0.121237   0.216618  -0.075863  -0.059968  -0.009358
    27  O    0.000107  -0.001853  -0.041343   0.001147   0.004496   0.004183
    28  C   -0.001442  -0.001155   0.041130  -0.001189  -0.010288  -0.015391
    29  O   -0.000003  -0.000133  -0.000735  -0.000892  -0.000715  -0.004647
    30  H    0.000001   0.000000   0.000000   0.000000   0.000000   0.000000
    31  H    0.001879   0.000000   0.000000  -0.000002   0.000000   0.000000
    32  H   -0.000001   0.000000   0.000000   0.000000   0.000000   0.000000
    33  H    0.004770   0.000001  -0.000013  -0.000002  -0.000006   0.000000
    34  H    0.003663   0.000000   0.000000  -0.000006   0.000000   0.000000
    35  H   -0.000021   0.000000   0.000000   0.000000   0.000000   0.000000
    36  H   -0.000007   0.000000   0.000000   0.000000   0.000000   0.000000
    37  H    0.604445   0.000003  -0.000009   0.008208  -0.000001  -0.000008
    38  H    0.000003   0.583430  -0.008010  -0.000024   0.000002   0.000002
    39  H   -0.000009  -0.008010   0.602119   0.005501   0.003605   0.000034
    40  H    0.008208  -0.000024   0.005501   0.596228   0.005927   0.002909
    41  H   -0.000001   0.000002   0.003605   0.005927   0.621773   0.006108
    42  H   -0.000008   0.000002   0.000034   0.002909   0.006108   0.581575
    43  H    0.000000  -0.000013   0.007609  -0.000022   0.003004   0.005509
    44  H    0.000011  -0.047341   0.006391   0.003434  -0.000006  -0.000008
    45  H    0.000000  -0.000001   0.000010   0.000001   0.000013   0.000219
             43         44         45
     1  O    0.000000   0.000000   0.000000
     2  C   -0.000005  -0.000109   0.000000
     3  C    0.000021   0.000538   0.000000
     4  O    0.000000   0.000001   0.000000
     5  H    0.000000   0.000000   0.000000
     6  C   -0.000062  -0.000008   0.000003
     7  O    0.000000   0.001122   0.000000
     8  H    0.000000   0.000746   0.000000
     9  C   -0.000003   0.000016   0.000000
    10  O    0.000000   0.000000   0.000000
    11  H    0.000000   0.000000   0.000000
[...]
 15,0.00000395,0.00003003,0.00003390,-0.00000927,-0.00001080,-0.0000069
 4,-0.00000224,0.00000870,0.00002582,-0.00017794,0.00136110,-0.00118855
 ,0.00039078,-0.00194126,-0.00029245,0.00111566,0.00119529,0.00014076,-
 0.00038326,-0.00000382,0.00000132,0.00000420,0.00000475,0.00000011,-0.
 00000036,0.00000510,0.00000121,-0.00000418,0.00000147,0.00000573,-0.00
 000862,0.00000644,-0.00000371,0.00000276,-0.00000746,0.00000845,-0.000
 00207,0.00000919,0.00000335,-0.00000809,0.00002444,-0.00001402,0.00001
 800,0.00000185,0.00000808,0.00001490,0.00002331,0.00019131,0.00003917,
 0.00089069,-0.00039840,0.00006145,0.00005608,-0.00051863,0.00175527,0.
 35305855,0.00000116,-0.00000151,0.00000612,0.00000066,0.00000147,-0.00
 000494,-0.00000575,0.00000298,0.00000225,0.00000502,-0.00000450,0.0000
 0121,-0.00000162,0.00000152,-0.00000082,0.00000700,-0.00000887,0.00000
 613,0.00001489,0.00000468,0.00000470,-0.00001491,-0.00000656,-0.000019
 35,-0.00000082,0.00000653,-0.00001664,-0.00000078,0.00000169,0.0000130
 6,0.00000346,-0.00000122,-0.00000494,-0.00000393,0.00000010,-0.0000041
 8,0.00002795,-0.00002618,0.00001250,-0.00006904,0.00003044,0.00002786,
 0.00027541,-0.00003091,0.00000633,-0.00125361,0.00023191,0.00000488,-0
 .00816426,-0.00280937,-0.00085187,0.00123092,0.00069490,-0.00029020,0.
 00007176,-0.00000837,-0.00002880,-0.09754072,-0.07130655,-0.01158790,0
 .03654792,-0.00276750,0.01008973,0.00056640,0.00123473,-0.00050122,-0.
 00004092,0.00003497,-0.00003682,0.00002867,-0.00001669,0.00000782,-0.0
 0000999,0.00000157,0.00000110,-0.00018443,-0.00021120,0.00000257,0.001
 33729,0.00224585,0.00047171,-0.02866327,-0.00930971,-0.00362243,0.0017
 2865,0.00187417,0.00197238,0.00000041,0.00000034,-0.00000168,0.0000022
 4,0.00000023,0.00000108,0.00000148,-0.00000015,-0.00000065,0.00000234,
 0.00000388,-0.00000800,0.00000181,0.00000307,0.00000079,0.00000034,-0.
 00000538,0.00000144,0.00000065,-0.00000237,0.00000137,0.00002251,-0.00
 000622,0.00001388,0.00000531,-0.00000984,0.00000115,0.00019855,0.00017
 697,-0.00002398,0.00023725,-0.00018137,0.00046558,-0.00019943,-0.00016
 857,0.00153000,0.09347313,0.08397402,-0.00000285,-0.00000970,0.,0.0000
 0322,0.00001002,-0.00000287,0.00000467,0.00001274,0.00000771,-0.000001
 95,-0.00000933,-0.00000596,0.00000073,0.00000320,-0.00000151,-0.000008
 04,-0.00000827,-0.00001569,-0.00001149,-0.00001049,-0.00001225,0.00001
 052,-0.00000302,0.00001578,0.00000703,0.00001648,-0.00002667,-0.000005
 91,-0.00000597,0.00001515,0.00000461,-0.00000049,-0.00000784,0.0000130
 9,-0.00000512,-0.00000194,-0.00000198,-0.00011564,0.00002051,0.0000399
 7,0.00018471,0.00012508,-0.00054679,-0.00019625,-0.00029049,0.00171330
 ,-0.00090935,0.00127687,0.03062054,0.01235003,0.00028032,-0.00174479,0
 .00036270,0.00280618,-0.00012433,0.00021542,0.00025279,-0.02691871,-0.
 01217585,-0.04597202,-0.01740274,0.00510062,-0.00170218,-0.00089582,-0
 .00038840,0.00035780,0.00004743,0.00000597,0.00007488,-0.00000899,0.00
 000968,-0.00000724,-0.00000613,-0.00000400,-0.00000039,0.00035712,0.00
 015294,-0.00044392,0.00137715,0.00085702,0.00075783,-0.02270729,-0.010
 45227,-0.00347651,0.00051004,0.00132867,0.00265072,0.00000079,0.000002
 41,-0.00000051,-0.00000198,-0.00000070,-0.00000227,-0.00000250,-0.0000
 0039,0.00000195,-0.00000105,-0.00000662,0.00001351,-0.00000677,0.00000
 286,-0.00000843,0.00000045,-0.00001202,0.00000329,-0.00000438,-0.00000
 166,0.00000496,-0.00003440,-0.00000144,-0.00004578,-0.00001274,0.00003
 556,0.00000601,-0.00015834,-0.00007429,-0.00015541,-0.00055105,0.00023
 457,-0.00008478,0.00180231,0.00131310,-0.00530556,0.03517598,0.0050009
 0,0.05105128,0.00000317,-0.00000879,-0.00002441,-0.00000897,0.00000969
 ,0.00001441,-0.00000299,-0.00000654,0.00002468,0.00001344,0.00000775,-
 0.00002762,-0.00000420,-0.00000026,0.00000163,-0.00002948,0.00001293,0
 .00000762,0.00001533,-0.00002351,-0.00007366,0.00000106,0.00001580,0.0
 0009100,-0.00001538,0.00001341,-0.00000013,0.00000936,-0.00001367,-0.0
 0000805,-0.00000453,0.00000125,0.00000045,0.00000514,0.00000215,0.0000
 3073,0.00003131,-0.00007880,-0.00006890,0.00004149,0.00008423,0.000133
 30,0.00005388,-0.00013892,-0.00039679,0.00021846,0.00067201,0.00010455
 ,-0.00044003,-0.00056504,0.00036219,0.00036647,0.00021995,0.00014325,-
 0.00002795,0.00001094,-0.00008807,-0.00426249,0.00031042,-0.00156599,0
 .00215828,-0.00039341,0.00141702,-0.00029012,-0.00013211,-0.00006264,0
 .00061085,-0.00017036,-0.00001964,0.00003216,0.00026407,-0.00019610,-0
 .00001540,-0.00002213,-0.00003472,-0.00059930,-0.00097016,0.00217114,-
 0.01630300,0.01111395,-0.01078407,-0.32189934,-0.07512935,-0.05907283,
 -0.01504287,-0.00774365,0.00802085,-0.00000364,0.00000210,0.00000343,0
 .00000362,0.00000049,-0.00000012,0.00000448,-0.00000021,-0.00000262,0.
 00000512,-0.00000286,-0.00000069,0.00000228,-0.00000043,-0.00000192,-0
 .00000364,-0.00000106,0.00000050,0.00000599,0.00000089,-0.00000379,0.0
 0000513,-0.00000780,-0.00000517,-0.00004010,-0.00000503,0.00000937,0.0
 0085292,0.00040634,-0.00127021,0.00009804,-0.00005338,0.00029206,0.000
 78228,0.00030316,-0.00018822,0.00058180,0.00020736,-0.00039847,0.35225
 016,0.00000087,0.00001378,0.00000760,-0.00000088,-0.00001462,-0.000000
 97,-0.00000484,0.00000029,-0.00001091,-0.00000210,0.00000873,0.0000078
 2,0.00000093,-0.00000237,0.00000032,0.00001633,-0.00004495,-0.00001292
 ,0.00000248,0.00006134,0.00008437,-0.00001934,-0.00004332,-0.00012353,
 -0.00000071,-0.00001505,0.00001694,0.00000472,0.00000905,-0.00000939,-
 0.00000491,-0.00000030,0.00000561,-0.00001171,0.00000623,0.00000199,-0
 .00001537,0.00011123,0.00001635,-0.00006306,-0.00009051,-0.00009906,-0
 .00000517,0.00028841,0.00025718,-0.00022633,-0.00049741,0.00026340,-0.
 00121429,-0.00032749,0.00121800,0.00069139,0.00003292,-0.00041605,0.00
 016583,-0.00002393,0.00001031,-0.02710256,-0.00623596,-0.00901752,0.00
 074918,0.00370958,0.00119727,-0.00037427,-0.00038426,0.00006181,0.0003
 4509,0.00015055,-0.00014634,-0.00018992,-0.00017854,0.00021037,0.00000
 076,0.00004219,0.00000631,0.00409002,0.00166925,-0.00369700,0.03521385
 ,-0.00579711,0.01726798,-0.07566764,-0.06229877,-0.01854918,-0.0068756
 1,0.00161341,0.00414826,0.00000038,-0.00000316,-0.00000045,0.00000137,
 0.,0.00000033,0.00000055,0.00000082,-0.00000063,-0.00000191,0.00000349
 ,-0.00000264,0.00000340,-0.00000211,0.00000198,0.00000091,0.00000876,-
 0.00000241,0.00000143,0.00000171,-0.00000178,0.00000288,0.00000057,0.0
 0000051,0.00002708,-0.00001910,-0.00001555,-0.00123452,0.00011650,-0.0
 0021314,0.00000075,-0.00019420,0.00007795,0.00062609,0.00039334,-0.000
 32381,0.00052386,-0.00360000,-0.00297190,0.07176497,0.07087990,-0.0000
 0083,-0.00000413,-0.00003147,-0.00000681,0.00000397,0.00002067,0.00000
 357,-0.00000648,0.00002576,0.00000816,0.00001324,-0.00002829,-0.000001
 63,-0.00000173,0.00000178,-0.00001635,-0.00001147,-0.00000198,0.000004
 40,0.00000322,-0.00004441,-0.00000083,0.00000158,0.00005314,-0.0000067
 2,0.00001432,0.00001689,0.00000137,-0.00001949,-0.00002188,-0.00000204
 ,0.00000362,0.00000345,0.00001094,0.00001400,0.00004544,0.00000909,-0.
 00004281,-0.00007731,0.00005311,0.00006737,0.00011029,0.00000046,0.000
 01476,-0.00031885,0.00028380,-0.00023521,-0.00011416,-0.00169971,-0.00
 018867,0.00082243,0.00060975,0.00002787,-0.00007602,0.00001447,0.00005
 604,0.00004650,-0.02279911,-0.00752189,-0.00285893,0.00181853,0.001464
 10,0.00139693,0.00020966,-0.00033198,-0.00009251,-0.00001628,0.0000445
 8,0.00000856,0.00008379,0.00015146,-0.00016227,-0.00000873,-0.00002121
 ,-0.00000869,-0.00328488,-0.00026576,0.00288894,-0.01549162,0.00765357
 ,-0.00517683,-0.06459924,-0.02123674,-0.05836581,0.03986419,0.01264146
 ,-0.01027532,-0.00000250,0.00000153,0.00000486,0.00000095,0.00000006,-
 0.00000132,0.00000202,-0.00000017,-0.00000187,0.00000072,0.,-0.0000023
 5,-0.00000154,-0.00000139,-0.00000339,-0.00000080,0.00000447,-0.000001
 67,0.00000204,-0.00000017,-0.00000286,0.00000398,-0.00000775,0.0000024
 9,-0.00000069,-0.00001591,-0.00000321,0.00080963,0.00021760,-0.0000935
 2,0.00021247,0.00006470,0.00011583,0.00049708,-0.00003608,-0.00041824,
 0.00044731,-0.00307246,-0.00252531,0.06057787,0.01081081,0.07186610,0.
 00000695,0.00002536,0.00001604,0.00000127,-0.00003072,0.00000843,-0.00
 004278,0.00004053,0.00000975,0.00002382,0.00002355,-0.00000899,-0.0000
 0471,0.00000258,-0.00000119,0.00007120,-0.00025822,0.00005320,0.000289
 18,0.00053726,0.00053720,-0.00047239,-0.00065506,-0.00088960,-0.000008
 90,-0.00000301,-0.00000794,0.00001229,0.00000732,0.00000253,-0.0000053
 6,-0.00000182,0.00000057,-0.00001643,-0.00000209,0.00003517,0.00011148
 ,0.00001859,-0.00004671,-0.00044249,0.00012965,0.00014142,0.00046382,-
 0.00009932,0.00026376,0.00049839,-0.00114288,-0.00033912,0.00019163,-0
 .00000298,-0.00002471,0.00011103,0.00015747,0.00003194,-0.00004158,0.0
 0000328,-0.00002569,-0.00003258,-0.00002806,0.00005487,0.00004704,-0.0
 0004606,-0.00000090,-0.00001017,0.00000006,-0.00000747,-0.35032364,-0.
 03342351,-0.02539729,-0.00571863,-0.00855557,0.01208718,-0.00037248,0.
 00009283,0.00064925,-0.01949230,-0.00035186,-0.00289066,0.00177295,-0.
 00062757,0.00022066,0.00038265,0.00009939,-0.00013810,0.00003750,0.000
 11640,-0.00010568,-0.00000072,-0.00000324,-0.00000136,0.00001543,0.000
 00140,0.00000764,0.00000574,-0.00000056,-0.00000324,0.00000612,0.00000
 241,-0.00004099,0.00000701,0.00000447,0.00000129,-0.00000269,0.0000039
 6,-0.00000074,0.00000640,-0.00000055,-0.00000192,0.00013910,0.00004829
 ,0.00004290,-0.00576154,-0.00022214,-0.00142603,0.00021956,0.00289580,
 -0.00056120,0.00045213,0.00089496,0.00043038,0.00025697,-0.00017128,0.
 00011039,0.00002946,0.00004864,-0.00001571,0.00016940,-0.00023339,0.00
 017950,0.37742047,0.00000264,0.00002977,0.00004598,0.00000899,-0.00003
 588,-0.00001279,-0.00002574,0.00004650,-0.00003269,0.00000328,-0.00000
 009,0.00003969,-0.00000054,0.00000415,-0.00000606,0.00006818,-0.000194
 92,-0.00007313,0.00016277,0.00023328,0.00045451,-0.00032690,-0.0002841
 8,-0.00102221,0.00000431,-0.00002248,-0.00000562,0.00000272,0.00002343
 ,0.00001011,-0.00000163,-0.00000371,0.00000093,-0.00001526,-0.00002683
 ,-0.00003883,-0.00005737,0.00012720,0.00000620,0.00017318,-0.00020121,
 -0.00015607,-0.00047040,0.00030124,-0.00035848,0.00104167,0.00224274,0
 .00048382,0.00051876,0.00019798,0.00040395,-0.00028467,-0.00010940,-0.
 00020533,0.00004638,-0.00005776,0.00005111,0.00002768,0.00009888,-0.00
 002254,-0.00004657,-0.00000462,-0.00002713,0.00000079,0.00001554,0.000
 00062,-0.03400824,-0.04967032,-0.00924537,-0.01850256,-0.00508471,0.01
 371024,-0.00136448,-0.00007915,0.00026493,0.03563716,-0.00086693,0.004
 27300,-0.00095130,0.00177242,-0.00177650,0.00035386,0.00011327,-0.0000
 9266,-0.00017068,-0.00006196,0.00006056,0.00000257,-0.00000445,-0.0000
 0563,0.00000409,0.00000325,0.00000194,-0.00000002,-0.00000049,0.000001
 13,-0.00000758,-0.00001683,-0.00000685,0.00000370,-0.00000110,0.000001
 08,0.00000228,0.00000513,-0.00000124,-0.00000103,0.00000096,0.00000244
 ,-0.00003646,-0.00001948,-0.00005152,-0.02308167,-0.00110295,-0.002909
 74,0.00173957,-0.00529186,0.00233532,-0.00049426,-0.00039131,-0.000134
 80,-0.00038045,-0.00017149,-0.00013115,-0.00003249,-0.00005404,0.00002
 292,-0.00026358,-0.00003442,-0.00004806,0.04070717,0.05855771,-0.00000
 006,-0.00000556,0.00003305,0.00000514,0.00000547,-0.00002439,0.0000088
 7,0.00000229,-0.00004652,-0.00002408,-0.00003621,0.00004116,0.00000101
 ,0.00000326,0.00000075,-0.00000642,0.00006266,-0.00001315,-0.00048600,
 -0.00024564,-0.00004971,0.00100569,0.00055586,0.00069416,0.00000490,-0
 .00002042,-0.00000903,0.00000003,0.00002270,0.00002123,0.00000039,-0.0
 0000359,-0.00000151,-0.00001210,-0.00001594,-0.00007616,-0.00006191,0.
 00008055,0.00013325,0.00016602,-0.00014956,-0.00027969,-0.00023903,0.0
 0005639,0.00031684,0.00080692,-0.00002434,-0.00001012,-0.00002939,-0.0
 0007936,0.00004146,-0.00000623,0.00012578,0.00002154,0.00001673,-0.000
 01927,-0.00002655,0.00000126,-0.00007023,0.00010470,0.00001713,-0.0000
 0579,-0.00004950,-0.00000709,0.00000312,0.,-0.02877261,-0.00961643,-0.
 04283364,0.04005190,0.01767212,-0.01514425,0.00087167,-0.00075312,0.00
 010731,-0.00519570,-0.00035279,0.00153155,-0.00013720,0.00015805,0.000
 62863,-0.00023892,-0.00016506,-0.00008524,0.00009887,-0.00001097,-0.00
 009969,0.00000248,0.00000087,-0.00000519,-0.00001046,-0.00000451,-0.00
 000865,-0.00000345,0.00000200,0.00000266,-0.00002562,0.00004522,0.0000
 4011,0.00000379,-0.00000255,0.00000675,-0.00000007,-0.00000484,0.00000
 170,-0.00000169,0.00000208,0.00000070,-0.00005658,-0.00006499,-0.00003
 695,-0.02537622,-0.00284020,0.00026486,0.00031198,0.00142781,-0.000005
 92,0.00005586,0.00001078,0.00019945,0.00005977,-0.00003002,-0.00000919
 ,0.00000487,0.00002492,-0.00000290,0.00013638,0.00003349,-0.00002117,0
 .01706104,-0.00577495,0.05462855,-0.00000183,0.00000217,0.00000855,0.0
 0000546,-0.00000179,-0.00000404,0.00000112,0.00000266,-0.00000811,-0.0
 0000440,-0.00000328,0.00001056,0.00000178,0.00000028,-0.00000079,0.000
 01497,-0.00000460,0.00000048,-0.00000329,0.00000859,0.00002455,-0.0000
 0239,-0.00000765,-0.00003409,0.00000796,-0.00000256,-0.00000193,-0.000
 00443,0.00000491,0.00000438,0.00000290,-0.00000078,-0.00000026,-0.0000
 0339,-0.00000593,-0.00001370,-0.00000073,0.00001833,0.00003284,-0.0000
 3209,-0.00002154,-0.00003803,0.00001814,0.00002746,0.00011391,-0.00010
 360,-0.00005532,-0.00013266,0.00027766,0.00061604,0.00010158,-0.000127
 94,0.00005420,0.00034888,-0.00001530,0.00006663,0.00003698,-0.00125440
 ,-0.00172051,0.00216838,-0.00077310,0.00055613,-0.00067306,0.00075416,
 0.00032214,0.00039558,-0.00017347,0.00009927,0.00019572,0.00002242,-0.
 00013711,0.00005386,0.00000432,-0.00000514,0.00002729,0.00089332,-0.00
 055523,0.00049251,-0.00126784,-0.00071114,0.00275865,0.00826874,-0.004
 20428,0.02372825,-0.28046444,0.06307952,-0.27372292,0.00000195,-0.0000
 0070,-0.00000075,-0.00000115,-0.00000016,0.00000035,-0.00000191,0.0000
 0003,0.00000092,-0.00000128,0.00000139,0.00000057,-0.00000015,0.000000
 90,0.00000205,0.00000052,-0.00000114,-0.00000020,-0.00000237,-0.000001
 02,0.00000106,0.00000099,0.00000096,0.00000224,0.00000117,-0.00001049,
 -0.00000607,-0.00001302,0.00003626,-0.00011773,0.00000154,-0.00000720,
 0.00001979,-0.00002492,-0.00002338,-0.00003119,0.00017988,0.00010430,-
 0.00011377,0.00067182,-0.00098658,0.00223142,0.00000038,0.00001213,-0.
 00000186,0.27314626,0.00000062,-0.00000991,0.00001320,0.00000262,0.000
 00497,-0.00001191,-0.00000132,0.00000645,-0.00001221,-0.00000279,-0.00
 001961,0.00001660,-0.00000062,0.00000507,-0.00000171,0.00000258,0.0000
 3293,0.00001312,0.00000165,-0.00003824,-0.00001042,0.00000381,0.000020
 61,0.00001124,0.00000210,0.00000462,-0.00001263,-0.00000239,-0.0000012
 5,0.00001298,0.00000266,0.00000120,-0.00000719,-0.00000363,0.00000309,
 -0.00001309,0.00000732,-0.00001409,0.00003999,-0.00006116,0.00001058,-
 0.00004768,0.00004205,-0.00002138,0.00016256,-0.00015748,-0.00015364,0
 .00003120,0.00054954,-0.00055403,0.00012860,0.00003964,-0.00016400,-0.
 00028669,0.00002749,-0.00007860,-0.00006442,-0.00017860,0.00236782,-0.
 00421266,0.00065135,-0.00064866,0.00170520,0.00023205,-0.00219243,-0.0
 0155050,-0.00034146,0.00024251,0.00036011,0.00004263,-0.00023589,-0.00
 000143,0.00001623,-0.00000584,0.00007205,0.00085859,-0.00096541,0.0002
 4431,-0.00161448,-0.00395882,0.00589912,0.00946638,-0.00311165,0.00032
 778,0.04665383,-0.00843005,0.07292971,0.00000118,0.00000418,-0.0000033
 6,-0.00000049,-0.00000002,0.00000088,-0.00000016,0.00000029,0.00000086
 ,0.00000326,0.00000096,-0.00000161,0.00000084,0.00000093,0.00000143,-0
 .00000180,-0.00000453,0.00000434,-0.00000011,0.00000020,-0.00000025,0.
 00000386,0.00000197,0.00000470,-0.00001999,-0.00007685,-0.00000834,-0.
 00015582,-0.00003045,0.00011121,-0.00001998,0.00000827,-0.00000454,-0.
 00004281,0.00004315,-0.00008404,0.00023386,0.00001107,0.00014067,0.000
 30719,0.00068558,-0.00020478,-0.00000149,0.00001913,0.00000091,-0.0565
 4674,0.01723976,0.00000720,0.00000928,0.00008812,0.00000890,-0.0000097
 2,-0.00005661,-0.00000863,0.00002083,-0.00006224,-0.00000943,-0.000040
 79,0.00007331,-0.00000098,0.00000839,-0.00000811,0.00001050,0.00004548
 ,0.00000310,0.00001156,-0.00003252,0.00007716,-0.00001450,0.00001387,-
 0.00008871,-0.00000230,-0.00003933,-0.00005646,0.00001058,0.00005657,0
 .00006701,0.00000011,-0.00001286,-0.00001252,-0.00003647,-0.00004717,-
 0.00010881,0.00001093,0.00006915,0.00020172,-0.00011595,-0.00009801,-0
 .00026340,0.00009479,-0.00007686,0.00039946,-0.00003937,0.00012357,-0.
 00011332,0.00010482,-0.00069458,-0.00022248,0.00006567,0.00009876,0.00
 016190,-0.00000013,-0.00003797,-0.00012485,0.00172540,0.00123336,-0.00
 460103,0.00021535,0.00068425,0.00150150,0.00004691,-0.00212946,0.00005
 162,0.00017837,0.00014481,-0.00021769,-0.00004634,-0.00012911,0.000183
 77,0.00000157,0.00004057,-0.00000828,-0.00037424,0.00046550,-0.0002726
 4,0.00325172,-0.00167877,-0.00163714,-0.02850765,0.00437651,-0.0229775
 0,-0.21985602,0.07290492,-0.27762320,0.00000490,-0.00000331,-0.0000159
 6,0.00000127,-0.00000099,0.00000458,0.00000014,0.00000056,0.00000243,0
 .00000618,0.00000116,-0.00000503,0.00001036,0.00000274,0.00001136,-0.0
 0000380,-0.00001310,0.00000670,0.00000299,0.00000303,0.00000042,0.0000
 0475,0.00001221,0.00001232,-0.00001012,-0.00000628,0.00000714,0.000055
 94,0.00007305,-0.00001855,-0.00001407,-0.00000472,0.00000797,0.0001191
 0,0.00007776,-0.00006311,0.00020771,0.00040542,0.00037582,0.00075238,-
 0.00009179,0.00329957,-0.00000989,-0.00003115,0.00001869,0.24213981,-0
 .07569327,0.30200196\\0.01296243,-0.00023164,-0.01274558,-0.01835870,-
 0.02218248,-0.00085279,0.00556556,-0.01716996,0.01083746,-0.00763811,0
 .00906775,0.02306798,0.00546166,-0.00238273,-0.03212378,0.00956587,-0.
 02469406,-0.00857375,0.00325483,0.01056340,0.00025287,0.00279216,0.004
 10188,0.01805606,-0.00663347,0.01839725,-0.00388263,0.00400698,0.01363
 739,0.00305097,0.00711882,-0.03317510,-0.00119973,0.02079377,0.0148589
 2,0.01917256,0.00052382,0.01192295,0.00891392,-0.05956070,0.00481709,0
 .00501082,0.01246571,0.00263122,-0.00808708,-0.00911444,0.00157667,-0.
 00292225,0.00486720,0.05043259,0.01871822,0.00149996,-0.02079417,0.031
 55747,-0.00055208,0.01360468,-0.02039291,-0.00899267,-0.00745643,-0.01
 124284,-0.00044040,-0.00065077,-0.01604564,-0.00071203,-0.01353309,0.0
 3069625,0.01316624,-0.01125047,-0.00868940,-0.00474923,-0.02108352,-0.
 00891249,-0.01183789,0.02743409,0.00800991,0.01510474,-0.01450238,0.01
 702479,-0.00319769,0.00695628,-0.00340774,0.01964946,0.00410249,-0.016
 57548,0.00275366,-0.00697534,0.01423370,-0.00163625,0.00536626,-0.0009
 3291,0.02345619,0.00032120,0.00228917,-0.02203013,-0.00145738,-0.00192
 209,-0.02057388,0.00395437,-0.00157901,0.02263115,0.00389337,0.0005444
 5,0.00166731,0.00679610,-0.01843255,-0.02136790,-0.00443438,-0.0012034
 2,0.01732593,0.00389862,-0.00663441,-0.00287766,-0.00879764,-0.0165450
 6,-0.02004776,-0.00217117,-0.00166942,0.01881087,0.00219359,-0.0000249
 5,-0.02078778,-0.00540960,-0.00077199,0.01845779,0.00389791,0.00254530
 ,-0.02033724,-0.00566339,-0.00350829,0.02030119,0.00432914,-0.00239812
 ,-0.00275731,-0.00473953,-0.00270562\\\@


 IF I AM NOT FOR MYSELF, WHO WILL BE?
 BUT IF I AM ONLY FOR MYSELF, WHAT AM I?
 THOUGH A SEEKER SINCE MY BIRTH,
 HERE IS ALL I'VE LEARNED ON EARTH,
 THIS IS THE GIST OF WHAT I KNOW:
 GIVE ADVICE AND BUY A FOE.

 PRESSED FOR RULES AND VERITIES,
 ALL I RECOLLECT ARE THESE:
 FEED A COLD TO STARVE A FEVER,
 ARGUE WITH NO TRUE-BELIEVER.
 THINK-TOO-LONG IS NEVER-ACT,
 SCRATCH A MYTH AND FIND A FACT.

 STITCH IN TIME SAVES TWENTY STITCHES,
 GIVE THE RICH TO PLEASE THEM, RICHES.
 GIVE TO LOVE YOU HEARTH AND HALL,
 BUT DO NOT GIVE ADVICE AT ALL.

                                  -- HILLEL
 Job cpu time:  1 days 22 hours 32 minutes 51.9 seconds.
 File lengths (MBytes):  RWF=   1852 Int=      0 D2E=      0 Chk=     30 Scr=      1
 Normal termination of Gaussian 09 at Sat Mar  5 08:17:38 2016.
Gaussian '09 finished on node031 at Sat Mar  5 08:17:38 EST 2016.
