Gaussian '09 started on node018 at Mon Feb  8 13:54:04 EST 2016.
 Entering Gaussian System, Link 0=/usr/local/gaussian/g09/g09
 Initial command:
 /usr/local/gaussian/g09/l1.exe /home/srmcgrat/thesis/gaussian/cellobiose/310/5000/1/2dfp/gaussian14978/Gau-15058.inp -scrdir=/home/srmcgrat/thesis/gaussian/cellobiose/310/5000/1/2dfp/gaussian14978/
 Entering Link 1 = /usr/local/gaussian/g09/l1.exe PID=     15060.
  
 Copyright (c) 1988,1990,1992,1993,1995,1998,2003,2009,2010,
            Gaussian, Inc.  All Rights Reserved.
  
 This is part of the Gaussian(R) 09 program.  It is based on
 the Gaussian(R) 03 system (copyright 2003, Gaussian, Inc.),
 the Gaussian(R) 98 system (copyright 1998, Gaussian, Inc.),
 the Gaussian(R) 94 system (copyright 1995, Gaussian, Inc.),
 the Gaussian 92(TM) system (copyright 1992, Gaussian, Inc.),
 the Gaussian 90(TM) system (copyright 1990, Gaussian, Inc.),
 the Gaussian 88(TM) system (copyright 1988, Gaussian, Inc.),
 the Gaussian 86(TM) system (copyright 1986, Carnegie Mellon
 University), and the Gaussian 82(TM) system (copyright 1983,
 Carnegie Mellon University). Gaussian is a federally registered
 trademark of Gaussian, Inc.
  
 This software contains proprietary and confidential information,
 including trade secrets, belonging to Gaussian, Inc.
  
 This software is provided under written license and may be
 used, copied, transmitted, or stored only in accord with that
 written license.
  
 The following legend is applicable only to US Government
 contracts under FAR:
  
                    RESTRICTED RIGHTS LEGEND
  
 Use, reproduction and disclosure by the US Government is
 subject to restrictions as set forth in subparagraphs (a)
 and (c) of the Commercial Computer Software - Restricted
 Rights clause in FAR 52.227-19.
  
 Gaussian, Inc.
 340 Quinnipiac St., Bldg. 40, Wallingford CT 06492
  
  
 ---------------------------------------------------------------
 Warning -- This program may not be used in any manner that
 competes with the business of Gaussian, Inc. or will provide
 assistance to any competitor of Gaussian, Inc.  The licensee
 of this program is prohibited from giving any competitor of
 Gaussian, Inc. access to this program.  By using this program,
 the user acknowledges that Gaussian, Inc. is engaged in the
 business of creating and licensing software in the field of
 computational chemistry and represents and warrants to the
 licensee that it is not a competitor of Gaussian, Inc. and that
 it will not use this program in any manner prohibited above.
 ---------------------------------------------------------------
  

 Cite this work as:
 Gaussian 09, Revision B.01,
 M. J. Frisch, G. W. Trucks, H. B. Schlegel, G. E. Scuseria, 
 M. A. Robb, J. R. Cheeseman, G. Scalmani, V. Barone, B. Mennucci, 
 G. A. Petersson, H. Nakatsuji, M. Caricato, X. Li, H. P. Hratchian, 
 A. F. Izmaylov, J. Bloino, G. Zheng, J. L. Sonnenberg, M. Hada, 
 M. Ehara, K. Toyota, R. Fukuda, J. Hasegawa, M. Ishida, T. Nakajima, 
 Y. Honda, O. Kitao, H. Nakai, T. Vreven, J. A. Montgomery, Jr., 
 J. E. Peralta, F. Ogliaro, M. Bearpark, J. J. Heyd, E. Brothers, 
 K. N. Kudin, V. N. Staroverov, T. Keith, R. Kobayashi, J. Normand, 
 K. Raghavachari, A. Rendell, J. C. Burant, S. S. Iyengar, J. Tomasi, 
 M. Cossi, N. Rega, J. M. Millam, M. Klene, J. E. Knox, J. B. Cross, 
 V. Bakken, C. Adamo, J. Jaramillo, R. Gomperts, R. E. Stratmann, 
 O. Yazyev, A. J. Austin, R. Cammi, C. Pomelli, J. W. Ochterski, 
 R. L. Martin, K. Morokuma, V. G. Zakrzewski, G. A. Voth, 
 P. Salvador, J. J. Dannenberg, S. Dapprich, A. D. Daniels, 
 O. Farkas, J. B. Foresman, J. V. Ortiz, J. Cioslowski, 
 and D. J. Fox, Gaussian, Inc., Wallingford CT, 2010.
 
 ******************************************
 Gaussian 09:  EM64L-G09RevB.01 12-Aug-2010
                 8-Feb-2016 
 ******************************************
 --------------------------------------------------
 # freq=raman b3lyp/6-31+g(2df,p) geom=connectivity
 --------------------------------------------------
 1/10=4,30=1,38=1,57=2/1,3;
 2/12=2,17=6,18=5,40=1/2;
 3/5=1,6=6,7=114,11=2,16=1,25=1,30=1,71=2,74=-5/1,2,3;
 4//1;
 5/5=2,38=5,98=1/2;
 8/6=4,10=90,11=11/1;
 10/13=10,15=4/2;
 11/6=3,8=1,9=11,15=111,16=1/1,2,10;
 10/6=1/2;
 6/7=2,8=2,9=2,10=2,18=1,28=1/1;
 7/8=1,10=1,25=1/1,2,3,16;
 1/10=4,30=1/3;
 99//99;
 ------------
 310 5000.com
 ------------
 Symbolic Z-matrix:
 Charge =  0 Multiplicity = 1
 O                     7.855     7.447     12.204 
 C                     8.36      7.827     13.492 
 C                     7.751     9.153     13.919 
 O                     7.938     10.145    12.898 
 H                     7.431     9.806     12.106 
 C                     8.27      9.56      15.288 
 O                     7.76      10.757    15.894 
 H                     8.21      10.865    16.781 
 C                     8.537     5.394     14.185 
 O                     8.157     4.678     13.002 
 H                     8.189     3.704     13.226 
 C                     8.031     6.781     14.544 
 O                     8.624     7.216     15.776 
 C                     8.152     8.455     16.325 
 O                     9.053     8.542     17.438 
 C                     8.577     8.199     18.747 
 C                     8.93      6.808     19.249 
 O                     8.398     5.888     18.285 
 H                     8.462     6.319     17.385 
 C                     8.437     6.346     20.611 
 O                     9.035     5.183     21.203 
 H                     8.549     5.052     22.067 
 C                     8.116     10.551    19.604 
 O                     8.526     11.261    18.425 
 H                     8.409     12.252    18.368 
 C                     8.804     9.219     19.852 
 O                     8.146     8.782     21.049 
 C                     8.637     7.528     21.545 
 O                     7.76      7.372     22.67 
 H                     8.58954   7.27209   11.61116 
 H                     8.28081   7.26123   23.4688 
 H                     9.65626   7.60843   21.86049 
 H                     7.38556   6.1643    20.5312 
 H                     9.99619   6.71821   19.23993 
 H                     7.5136    8.17279   18.63131 
 H                     9.84978   9.36127   20.02808 
 H                     8.29545   11.18052   20.45041 
 H                     7.06299   10.37367   19.53593 
 H                     7.14164   8.35607   16.66305 
 H                     9.3185    9.72769   15.15597 
 H                     6.69669   8.99881   14.01671 
 H                     9.42265   7.936     13.4304 
 H                     6.96904   6.7388    14.66795 
 H                     8.2842    4.76162   15.01028 
 H                     9.60452   5.46294   14.16171 
 

 GradGradGradGradGradGradGradGradGradGradGradGradGradGradGradGradGradGrad
 Berny optimization.
 Initialization pass.
 Trust Radius=3.00D-01 FncErr=1.00D-07 GrdErr=1.00D-07
 Number of steps in this run=      2 maximum allowed number of steps=      2.
 GradGradGradGradGradGradGradGradGradGradGradGradGradGradGradGradGradGrad

                          Input orientation:                          
 ---------------------------------------------------------------------
 Center     Atomic      Atomic             Coordinates (Angstroms)
 Number     Number       Type             X           Y           Z
 ---------------------------------------------------------------------
      1          8           0        7.855000    7.447000   12.204000
      2          6           0        8.360000    7.827000   13.492000
      3          6           0        7.751000    9.153000   13.919000
      4          8           0        7.938000   10.145000   12.898000
      5          1           0        7.431000    9.806000   12.106000
      6          6           0        8.270000    9.560000   15.288000
      7          8           0        7.760000   10.757000   15.894000
      8          1           0        8.210000   10.865000   16.781000
      9          6           0        8.537000    5.394000   14.185000
     10          8           0        8.157000    4.678000   13.002000
     11          1           0        8.189000    3.704000   13.226000
     12          6           0        8.031000    6.781000   14.544000
     13          8           0        8.624000    7.216000   15.776000
     14          6           0        8.152000    8.455000   16.325000
     15          8           0        9.053000    8.542000   17.438000
     16          6           0        8.577000    8.199000   18.747000
     17          6           0        8.930000    6.808000   19.249000
     18          8           0        8.398000    5.888000   18.285000
     19          1           0        8.462000    6.319000   17.385000
     20          6           0        8.437000    6.346000   20.611000
     21          8           0        9.035000    5.183000   21.203000
     22          1           0        8.549000    5.052000   22.067000
     23          6           0        8.116000   10.551000   19.604000
     24          8           0        8.526000   11.261000   18.425000
     25          1           0        8.409000   12.252000   18.368000
     26          6           0        8.804000    9.219000   19.852000
     27          8           0        8.146000    8.782000   21.049000
     28          6           0        8.637000    7.528000   21.545000
     29          8           0        7.760000    7.372000   22.670000
     30          1           0        8.589537    7.272093   11.611157
     31          1           0        8.280809    7.261232   23.468804
     32          1           0        9.656265    7.608429   21.860485
     33          1           0        7.385564    6.164303   20.531196
     34          1           0        9.996187    6.718212   19.239928
     35          1           0        7.513595    8.172791   18.631312
     36          1           0        9.849780    9.361270   20.028076
     37          1           0        8.295450   11.180517   20.450408
     38          1           0        7.062994   10.373670   19.535932
     39          1           0        7.141636    8.356072   16.663049
     40          1           0        9.318499    9.727689   15.155974
     41          1           0        6.696686    8.998810   14.016711
     42          1           0        9.422650    7.935999   13.430396
     43          1           0        6.969042    6.738797   14.667951
     44          1           0        8.284203    4.761624   15.010284
     45          1           0        9.604523    5.462936   14.161712
 ---------------------------------------------------------------------
                    Distance matrix (angstroms):
                    1          2          3          4          5
     1  O    0.000000
     2  C    1.434702   0.000000
     3  C    2.421255   1.520357   0.000000
     4  O    2.787065   2.429824   1.435783   0.000000
     5  H    2.398804   2.588528   1.953402   0.999617   0.000000
     6  C    3.761389   2.497400   1.519596   2.482851   3.299933
     7  O    4.957946   3.835949   2.544312   3.063045   3.919386
     8  H    5.723432   4.479896   3.366403   3.958544   4.856331
     9  C    2.933308   2.535955   3.849498   4.958545   5.001122
    10  O    2.897476   3.193354   4.585995   5.472373   5.256070
    11  H    3.894366   4.135109   5.510326   6.454229   6.250069
    12  C    2.439289   1.519559   2.468888   3.746260   3.931217
    13  O    3.661135   2.379007   2.821799   4.163234   4.647607
    14  C    4.252871   2.909216   2.537093   3.827039   4.488319
    15  O    5.479871   4.069692   3.801564   4.942108   5.714788
    16  C    6.625529   5.272618   4.990188   6.197261   6.928106
    17  C    7.155136   5.874207   5.941209   7.242571   7.890339
    18  O    6.301102   5.170495   5.490063   6.881382   7.380099
    19  H    5.337002   4.176113   4.533236   5.919968   6.410146
    20  C    8.498740   7.271826   7.289219   8.612303   9.236810
    21  O    9.354149   8.179602   8.394416   9.736420  10.329586
    22  H   10.173320   9.014820   9.156687  10.506309  11.093780
    23  C    8.028881   6.695988   5.865736   6.720637   7.565993
    24  O    7.327870   6.012853   5.034712   5.669121   6.576155
    25  H    7.835167   6.584710   5.461718   5.880662   6.793530
    26  C    7.907749   6.525672   6.026081   7.068631   7.888613
    27  O    8.949912   7.620110   7.150564   8.266791   9.029787
    28  C    9.374026   8.063308   7.847388   9.061341   9.784602
    29  O   10.466700   9.208839   8.930400  10.159390  10.845768
    30  H    0.960000   1.974380   3.093072   3.214663   2.829799
    31  H   11.274380   9.993147   9.749782  10.962460  11.675245
    32  H    9.824374   8.471105   8.311614   9.471683  10.243589
    33  H    8.438476   7.298244   7.265465   8.626518   9.178668
    34  H    7.390541   6.078256   6.267482   7.496603   8.185814
    35  H    6.477166   5.220010   4.819031   6.077878   6.727102
    36  H    8.298177   6.877043   6.462899   7.423417   8.295033
    37  H    9.062913   7.724615   6.860506   7.631444   8.500924
    38  H    7.934097   6.685571   5.789068   6.699258   7.460668
    39  H    4.606346   3.438006   2.921682   4.243826   4.790900
    40  H    4.007184   2.701879   2.077841   2.679248   3.587635
    41  H    2.652495   2.101208   1.070000   2.026358   2.200362
    42  H    2.049559   1.070000   2.124674   2.714280   3.036050
    43  H    2.712476   2.121747   2.645895   3.959018   4.023025
    44  H    3.907773   3.421617   4.556248   5.793301   5.882903
    45  H    3.290893   2.754297   4.136548   5.127962   5.273743
                    6          7          8          9         10
     6  C    0.000000
     7  O    1.435321   0.000000
     8  H    1.983853   1.000466   0.000000
     9  C    4.317807   5.682093   6.064486   0.000000
    10  O    5.391891   6.743554   7.250008   1.434066   0.000000
    11  H    6.208957   7.552951   7.994898   1.974053   0.999938
    12  C    2.886780   4.207674   4.659964   1.519436   2.610795
    13  O    2.420288   3.646793   3.807443   2.420441   3.788748
    14  C    1.519973   2.374580   2.453447   3.754670   5.030714
    15  O    2.504379   2.993662   2.557074   4.556113   5.950749
    16  C    3.729779   3.917967   3.332777   5.355508   6.751212
    17  C    4.868123   5.312205   4.802986   5.272375   6.645257
    18  O    4.741516   5.461784   5.202681   4.131992   5.425152
    19  H    3.865017   4.734103   4.592868   3.331854   4.690053
    20  C    6.220291   6.493484   5.928051   6.496905   7.794710
    21  O    7.398012   7.802601   7.247057   7.038810   8.263311
    22  H    8.145842   8.442480   7.864330   7.889425   9.081176
    23  C    4.430988   3.732730   2.841964   7.492493   8.836301
    24  O    3.577668   2.691976   1.720293   7.238744   8.537036
    25  H    4.092992   2.962584   2.117059   8.034055   9.285631
    26  C    4.607769   4.372773   3.534571   6.842281   8.243894
    27  O    5.814618   5.533864   4.749611   7.664589   9.033114
    28  C    6.588912   6.567296   5.832117   7.663782   9.018633
    29  O    7.716305   7.574457   6.861769   8.747082  10.044176
    30  H    4.342326   5.583498   6.307163   3.186638   2.975038
    31  H    8.497647   8.358785   7.597294   9.473184  10.781577
    32  H    6.994850   7.007729   6.204684   8.066568   9.450289
    33  H    6.309048   6.537328   6.069614   6.495643   7.713171
    34  H    5.164612   5.701542   5.141269   5.425409   6.815924
    35  H    3.697869   3.772497   3.340154   5.342165   6.657078
    36  H    5.000352   4.837957   3.936189   7.183603   8.611868
    37  H    5.410839   4.607269   3.683939   8.532143   9.888411
    38  H    4.490417   3.727791   3.024347   7.456693   8.736691
    39  H    2.147885   2.595817   2.729475   4.106293   5.287955
    40  H    1.070000   2.008253   2.272214   4.509367   5.611421
    41  H    2.099149   2.783178   3.662523   4.050892   4.672425
    42  H    2.723358   4.097780   4.612604   2.795632   3.521356
    43  H    3.167986   4.274899   4.799011   2.121371   2.904053
    44  H    4.806427   6.082786   6.355481   1.070000   2.014045
    45  H    4.453697   5.867726   6.163414   1.070000   2.014045
                   11         12         13         14         15
    11  H    0.000000
    12  C    3.351122   0.000000
    13  O    4.361865   1.434816   0.000000
    14  C    5.672492   2.447218   1.435028   0.000000
    15  O    6.472533   3.538480   2.169000   1.434622   0.000000
    16  C    7.130008   4.469234   3.129751   2.472295   1.434471
    17  C    6.816189   4.790194   3.510246   3.444948   2.510300
    18  O    5.514256   3.863576   2.847761   3.239075   2.861844
    19  H    4.920369   2.910410   1.849252   2.404620   2.300830
    20  C    7.847286   6.096109   4.916207   4.785280   3.907659
    21  O    8.156941   6.921264   5.809848   5.939744   5.045635
    22  H    8.950418   7.736491   6.653210   6.686448   5.819086
    23  C    9.357650   6.310604   5.102340   3.891832   3.099291
    24  O    9.178857   5.947906   4.836200   3.524700   2.940214
    25  H    9.977819   6.685634   5.667979   4.319387   3.878626
    26  C    8.642761   5.892049   4.545128   3.667224   2.519469
    27  O    9.326696   6.806780   5.521356   4.735308   3.730894
    28  C    9.166757   7.066771   5.777445   5.323810   4.250729
    29  O   10.140385   8.151969   6.949681   6.448688   5.514941
    30  H    3.936932   3.025674   4.165363   4.879654   5.981601
    31  H   10.843310   8.941206   7.700589   7.244005   6.213473
    32  H    9.589148   7.540363   6.183893   5.798370   4.560028
    33  H    7.750128   6.053381   5.025105   4.850443   4.242835
    34  H    6.965538   5.090937   3.758921   3.861899   2.731803
    35  H    7.045826   4.348668   3.209557   2.409622   1.982442
    36  H    9.001729   6.327783   4.917811   4.173314   2.830999
    37  H   10.397197   7.369623   6.138031   4.946515   4.075568
    38  H    9.250277   6.226050   5.152155   3.895807   3.422931
    39  H    5.878100   2.786071   2.069789   1.070000   2.070853
    40  H    6.425371   3.273399   2.678683   2.084965   2.585342
    41  H    5.557629   2.641421   3.160387   2.782420   4.179247
    42  H    4.412877   2.123870   2.580329   3.203537   4.069984
    43  H    3.574565   1.070000   2.048019   2.662809   3.907377
    44  H    2.076367   2.087921   2.593404   3.922625   4.558081
    45  H    2.443996   2.087921   2.576934   3.967630   4.529777
                   16         17         18         19         20
    16  C    0.000000
    17  C    1.520360   0.000000
    18  O    2.363516   1.434824   0.000000
    19  H    2.324364   1.983089   0.999928   0.000000
    20  C    2.632053   1.520374   2.370983   3.226210   0.000000
    21  O    3.916370   2.543573   3.068797   4.024419   1.435492
    22  H    4.574581   3.342128   3.876238   4.851184   1.951132
    23  C    2.545363   3.846904   4.854158   4.790981   4.335795
    24  O    3.079307   4.546581   5.376348   5.050649   5.379939
    25  H    4.074147   5.539381   6.364551   6.014116   6.317647
    26  C    1.520840   2.488455   3.703496   3.822702   2.994144
    27  O    2.413473   2.784121   4.009793   4.426186   2.492112
    28  C    2.877958   2.424018   3.657092   4.335655   1.519697
    29  O    4.091619   3.659267   4.673064   5.434412   2.398017
    30  H    7.195802   7.659500   6.818546   5.853367   9.048651
    31  H    4.823129   4.293439   5.363891   6.159002   3.004845
    32  H    3.347742   2.826305   4.162595   4.808208   2.154425
    33  H    2.956834   2.107998   2.479267   3.328843   1.070000
    34  H    2.109456   1.070000   2.038466   2.440053   2.109371
    35  H    1.070000   2.061648   2.474343   2.426789   2.847631
    36  H    2.147556   2.823498   4.148444   4.262299   3.380474
    37  H    3.445332   4.578748   5.719287   5.749679   4.839254
    38  H    2.764745   4.035102   4.844410   4.798341   4.389281
    39  H    2.535309   3.504556   3.209448   2.532635   4.615699
    40  H    3.972679   5.042656   5.037989   4.161888   6.478439
    41  H    5.152757   6.096243   5.548864   4.652213   7.317837
    42  H    5.389859   5.947373   5.367624   4.379090   7.420288
    43  H    4.621295   4.983589   3.981058   3.128500   6.134250
    44  H    5.085699   4.750939   3.464887   2.845401   5.822509
    45  H    5.437529   5.305156   4.317162   3.525308   6.613338
                   21         22         23         24         25
    21  O    0.000000
    22  H    0.999926   0.000000
    23  C    5.675983   6.040932   0.000000
    24  O    6.702123   7.198359   1.436050   0.000000
    25  H    7.641980   8.095814   2.122957   0.999509   0.000000
    26  C    4.262377   4.726007   1.519563   2.506667   3.399613
    27  O    3.710369   3.887368   2.284357   3.629768   4.392930
    28  C    2.402997   2.531957   3.630076   4.866417   5.697498
    29  O    2.927360   2.523595   4.430929   5.807848   6.537798
    30  H    9.826810  10.689018   8.652225   7.895813   8.395653
    31  H    3.165711   2.630150   5.078036   6.441911   7.137394
    32  H    2.588621   2.793566   4.015329   5.140169   5.942716
    33  H    2.033449   2.224746   4.542724   5.631427   6.541169
    34  H    2.671031   3.586496   4.284614   4.843809   5.822563
    35  H    4.226949   4.755559   2.639108   3.256465   4.184619
    36  H    4.416136   4.941564   2.145062   2.816242   3.631531
    37  H    6.089625   6.343215   1.070000   2.040076   2.344652
    38  H    5.797498   6.077392   1.070000   2.040076   2.589193
    39  H    5.853577   6.488471   3.796878   3.668724   4.437490
    40  H    7.569749   8.379527   4.680682   3.696705   4.185265
    41  H    8.465864   9.155082   5.970054   5.281752   5.696400
    42  H    8.254856   9.147221   6.830736   6.066769   6.635909
    43  H    7.028197   7.751612   6.341371   6.081929   6.794060
    44  H    6.252279   7.067650   7.392388   7.345791   8.209480
    45  H    7.069828   7.986024   7.597539   7.277114   8.075490
                   26         27         28         29         30
    26  C    0.000000
    27  O    1.434135   0.000000
    28  C    2.398670   1.435135   0.000000
    29  O    3.527388   2.182828   1.434953   0.000000
    30  H    8.470415   9.568146   9.937252  11.090361   0.000000
    31  H    4.145824   2.861182   1.974604   0.960000  11.861670
    32  H    2.711883   2.077661   1.070000   2.075339  10.310177
    33  H    3.435759   2.774657   2.110346   2.484596   9.068839
    34  H    2.837232   3.309858   2.795801   4.146489   7.777119
    35  H    2.061499   2.572214   3.188631   4.124679   7.159014
    36  H    1.070000   2.068987   2.670726   3.912051   8.763412
    37  H    2.112880   2.476596   3.828272   4.440506   9.669261
    38  H    2.112880   2.448610   3.822524   4.395250   8.645933
    39  H    3.698311   4.519593   5.172549   6.118352   5.365915
    40  H    4.751435   6.082503   6.791372   8.027377   4.373449
    41  H    6.208047   7.183356   7.912220   8.868853   3.514417
    42  H    6.577676   7.771016   8.162752   9.404934   2.108192
    43  H    6.032648   6.802771   7.120304   8.065938   3.500628
    44  H    6.601561   7.255937   7.104915   8.109260   4.236714
    45  H    6.865001   7.783201   7.727454   8.912787   3.287639
                   31         32         33         34         35
    31  H    0.000000
    32  H    2.144554   0.000000
    33  H    3.261021   3.001431   0.000000
    34  H    4.595736   2.788432   2.964716   0.000000
    35  H    4.982056   3.916260   2.767665   2.940999   0.000000
    36  H    4.325557   2.543153   4.067689   2.761950   2.970049
    37  H    4.946890   4.074303   5.098708   4.926453   3.600947
    38  H    5.161185   4.446927   4.337439   4.696128   2.421828
    39  H    6.986751   5.821999   4.452630   4.179875   2.011468
    40  H    8.732890   7.039590   6.732531   5.118095   4.213474
    41  H    9.740158   8.498062   7.137751   6.585577   4.758591
    42  H   10.125649   8.439686   7.596709   5.963440   5.545277
    43  H    8.913400   7.727223   5.906029   5.483339   4.249836
    44  H    8.820126   7.544012   5.766761   4.964778   5.034058
    45  H    9.571210   7.992305   6.781300   5.245703   5.629620
                   36         37         38         39         40
    36  H    0.000000
    37  H    2.429808   0.000000
    38  H    3.005551   1.733844   0.000000
    39  H    4.434847   4.863420   3.511458   0.000000
    40  H    4.914662   5.584655   4.968765   2.981835   0.000000
    41  H    6.797785   6.979136   5.699668   2.759383   2.950099
    42  H    6.763374   7.815245   6.984825   3.978635   2.489703
    43  H    6.626233   7.411143   6.076048   2.574060   3.832961
    44  H    6.984699   8.414111   7.312175   4.117907   5.074722
    45  H    7.047793   8.599541   7.710832   4.548928   4.388450
                   41         42         43         44         45
    41  H    0.000000
    42  H    2.983993   0.000000
    43  H    2.367688   2.997503   0.000000
    44  H    4.632617   3.724079   2.399178   0.000000
    45  H    4.580278   2.585332   2.971508   1.719058   0.000000
 Stoichiometry    C12H22O11
 Framework group  C1[X(C12H22O11)]
 Deg. of freedom   129
 Full point group                 C1      NOp   1
 Largest Abelian subgroup         C1      NOp   1
 Largest concise Abelian subgroup C1      NOp   1
                         Standard orientation:                         
 ---------------------------------------------------------------------
 Center     Atomic      Atomic             Coordinates (Angstroms)
 Number     Number       Type             X           Y           Z
 ---------------------------------------------------------------------
      1          8           0        5.029502   -0.482819   -0.275921
      2          6           0        3.718834   -0.133863    0.191782
      3          6           0        3.319669    1.229972   -0.348689
      4          8           0        4.329813    2.205475   -0.049562
      5          1           0        5.145085    1.898615   -0.539871
      6          6           0        1.927407    1.605129    0.130929
      7          8           0        1.344910    2.834156   -0.327694
      8          1           0        0.437640    2.914432    0.086251
      9          6           0        3.020586   -2.571750    0.176761
     10          8           0        4.220815   -3.263926   -0.193222
     11          1           0        3.996481   -4.237459   -0.235459
     12          6           0        2.684449   -1.153914   -0.253867
     13          8           0        1.425530   -0.755940    0.307773
     14          6           0        0.898145    0.512396   -0.107553
     15          8           0       -0.256049    0.542753    0.743947
     16          6           0       -1.540908    0.234343    0.185621
     17          6           0       -2.057625   -1.175665    0.423055
     18          8           0       -1.068818   -2.061017   -0.122044
     19          1           0       -0.173228   -1.637028    0.012159
     20          6           0       -3.394513   -1.601598   -0.162476
     21          8           0       -4.012860   -2.799897    0.329828
     22          1           0       -4.852942   -2.897052   -0.203723
     23          6           0       -2.377524    2.613238   -0.160509
     24          8           0       -1.219768    3.292449    0.349896
     25          1           0       -1.158271    4.288850    0.300677
     26          6           0       -2.656321    1.239694    0.426619
     27          8           0       -3.820661    0.849129   -0.313997
     28          6           0       -4.338000   -0.433194    0.070219
     29          8           0       -5.420394   -0.529215   -0.866954
     30          1           0        5.587336   -0.706567    0.472650
     31          1           0       -6.242686   -0.672050   -0.392576
     32          1           0       -4.701112   -0.418810    1.076619
     33          1           0       -3.265214   -1.714433   -1.218625
     34          1           0       -2.098583   -1.334887    1.480349
     35          1           0       -1.375349    0.277369   -0.870617
     36          1           0       -2.881483    1.313760    1.470034
     37          1           0       -3.232026    3.231494    0.019731
     38          1           0       -2.259878    2.504889   -1.218488
     39          1           0        0.608045    0.480360   -1.136978
     40          1           0        2.009854    1.703727    1.193181
     41          1           0        3.271759    1.145150   -1.414245
     42          1           0        3.730328   -0.094604    1.261000
     43          1           0        2.610581   -1.126433   -1.320960
     44          1           0        2.208694   -3.184518   -0.155272
     45          1           0        2.993616   -2.572705    1.246421
 ---------------------------------------------------------------------
 Rotational constants (GHZ):      0.4066754      0.1439051      0.1090535
 Standard basis: 6-31+G(2df,p) (6D, 7F)
 There are   846 symmetry adapted basis functions of A   symmetry.
 Integral buffers will be    131072 words long.
 Raffenetti 2 integral format.
 Two-electron integral symmetry is turned on.
   846 basis functions,  1258 primitive gaussians,   915 cartesian basis functions
    91 alpha electrons       91 beta electrons
       nuclear repulsion energy      2281.3483777886 Hartrees.
 NAtoms=   45 NActive=   45 NUniq=   45 SFac= 1.00D+00 NAtFMM=   50 NAOKFM=F Big=F
 One-electron integrals computed using PRISM.
 NBasis=   846 RedAO= T  NBF=   846
 NBsUse=   846 1.00D-06 NBFU=   846
 Harris functional with IExCor=  402 diagonalized for initial guess.
 ExpMin= 4.38D-02 ExpMax= 5.48D+03 ExpMxC= 8.25D+02 IAcc=2 IRadAn=         0 AccDes= 0.00D+00
 HarFok:  IExCor=  402 AccDes= 0.00D+00 IRadAn=         0 IDoV= 1
 ScaDFX=  1.000000  1.000000  1.000000  1.000000
 FoFCou: FMM=F IPFlag=           0 FMFlag=      100000 FMFlg1=           0
         NFxFlg=           0 DoJE=T BraDBF=F KetDBF=T FulRan=T
         Omega=  0.000000  0.000000  1.000000  0.000000  0.000000 ICntrl=     500 IOpCl=  0
         NMat0=    1 NMatS0=    1 NMatT0=    0 NMatD0=    1 NMtDS0=    0 NMtDT0=    0
         I1Cent=           4 NGrid=           0.
 Petite list used in FoFCou.
 Initial guess orbital symmetries:
       Occupied  (A) (A) (A) (A) (A) (A) (A) (A) (A) (A) (A) (A)
                 (A) (A) (A) (A) (A) (A) (A) (A) (A) (A) (A) (A)
                 (A) (A) (A) (A) (A) (A) (A) (A) (A) (A) (A) (A)
                 (A) (A) (A) (A) (A) (A) (A) (A) (A) (A) (A) (A)
                 (A) (A) (A) (A) (A) (A) (A) (A) (A) (A) (A) (A)
                 (A) (A) (A) (A) (A) (A) (A) (A) (A) (A) (A) (A)
                 (A) (A) (A) (A) (A) (A) (A) (A) (A) (A) (A) (A)
                 (A) (A) (A) (A) (A) (A) (A)
       Virtual   (A) (A) (A) (A) (A) (A) (A) (A) (A) (A) (A) (A)
                 (A) (A) (A) (A) (A) (A) (A) (A) (A) (A) (A) (A)
                 (A) (A) (A) (A) (A) (A) (A) (A) (A) (A) (A) (A)
                 (A) (A) (A) (A) (A) (A) (A) (A) (A) (A) (A) (A)
                 (A) (A) (A) (A) (A) (A) (A) (A) (A) (A) (A) (A)
                 (A) (A) (A) (A) (A) (A) (A) (A) (A) (A) (A) (A)
                 (A) (A) (A) (A) (A) (A) (A) (A) (A) (A) (A) (A)
                 (A) (A) (A) (A) (A) (A) (A) (A) (A) (A) (A) (A)
                 (A) (A) (A) (A) (A) (A) (A) (A) (A) (A) (A) (A)
                 (A) (A) (A) (A) (A) (A) (A) (A) (A) (A) (A) (A)
                 (A) (A) (A) (A) (A) (A) (A) (A) (A) (A) (A) (A)
                 (A) (A) (A) (A) (A) (A) (A) (A) (A) (A) (A) (A)
                 (A) (A) (A) (A) (A) (A) (A) (A) (A) (A) (A) (A)
                 (A) (A) (A) (A) (A) (A) (A) (A) (A) (A) (A) (A)
                 (A) (A) (A) (A) (A) (A) (A) (A) (A) (A) (A) (A)
                 (A) (A) (A) (A) (A) (A) (A) (A) (A) (A) (A) (A)
                 (A) (A) (A) (A) (A) (A) (A) (A) (A) (A) (A) (A)
                 (A) (A) (A) (A) (A) (A) (A) (A) (A) (A) (A) (A)
                 (A) (A) (A) (A) (A) (A) (A) (A) (A) (A) (A) (A)
                 (A) (A) (A) (A) (A) (A) (A) (A) (A) (A) (A) (A)
                 (A) (A) (A) (A) (A) (A) (A) (A) (A) (A) (A) (A)
                 (A) (A) (A) (A) (A) (A) (A) (A) (A) (A) (A) (A)
                 (A) (A) (A) (A) (A) (A) (A) (A) (A) (A) (A) (A)
                 (A) (A) (A) (A) (A) (A) (A) (A) (A) (A) (A) (A)
                 (A) (A) (A) (A) (A) (A) (A) (A) (A) (A) (A) (A)
                 (A) (A) (A) (A) (A) (A) (A) (A) (A) (A) (A) (A)
                 (A) (A) (A) (A) (A) (A) (A) (A) (A) (A) (A) (A)
                 (A) (A) (A) (A) (A) (A) (A) (A) (A) (A) (A) (A)
                 (A) (A) (A) (A) (A) (A) (A) (A) (A) (A) (A) (A)
                 (A) (A) (A) (A) (A) (A) (A) (A) (A) (A) (A) (A)
                 (A) (A) (A) (A) (A) (A) (A) (A) (A) (A) (A) (A)
                 (A) (A) (A) (A) (A) (A) (A) (A) (A) (A) (A) (A)
                 (A) (A) (A) (A) (A) (A) (A) (A) (A) (A) (A) (A)
                 (A) (A) (A) (A) (A) (A) (A) (A) (A) (A) (A) (A)
                 (A) (A) (A) (A) (A) (A) (A) (A) (A) (A) (A) (A)
                 (A) (A) (A) (A) (A) (A) (A) (A) (A) (A) (A) (A)
                 (A) (A) (A) (A) (A) (A) (A) (A) (A) (A) (A) (A)
                 (A) (A) (A) (A) (A) (A) (A) (A) (A) (A) (A) (A)
                 (A) (A) (A) (A) (A) (A) (A) (A) (A) (A) (A) (A)
                 (A) (A) (A) (A) (A) (A) (A) (A) (A) (A) (A) (A)
                 (A) (A) (A) (A) (A) (A) (A) (A) (A) (A) (A) (A)
                 (A) (A) (A) (A) (A) (A) (A) (A) (A) (A) (A) (A)
                 (A) (A) (A) (A) (A) (A) (A) (A) (A) (A) (A) (A)
                 (A) (A) (A) (A) (A) (A) (A) (A) (A) (A) (A) (A)
                 (A) (A) (A) (A) (A) (A) (A) (A) (A) (A) (A) (A)
                 (A) (A) (A) (A) (A) (A) (A) (A) (A) (A) (A) (A)
                 (A) (A) (A) (A) (A) (A) (A) (A) (A) (A) (A) (A)
                 (A) (A) (A) (A) (A) (A) (A) (A) (A) (A) (A) (A)
                 (A) (A) (A) (A) (A) (A) (A) (A) (A) (A) (A) (A)
                 (A) (A) (A) (A) (A) (A) (A) (A) (A) (A) (A) (A)
                 (A) (A) (A) (A) (A) (A) (A) (A) (A) (A) (A) (A)
                 (A) (A) (A) (A) (A) (A) (A) (A) (A) (A) (A) (A)
                 (A) (A) (A) (A) (A) (A) (A) (A) (A) (A) (A) (A)
                 (A) (A) (A) (A) (A) (A) (A) (A) (A) (A) (A) (A)
                 (A) (A) (A) (A) (A) (A) (A) (A) (A) (A) (A) (A)
                 (A) (A) (A) (A) (A) (A) (A) (A) (A) (A) (A) (A)
                 (A) (A) (A) (A) (A) (A) (A) (A) (A) (A) (A) (A)
                 (A) (A) (A) (A) (A) (A) (A) (A) (A) (A) (A) (A)
                 (A) (A) (A) (A) (A) (A) (A) (A) (A) (A) (A) (A)
                 (A) (A) (A) (A) (A) (A) (A) (A) (A) (A) (A) (A)
                 (A) (A) (A) (A) (A) (A) (A) (A) (A) (A) (A) (A)
                 (A) (A) (A) (A) (A) (A) (A) (A) (A) (A) (A) (A)
                 (A) (A) (A) (A) (A) (A) (A) (A) (A) (A) (A)
 The electronic state of the initial guess is 1-A.
 Requested convergence on RMS density matrix=1.00D-08 within 128 cycles.
 Requested convergence on MAX density matrix=1.00D-06.
 Requested convergence on             energy=1.00D-06.
 No special actions if energy rises.
 SCF Done:  E(RB3LYP) =  -1298.00251454     A.U. after   13 cycles
             Convg  =    0.3337D-08             -V/T =  2.0066
 Range of M.O.s used for correlation:     1   846
 NBasis=   846 NAE=    91 NBE=    91 NFC=     0 NFV=     0
 NROrb=    846 NOA=    91 NOB=    91 NVA=   755 NVB=   755

 **** Warning!!: The largest alpha MO coefficient is  0.69469174D+02

          Differentiating once with respect to electric field.
                with respect to dipole field.
          Electric field/nuclear overlap derivatives assumed to be zero.
          There are     3 degrees of freedom in the 1st order CPHF.  IDoFFX=0.
      3 vectors produced by pass  0 Test12= 2.29D-12 3.33D-08 XBig12= 1.24D+02 1.29D+00.
 AX will form     3 AO Fock derivatives at one time.
      3 vectors produced by pass  1 Test12= 2.29D-12 3.33D-08 XBig12= 2.50D+01 3.53D-01.
      3 vectors produced by pass  2 Test12= 2.29D-12 3.33D-08 XBig12= 1.07D+01 2.17D-01.
      3 vectors produced by pass  3 Test12= 2.29D-12 3.33D-08 XBig12= 1.10D+00 8.25D-02.
      3 vectors produced by pass  4 Test12= 2.29D-12 3.33D-08 XBig12= 2.90D-01 3.64D-02.
      3 vectors produced by pass  5 Test12= 2.29D-12 3.33D-08 XBig12= 6.19D-02 1.94D-02.
      3 vectors produced by pass  6 Test12= 2.29D-12 3.33D-08 XBig12= 1.91D-02 1.48D-02.
      3 vectors produced by pass  7 Test12= 2.29D-12 3.33D-08 XBig12= 3.16D-03 9.32D-03.
      3 vectors produced by pass  8 Test12= 2.29D-12 3.33D-08 XBig12= 5.25D-04 2.89D-03.
      3 vectors produced by pass  9 Test12= 2.29D-12 3.33D-08 XBig12= 1.56D-04 1.40D-03.
      3 vectors produced by pass 10 Test12= 2.29D-12 3.33D-08 XBig12= 4.01D-05 6.02D-04.
      3 vectors produced by pass 11 Test12= 2.29D-12 3.33D-08 XBig12= 1.08D-05 3.41D-04.
      3 vectors produced by pass 12 Test12= 2.29D-12 3.33D-08 XBig12= 1.40D-06 1.30D-04.
      3 vectors produced by pass 13 Test12= 2.29D-12 3.33D-08 XBig12= 4.71D-07 4.08D-05.
      3 vectors produced by pass 14 Test12= 2.29D-12 3.33D-08 XBig12= 8.15D-08 1.89D-05.
      3 vectors produced by pass 15 Test12= 2.29D-12 3.33D-08 XBig12= 1.88D-08 9.89D-06.
      3 vectors produced by pass 16 Test12= 2.29D-12 3.33D-08 XBig12= 3.10D-09 3.47D-06.
      3 vectors produced by pass 17 Test12= 2.29D-12 3.33D-08 XBig12= 1.89D-10 7.39D-07.
      3 vectors produced by pass 18 Test12= 2.29D-12 3.33D-08 XBig12= 2.93D-11 3.26D-07.
      3 vectors produced by pass 19 Test12= 2.29D-12 3.33D-08 XBig12= 1.62D-11 2.48D-07.
      3 vectors produced by pass 20 Test12= 2.29D-12 3.33D-08 XBig12= 6.87D-12 1.75D-07.
      2 vectors produced by pass 21 Test12= 2.29D-12 3.33D-08 XBig12= 1.87D-12 7.37D-08.
      1 vectors produced by pass 22 Test12= 2.29D-12 3.33D-08 XBig12= 6.03D-13 6.24D-08.
 Inverted reduced A of dimension    66 with in-core refinement.
 End of Minotr Frequency-dependent properties file   721 does not exist.
 End of Minotr Frequency-dependent properties file   722 does not exist.
 Symmetrizing basis deriv contribution to polar:
 IMax=3 JMax=2 DiffMx= 0.00D+00
 G2DrvN: will do     8 centers at a time, making    6 passes doing MaxLOS=3.
 Calling FoFCou, ICntrl=  3107 FMM=F I1Cent=   0 AccDes= 0.00D+00.
 Calling FoFCou, ICntrl=  3107 FMM=F I1Cent=   0 AccDes= 0.00D+00.
 Calling FoFCou, ICntrl=  3107 FMM=F I1Cent=   0 AccDes= 0.00D+00.
 Calling FoFCou, ICntrl=  3107 FMM=F I1Cent=   0 AccDes= 0.00D+00.
 Calling FoFCou, ICntrl=  3107 FMM=F I1Cent=   0 AccDes= 0.00D+00.
 Calling FoFCou, ICntrl=  3107 FMM=F I1Cent=   0 AccDes= 0.00D+00.
 FoFDir/FoFCou used for L=0 through L=3.
 End of G2Drv Frequency-dependent properties file   721 does not exist.
 End of G2Drv Frequency-dependent properties file   722 does not exist.
          IDoAtm=111111111111111111111111111111111111111111111
          Differentiating once with respect to electric field.
                with respect to dipole field.
          Differentiating once with respect to nuclear coordinates.
          There are   138 degrees of freedom in the 1st order CPHF.  IDoFFX=5.
 Will reuse    3 saved solutions.
    135 vectors produced by pass  0 Test12= 6.87D-14 1.00D-09 XBig12= 1.63D-01 1.08D-01.
 AX will form    27 AO Fock derivatives at one time.
    135 vectors produced by pass  1 Test12= 6.87D-14 1.00D-09 XBig12= 2.19D-02 1.30D-02.
    132 vectors produced by pass  2 Test12= 6.87D-14 1.00D-09 XBig12= 1.45D-04 1.25D-03.
    132 vectors produced by pass  3 Test12= 6.87D-14 1.00D-09 XBig12= 8.36D-07 6.89D-05.
    132 vectors produced by pass  4 Test12= 6.87D-14 1.00D-09 XBig12= 2.12D-09 3.16D-06.
    132 vectors produced by pass  5 Test12= 6.87D-14 1.00D-09 XBig12= 5.32D-12 1.30D-07.
     92 vectors produced by pass  6 Test12= 6.87D-14 1.00D-09 XBig12= 1.76D-13 2.25D-08.
 Inverted reduced A of dimension   890 with in-core refinement.
 Isotropic polarizability for W=    0.000000      192.64 Bohr**3.
 End of Minotr Frequency-dependent properties file   721 does not exist.
 End of Minotr Frequency-dependent properties file   722 does not exist.

 **********************************************************************

            Population analysis using the SCF density.

 **********************************************************************

 Orbital symmetries:
       Occupied  (A) (A) (A) (A) (A) (A) (A) (A) (A) (A) (A) (A)
                 (A) (A) (A) (A) (A) (A) (A) (A) (A) (A) (A) (A)
                 (A) (A) (A) (A) (A) (A) (A) (A) (A) (A) (A) (A)
                 (A) (A) (A) (A) (A) (A) (A) (A) (A) (A) (A) (A)
                 (A) (A) (A) (A) (A) (A) (A) (A) (A) (A) (A) (A)
                 (A) (A) (A) (A) (A) (A) (A) (A) (A) (A) (A) (A)
                 (A) (A) (A) (A) (A) (A) (A) (A) (A) (A) (A) (A)
                 (A) (A) (A) (A) (A) (A) (A)
       Virtual   (A) (A) (A) (A) (A) (A) (A) (A) (A) (A) (A) (A)
                 (A) (A) (A) (A) (A) (A) (A) (A) (A) (A) (A) (A)
                 (A) (A) (A) (A) (A) (A) (A) (A) (A) (A) (A) (A)
                 (A) (A) (A) (A) (A) (A) (A) (A) (A) (A) (A) (A)
                 (A) (A) (A) (A) (A) (A) (A) (A) (A) (A) (A) (A)
                 (A) (A) (A) (A) (A) (A) (A) (A) (A) (A) (A) (A)
                 (A) (A) (A) (A) (A) (A) (A) (A) (A) (A) (A) (A)
                 (A) (A) (A) (A) (A) (A) (A) (A) (A) (A) (A) (A)
                 (A) (A) (A) (A) (A) (A) (A) (A) (A) (A) (A) (A)
                 (A) (A) (A) (A) (A) (A) (A) (A) (A) (A) (A) (A)
                 (A) (A) (A) (A) (A) (A) (A) (A) (A) (A) (A) (A)
                 (A) (A) (A) (A) (A) (A) (A) (A) (A) (A) (A) (A)
                 (A) (A) (A) (A) (A) (A) (A) (A) (A) (A) (A) (A)
                 (A) (A) (A) (A) (A) (A) (A) (A) (A) (A) (A) (A)
                 (A) (A) (A) (A) (A) (A) (A) (A) (A) (A) (A) (A)
                 (A) (A) (A) (A) (A) (A) (A) (A) (A) (A) (A) (A)
                 (A) (A) (A) (A) (A) (A) (A) (A) (A) (A) (A) (A)
                 (A) (A) (A) (A) (A) (A) (A) (A) (A) (A) (A) (A)
                 (A) (A) (A) (A) (A) (A) (A) (A) (A) (A) (A) (A)
                 (A) (A) (A) (A) (A) (A) (A) (A) (A) (A) (A) (A)
                 (A) (A) (A) (A) (A) (A) (A) (A) (A) (A) (A) (A)
                 (A) (A) (A) (A) (A) (A) (A) (A) (A) (A) (A) (A)
                 (A) (A) (A) (A) (A) (A) (A) (A) (A) (A) (A) (A)
                 (A) (A) (A) (A) (A) (A) (A) (A) (A) (A) (A) (A)
                 (A) (A) (A) (A) (A) (A) (A) (A) (A) (A) (A) (A)
                 (A) (A) (A) (A) (A) (A) (A) (A) (A) (A) (A) (A)
                 (A) (A) (A) (A) (A) (A) (A) (A) (A) (A) (A) (A)
                 (A) (A) (A) (A) (A) (A) (A) (A) (A) (A) (A) (A)
                 (A) (A) (A) (A) (A) (A) (A) (A) (A) (A) (A) (A)
                 (A) (A) (A) (A) (A) (A) (A) (A) (A) (A) (A) (A)
                 (A) (A) (A) (A) (A) (A) (A) (A) (A) (A) (A) (A)
                 (A) (A) (A) (A) (A) (A) (A) (A) (A) (A) (A) (A)
                 (A) (A) (A) (A) (A) (A) (A) (A) (A) (A) (A) (A)
                 (A) (A) (A) (A) (A) (A) (A) (A) (A) (A) (A) (A)
                 (A) (A) (A) (A) (A) (A) (A) (A) (A) (A) (A) (A)
                 (A) (A) (A) (A) (A) (A) (A) (A) (A) (A) (A) (A)
                 (A) (A) (A) (A) (A) (A) (A) (A) (A) (A) (A) (A)
                 (A) (A) (A) (A) (A) (A) (A) (A) (A) (A) (A) (A)
                 (A) (A) (A) (A) (A) (A) (A) (A) (A) (A) (A) (A)
                 (A) (A) (A) (A) (A) (A) (A) (A) (A) (A) (A) (A)
                 (A) (A) (A) (A) (A) (A) (A) (A) (A) (A) (A) (A)
                 (A) (A) (A) (A) (A) (A) (A) (A) (A) (A) (A) (A)
                 (A) (A) (A) (A) (A) (A) (A) (A) (A) (A) (A) (A)
                 (A) (A) (A) (A) (A) (A) (A) (A) (A) (A) (A) (A)
                 (A) (A) (A) (A) (A) (A) (A) (A) (A) (A) (A) (A)
                 (A) (A) (A) (A) (A) (A) (A) (A) (A) (A) (A) (A)
                 (A) (A) (A) (A) (A) (A) (A) (A) (A) (A) (A) (A)
                 (A) (A) (A) (A) (A) (A) (A) (A) (A) (A) (A) (A)
                 (A) (A) (A) (A) (A) (A) (A) (A) (A) (A) (A) (A)
                 (A) (A) (A) (A) (A) (A) (A) (A) (A) (A) (A) (A)
                 (A) (A) (A) (A) (A) (A) (A) (A) (A) (A) (A) (A)
                 (A) (A) (A) (A) (A) (A) (A) (A) (A) (A) (A) (A)
                 (A) (A) (A) (A) (A) (A) (A) (A) (A) (A) (A) (A)
                 (A) (A) (A) (A) (A) (A) (A) (A) (A) (A) (A) (A)
                 (A) (A) (A) (A) (A) (A) (A) (A) (A) (A) (A) (A)
                 (A) (A) (A) (A) (A) (A) (A) (A) (A) (A) (A) (A)
                 (A) (A) (A) (A) (A) (A) (A) (A) (A) (A) (A) (A)
                 (A) (A) (A) (A) (A) (A) (A) (A) (A) (A) (A) (A)
                 (A) (A) (A) (A) (A) (A) (A) (A) (A) (A) (A) (A)
                 (A) (A) (A) (A) (A) (A) (A) (A) (A) (A) (A) (A)
                 (A) (A) (A) (A) (A) (A) (A) (A) (A) (A) (A) (A)
                 (A) (A) (A) (A) (A) (A) (A) (A) (A) (A) (A) (A)
                 (A) (A) (A) (A) (A) (A) (A) (A) (A) (A) (A)
 The electronic state is 1-A.
 Alpha  occ. eigenvalues --  -19.18476 -19.18294 -19.18291 -19.18134 -19.17623
 Alpha  occ. eigenvalues --  -19.16994 -19.16492 -19.16341 -19.15366 -19.13641
 Alpha  occ. eigenvalues --  -19.13583 -10.31037 -10.30275 -10.26105 -10.25904
 Alpha  occ. eigenvalues --  -10.25457 -10.25370 -10.24992 -10.24724 -10.24651
 Alpha  occ. eigenvalues --  -10.24605 -10.24531 -10.24022  -1.10303  -1.09344
 Alpha  occ. eigenvalues --   -1.05085  -1.04756  -1.03778  -1.03621  -1.02716
 Alpha  occ. eigenvalues --   -1.02453  -1.01835  -1.00848  -1.00309  -0.82014
 Alpha  occ. eigenvalues --   -0.80334  -0.79571  -0.78507  -0.72194  -0.70008
 Alpha  occ. eigenvalues --   -0.67271  -0.65146  -0.63605  -0.62543  -0.61327
 Alpha  occ. eigenvalues --   -0.60173  -0.56579  -0.55742  -0.55106  -0.54888
 Alpha  occ. eigenvalues --   -0.53747  -0.53491  -0.52741  -0.52146  -0.51407
 Alpha  occ. eigenvalues --   -0.50780  -0.50156  -0.49303  -0.48552  -0.46399
 Alpha  occ. eigenvalues --   -0.46309  -0.45249  -0.44296  -0.43775  -0.43155
 Alpha  occ. eigenvalues --   -0.42641  -0.42076  -0.41695  -0.40016  -0.39363
 Alpha  occ. eigenvalues --   -0.38813  -0.38150  -0.37038  -0.35885  -0.35614
 Alpha  occ. eigenvalues --   -0.35370  -0.35016  -0.34096  -0.33813  -0.33371
 Alpha  occ. eigenvalues --   -0.32594  -0.31436  -0.31287  -0.30734  -0.30108
 Alpha  occ. eigenvalues --   -0.29322  -0.28896  -0.28720  -0.27488  -0.26846
 Alpha  occ. eigenvalues --   -0.26283
 Alpha virt. eigenvalues --   -0.01850  -0.01715  -0.01634  -0.00054   0.00289
 Alpha virt. eigenvalues --    0.00942   0.02028   0.02124   0.02825   0.03260
 Alpha virt. eigenvalues --    0.03681   0.04092   0.04403   0.05288   0.05589
 Alpha virt. eigenvalues --    0.06084   0.06612   0.07094   0.07726   0.07996
 Alpha virt. eigenvalues --    0.08455   0.08580   0.08916   0.09474   0.09996
 Alpha virt. eigenvalues --    0.10516   0.10988   0.11101   0.11847   0.12005
 Alpha virt. eigenvalues --    0.12483   0.12707   0.12943   0.13170   0.13511
 Alpha virt. eigenvalues --    0.13863   0.14127   0.14286   0.14643   0.15046
 Alpha virt. eigenvalues --    0.15747   0.16134   0.16454   0.16740   0.17137
 Alpha virt. eigenvalues --    0.17223   0.17476   0.17853   0.17965   0.18254
 Alpha virt. eigenvalues --    0.18848   0.19096   0.19354   0.19681   0.19947
 Alpha virt. eigenvalues --    0.20239   0.20563   0.21254   0.21481   0.21809
 Alpha virt. eigenvalues --    0.22150   0.22470   0.22799   0.22974   0.23101
 Alpha virt. eigenvalues --    0.23710   0.24079   0.24216   0.24340   0.24489
 Alpha virt. eigenvalues --    0.24871   0.25233   0.25465   0.25727   0.26255
 Alpha virt. eigenvalues --    0.26402   0.26531   0.26764   0.27080   0.27157
 Alpha virt. eigenvalues --    0.27556   0.27646   0.28173   0.28202   0.28424
 Alpha virt. eigenvalues --    0.28879   0.29263   0.29434   0.29805   0.30732
 Alpha virt. eigenvalues --    0.30979   0.31137   0.31624   0.31876   0.32307
 Alpha virt. eigenvalues --    0.32623   0.33053   0.33165   0.33309   0.33744
 Alpha virt. eigenvalues --    0.34085   0.34380   0.34647   0.35229   0.35383
 Alpha virt. eigenvalues --    0.35716   0.36289   0.36675   0.37159   0.37431
 Alpha virt. eigenvalues --    0.37740   0.37871   0.38103   0.38659   0.38840
 Alpha virt. eigenvalues --    0.39089   0.39608   0.39756   0.40675   0.41188
 Alpha virt. eigenvalues --    0.41384   0.41961   0.42671   0.43305   0.43493
 Alpha virt. eigenvalues --    0.43881   0.44362   0.45327   0.45392   0.46500
 Alpha virt. eigenvalues --    0.46818   0.47217   0.48039   0.48753   0.49586
 Alpha virt. eigenvalues --    0.50481   0.50656   0.53232   0.56722   0.58195
 Alpha virt. eigenvalues --    0.58664   0.59215   0.59875   0.60165   0.61650
 Alpha virt. eigenvalues --    0.62457   0.63310   0.63957   0.65519   0.66059
 Alpha virt. eigenvalues --    0.66405   0.66897   0.67256   0.68209   0.68817
 Alpha virt. eigenvalues --    0.69671   0.70636   0.71015   0.72633   0.73753
 Alpha virt. eigenvalues --    0.74115   0.74378   0.75170   0.75504   0.76709
 Alpha virt. eigenvalues --    0.77430   0.78125   0.78662   0.80436   0.80601
 Alpha virt. eigenvalues --    0.81262   0.82352   0.83531   0.84214   0.85356
 Alpha virt. eigenvalues --    0.86253   0.87198   0.88027   0.88269   0.88672
 Alpha virt. eigenvalues --    0.89203   0.89979   0.90716   0.90952   0.91136
 Alpha virt. eigenvalues --    0.91692   0.92439   0.92940   0.93232   0.93593
 Alpha virt. eigenvalues --    0.93896   0.94334   0.94803   0.95371   0.95447
 Alpha virt. eigenvalues --    0.96136   0.96370   0.96901   0.97942   0.98079
 Alpha virt. eigenvalues --    0.98814   0.99264   1.00183   1.00586   1.01997
 Alpha virt. eigenvalues --    1.02562   1.03202   1.04285   1.04452   1.04847
 Alpha virt. eigenvalues --    1.05215   1.05516   1.06101   1.06964   1.07599
 Alpha virt. eigenvalues --    1.08019   1.08756   1.09206   1.09732   1.10436
 Alpha virt. eigenvalues --    1.10832   1.11939   1.12760   1.13222   1.13837
 Alpha virt. eigenvalues --    1.14320   1.15048   1.16055   1.16146   1.16526
 Alpha virt. eigenvalues --    1.17259   1.17755   1.17981   1.18769   1.19197
 Alpha virt. eigenvalues --    1.19629   1.20331   1.20730   1.21479   1.21695
 Alpha virt. eigenvalues --    1.22476   1.22875   1.23382   1.23979   1.24465
 Alpha virt. eigenvalues --    1.24892   1.25656   1.25988   1.26608   1.27450
 Alpha virt. eigenvalues --    1.27711   1.28537   1.29123   1.29276   1.30339
 Alpha virt. eigenvalues --    1.31663   1.31929   1.32552   1.33222   1.33662
 Alpha virt. eigenvalues --    1.34125   1.34905   1.35638   1.36592   1.37065
 Alpha virt. eigenvalues --    1.37419   1.37585   1.38474   1.39213   1.40097
 Alpha virt. eigenvalues --    1.41151   1.41844   1.42222   1.42491   1.42985
 Alpha virt. eigenvalues --    1.43845   1.44330   1.45026   1.45322   1.46444
 Alpha virt. eigenvalues --    1.47258   1.47539   1.49025   1.49569   1.50008
 Alpha virt. eigenvalues --    1.51310   1.52567   1.53530   1.53849   1.54693
 Alpha virt. eigenvalues --    1.56144   1.57065   1.58426   1.59342   1.59780
 Alpha virt. eigenvalues --    1.60115   1.61678   1.62117   1.62452   1.63061
 Alpha virt. eigenvalues --    1.64056   1.64980   1.65951   1.66298   1.66665
 Alpha virt. eigenvalues --    1.67665   1.68656   1.68725   1.70455   1.71621
 Alpha virt. eigenvalues --    1.72319   1.73409   1.73768   1.74626   1.75145
 Alpha virt. eigenvalues --    1.76606   1.77895   1.78478   1.79582   1.81163
 Alpha virt. eigenvalues --    1.81354   1.82232   1.83625   1.84113   1.84750
 Alpha virt. eigenvalues --    1.86775   1.87555   1.88550   1.88718   1.90491
 Alpha virt. eigenvalues --    1.91421   1.92556   1.93104   1.94903   1.95737
 Alpha virt. eigenvalues --    1.96751   1.97422   1.98644   1.98800   2.00066
 Alpha virt. eigenvalues --    2.01716   2.02262   2.02637   2.03910   2.04249
 Alpha virt. eigenvalues --    2.06591   2.07651   2.09082   2.10828   2.12804
 Alpha virt. eigenvalues --    2.15247   2.16296   2.17403   2.18172   2.20601
 Alpha virt. eigenvalues --    2.21500   2.22605   2.22952   2.24169   2.25115
 Alpha virt. eigenvalues --    2.26431   2.28582   2.29172   2.30552   2.32357
 Alpha virt. eigenvalues --    2.33776   2.36080   2.37877   2.40570   2.42293
 Alpha virt. eigenvalues --    2.44168   2.44767   2.46450   2.47704   2.49511
 Alpha virt. eigenvalues --    2.50640   2.51593   2.53697   2.54417   2.55817
 Alpha virt. eigenvalues --    2.56678   2.57735   2.58232   2.59567   2.60212
 Alpha virt. eigenvalues --    2.60566   2.61862   2.63696   2.63976   2.65515
 Alpha virt. eigenvalues --    2.66255   2.67846   2.68989   2.70540   2.71859
 Alpha virt. eigenvalues --    2.73618   2.74607   2.75546   2.76431   2.78069
 Alpha virt. eigenvalues --    2.78972   2.80045   2.80345   2.81009   2.82228
 Alpha virt. eigenvalues --    2.84258   2.84670   2.86110   2.87957   2.88425
 Alpha virt. eigenvalues --    2.89162   2.89313   2.90155   2.91217   2.92904
 Alpha virt. eigenvalues --    2.93118   2.94943   2.96081   2.96459   2.99583
 Alpha virt. eigenvalues --    3.00235   3.00939   3.01183   3.01663   3.02469
 Alpha virt. eigenvalues --    3.02899   3.04033   3.05409   3.06091   3.07178
 Alpha virt. eigenvalues --    3.07476   3.08462   3.09201   3.11012   3.11198
 Alpha virt. eigenvalues --    3.12092   3.13208   3.13932   3.15957   3.17041
 Alpha virt. eigenvalues --    3.18792   3.19285   3.20759   3.21601   3.23270
 Alpha virt. eigenvalues --    3.23914   3.24479   3.26293   3.27198   3.28584
 Alpha virt. eigenvalues --    3.29197   3.29326   3.31341   3.32427   3.33680
 Alpha virt. eigenvalues --    3.35272   3.36901   3.37564   3.38654   3.39328
 Alpha virt. eigenvalues --    3.39897   3.40992   3.42459   3.44000   3.45120
 Alpha virt. eigenvalues --    3.46026   3.46590   3.48983   3.51618   3.52620
 Alpha virt. eigenvalues --    3.53881   3.55760   3.57459   3.58841   3.59570
 Alpha virt. eigenvalues --    3.60942   3.61776   3.64228   3.65812   3.66232
 Alpha virt. eigenvalues --    3.67155   3.69024   3.71536   3.72501   3.72845
 Alpha virt. eigenvalues --    3.74928   3.75450   3.77034   3.78378   3.79542
 Alpha virt. eigenvalues --    3.81055   3.81276   3.83162   3.85134   3.86415
 Alpha virt. eigenvalues --    3.87041   3.88175   3.88634   3.89366   3.90866
 Alpha virt. eigenvalues --    3.92247   3.95026   3.97332   3.99845   4.01989
 Alpha virt. eigenvalues --    4.03885   4.07560   4.08404   4.10640   4.14194
 Alpha virt. eigenvalues --    4.14677   4.15288   4.16595   4.17891   4.19254
 Alpha virt. eigenvalues --    4.20657   4.21100   4.22341   4.23167   4.24846
 Alpha virt. eigenvalues --    4.26145   4.28244   4.29011   4.29834   4.30998
 Alpha virt. eigenvalues --    4.32125   4.32341   4.32979   4.33500   4.34220
 Alpha virt. eigenvalues --    4.34574   4.35341   4.37309   4.38329   4.38820
 Alpha virt. eigenvalues --    4.39511   4.40384   4.41041   4.41412   4.42988
 Alpha virt. eigenvalues --    4.43760   4.45648   4.47225   4.47547   4.47789
 Alpha virt. eigenvalues --    4.48501   4.49492   4.50379   4.51262   4.51381
 Alpha virt. eigenvalues --    4.52434   4.53322   4.53440   4.54043   4.54514
 Alpha virt. eigenvalues --    4.55787   4.56495   4.57038   4.57387   4.58614
 Alpha virt. eigenvalues --    4.58988   4.59676   4.60297   4.60771   4.61880
 Alpha virt. eigenvalues --    4.62840   4.63813   4.64291   4.64683   4.65063
 Alpha virt. eigenvalues --    4.65743   4.66310   4.66945   4.68106   4.68371
 Alpha virt. eigenvalues --    4.69690   4.69840   4.70145   4.71063   4.71909
 Alpha virt. eigenvalues --    4.72422   4.73223   4.74194   4.74791   4.75040
 Alpha virt. eigenvalues --    4.76293   4.76710   4.78122   4.78703   4.79100
 Alpha virt. eigenvalues --    4.79525   4.80080   4.80401   4.81370   4.83026
 Alpha virt. eigenvalues --    4.83236   4.83978   4.84375   4.85291   4.86189
 Alpha virt. eigenvalues --    4.86894   4.87476   4.88133   4.89797   4.90796
 Alpha virt. eigenvalues --    4.91889   4.91973   4.92476   4.92617   4.94997
 Alpha virt. eigenvalues --    4.97040   4.97940   5.00284   5.00575   5.02162
 Alpha virt. eigenvalues --    5.02646   5.04909   5.05859   5.07949   5.09646
 Alpha virt. eigenvalues --    5.10787   5.12018   5.13453   5.16290   5.16616
 Alpha virt. eigenvalues --    5.17996   5.19080   5.19748   5.20136   5.22656
 Alpha virt. eigenvalues --    5.23356   5.25788   5.27013   5.28832   5.28999
 Alpha virt. eigenvalues --    5.31382   5.31853   5.33332   5.34066   5.36031
 Alpha virt. eigenvalues --    5.37382   5.37951   5.39069   5.39422   5.39936
 Alpha virt. eigenvalues --    5.41548   5.41938   5.42256   5.42985   5.44293
 Alpha virt. eigenvalues --    5.44829   5.45591   5.46145   5.46321   5.47359
 Alpha virt. eigenvalues --    5.49067   5.49514   5.49584   5.50610   5.51383
 Alpha virt. eigenvalues --    5.52119   5.52829   5.54041   5.54861   5.57138
 Alpha virt. eigenvalues --    5.57916   5.58555   5.61722   5.63970   5.65165
 Alpha virt. eigenvalues --    5.66651   5.69055   5.69166   5.70864   5.74250
 Alpha virt. eigenvalues --    5.75672   5.76782   5.77512   5.81833   5.82100
 Alpha virt. eigenvalues --    5.83532   5.85685   5.87511   5.88912   5.89785
 Alpha virt. eigenvalues --    5.90200   5.91225   5.92798   5.93257   5.95030
 Alpha virt. eigenvalues --    5.95437   5.95872   5.96945   5.98715   6.00092
 Alpha virt. eigenvalues --    6.00504   6.01095   6.03646   6.05551   6.06430
 Alpha virt. eigenvalues --    6.08243   6.09587   6.09753   6.11626   6.12312
 Alpha virt. eigenvalues --    6.12978   6.17389   6.18798   6.20794   6.23118
 Alpha virt. eigenvalues --    6.26150   6.28140   6.31023   6.33064   6.37646
 Alpha virt. eigenvalues --    6.53736   6.63121   6.94473   7.01392   7.07951
 Alpha virt. eigenvalues --    7.14361   7.17521   7.23641   7.27609   7.29727
 Alpha virt. eigenvalues --    7.33779   7.40737   7.40945   7.49939   7.59147
 Alpha virt. eigenvalues --    7.76356   8.08866  12.02029  12.11974  12.22979
 Alpha virt. eigenvalues --   12.29164  12.47273  12.53397  12.78163  12.90131
 Alpha virt. eigenvalues --   12.96150  13.06533  13.21760  13.36370  13.43441
 Alpha virt. eigenvalues --   13.44487  13.47747  13.55691  13.57301  13.62411
 Alpha virt. eigenvalues --   13.72280  13.78026  13.99235  14.13595  14.28881
          Condensed to atoms (all electrons):
              1          2          3          4          5          6
     1  O    8.072329   0.305054  -0.099699  -0.009149   0.014501   0.004281
     2  C    0.305054   6.717130   0.148551  -0.065748  -0.069217  -1.029337
     3  C   -0.099699   0.148551   6.613230   0.291437   0.016942  -0.249857
     4  O   -0.009149  -0.065748   0.291437   8.052612   0.250030  -0.100344
     5  H    0.014501  -0.069217   0.016942   0.250030   0.407925   0.027904
     6  C    0.004281  -1.029337  -0.249857  -0.100344   0.027904   8.333729
     7  O   -0.000070   0.010428  -0.125678   0.005882  -0.000520   0.326710
     8  H    0.000010  -0.002203   0.018298  -0.000271   0.000009  -0.000882
     9  C   -0.002764  -0.252975  -0.393446   0.010454  -0.002965   0.489676
    10  O   -0.014059   0.029494   0.004462  -0.000019  -0.000004  -0.003565
    11  H    0.002112  -0.011321  -0.000376   0.000000   0.000000   0.000591
    12  C   -0.115347  -0.534319  -0.381618   0.021983   0.005107   0.518349
    13  O    0.000652  -0.040536  -0.022413  -0.002077   0.000055  -0.028898
    14  C    0.015487   0.482653   0.374791  -0.003265   0.004639  -2.156068
    15  O   -0.000076  -0.008933   0.001152   0.000431  -0.000005  -0.021204
    16  C    0.001491   0.064970  -0.072685  -0.002286   0.000546  -0.260668
    17  C    0.000766  -0.046120  -0.033728   0.000420   0.000014   0.110989
    18  O    0.000045   0.006472   0.001047  -0.000010   0.000000  -0.009300
    19  H   -0.000048  -0.004199   0.003182   0.000005   0.000000   0.006182
    20  C    0.000023   0.008052  -0.004130  -0.000010   0.000000   0.036914
    21  O    0.000000   0.000032   0.000021   0.000000   0.000000  -0.000192
    22  H    0.000000  -0.000001   0.000000   0.000000   0.000000  -0.000018
    23  C    0.000073   0.002885  -0.011418  -0.000146   0.000008  -0.069420
    24  O    0.000001  -0.002523  -0.007351  -0.000103  -0.000001  -0.003461
    25  H    0.000000   0.000199   0.001926   0.000004   0.000000   0.002755
    26  C   -0.000214   0.010390  -0.017191   0.000366  -0.000008   0.022297
    27  O    0.000000  -0.000076  -0.000038   0.000000   0.000000   0.000547
    28  C    0.000002  -0.000531  -0.000113   0.000003   0.000000  -0.015191
    29  O    0.000000   0.000005   0.000008   0.000000   0.000000  -0.000208
    30  H    0.275707   0.025362  -0.017406  -0.001110  -0.001017   0.001555
    31  H    0.000000   0.000000   0.000000   0.000000   0.000000   0.000002
    32  H    0.000000   0.000009   0.000006   0.000000   0.000000  -0.000069
    33  H    0.000000   0.000111  -0.000004   0.000000   0.000000   0.000392
    34  H    0.000000  -0.000657   0.000589   0.000000   0.000000   0.008982
    35  H    0.000000  -0.002575  -0.000755   0.000006   0.000000   0.030667
    36  H    0.000000  -0.000054   0.000186   0.000000   0.000000  -0.003222
    37  H    0.000000  -0.000033  -0.000025   0.000000   0.000000  -0.000150
    38  H    0.000000   0.000037  -0.000383   0.000000   0.000000  -0.004209
    39  H    0.000072  -0.001922  -0.059998   0.000025   0.000005   0.060477
    40  H    0.000124   0.021997  -0.146744   0.000381  -0.000130   0.371256
    41  H    0.005144  -0.058152   0.254304  -0.017696  -0.006274  -0.076872
    42  H   -0.007475   0.291141   0.008950   0.001953   0.000141  -0.037001
    43  H    0.005787   0.053734  -0.034703   0.000581   0.000021  -0.030288
    44  H   -0.000262  -0.006287   0.001240   0.000019   0.000000  -0.001201
    45  H    0.001853  -0.004535  -0.007955  -0.000002   0.000000   0.013900
              7          8          9         10         11         12
     1  O   -0.000070   0.000010  -0.002764  -0.014059   0.002112  -0.115347
     2  C    0.010428  -0.002203  -0.252975   0.029494  -0.011321  -0.534319
     3  C   -0.125678   0.018298  -0.393446   0.004462  -0.000376  -0.381618
     4  O    0.005882  -0.000271   0.010454  -0.000019   0.000000   0.021983
     5  H   -0.000520   0.000009  -0.002965  -0.000004   0.000000   0.005107
     6  C    0.326710  -0.000882   0.489676  -0.003565   0.000591   0.518349
     7  O    8.127117   0.249620  -0.000491  -0.000002   0.000000   0.001458
     8  H    0.249620   0.339566   0.000003   0.000000   0.000000  -0.002001
     9  C   -0.000491   0.000003   7.929846   0.155907  -0.012604  -1.731915
    10  O   -0.000002   0.000000   0.155907   8.124078   0.238728  -0.018938
    11  H    0.000000   0.000000  -0.012604   0.238728   0.429992   0.020732
    12  C    0.001458  -0.002001  -1.731915  -0.018938   0.020732   9.162818
    13  O    0.003697  -0.000301  -0.002085   0.000591  -0.000536   0.051695
    14  C   -0.051681  -0.052256  -0.766886   0.005058  -0.002509  -0.851075
    15  O    0.000928   0.010386  -0.009806   0.000084   0.000000  -0.017007
    16  C    0.017970   0.020077  -0.127310  -0.000811  -0.000148   0.076439
    17  C    0.000412   0.000264  -0.000684   0.000146   0.000008  -0.203826
    18  O    0.000144  -0.000034  -0.009466  -0.000110  -0.000009   0.001330
    19  H   -0.000076  -0.000007  -0.000302   0.000031  -0.000001  -0.004931
    20  C    0.000449   0.000496   0.006877   0.000005   0.000005  -0.016338
    21  O   -0.000002   0.000000   0.000161   0.000000   0.000000   0.000055
    22  H    0.000000   0.000000  -0.000004   0.000000   0.000000  -0.000002
    23  C    0.019355   0.008559  -0.002548  -0.000006  -0.000001  -0.013268
    24  O   -0.043785   0.000623  -0.000113   0.000000   0.000000   0.003474
    25  H    0.002599  -0.002443  -0.000014   0.000000   0.000000  -0.000418
    26  C   -0.026095  -0.014092   0.015974  -0.000012  -0.000001   0.045807
    27  O    0.000092  -0.000051   0.000018   0.000000   0.000000  -0.000134
    28  C    0.000361  -0.000151  -0.001921  -0.000004   0.000000   0.001861
    29  O   -0.000003   0.000000  -0.000010   0.000000   0.000000   0.000034
    30  H   -0.000014   0.000000   0.010556  -0.001032  -0.000060  -0.023665
    31  H    0.000000   0.000000   0.000000   0.000000   0.000000  -0.000001
    32  H    0.000000   0.000000  -0.000004   0.000000   0.000000   0.000042
    33  H    0.000000   0.000000  -0.000059   0.000000   0.000000   0.000389
    34  H    0.000003  -0.000001  -0.000068   0.000000   0.000000  -0.000718
    35  H   -0.001199  -0.000147  -0.000003   0.000000   0.000000  -0.001490
    36  H   -0.000036  -0.000022   0.000007   0.000000   0.000000   0.000174
    37  H   -0.000528   0.000208  -0.000001   0.000000   0.000000   0.000093
    38  H    0.001258  -0.000028  -0.000010   0.000000   0.000000  -0.000368
    39  H   -0.002333  -0.000234   0.019711   0.000029   0.000000   0.067445
    40  H   -0.031715  -0.004825   0.017400   0.000012   0.000000   0.063162
    41  H    0.003746  -0.000060   0.014908  -0.000170   0.000000   0.065564
    42  H    0.000597   0.000003  -0.048875  -0.001679  -0.000008  -0.041636
    43  H    0.000261   0.000003   0.059488  -0.000445  -0.000199   0.072656
    44  H   -0.000010   0.000000   0.403143  -0.015267  -0.014242  -0.039852
    45  H    0.000007   0.000000   0.641448  -0.059272   0.001328  -0.278244
             13         14         15         16         17         18
     1  O    0.000652   0.015487  -0.000076   0.001491   0.000766   0.000045
     2  C   -0.040536   0.482653  -0.008933   0.064970  -0.046120   0.006472
     3  C   -0.022413   0.374791   0.001152  -0.072685  -0.033728   0.001047
     4  O   -0.002077  -0.003265   0.000431  -0.002286   0.000420  -0.000010
     5  H    0.000055   0.004639  -0.000005   0.000546   0.000014   0.000000
     6  C   -0.028898  -2.156068  -0.021204  -0.260668   0.110989  -0.009300
     7  O    0.003697  -0.051681   0.000928   0.017970   0.000412   0.000144
     8  H   -0.000301  -0.052256   0.010386   0.020077   0.000264  -0.000034
     9  C   -0.002085  -0.766886  -0.009806  -0.127310  -0.000684  -0.009466
    10  O    0.000591   0.005058   0.000084  -0.000811   0.000146  -0.000110
    11  H   -0.000536  -0.002509   0.000000  -0.000148   0.000008  -0.000009
    12  C    0.051695  -0.851075  -0.017007   0.076439  -0.203826   0.001330
    13  O    7.936195   0.246242  -0.017049  -0.056899   0.033844  -0.019078
    14  C    0.246242   9.452841   0.207232  -0.660522  -0.516411   0.043997
    15  O   -0.017049   0.207232   7.751406   0.283249   0.009860  -0.012046
    16  C   -0.056899  -0.660522   0.283249  10.438701  -2.878465   0.104333
    17  C    0.033844  -0.516411   0.009860  -2.878465   9.481138   0.104752
    18  O   -0.019078   0.043997  -0.012046   0.104333   0.104752   8.143147
    19  H    0.031015  -0.014117   0.011403  -0.047608   0.027469   0.231578
    20  C   -0.002485  -0.043907   0.000941  -0.223344  -0.142113  -0.073139
    21  O    0.000019   0.001334   0.000145   0.053815  -0.142988   0.010659
    22  H    0.000001  -0.000531  -0.000009  -0.020482   0.041421  -0.000651
    23  C    0.002394  -0.106168  -0.011802   0.209879   0.076068   0.005293
    24  O   -0.000023   0.123144  -0.018776  -0.079268  -0.020809   0.000088
    25  H   -0.000029  -0.014142   0.001737   0.002507  -0.000121   0.000000
    26  C   -0.008612  -0.229119  -0.052543  -1.670461  -0.366298   0.011601
    27  O    0.000097   0.005617   0.004274   0.030484   0.053036  -0.003080
    28  C    0.000439  -0.029093   0.003076   0.247530   0.208860  -0.011056
    29  O    0.000022   0.001159  -0.000007   0.017384  -0.016540   0.000109
    30  H   -0.000615  -0.003260  -0.000004   0.000039  -0.000053  -0.000001
    31  H    0.000000  -0.000062  -0.000001  -0.005352   0.009359  -0.000023
    32  H    0.000020  -0.000205   0.000230   0.044588  -0.052800   0.000553
    33  H    0.000093  -0.007090  -0.000182   0.075477  -0.178539   0.004661
    34  H   -0.001816   0.023805  -0.009396  -0.019962   0.270849  -0.028763
    35  H   -0.004803  -0.085224  -0.039927   0.199024   0.057869  -0.006616
    36  H   -0.000167   0.011156  -0.002013   0.013403  -0.035592  -0.000338
    37  H    0.000028   0.011204   0.000473  -0.007372  -0.004962   0.000006
    38  H   -0.000052  -0.010652   0.000316   0.084464   0.017145   0.000025
    39  H   -0.028570   0.210519  -0.036695   0.012365  -0.006014  -0.001138
    40  H    0.009764  -0.025736  -0.013748  -0.028729  -0.002390   0.000094
    41  H    0.002880   0.041680   0.000505  -0.005047   0.000967   0.000051
    42  H    0.001956   0.096430   0.000001  -0.002836   0.002023   0.000046
    43  H   -0.025135   0.139252  -0.001476  -0.002815   0.008773   0.000229
    44  H   -0.001501  -0.006675  -0.000225   0.003864  -0.000526  -0.000196
    45  H   -0.004423  -0.003696  -0.000505  -0.005138   0.003450   0.000014
             19         20         21         22         23         24
     1  O   -0.000048   0.000023   0.000000   0.000000   0.000073   0.000001
     2  C   -0.004199   0.008052   0.000032  -0.000001   0.002885  -0.002523
     3  C    0.003182  -0.004130   0.000021   0.000000  -0.011418  -0.007351
     4  O    0.000005  -0.000010   0.000000   0.000000  -0.000146  -0.000103
     5  H    0.000000   0.000000   0.000000   0.000000   0.000008  -0.000001
     6  C    0.006182   0.036914  -0.000192  -0.000018  -0.069420  -0.003461
     7  O   -0.000076   0.000449  -0.000002   0.000000   0.019355  -0.043785
     8  H   -0.000007   0.000496   0.000000   0.000000   0.008559   0.000623
     9  C   -0.000302   0.006877   0.000161  -0.000004  -0.002548  -0.000113
    10  O    0.000031   0.000005   0.000000   0.000000  -0.000006   0.000000
    11  H   -0.000001   0.000005   0.000000   0.000000  -0.000001   0.000000
    12  C   -0.004931  -0.016338   0.000055  -0.000002  -0.013268   0.003474
    13  O    0.031015  -0.002485   0.000019   0.000001   0.002394  -0.000023
    14  C   -0.014117  -0.043907   0.001334  -0.000531  -0.106168   0.123144
    15  O    0.011403   0.000941   0.000145  -0.000009  -0.011802  -0.018776
    16  C   -0.047608  -0.223344   0.053815  -0.020482   0.209879  -0.079268
    17  C    0.027469  -0.142113  -0.142988   0.041421   0.076068  -0.020809
    18  O    0.231578  -0.073139   0.010659  -0.000651   0.005293   0.000088
    19  H    0.352201  -0.002780  -0.000471   0.000012  -0.003037  -0.000055
    20  C   -0.002780   6.639123   0.228504  -0.049620   0.055583  -0.004111
    21  O   -0.000471   0.228504   8.075088   0.248031  -0.000940   0.000019
    22  H    0.000012  -0.049620   0.248031   0.419410   0.000063   0.000000
    23  C   -0.003037   0.055583  -0.000940   0.000063   6.167898   0.081596
    24  O   -0.000055  -0.004111   0.000019   0.000000   0.081596   8.254028
    25  H    0.000000   0.000329   0.000000   0.000000  -0.036497   0.255729
    26  C    0.003686   0.139508  -0.001185   0.004869  -0.979543   0.056420
    27  O    0.000299  -0.117972   0.001652  -0.000361  -0.101155   0.004709
    28  C    0.003682  -0.645554   0.005867   0.007715  -0.069376   0.003621
    29  O    0.000015  -0.052443  -0.002680   0.013738   0.008019  -0.000016
    30  H    0.000000   0.000000   0.000000   0.000000   0.000000   0.000000
    31  H    0.000000  -0.025308  -0.000877  -0.001752   0.000213  -0.000001
    32  H    0.000005  -0.069813   0.001467   0.000123  -0.002954   0.000068
    33  H   -0.000058   0.366043  -0.024744  -0.005722   0.004757   0.000021
    34  H   -0.000734   0.007590  -0.003709  -0.000163   0.008566   0.000037
    35  H   -0.000727   0.030425  -0.000591   0.000005   0.015288  -0.000839
    36  H    0.000013  -0.014096  -0.000073   0.000001   0.057420   0.003012
    37  H    0.000000  -0.001615  -0.000001   0.000000   0.370012  -0.021353
    38  H    0.000001  -0.000368  -0.000007   0.000000   0.600560  -0.055518
    39  H   -0.001629   0.007050   0.000001   0.000000   0.002797  -0.000373
    40  H   -0.000023   0.000311   0.000000   0.000000   0.000515   0.000069
    41  H   -0.000005   0.000042   0.000000   0.000000   0.000186   0.000026
    42  H   -0.000033   0.000053   0.000000   0.000000   0.000057   0.000008
    43  H   -0.000539   0.000573   0.000000   0.000000   0.000200  -0.000002
    44  H    0.000721  -0.000690   0.000000   0.000000   0.000009   0.000000
    45  H   -0.000089   0.000272   0.000000   0.000000  -0.000001   0.000000
             25         26         27         28         29         30
     1  O    0.000000  -0.000214   0.000000   0.000002   0.000000   0.275707
     2  C    0.000199   0.010390  -0.000076  -0.000531   0.000005   0.025362
     3  C    0.001926  -0.017191  -0.000038  -0.000113   0.000008  -0.017406
     4  O    0.000004   0.000366   0.000000   0.000003   0.000000  -0.001110
     5  H    0.000000  -0.000008   0.000000   0.000000   0.000000  -0.001017
     6  C    0.002755   0.022297   0.000547  -0.015191  -0.000208   0.001555
     7  O    0.002599  -0.026095   0.000092   0.000361  -0.000003  -0.000014
     8  H   -0.002443  -0.014092  -0.000051  -0.000151   0.000000   0.000000
     9  C   -0.000014   0.015974   0.000018  -0.001921  -0.000010   0.010556
    10  O    0.000000  -0.000012   0.000000  -0.000004   0.000000  -0.001032
    11  H    0.000000  -0.000001   0.000000   0.000000   0.000000  -0.000060
    12  C   -0.000418   0.045807  -0.000134   0.001861   0.000034  -0.023665
    13  O   -0.000029  -0.008612   0.000097   0.000439   0.000022  -0.000615
    14  C   -0.014142  -0.229119   0.005617  -0.029093   0.001159  -0.003260
    15  O    0.001737  -0.052543   0.004274   0.003076  -0.000007  -0.000004
    16  C    0.002507  -1.670461   0.030484   0.247530   0.017384   0.000039
    17  C   -0.000121  -0.366298   0.053036   0.208860  -0.016540  -0.000053
    18  O    0.000000   0.011601  -0.003080  -0.011056   0.000109  -0.000001
    19  H    0.000000   0.003686   0.000299   0.003682   0.000015   0.000000
    20  C    0.000329   0.139508  -0.117972  -0.645554  -0.052443   0.000000
    21  O    0.000000  -0.001185   0.001652   0.005867  -0.002680   0.000000
    22  H    0.000000   0.004869  -0.000361   0.007715   0.013738   0.000000
    23  C   -0.036497  -0.979543  -0.101155  -0.069376   0.008019   0.000000
    24  O    0.255729   0.056420   0.004709   0.003621  -0.000016   0.000000
    25  H    0.381172   0.027820  -0.000943  -0.000601  -0.000004   0.000000
    26  C    0.027820  10.046224   0.046472  -0.523086  -0.041738   0.000002
    27  O   -0.000943   0.046472   7.929134   0.259261  -0.059377   0.000000
    28  C   -0.000601  -0.523086   0.259261   5.849106   0.321461   0.000000
    29  O   -0.000004  -0.041738  -0.059377   0.321461   8.037932   0.000000
    30  H    0.000000   0.000002   0.000000   0.000000   0.000000   0.394631
    31  H    0.000000   0.002527   0.001930   0.004363   0.269792   0.000000
    32  H    0.000000   0.012997  -0.040278   0.399111  -0.017175   0.000000
    33  H    0.000000   0.032121  -0.002143  -0.004438  -0.000755   0.000000
    34  H    0.000000   0.015320  -0.000126  -0.030268  -0.000020   0.000000
    35  H   -0.000044   0.031010   0.005792   0.002706  -0.000498   0.000000
    36  H   -0.000208   0.192096  -0.020414   0.045259  -0.000968   0.000000
    37  H   -0.007970  -0.004248  -0.005652   0.000416  -0.000113   0.000000
    38  H    0.000575  -0.329349   0.002722   0.003661  -0.000205   0.000000
    39  H    0.000009   0.014444   0.000258  -0.000354  -0.000003   0.000001
    40  H    0.000000  -0.000712  -0.000002   0.000016   0.000000   0.000025
    41  H    0.000000  -0.000182   0.000000  -0.000006   0.000000  -0.000139
    42  H    0.000000  -0.000496   0.000000  -0.000004   0.000000  -0.012975
    43  H    0.000000  -0.001149   0.000000  -0.000016   0.000000  -0.000266
    44  H    0.000000   0.000318   0.000000   0.000042   0.000000   0.000016
    45  H    0.000000  -0.000081   0.000000  -0.000012   0.000000  -0.000226
             31         32         33         34         35         36
     1  O    0.000000   0.000000   0.000000   0.000000   0.000000   0.000000
     2  C    0.000000   0.000009   0.000111  -0.000657  -0.002575  -0.000054
     3  C    0.000000   0.000006  -0.000004   0.000589  -0.000755   0.000186
     4  O    0.000000   0.000000   0.000000   0.000000   0.000006   0.000000
     5  H    0.000000   0.000000   0.000000   0.000000   0.000000   0.000000
     6  C    0.000002  -0.000069   0.000392   0.008982   0.030667  -0.003222
     7  O    0.000000   0.000000   0.000000   0.000003  -0.001199  -0.000036
     8  H    0.000000   0.000000   0.000000  -0.000001  -0.000147  -0.000022
     9  C    0.000000  -0.000004  -0.000059  -0.000068  -0.000003   0.000007
    10  O    0.000000   0.000000   0.000000   0.000000   0.000000   0.000000
    11  H    0.000000   0.000000   0.000000   0.000000   0.000000   0.000000
    12  C   -0.000001   0.000042   0.000389  -0.000718  -0.001490   0.000174
    13  O    0.000000   0.000020   0.000093  -0.001816  -0.004803  -0.000167
    14  C   -0.000062  -0.000205  -0.007090   0.023805  -0.085224   0.011156
    15  O   -0.000001   0.000230  -0.000182  -0.009396  -0.039927  -0.002013
    16  C   -0.005352   0.044588   0.075477  -0.019962   0.199024   0.013403
    17  C    0.009359  -0.052800  -0.178539   0.270849   0.057869  -0.035592
    18  O   -0.000023   0.000553   0.004661  -0.028763  -0.006616  -0.000338
    19  H    0.000000   0.000005  -0.000058  -0.000734  -0.000727   0.000013
    20  C   -0.025308  -0.069813   0.366043   0.007590   0.030425  -0.014096
    21  O   -0.000877   0.001467  -0.024744  -0.003709  -0.000591  -0.000073
    22  H   -0.001752   0.000123  -0.005722  -0.000163   0.000005   0.000001
    23  C    0.000213  -0.002954   0.004757   0.008566   0.015288   0.057420
    24  O   -0.000001   0.000068   0.000021   0.000037  -0.000839   0.003012
    25  H    0.000000   0.000000   0.000000   0.000000  -0.000044  -0.000208
    26  C    0.002527   0.012997   0.032121   0.015320   0.031010   0.192096
    27  O    0.001930  -0.040278  -0.002143  -0.000126   0.005792  -0.020414
    28  C    0.004363   0.399111  -0.004438  -0.030268   0.002706   0.045259
    29  O    0.269792  -0.017175  -0.000755  -0.000020  -0.000498  -0.000968
    30  H    0.000000   0.000000   0.000000   0.000000   0.000000   0.000000
    31  H    0.410890  -0.009179   0.000044   0.000013   0.000004   0.000021
    32  H   -0.009179   0.588079   0.005124   0.001157  -0.000023   0.002926
    33  H    0.000044   0.005124   0.577517   0.006092   0.001289  -0.000039
    34  H    0.000013   0.001157   0.006092   0.617380   0.007009   0.001526
    35  H    0.000004  -0.000023   0.001289   0.007009   0.628743   0.006723
    36  H    0.000021   0.002926  -0.000039   0.001526   0.006723   0.613948
    37  H    0.000000  -0.000032   0.000000   0.000005   0.000094  -0.005405
    38  H    0.000001  -0.000015  -0.000020  -0.000004   0.003769   0.005838
    39  H    0.000000   0.000000  -0.000005  -0.000030   0.009809  -0.000003
    40  H    0.000000   0.000000   0.000000  -0.000002   0.000003  -0.000001
    41  H    0.000000   0.000000   0.000000   0.000000  -0.000001   0.000000
    42  H    0.000000   0.000000   0.000000   0.000000   0.000000   0.000000
    43  H    0.000000   0.000000   0.000000   0.000000  -0.000010   0.000000
    44  H    0.000000   0.000000   0.000000  -0.000001  -0.000001   0.000000
    45  H    0.000000   0.000000   0.000000   0.000000   0.000000   0.000000
             37         38         39         40         41         42
     1  O    0.000000   0.000000   0.000072   0.000124   0.005144  -0.007475
[...]
 ,-0.00002422,0.00001573,-0.00935747,-0.00065789,0.00083071,0.00209571,
 0.00099950,-0.00005728,-0.00005931,-0.00000833,0.00008485,0.00008181,0
 .00001997,0.00010648,-0.00000092,0.00000312,0.00003014,-0.00001334,0.0
 0001218,-0.00000074,0.00002767,-0.00000497,-0.00002861,-0.00002039,-0.
 00000305,0.00005637,-0.00000806,-0.00000786,0.00000511,0.00000743,0.00
 000460,-0.00000348,-0.00000284,-0.00000190,-0.00000046,-0.00001363,-0.
 00000348,0.00001120,0.00002289,0.00000393,0.00000920,-0.00001310,-0.00
 000083,0.00000032,-0.00001447,-0.00000424,0.00000775,0.00001054,0.0000
 0412,-0.00000767,-0.00000866,0.00000025,0.00000882,0.00000885,0.000000
 02,-0.00001067,0.00150835,0.00009479,-0.00073787,-0.00000135,0.0000000
 2,0.00000162,0.00000209,0.00000061,0.00000096,0.00000271,0.00000129,-0
 .00000271,0.00000777,-0.00000052,0.00000797,0.00001215,0.00000069,-0.0
 0000766,0.00000561,0.00000016,0.00000431,0.00000005,-0.00000127,0.,0.0
 0000460,0.00000223,-0.00000197,0.00002325,-0.00002393,-0.00020354,0.00
 100318,0.00012984,0.00051903,-0.00022257,0.00235444,0.00083383,0.37726
 172,-0.01032848,-0.00067699,-0.00575401,-0.02753317,-0.04696401,0.0040
 3886,0.03261264,0.00058272,-0.00490651,-0.00253950,0.00285935,-0.00031
 827,0.00024268,-0.00002229,-0.00000767,0.00128471,0.00140282,0.0012500
 0,-0.00052792,-0.00013789,0.00007429,-0.00005119,0.00000387,0.00003599
 ,-0.00158434,0.00167414,-0.00076567,0.00026612,-0.00008680,0.00014327,
 -0.00000853,-0.00004252,-0.00001405,-0.02763035,-0.00389936,0.00524045
 ,0.00147199,0.00132283,-0.00240118,0.00023324,-0.00037228,-0.00014643,
 0.00001312,0.00008826,0.00003645,-0.00002409,0.00003489,-0.00000447,0.
 00000771,0.00000613,-0.00000987,0.00002498,0.00001589,-0.00005719,-0.0
 0004732,-0.00003692,0.00006526,-0.00000551,-0.00000134,-0.00000029,0.0
 0000399,-0.00000012,-0.00000162,-0.00000119,-0.00000047,-0.00000035,0.
 00000473,-0.00000207,-0.00000079,-0.00001223,-0.00000397,-0.00002266,0
 .00000906,0.00000373,-0.00000005,-0.00000289,-0.00000278,0.00000411,-0
 .00000067,-0.00000024,0.00000015,-0.00000082,0.00000248,0.00000267,0.0
 0000268,-0.00000107,-0.00000407,-0.00092632,0.00132146,0.00011174,-0.0
 0000020,0.00000030,0.00000071,0.00000033,0.00000052,0.00000032,0.00000
 092,-0.00000041,-0.00000196,0.00000383,0.00000360,0.00000642,0.0000011
 1,-0.00000537,0.00000712,-0.00000078,0.00000080,-0.00000075,-0.0000001
 0,0.00000074,-0.00000249,-0.00000145,-0.00000135,0.00000258,-0.0000740
 7,-0.00015346,-0.00003051,-0.00060094,-0.00021472,-0.00022949,0.002385
 64,-0.00481614,-0.00167290,0.03284732,0.05082812,-0.03981088,-0.009105
 65,-0.01672795,0.03061698,0.00316925,-0.04290670,0.01034543,0.00127875
 ,-0.00061864,-0.00101654,-0.00015517,0.00079873,-0.00016219,-0.0003486
 2,-0.00021728,0.00121007,0.00003788,0.00044201,-0.00036689,0.00007309,
 -0.00000451,0.00003523,0.00001200,-0.00000306,0.00010827,-0.00129245,0
 .00050557,-0.00005663,0.00003346,0.00011589,0.00000428,-0.00004197,0.0
 0007436,0.02346715,0.00359995,-0.00292063,-0.00038656,-0.00025697,0.00
 262997,0.00045425,-0.00011532,-0.00036295,-0.00009861,-0.00001651,-0.0
 0011823,0.00000817,-0.00002494,-0.00002214,0.00001803,0.00001079,0.000
 02679,-0.00005214,-0.00003810,0.00001852,0.00007292,0.00004965,-0.0000
 4422,0.00000485,-0.00000360,0.00000221,-0.00000775,0.00000374,-0.00000
 616,0.00000209,-0.00000015,0.00000235,0.00000906,0.00000360,-0.0000053
 4,-0.00001604,-0.00000675,-0.00000899,0.00000671,0.00000203,0.00000166
 ,0.00000961,0.00000700,0.00000344,-0.00000783,-0.00000103,-0.00000589,
 0.00000529,0.,0.00000777,-0.00000051,-0.00000079,-0.00000544,-0.003111
 16,0.00053799,0.00306038,0.00000038,0.00000018,0.00000127,-0.00000196,
 -0.00000087,-0.00000221,-0.00000291,-0.00000019,0.00000433,-0.00001239
 ,-0.00000317,-0.00001327,-0.00001401,0.00000088,0.00001282,-0.00000508
 ,-0.00000204,-0.00000558,-0.00000093,-0.00000144,-0.00000081,-0.000003
 33,0.00000004,0.00000246,-0.00016159,0.00000926,0.00011959,-0.00015662
 ,-0.00034336,-0.00010273,0.00062658,-0.00193317,-0.00043844,-0.0213912
 1,0.00202628,0.05977696,0.00122108,0.00011466,0.00117243,-0.00989451,-
 0.00102609,0.00180159,-0.00054484,0.00135159,-0.00042274,0.00068030,0.
 00028116,-0.00008073,-0.00013874,0.00001184,0.00013776,0.00008199,-0.0
 0001059,-0.00012048,0.00011360,-0.00026908,0.00006603,-0.00000177,0.00
 005789,0.00000425,-0.01321886,0.00062108,0.00247656,0.00126886,0.00067
 465,0.00101787,-0.00012342,-0.00001791,0.00015128,-0.34263579,-0.00973
 224,0.04585663,-0.01501146,-0.00542494,-0.01165323,0.00003055,0.002296
 73,0.00117799,0.00046685,-0.00010943,-0.00063126,-0.00019580,-0.000131
 44,0.00023353,0.00003963,0.00006876,-0.00000192,0.00018797,0.00014295,
 -0.00035832,-0.00038839,-0.00038921,0.00065028,-0.00004402,-0.00004548
 ,0.00002591,0.00001895,0.00003423,-0.00002946,-0.00000998,-0.00000709,
 -0.00000104,-0.00003199,0.00001056,0.00001598,0.00001849,-0.00002643,-
 0.00001385,-0.00000691,0.00000262,-0.00000725,0.00003170,0.00005394,0.
 00002772,0.00001637,0.00000433,-0.00008656,-0.00000520,-0.00001287,0.0
 0005621,0.00002933,0.00000321,-0.00005367,0.00019074,0.00007786,-0.000
 03004,-0.00000124,-0.00000013,0.00000677,0.00000161,0.00000254,-0.0000
 0104,0.00000616,0.00000219,-0.00001256,0.00002171,0.00000913,0.0000317
 4,0.00003734,-0.00000906,-0.00002268,0.00000418,-0.00000217,0.00000327
 ,0.00000217,-0.00000887,-0.00000447,0.00000533,0.00000261,0.00000214,0
 .00027568,-0.00132645,-0.00099524,0.00009198,0.00016614,0.00012405,0.0
 0119305,-0.00030166,-0.00026645,0.00050645,-0.00083377,0.00060559,0.37
 456020,0.00132941,0.00042129,-0.00059145,-0.02527503,-0.00291667,0.005
 73532,-0.00229777,0.00079710,0.00062758,0.00073866,0.00016098,-0.00035
 932,-0.00004737,0.00003232,0.00005581,-0.00009836,-0.00031740,-0.00012
 646,0.00013781,-0.00010821,-0.00000587,-0.00001386,-0.00000012,-0.0000
 2345,0.03570444,-0.00155155,-0.00432674,-0.00252686,0.00133995,0.00015
 367,0.00010264,0.00014842,0.00010753,-0.00803112,-0.04487409,0.0032838
 6,-0.01203158,-0.00073940,-0.00618626,-0.00260307,0.00150695,0.0006828
 3,0.00035143,-0.00019429,-0.00021442,0.00003059,-0.00004003,-0.0000087
 5,0.00003581,0.00009837,0.00008736,-0.00010579,-0.00001205,-0.00022132
 ,0.00014646,-0.00009705,0.00031842,0.00000285,-0.00002695,0.00000054,-
 0.00001091,0.00000415,-0.00001298,0.00000264,0.00000064,0.00000442,-0.
 00000746,0.00001452,-0.00001877,0.00000623,-0.00001280,0.00002561,-0.0
 0000297,-0.00000134,-0.00000341,0.00001799,0.00001299,0.00000387,-0.00
 000015,-0.00001705,-0.00000909,-0.00000009,0.00002615,0.00000748,0.000
 00367,-0.00000793,-0.00001559,0.00014358,0.00001780,-0.00021834,0.0000
 0093,0.00000042,0.00000214,-0.00000149,-0.00000375,-0.00000254,-0.0000
 0440,0.00000387,0.00000589,-0.00001728,-0.00002138,-0.00001505,0.00000
 896,0.00001931,-0.00003307,-0.00000108,-0.00000110,0.00000157,0.000002
 90,-0.00000398,0.00000191,0.00000176,-0.00000110,-0.00000256,0.0005170
 1,0.00020304,-0.00008406,0.00019488,0.00013994,0.00004804,0.00066775,-
 0.00068350,0.00023913,-0.00079454,-0.00283934,0.00274919,0.01146413,0.
 05374735,-0.00156695,-0.00061221,0.00164210,0.02646597,0.00341628,-0.0
 0233651,0.00110976,-0.00157084,0.00029024,-0.00060612,0.00005453,0.000
 02211,0.00009863,-0.00000115,-0.00003190,0.00018671,-0.00008577,-0.000
 52633,0.00007146,-0.00030283,0.00027372,-0.00000473,0.00009430,-0.0000
 0787,0.00898174,0.00098044,0.00097738,-0.00093570,0.00065072,0.0004101
 2,0.00001020,0.00003270,0.00002386,0.05003892,0.00226158,-0.04907844,-
 0.04156889,-0.00845329,-0.01027156,-0.00322224,0.00333692,0.00313391,0
 .00057954,-0.00023452,-0.00103594,-0.00006157,-0.00021911,0.00028604,0
 .00001329,0.00000879,-0.00003371,0.00020170,0.00015889,-0.00018273,-0.
 00053485,-0.00036702,0.00050456,-0.00001814,-0.00003679,0.00003659,0.0
 0000358,0.00004287,-0.00003088,-0.00000550,-0.00000534,-0.00000034,-0.
 00001067,0.00002726,0.00000615,-0.00000051,-0.00003832,0.00001014,0.00
 000586,0.00000300,-0.00000932,0.00004814,0.00007099,0.00003212,-0.0000
 0054,0.00000867,-0.00010222,0.00000929,-0.00003232,0.00005761,0.000017
 97,0.00000805,-0.00004420,-0.00003683,-0.00018080,0.00052164,0.0000005
 2,-0.00000050,0.00000538,-0.00000223,0.00000238,-0.00000312,0.00000187
 ,0.00000107,-0.00001198,0.00001663,0.00001020,0.00002437,0.00003093,0.
 00000459,-0.00007197,-0.00000287,-0.00000313,-0.00000200,0.00000094,-0
 .00000960,-0.00000296,0.00000020,0.00000054,0.00000360,0.00103565,0.00
 001812,-0.00013579,-0.00005982,-0.00000183,-0.00013341,-0.00060886,0.0
 0023098,0.00037476,0.00078592,0.00341465,-0.00322233,-0.04009668,-0.00
 056034,0.05797213,0.00003644,-0.00030155,0.00008280,-0.00057833,0.0022
 7154,0.00161283,0.00074110,0.00021699,-0.00054528,-0.00017348,0.000413
 97,-0.00008741,0.00001291,0.00001507,0.00002863,-0.00002023,-0.0000142
 4,-0.00001159,0.00000348,-0.00002165,-0.00000721,0.00000480,0.00000749
 ,0.00002485,-0.06822293,-0.04954100,0.06342913,0.00516242,0.00542821,-
 0.01708756,0.00200430,0.00144924,0.00065360,0.00373611,0.01383880,-0.0
 1178064,0.00028814,-0.00159205,-0.00059053,-0.00011831,0.00018100,0.00
 006241,-0.00009799,-0.00000037,-0.00021996,0.00001143,-0.00006696,0.00
 011576,-0.00010806,-0.00010848,-0.00012225,-0.00015601,0.00029100,0.00
 022765,0.00030355,-0.00034459,-0.00004442,0.00003438,0.00001353,0.0000
 1632,-0.00001321,0.00002099,0.00001434,0.00000203,0.00000123,-0.000003
 23,0.00000286,-0.00001262,0.00003007,-0.00000121,0.00001206,-0.0000268
 0,0.00000187,-0.00000107,0.00000190,-0.00000074,0.00002035,-0.00001099
 ,-0.00001041,0.00003249,-0.00002338,0.00001435,-0.00005862,-0.00000448
 ,-0.00001369,0.00001856,0.00002320,-0.00014511,0.00008055,-0.00016875,
 0.00000078,-0.00000252,-0.00000462,-0.00000260,0.00000285,-0.00000016,
 -0.00000216,-0.00000046,-0.00000028,0.00000561,-0.00001085,-0.00001295
 ,-0.00000098,0.00000568,-0.00000149,-0.00000145,-0.00000174,-0.0000008
 3,-0.00000217,0.00000506,-0.00000273,-0.00000082,0.00000162,-0.0000002
 9,-0.00001210,0.00001395,0.00000620,0.00000771,0.00001128,0.00000966,-
 0.00001787,-0.00010165,-0.00003250,0.00026833,0.00043495,-0.00016008,0
 .00089318,-0.00076785,-0.00074522,0.06381499,-0.00006296,0.00057864,-0
 .00006256,0.00350109,-0.00502295,-0.00429928,-0.00102010,0.00024497,0.
 00178219,0.00036780,-0.00142807,0.00030392,-0.00012787,0.00008238,-0.0
 0015213,0.00000687,0.00028690,0.00052242,-0.00003011,0.00000987,-0.000
 41367,0.00004308,-0.00003529,0.00016708,-0.04646053,-0.15869505,0.1486
 8224,0.00087930,0.00519996,-0.02577915,0.00029481,0.00413929,-0.002490
 79,-0.00813392,-0.02456475,0.02527763,0.00010224,0.00303169,0.00021693
 ,0.00020195,-0.00022972,-0.00015509,-0.00002534,0.00006336,-0.00033118
 ,-0.00003857,-0.00006774,0.00017167,-0.00018481,-0.00029313,-0.0003250
 0,0.00017462,0.00054240,0.00048274,-0.00015625,-0.00077521,-0.00046212
 ,0.00001621,0.00008328,0.00000438,0.00001704,0.00000023,0.00004900,-0.
 00000420,0.00000168,-0.00001445,-0.00002082,-0.00007523,0.00010325,-0.
 00000279,0.00006039,-0.00016028,0.00000464,-0.00000326,0.00002119,-0.0
 0000626,0.00000638,-0.00003758,-0.00000640,0.00007476,-0.00002889,0.00
 001796,-0.00012424,-0.00002473,-0.00002188,0.00003719,0.00006043,0.000
 04723,-0.00014151,-0.00014418,-0.00000084,-0.00000256,-0.00001044,0.00
 000077,0.00001162,0.00000606,0.00000916,-0.00000876,-0.00001719,0.0000
 5680,0.00004084,0.00003766,0.00001492,-0.00001713,-0.00000637,0.000003
 52,0.00000303,0.00000614,-0.00000097,0.00001993,-0.00001341,0.00000615
 ,0.00000374,-0.00000304,0.00000131,-0.00001554,-0.00001043,0.00000322,
 -0.00001286,-0.00002687,0.00013502,-0.00003341,-0.00006257,0.00001560,
 0.00030681,-0.00019216,0.00020601,0.00147468,-0.00006080,0.04991705,0.
 17506484,0.00006660,0.00043159,0.00019115,-0.00031682,-0.00153189,-0.0
 0053932,-0.00001386,-0.00008422,0.00022428,0.00005714,-0.00016046,0.00
 010583,0.00000647,-0.00004691,-0.00002833,0.00000304,-0.00000750,-0.00
 004907,-0.00000176,-0.00000189,0.00003482,-0.00000074,0.00000772,-0.00
 001153,0.05928500,0.14179453,-0.21324703,0.00105723,0.00285354,-0.0425
 4904,-0.00054941,0.00094677,0.00007424,0.00021600,-0.00261966,0.003532
 34,0.00032587,0.00000917,0.00135940,-0.00002941,-0.00004750,0.00019068
 ,0.00001100,0.00001768,0.00005249,0.00001834,0.00002951,-0.00000727,0.
 00000672,0.00004282,-0.00000989,-0.00000213,-0.00013695,-0.00008722,-0
 .00000672,0.00007602,-0.00000046,-0.00000288,0.00000155,-0.00001022,-0
 .00000348,-0.00001656,-0.00000786,0.00000330,0.00000354,0.00000567,0.0
 0000448,0.00001207,-0.00001290,-0.00000243,-0.00001253,0.00001608,0.00
 000061,0.00000263,-0.00000191,0.00000077,0.00000383,-0.00000037,0.0000
 0002,-0.00001970,0.00000693,-0.00000447,0.00002403,0.00000506,0.000004
 45,-0.00001074,-0.00001098,-0.00003211,-0.00027182,0.00001186,-0.00000
 041,0.00000268,0.00000350,-0.00000010,-0.00000170,-0.00000097,-0.00000
 132,0.00000157,0.00000279,-0.00000410,-0.00000017,-0.00000054,-0.00000
 404,-0.00000035,-0.00000059,-0.00000082,-0.00000018,-0.00000112,-0.000
 00062,-0.00000227,0.00000079,-0.00000126,-0.00000029,0.00000056,-0.000
 01021,0.00001723,-0.00000571,-0.00001137,0.00000137,0.00000581,0.00000
 918,-0.00001157,-0.00000632,-0.00000351,-0.00006603,0.00001578,-0.0003
 9357,0.00018240,0.00057379,-0.06100413,-0.14375846,0.24988513,0.000319
 69,0.00006195,-0.00014357,0.00046937,-0.00129095,0.00043339,0.00038537
 ,0.00007003,-0.00006897,0.00005104,0.00015774,-0.00002770,-0.00003034,
 -0.00001022,0.00002447,-0.00009410,-0.00004705,-0.00002314,0.00005497,
 -0.00001534,0.00001487,-0.00001716,-0.00000013,-0.00001039,-0.34793816
 ,-0.01403557,0.02144515,-0.00624695,-0.01043249,-0.01331638,-0.0010283
 5,0.00048535,-0.00081402,-0.01959621,0.00130134,0.00278407,0.00165036,
 -0.00032041,0.00029928,0.00039675,-0.00005205,0.00003905,0.00012511,0.
 00012715,0.00023436,-0.00001882,0.00005291,-0.00000907,-0.00003362,0.0
 0002714,0.00001527,0.00018668,-0.00006557,-0.00001106,-0.00025226,0.00
 007072,-0.00003419,-0.00001452,-0.00000197,0.00000626,0.00001933,-0.00
 000146,-0.00000555,-0.00000441,-0.00000430,-0.00000081,-0.00001070,0.0
 0000146,-0.00000231,0.00001824,0.00000049,0.00000758,-0.00000930,0.000
 00033,-0.00000119,-0.00002082,-0.00001217,0.00000740,0.00001652,-0.000
 00629,0.00000542,-0.00001961,0.00001486,0.00000798,0.00001462,-0.00000
 437,-0.00001475,-0.00022180,0.00007767,-0.00023540,-0.00000282,0.00000
 059,0.00000331,0.00000472,0.00000130,0.00000282,0.00000683,0.00000038,
 -0.00000784,0.00002296,0.00001315,0.00003224,0.00001525,-0.00000877,-0
 .00000194,0.00000765,0.00000323,0.00000633,0.00000022,-0.00000128,0.00
 000056,0.00000420,-0.00000018,-0.00000089,0.00004345,-0.00021859,-0.00
 016515,0.00004727,0.00004421,0.00001099,0.00018524,-0.00027433,-0.0000
 5295,0.00060072,0.00088414,-0.00060710,0.00025747,0.00302648,0.0003735
 2,-0.00765093,0.00026023,0.00132546,0.37830682,-0.00022600,0.00023524,
 0.00047194,0.00127497,0.00248850,-0.00093628,0.00027299,-0.00003677,-0
 .00023458,-0.00022237,-0.00004230,0.00014791,0.00003536,-0.00004112,-0
 .00004171,0.00003884,0.00009685,0.00001199,-0.00003417,0.00002446,0.00
 001934,0.00000337,0.00000693,0.00000228,-0.01504684,-0.04431239,0.0085
 2727,-0.01979558,-0.00553570,-0.01461386,-0.00155619,-0.00022046,-0.00
 029351,0.03747197,-0.00419947,-0.00370583,-0.00121510,0.00227071,0.001
 66314,0.00006113,0.00005166,0.00003836,-0.00009831,-0.00008272,-0.0000
 9834,-0.00000240,-0.00001487,0.00004155,-0.00000418,-0.00000392,-0.000
 00987,0.00006281,0.00002269,0.00001886,-0.00005529,-0.00005924,-0.0000
 3172,-0.00000686,0.00000263,0.00000491,0.00000640,0.00000433,-0.000004
 87,-0.00000186,-0.00000245,-0.00000047,0.00000432,0.00000547,-0.000000
 34,-0.00000447,-0.00000659,0.00000089,0.00000259,0.00000219,-0.0000011
 4,0.00000099,0.00000749,0.00000589,0.00000010,0.00000032,-0.00001165,-
 0.00000167,-0.00000515,0.00001148,0.00000537,0.00000084,-0.00000841,0.
 00003419,-0.00021167,0.00017230,-0.00000107,0.00000045,0.00000195,0.00
 000037,0.00000159,0.00000013,0.00000150,-0.00000249,-0.00000209,0.0000
 0466,0.00001128,0.00000734,0.00000162,-0.00000278,0.00000830,-0.000000
 97,0.,-0.00000193,-0.00000136,-0.00000192,-0.00000073,-0.00000140,0.00
 000037,0.00000222,-0.00015986,0.00009380,0.00011985,-0.00004119,-0.000
 04034,-0.00001893,-0.00036432,-0.00001267,0.00009482,-0.00082958,-0.00
 017757,0.00027940,0.00202408,-0.00569918,-0.00206202,-0.02175725,0.000
 17752,0.00234710,0.02012064,0.05520648,0.00022349,0.00001899,0.0001662
 5,-0.00079668,-0.00004752,0.00001872,0.00002737,0.00008602,0.00004426,
 0.00001254,-0.00010822,0.00002148,-0.00001962,0.00002665,-0.00002132,0
 .00001086,0.00004839,0.00009552,-0.00001851,0.00000120,-0.00007725,0.0
 0001322,-0.00000402,0.00003577,0.02304074,0.00879129,-0.04087738,-0.03
 883072,-0.01710808,-0.01413880,-0.00189373,0.00008342,-0.00059411,0.00
 386799,-0.00019375,0.00208290,0.00000568,0.00036784,0.00085859,0.00014
 459,0.00005584,-0.00000847,-0.00010196,0.00002710,-0.00008748,0.000016
 94,-0.00002520,-0.00000408,0.00002241,-0.00001001,0.00000187,-0.000178
 56,0.00001239,-0.00001241,0.00027565,0.00002332,0.00000722,0.00000802,
 -0.00000487,-0.00000028,-0.00001382,0.00000700,-0.00000312,0.00000242,
 0.00000135,0.00000199,0.00000097,-0.00001124,0.00001075,-0.00000792,0.
 00000754,-0.00002837,0.00000330,0.00000120,0.00000485,0.00000681,-0.00
 000182,0.00000433,-0.00000914,0.00001235,-0.00000660,0.00000945,-0.000
 01115,0.00000393,-0.00000417,0.00000412,0.00000029,-0.00014366,0.00002
 841,-0.00009988,0.00000104,-0.00000102,-0.00000070,-0.00000284,-0.0000
 0077,-0.00000237,-0.00000496,0.00000131,0.00000726,-0.00001960,-0.0000
 1735,-0.00003115,-0.00001012,0.00000507,0.00000389,-0.00000388,-0.0000
 0253,-0.00000404,-0.00000031,0.00000106,-0.00000262,-0.00000102,0.0000
 0169,0.00000061,-0.00008941,0.00000750,0.00000904,-0.00000556,-0.00001
 348,0.00000186,-0.00001289,0.00003982,-0.00002633,0.00000294,-0.000042
 03,0.00014060,-0.00036235,-0.00128473,0.00009317,0.02636041,0.00114788
 ,0.00028968,-0.01152542,0.00807904,0.05212192\\0.00545930,-0.00797307,
 -0.00729074,0.00768379,0.00313264,0.00696839,0.01337359,-0.01208377,0.
 01148247,0.00892624,0.01008411,0.00776706,-0.01737160,-0.00910272,-0.0
 2437490,-0.02242662,-0.02718949,-0.02546618,0.00415128,0.00769022,0.00
 580561,0.00991361,0.00421821,0.01604655,-0.01634656,0.02107538,-0.0123
 3781,0.01237898,0.01341279,-0.00161731,0.00147386,-0.03465729,0.006285
 68,0.00637994,-0.00811824,0.02138449,0.00358852,0.02318540,0.01159631,
 -0.03106509,0.03235568,-0.00133605,-0.00429631,-0.01829637,-0.00343094
 ,0.03248566,-0.00632127,-0.01055632,-0.00902742,0.04106843,0.03735630,
 -0.00063063,-0.00695171,0.01783723,-0.00391930,0.01668185,-0.01884006,
 0.00279381,-0.02550966,-0.00960440,0.00660747,-0.00673856,-0.00919249,
 -0.01345557,-0.00339708,0.02795135,-0.00118812,-0.02469961,0.00923207,
 -0.01404544,-0.01629629,0.01505681,0.00198501,0.03445444,-0.01882663,0
 .00650117,-0.01301714,0.01070479,-0.01798082,0.01395533,0.01790327,0.0
 4763876,-0.01561103,-0.02409555,-0.01371483,0.01356456,0.00065660,0.00
 006061,0.00179170,-0.00056993,-0.00059392,-0.00298756,-0.00299155,-0.0
 1938080,-0.00269956,-0.00462980,0.01851937,-0.00024953,0.00285913,-0.0
 2440126,0.00213996,-0.00041141,0.02253489,0.00102294,-0.00296582,-0.02
 033989,-0.00329850,-0.00419105,-0.00194394,-0.00766361,-0.01577768,0.0
 1828236,0.00465992,-0.00049285,0.01883658,0.00118369,-0.00748125,-0.02
 333470,-0.00036319,0.00340996,0.02306483,0.00403257,-0.00070493,-0.018
 99055,-0.00157914,-0.00035543,0.02161609,0.00052134,-0.00121943,0.0021
 2995,0.00744393,-0.01871163,-0.02193230,-0.00287071,-0.00283194\\\@


0EVERYBODY IS IGNORANT, ONLY ON DIFFERENT SUBJECTS.
0          WILL ROGERS
 Job cpu time:  3 days 20 hours 22 minutes 37.7 seconds.
 File lengths (MBytes):  RWF=   2351 Int=      0 D2E=      0 Chk=     43 Scr=      1
 Normal termination of Gaussian 09 at Fri Feb 12 10:18:47 2016.
Gaussian '09 finished on node018 at Fri Feb 12 10:18:47 EST 2016.
