Gaussian '09 started on node026 at Fri Mar 25 03:15:53 EDT 2016.
 Entering Gaussian System, Link 0=/usr/local/gaussian/g09/g09
 Initial command:
 /usr/local/gaussian/g09/l1.exe /home/srmcgrat/thesis/gaussian/cellobiose/400K/6778ps/1/2dp/gaussian1270/Gau-1306.inp -scrdir=/home/srmcgrat/thesis/gaussian/cellobiose/400K/6778ps/1/2dp/gaussian1270/
 Entering Link 1 = /usr/local/gaussian/g09/l1.exe PID=      1308.
  
 Copyright (c) 1988,1990,1992,1993,1995,1998,2003,2009,2010,
            Gaussian, Inc.  All Rights Reserved.
  
 This is part of the Gaussian(R) 09 program.  It is based on
 the Gaussian(R) 03 system (copyright 2003, Gaussian, Inc.),
 the Gaussian(R) 98 system (copyright 1998, Gaussian, Inc.),
 the Gaussian(R) 94 system (copyright 1995, Gaussian, Inc.),
 the Gaussian 92(TM) system (copyright 1992, Gaussian, Inc.),
 the Gaussian 90(TM) system (copyright 1990, Gaussian, Inc.),
 the Gaussian 88(TM) system (copyright 1988, Gaussian, Inc.),
 the Gaussian 86(TM) system (copyright 1986, Carnegie Mellon
 University), and the Gaussian 82(TM) system (copyright 1983,
 Carnegie Mellon University). Gaussian is a federally registered
 trademark of Gaussian, Inc.
  
 This software contains proprietary and confidential information,
 including trade secrets, belonging to Gaussian, Inc.
  
 This software is provided under written license and may be
 used, copied, transmitted, or stored only in accord with that
 written license.
  
 The following legend is applicable only to US Government
 contracts under FAR:
  
                    RESTRICTED RIGHTS LEGEND
  
 Use, reproduction and disclosure by the US Government is
 subject to restrictions as set forth in subparagraphs (a)
 and (c) of the Commercial Computer Software - Restricted
 Rights clause in FAR 52.227-19.
  
 Gaussian, Inc.
 340 Quinnipiac St., Bldg. 40, Wallingford CT 06492
  
  
 ---------------------------------------------------------------
 Warning -- This program may not be used in any manner that
 competes with the business of Gaussian, Inc. or will provide
 assistance to any competitor of Gaussian, Inc.  The licensee
 of this program is prohibited from giving any competitor of
 Gaussian, Inc. access to this program.  By using this program,
 the user acknowledges that Gaussian, Inc. is engaged in the
 business of creating and licensing software in the field of
 computational chemistry and represents and warrants to the
 licensee that it is not a competitor of Gaussian, Inc. and that
 it will not use this program in any manner prohibited above.
 ---------------------------------------------------------------
  

 Cite this work as:
 Gaussian 09, Revision B.01,
 M. J. Frisch, G. W. Trucks, H. B. Schlegel, G. E. Scuseria, 
 M. A. Robb, J. R. Cheeseman, G. Scalmani, V. Barone, B. Mennucci, 
 G. A. Petersson, H. Nakatsuji, M. Caricato, X. Li, H. P. Hratchian, 
 A. F. Izmaylov, J. Bloino, G. Zheng, J. L. Sonnenberg, M. Hada, 
 M. Ehara, K. Toyota, R. Fukuda, J. Hasegawa, M. Ishida, T. Nakajima, 
 Y. Honda, O. Kitao, H. Nakai, T. Vreven, J. A. Montgomery, Jr., 
 J. E. Peralta, F. Ogliaro, M. Bearpark, J. J. Heyd, E. Brothers, 
 K. N. Kudin, V. N. Staroverov, T. Keith, R. Kobayashi, J. Normand, 
 K. Raghavachari, A. Rendell, J. C. Burant, S. S. Iyengar, J. Tomasi, 
 M. Cossi, N. Rega, J. M. Millam, M. Klene, J. E. Knox, J. B. Cross, 
 V. Bakken, C. Adamo, J. Jaramillo, R. Gomperts, R. E. Stratmann, 
 O. Yazyev, A. J. Austin, R. Cammi, C. Pomelli, J. W. Ochterski, 
 R. L. Martin, K. Morokuma, V. G. Zakrzewski, G. A. Voth, 
 P. Salvador, J. J. Dannenberg, S. Dapprich, A. D. Daniels, 
 O. Farkas, J. B. Foresman, J. V. Ortiz, J. Cioslowski, 
 and D. J. Fox, Gaussian, Inc., Wallingford CT, 2010.
 
 ******************************************
 Gaussian 09:  EM64L-G09RevB.01 12-Aug-2010
                25-Mar-2016 
 ******************************************
 -------------------------------------------------
 # freq=raman b3lyp/6-31+g(2d,p) geom=connectivity
 -------------------------------------------------
 1/10=4,30=1,38=1,57=2/1,3;
 2/12=2,17=6,18=5,40=1/2;
 3/5=1,6=6,7=112,11=2,16=1,25=1,30=1,71=2,74=-5/1,2,3;
 4//1;
 5/5=2,38=5,98=1/2;
 8/6=4,10=90,11=11/1;
 10/13=10,15=4/2;
 11/6=3,8=1,9=11,15=111,16=1/1,2,10;
 10/6=1/2;
 6/7=2,8=2,9=2,10=2,18=1,28=1/1;
 7/8=1,10=1,25=1/1,2,3,16;
 1/10=4,30=1/3;
 99//99;
 -----------------
 400 6778/6778.com
 -----------------
 Symbolic Z-matrix:
 Charge =  0 Multiplicity = 1
 O                     8.974     7.586     11.935 
 C                     9.437     7.917     13.252 
 C                     9.136     9.355     13.64 
 O                     9.636     10.364    12.75 
 H                     9.471     9.945     11.857 
 C                     9.585     9.704     15.05 
 O                     9.11      10.985    15.488 
 H                     9.188     10.972    16.485 
 C                     9.04      5.446     13.987 
 O                     8.469     4.78      12.852 
 H                     8.777     3.83      12.907 
 C                     8.863     6.931     14.258 
 O                     9.254     7.265     15.597 
 C                     8.925     8.629     15.898 
 O                     9.524     8.794     17.191 
 C                     8.989     8.493     18.488 
 C                     9.25      7.051     18.891 
 O                     8.613     6.196     17.93 
 H                     8.676     6.748     17.098 
 C                     8.921     6.644     20.319 
 O                     9.375     5.426     20.926 
 H                     8.849     5.474     21.775 
 C                     9.3       10.911    19.247 
 O                     9.95      11.507    18.115 
 H                     10.099    12.486    18.255 
 C                     9.538     9.439     19.542 
 O                     9.003     9.157     20.844 
 C                     9.256     7.803     21.244 
 O                     8.546     7.733     22.489 
 H                     9.1742    7.69225   23.21378 
 H                     9.5961    11.46354   20.11413 
 H                     8.24626   11.04589   19.11916 
 H                     10.59618   9.28729   19.58818 
 H                     7.92909   8.63279   18.44388 
 H                     10.30292   6.8981    18.7775 
 H                     7.85379   6.56859   20.33566 
 H                     10.30002   7.73046   21.46684 
 H                     9.7274    7.44098   11.35798 
 H                     8.67426   4.93494   14.853 
 H                     10.09454   5.27056   13.94154 
 H                     7.80556   7.09134   14.2262 
 H                     10.50053   7.79968   13.25746 
 H                     8.0701    9.44812   13.63073 
 H                     10.65031   9.64666   15.13207 
 H                     7.86548   8.76999   15.94744 
 

 GradGradGradGradGradGradGradGradGradGradGradGradGradGradGradGradGradGrad
 Berny optimization.
 Initialization pass.
 Trust Radius=3.00D-01 FncErr=1.00D-07 GrdErr=1.00D-07
 Number of steps in this run=      2 maximum allowed number of steps=      2.
 GradGradGradGradGradGradGradGradGradGradGradGradGradGradGradGradGradGrad

                          Input orientation:                          
 ---------------------------------------------------------------------
 Center     Atomic      Atomic             Coordinates (Angstroms)
 Number     Number       Type             X           Y           Z
 ---------------------------------------------------------------------
      1          8           0        8.974000    7.586000   11.935000
      2          6           0        9.437000    7.917000   13.252000
      3          6           0        9.136000    9.355000   13.640000
      4          8           0        9.636000   10.364000   12.750000
      5          1           0        9.471000    9.945000   11.857000
      6          6           0        9.585000    9.704000   15.050000
      7          8           0        9.110000   10.985000   15.488000
      8          1           0        9.188000   10.972000   16.485000
      9          6           0        9.040000    5.446000   13.987000
     10          8           0        8.469000    4.780000   12.852000
     11          1           0        8.777000    3.830000   12.907000
     12          6           0        8.863000    6.931000   14.258000
     13          8           0        9.254000    7.265000   15.597000
     14          6           0        8.925000    8.629000   15.898000
     15          8           0        9.524000    8.794000   17.191000
     16          6           0        8.989000    8.493000   18.488000
     17          6           0        9.250000    7.051000   18.891000
     18          8           0        8.613000    6.196000   17.930000
     19          1           0        8.676000    6.748000   17.098000
     20          6           0        8.921000    6.644000   20.319000
     21          8           0        9.375000    5.426000   20.926000
     22          1           0        8.849000    5.474000   21.775000
     23          6           0        9.300000   10.911000   19.247000
     24          8           0        9.950000   11.507000   18.115000
     25          1           0       10.099000   12.486000   18.255000
     26          6           0        9.538000    9.439000   19.542000
     27          8           0        9.003000    9.157000   20.844000
     28          6           0        9.256000    7.803000   21.244000
     29          8           0        8.546000    7.733000   22.489000
     30          1           0        9.174201    7.692249   23.213778
     31          1           0        9.596103   11.463542   20.114133
     32          1           0        8.246264   11.045892   19.119156
     33          1           0       10.596183    9.287291   19.588179
     34          1           0        7.929088    8.632789   18.443883
     35          1           0       10.302919    6.898097   18.777500
     36          1           0        7.853791    6.568592   20.335661
     37          1           0       10.300022    7.730460   21.466836
     38          1           0        9.727404    7.440979   11.357981
     39          1           0        8.674257    4.934939   14.852996
     40          1           0       10.094539    5.270558   13.941539
     41          1           0        7.805560    7.091342   14.226201
     42          1           0       10.500534    7.799676   13.257461
     43          1           0        8.070100    9.448116   13.630728
     44          1           0       10.650306    9.646660   15.132069
     45          1           0        7.865483    8.769990   15.947444
 ---------------------------------------------------------------------
                    Distance matrix (angstroms):
                    1          2          3          4          5
     1  O    0.000000
     2  C    1.434719   0.000000
     3  C    2.462241   1.519536   0.000000
     4  O    2.969807   2.505876   1.435333   0.000000
     5  H    2.412048   2.461700   1.907725   1.000117   0.000000
     6  C    3.816080   2.539306   1.520362   2.393366   3.204111
     7  O    4.918893   3.810413   2.464281   2.856390   3.794217
     8  H    5.675675   4.455033   3.272830   3.810590   4.749021
     9  C    2.965579   2.608386   3.925545   5.106085   4.996365
    10  O    2.994921   3.307233   4.690038   5.705554   5.354555
    11  H    3.884730   4.154298   5.584962   6.592093   6.243185
    12  C    2.416128   1.521088   2.516392   3.828457   3.901110
    13  O    3.686690   2.440823   2.865637   4.225534   4.606201
    14  C    4.098246   2.787544   2.381210   3.664103   4.284817
    15  O    5.421005   4.036387   3.615918   4.711680   5.457029
    16  C    6.615488   5.286603   4.926232   6.069917   6.805203
    17  C    6.982001   5.708174   5.735365   6.988336   7.609286
    18  O    6.164612   5.052178   5.353215   6.726898   7.188358
    19  H    5.239047   4.091137   4.354976   5.736040   6.190389
    20  C    8.436921   7.199255   7.211434   8.464005   9.099700
    21  O    9.255511   8.068408   8.281302   9.555048  10.132983
    22  H   10.064878   8.885692   9.017913  10.294761  10.896947
    23  C    8.039107   6.702450   5.821210   6.528638   7.454830
    24  O    7.383713   6.066303   5.031831   5.494385   6.467755
    25  H    8.075768   6.807644   5.659395   5.917962   6.912703
    26  C    7.849723   6.472309   5.916271   6.855399   7.701932
    27  O    9.046500   7.704831   7.207948   8.207946   9.033612
    28  C    9.315798   7.994862   7.761696   8.879817   9.630688
    29  O   10.563698   9.281697   9.015752  10.146841  10.898990
    30  H   11.281055   9.967778   9.717171  10.809355  11.581855
    31  H    9.073068   7.726069   6.824372   7.445874   8.396539
    32  H    8.007031   6.755097   5.802749   6.554578   7.446533
    33  H    8.006061   6.585481   6.125157   6.988701   7.840264
    34  H    6.674816   5.453604   5.005548   6.191199   6.891039
    35  H    7.004216   5.684992   5.813087   6.984842   7.607170
    36  H    8.535871   7.382615   7.364781   8.667389   9.268397
    37  H    9.624713   8.262151   8.077960   9.130153   9.896485
    38  H    0.960000   1.974396   3.036585   3.238846   2.566103
    39  H    3.953817   3.469532   4.606681   5.901038   5.891647
    40  H    3.262373   2.812735   4.206232   5.251016   5.156017
    41  H    2.619072   2.071805   2.690326   4.029885   4.065731
    42  H    2.030977   1.070000   2.104120   2.753306   2.761095
    43  H    2.675819   2.087144   1.070000   2.016573   2.314201
    44  H    4.156630   2.828161   2.145800   2.686568   3.493687
    45  H    4.327857   3.234606   2.698287   3.987386   4.548634
                    6          7          8          9         10
     6  C    0.000000
     7  O    1.434723   0.000000
     8  H    1.955673   1.000131   0.000000
     9  C    4.422393   5.739200   6.066184   0.000000
    10  O    5.506581   6.772105   7.215020   1.434511   0.000000
    11  H    6.304696   7.613572   7.998698   1.961383   1.000194
    12  C    2.972890   4.243681   4.625455   1.519867   2.599783
    13  O    2.521407   3.724381   3.812447   2.438577   3.785033
    14  C    1.519977   2.398554   2.429689   3.714382   4.929590
    15  O    2.327166   2.805724   2.314091   4.659289   6.004344
    16  C    3.693451   3.901885   3.193282   5.435606   6.769141
    17  C    4.680162   5.203495   4.600752   5.164237   6.498994
    18  O    4.641686   5.398601   5.022830   4.036345   5.273697
    19  H    3.709248   4.553309   4.298847   3.392053   4.684484
    20  C    6.129181   6.497581   5.788128   6.445432   7.709403
    21  O    7.271366   7.781038   7.107430   6.947111   8.150315
    22  H    7.978736   8.364545   7.637213   7.790392   8.958011
    23  C    4.376401   3.764526   2.764943   7.589560   8.898075
    24  O    3.574669   2.806994   1.877170   7.389466   8.668625
    25  H    4.275014   3.299608   2.501003   8.300536   9.551531
    26  C    4.500055   4.359841   3.437708   6.859306   8.222235
    27  O    5.848792   5.660368   4.725392   7.796880   9.127724
    28  C    6.487502   6.578600   5.717977   7.633227   8.954527
    29  O    7.765506   7.740000   6.852102   8.818073  10.079579
    30  H    8.418026   8.398450   7.485546   9.497214  10.786331
    31  H    5.361115   4.676153   3.684938   8.605918   9.933714
    32  H    4.488977   3.732967   2.798411   7.637266   8.865002
    33  H    4.668105   4.680003   3.801440   6.967813   8.379540
    34  H    3.925300   3.957864   3.300604   5.590488   6.812095
    35  H    4.720462   5.380209   4.805756   5.162600   6.554475
    36  H    6.384832   6.677015   5.999809   6.555364   7.718984
    37  H    6.751437   6.910475   6.046724   7.921765   9.288340
    38  H    4.332730   5.477073   6.248631   3.371084   3.300982
    39  H    4.859240   6.098881   6.274829   1.070000   2.017454
    40  H    4.598231   6.001309   6.308522   1.070000   2.017454
    41  H    3.266655   4.295844   4.698172   2.070799   2.769635
    42  H    2.770893   4.129791   4.712048   2.864468   3.661963
    43  H    2.091586   2.625426   3.423272   4.133349   4.749405
    44  H    1.070000   2.071324   2.392757   4.642178   5.800103
    45  H    2.152794   2.581895   2.624284   4.033824   5.085865
                   11         12         13         14         15
    11  H    0.000000
    12  C    3.383607   0.000000
    13  O    4.388947   1.434349   0.000000
    14  C    5.656712   2.361493   1.435039   0.000000
    15  O    6.599391   3.536973   2.225214   1.434530   0.000000
    16  C    7.275718   4.510944   3.152156   2.594358   1.434934
    17  C    6.812256   4.650684   3.300947   3.399082   2.450128
    18  O    5.554762   3.753173   2.645096   3.185256   2.850552
    19  H    5.107779   2.852027   1.689489   2.245031   2.216725
    20  C    7.929507   6.068068   4.774287   4.846182   3.843240
    21  O    8.198121   6.854881   5.638688   5.978503   5.031486
    22  H    9.019387   7.656914   6.445106   6.670752   5.700095
    23  C    9.518912   6.396991   5.159257   4.069883   2.959561
    24  O    9.350696   6.082581   4.981898   3.774732   2.897520
    25  H   10.260367   6.954260   5.919276   4.670136   3.885046
    26  C    8.721423   5.887813   4.513309   3.782936   2.437913
    27  O    9.561588   6.953422   5.583339   4.974714   3.707778
    28  C    9.247688   7.051172   5.672571   5.419553   4.180994
    29  O   10.348985   8.276053   6.944059   6.662412   5.490993
    30  H   11.013828   8.993459   7.629168   7.379716   6.132704
    31  H   10.530179   7.441483   6.176511   5.124528   3.959339
    32  H    9.536334   6.398714   5.264623   4.083858   3.228221
    33  H    8.816439   6.080036   4.671255   4.104098   2.671962
    34  H    7.378537   4.614097   3.425052   2.733747   2.034563
    35  H    6.797383   4.743451   3.369040   3.631282   2.591939
    36  H    7.971022   6.171532   4.990038   5.008553   4.198920
    37  H    9.529112   7.394017   5.980451   5.806031   4.473936
    38  H    4.042511   3.068776   4.269000   4.760989   5.991340
    39  H    2.240166   2.091388   2.513728   3.847206   4.591370
    40  H    2.209386   2.091388   2.724859   4.058903   4.826920
    41  H    3.649703   1.070000   2.001806   2.532282   3.826502
    42  H    4.341857   2.106465   2.704287   3.184734   4.173132
    43  H    5.708478   2.712570   3.167624   2.557798   3.900927
    44  H    6.503364   3.366492   2.799667   2.144519   2.496956
    45  H    5.871853   2.689079   2.077447   1.070000   2.073087
                   16         17         18         19         20
    16  C    0.000000
    17  C    1.519834   0.000000
    18  O    2.393522   1.435380   0.000000
    19  H    2.252797   1.906865   1.000448   0.000000
    20  C    2.603072   1.520879   2.450079   3.231978   0.000000
    21  O    3.936919   2.607197   3.185837   4.109729   1.434604
    22  H    4.465236   3.311372   3.919312   4.850498   1.869230
    23  C    2.553336   3.876704   4.943448   4.726325   4.415893
    24  O    3.185411   4.576911   5.479828   5.030452   5.437391
    25  H    4.150956   5.537556   6.471315   6.023971   6.306881
    26  C    1.518958   2.491844   3.737809   3.735995   2.965880
    27  O    2.447821   2.882786   4.172651   4.465728   2.568563
    28  C    2.853581   2.470253   3.738782   4.317261   1.520240
    29  O    4.096566   3.729121   4.811584   5.481789   2.456714
    30  H    4.796715   4.370738   5.520146   6.208264   3.089122
    31  H    3.440495   4.591990   5.786530   5.672741   4.870905
    32  H    2.732631   4.125374   5.006999   4.768818   4.612109
    33  H    2.103409   2.701715   4.029721   4.041793   3.213615
    34  H    1.070000   2.108739   2.582586   2.433456   2.907789
    35  H    2.086602   1.070000   2.016686   2.343099   2.085782
    36  H    2.899292   2.066195   2.549986   3.345245   1.070000
    37  H    3.342710   2.863415   4.208304   4.763340   2.097528
    38  H    7.244940   7.558199   6.781099   5.876520   9.032460
    39  H    5.096285   4.595071   3.325956   2.885696   5.732275
    40  H    5.681255   5.327325   4.354219   3.762757   6.628390
    41  H    4.639839   4.883481   3.895090   3.020394   6.210195
    42  H    5.488531   5.819030   5.288401   4.380033   7.327745
    43  H    5.034850   5.899898   5.418002   4.436183   7.302060
    44  H    3.918308   4.777852   4.887339   4.020572   6.237845
    45  H    2.791673   3.679176   3.333876   2.463566   4.974379
                   21         22         23         24         25
    21  O    0.000000
    22  H    0.999890   0.000000
    23  C    5.736714   6.012916   0.000000
    24  O    6.723906   7.141771   1.434970   0.000000
    25  H    7.583008   7.944875   2.025609   1.000121   0.000000
    26  C    4.248081   4.602416   1.520017   2.546114   3.354892
    27  O    3.750396   3.801969   2.390635   3.723809   4.357336
    28  C    2.401128   2.423190   3.694538   4.898152   5.619187
    29  O    2.907311   2.388448   4.602039   5.945264   6.552066
    30  H    3.226474   2.663920   5.109942   6.414960   6.958791
    31  H    6.095894   6.260292   1.070000   2.030681   2.180528
    32  H    6.010152   6.201837   1.070000   2.030681   2.500661
    33  H    4.265046   4.730330   2.105451   2.741335   3.500900
    34  H    4.305237   4.681936   2.777524   3.528928   4.426220
    35  H    2.764806   3.623112   4.162892   4.669630   5.615982
    36  H    1.992008   2.064043   4.704595   5.806316   6.662269
    37  H    2.541398   2.700378   4.005440   5.061578   5.742078
    38  H    9.784238  10.637428   8.629041   7.889194   8.553315
    39  H    6.132990   6.945161   7.443933   7.447159   8.403693
    40  H    7.023148   7.934474   7.784202   7.505457   8.406460
    41  H    7.079817   7.790310   6.483176   6.262541   7.112906
    42  H    8.106026   8.982472   6.855377   6.135391   6.862817
    43  H    8.432152   9.095573   5.932554   5.280315   5.893137
    44  H    7.280797   8.048871   4.511600   3.584574   4.256581
    45  H    6.184410   6.766924   4.186745   4.066293   4.911430
                   26         27         28         29         30
    26  C    0.000000
    27  O    1.435602   0.000000
    28  C    2.377567   1.434338   0.000000
    29  O    3.546732   2.223207   1.434930   0.000000
    30  H    4.082332   2.791174   1.974584   0.960000   0.000000
    31  H    2.104634   2.490906   3.846016   4.545289   4.899841
    32  H    2.104634   2.667518   4.006355   4.735076   5.373446
    33  H    1.070000   2.032805   2.596335   3.877349   4.208462
    34  H    2.108183   2.681165   3.207788   4.189651   5.018647
    35  H    2.761476   3.326087   2.828164   4.190353   4.645992
    36  H    3.421359   2.877316   2.077266   2.543987   3.360007
    37  H    2.684172   2.026131   1.070000   2.030128   2.078638
    38  H    8.426514   9.667163   9.903871  11.197347  11.871356
    39  H    6.558916   7.336621   7.029163   8.133521   8.817901
    40  H    7.003629   7.996241   7.774468   9.028881   9.627358
    41  H    6.063874   7.035345   7.201371   8.320687   9.111027
    42  H    6.565766   7.851147   8.082925   9.436417  10.044846
    43  H    6.090809   7.279172   7.878749   9.035325   9.804945
    44  H    4.552783   5.964858   6.534437   7.887625   8.444680
    45  H    4.020662   5.041823   5.560765   6.658108   7.461493
                   31         32         33         34         35
    31  H    0.000000
    32  H    1.728143   0.000000
    33  H    2.452113   2.972336   0.000000
    34  H    3.685354   2.525799   2.975093   0.000000
    35  H    4.809311   4.642280   2.539971   2.958975   0.000000
    36  H    5.200506   4.656194   3.933290   2.800965   2.921415
    37  H    4.032519   4.552100   2.457801   3.946362   2.815203
    38  H    9.636828   8.684758   8.479375   7.407048   7.461582
    39  H    8.435166   7.465056   6.712580   5.208056   4.680626
    40  H    8.757991   7.973602   6.947685   6.022033   5.106743
    41  H    7.549168   6.306639   6.431219   4.492233   5.195043
    42  H    7.826612   7.069591   6.503855   5.848537   5.596671
    43  H    6.958820   5.718983   6.472881   4.883759   6.162576
    44  H    5.406789   4.861494   4.470904   4.404664   4.578694
    45  H    5.254671   3.922306   4.580314   2.501015   4.177834
                   36         37         38         39         40
    36  H    0.000000
    37  H    2.934884   0.000000
    38  H    9.212503  10.129198   0.000000
    39  H    5.779412   7.362129   4.427695   0.000000
    40  H    6.898597   7.919813   3.394154   1.720638   0.000000
    41  H    6.131973   7.684895   3.470219   2.407816   2.938658
    42  H    7.656483   8.212115   2.081927   3.753364   2.651270
    43  H    7.300313   8.326313   3.455523   4.714628   4.652629
    44  H    6.661258   6.627503   4.467720   5.116930   4.569082
    45  H    4.909453   6.121380   5.127982   4.069343   4.608511
                   41         42         43         44         45
    41  H    0.000000
    42  H    2.950099   0.000000
    43  H    2.445191   2.960354   0.000000
    44  H    3.929737   2.635894   2.991807   0.000000
    45  H    2.405021   3.888575   2.422581   3.031275   0.000000
 Stoichiometry    C12H22O11
 Framework group  C1[X(C12H22O11)]
 Deg. of freedom   129
 Full point group                 C1      NOp   1
 Largest Abelian subgroup         C1      NOp   1
 Largest concise Abelian subgroup C1      NOp   1
                         Standard orientation:                         
 ---------------------------------------------------------------------
 Center     Atomic      Atomic             Coordinates (Angstroms)
 Number     Number       Type             X           Y           Z
 ---------------------------------------------------------------------
      1          8           0        5.024574   -0.438100   -0.144790
      2          6           0        3.697860   -0.098644    0.283016
      3          6           0        3.261219    1.279951   -0.183686
      4          8           0        4.117477    2.370049    0.188724
      5          1           0        5.023835    1.964407    0.069533
      6          6           0        1.840931    1.632521    0.228597
      7          8           0        1.359349    2.833060   -0.392058
      8          1           0        0.363468    2.796226   -0.307641
      9          6           0        3.045890   -2.622325    0.184803
     10          8           0        4.201829   -3.313070   -0.309667
     11          1           0        4.179300   -4.221269    0.108731
     12          6           0        2.724784   -1.178528   -0.164961
     13          8           0        1.375875   -0.845343    0.191116
     14          6           0        1.028635    0.459394   -0.295119
     15          8           0       -0.268303    0.650993    0.287218
     16          6           0       -1.555220    0.245853   -0.201394
     17          6           0       -1.909054   -1.167751    0.230368
     18          8           0       -0.920751   -2.059658   -0.306357
     19          1           0       -0.107717   -1.476717   -0.313559
     20          6           0       -3.323024   -1.658077   -0.040452
     21          8           0       -3.888001   -2.833335    0.557596
     22          1           0       -4.738910   -2.876154    0.034240
     23          6           0       -2.394744    2.657074   -0.174180
     24          8           0       -1.282497    3.363093    0.394664
     25          1           0       -1.455161    4.347643    0.427692
     26          6           0       -2.639664    1.214568    0.237701
     27          8           0       -3.932218    0.828118   -0.253129
     28          6           0       -4.286029   -0.498999    0.160274
     29          8           0       -5.529011   -0.693859   -0.529690
     30          1           0       -6.251079   -0.684099    0.102863
     31          1           0       -3.279553    3.211613    0.059272
     32          1           0       -2.273067    2.670554   -1.237153
     33          1           0       -2.679149    1.187641    1.306633
     34          1           0       -1.517396    0.260678   -1.270623
     35          1           0       -1.788919   -1.191175    1.293344
     36          1           0       -3.338709   -1.859704   -1.091166
     37          1           0       -4.504757   -0.454908    1.206751
     38          1           0        5.607258   -0.473714    0.617319
     39          1           0        2.197055   -3.201578   -0.113265
     40          1           0        3.098787   -2.670188    1.252422
     41          1           0        2.749608   -1.143424   -1.234097
     42          1           0        3.697919   -0.089459    1.352976
     43          1           0        3.265780    1.246589   -1.253156
     44          1           0        1.762409    1.698896    1.293646
     45          1           0        0.972911    0.472345   -1.363588
 ---------------------------------------------------------------------
 Rotational constants (GHZ):      0.3963253      0.1461432      0.1089675
 Standard basis: 6-31+G(2d,p) (6D, 7F)
 There are   685 symmetry adapted basis functions of A   symmetry.
 Integral buffers will be    131072 words long.
 Raffenetti 2 integral format.
 Two-electron integral symmetry is turned on.
   685 basis functions,  1028 primitive gaussians,   685 cartesian basis functions
    91 alpha electrons       91 beta electrons
       nuclear repulsion energy      2280.3464651206 Hartrees.
 NAtoms=   45 NActive=   45 NUniq=   45 SFac= 1.00D+00 NAtFMM=   50 NAOKFM=F Big=F
 One-electron integrals computed using PRISM.
 NBasis=   685 RedAO= T  NBF=   685
 NBsUse=   685 1.00D-06 NBFU=   685
 Harris functional with IExCor=  402 diagonalized for initial guess.
 ExpMin= 4.38D-02 ExpMax= 5.48D+03 ExpMxC= 8.25D+02 IAcc=2 IRadAn=         0 AccDes= 0.00D+00
 HarFok:  IExCor=  402 AccDes= 0.00D+00 IRadAn=         0 IDoV= 1
 ScaDFX=  1.000000  1.000000  1.000000  1.000000
 FoFCou: FMM=F IPFlag=           0 FMFlag=      100000 FMFlg1=           0
         NFxFlg=           0 DoJE=T BraDBF=F KetDBF=T FulRan=T
         Omega=  0.000000  0.000000  1.000000  0.000000  0.000000 ICntrl=     500 IOpCl=  0
         NMat0=    1 NMatS0=    1 NMatT0=    0 NMatD0=    1 NMtDS0=    0 NMtDT0=    0
         I1Cent=           4 NGrid=           0.
 Petite list used in FoFCou.
 Initial guess orbital symmetries:
       Occupied  (A) (A) (A) (A) (A) (A) (A) (A) (A) (A) (A) (A)
                 (A) (A) (A) (A) (A) (A) (A) (A) (A) (A) (A) (A)
                 (A) (A) (A) (A) (A) (A) (A) (A) (A) (A) (A) (A)
                 (A) (A) (A) (A) (A) (A) (A) (A) (A) (A) (A) (A)
                 (A) (A) (A) (A) (A) (A) (A) (A) (A) (A) (A) (A)
                 (A) (A) (A) (A) (A) (A) (A) (A) (A) (A) (A) (A)
                 (A) (A) (A) (A) (A) (A) (A) (A) (A) (A) (A) (A)
                 (A) (A) (A) (A) (A) (A) (A)
       Virtual   (A) (A) (A) (A) (A) (A) (A) (A) (A) (A) (A) (A)
                 (A) (A) (A) (A) (A) (A) (A) (A) (A) (A) (A) (A)
                 (A) (A) (A) (A) (A) (A) (A) (A) (A) (A) (A) (A)
                 (A) (A) (A) (A) (A) (A) (A) (A) (A) (A) (A) (A)
                 (A) (A) (A) (A) (A) (A) (A) (A) (A) (A) (A) (A)
                 (A) (A) (A) (A) (A) (A) (A) (A) (A) (A) (A) (A)
                 (A) (A) (A) (A) (A) (A) (A) (A) (A) (A) (A) (A)
                 (A) (A) (A) (A) (A) (A) (A) (A) (A) (A) (A) (A)
                 (A) (A) (A) (A) (A) (A) (A) (A) (A) (A) (A) (A)
                 (A) (A) (A) (A) (A) (A) (A) (A) (A) (A) (A) (A)
                 (A) (A) (A) (A) (A) (A) (A) (A) (A) (A) (A) (A)
                 (A) (A) (A) (A) (A) (A) (A) (A) (A) (A) (A) (A)
                 (A) (A) (A) (A) (A) (A) (A) (A) (A) (A) (A) (A)
                 (A) (A) (A) (A) (A) (A) (A) (A) (A) (A) (A) (A)
                 (A) (A) (A) (A) (A) (A) (A) (A) (A) (A) (A) (A)
                 (A) (A) (A) (A) (A) (A) (A) (A) (A) (A) (A) (A)
                 (A) (A) (A) (A) (A) (A) (A) (A) (A) (A) (A) (A)
                 (A) (A) (A) (A) (A) (A) (A) (A) (A) (A) (A) (A)
                 (A) (A) (A) (A) (A) (A) (A) (A) (A) (A) (A) (A)
                 (A) (A) (A) (A) (A) (A) (A) (A) (A) (A) (A) (A)
                 (A) (A) (A) (A) (A) (A) (A) (A) (A) (A) (A) (A)
                 (A) (A) (A) (A) (A) (A) (A) (A) (A) (A) (A) (A)
                 (A) (A) (A) (A) (A) (A) (A) (A) (A) (A) (A) (A)
                 (A) (A) (A) (A) (A) (A) (A) (A) (A) (A) (A) (A)
                 (A) (A) (A) (A) (A) (A) (A) (A) (A) (A) (A) (A)
                 (A) (A) (A) (A) (A) (A) (A) (A) (A) (A) (A) (A)
                 (A) (A) (A) (A) (A) (A) (A) (A) (A) (A) (A) (A)
                 (A) (A) (A) (A) (A) (A) (A) (A) (A) (A) (A) (A)
                 (A) (A) (A) (A) (A) (A) (A) (A) (A) (A) (A) (A)
                 (A) (A) (A) (A) (A) (A) (A) (A) (A) (A) (A) (A)
                 (A) (A) (A) (A) (A) (A) (A) (A) (A) (A) (A) (A)
                 (A) (A) (A) (A) (A) (A) (A) (A) (A) (A) (A) (A)
                 (A) (A) (A) (A) (A) (A) (A) (A) (A) (A) (A) (A)
                 (A) (A) (A) (A) (A) (A) (A) (A) (A) (A) (A) (A)
                 (A) (A) (A) (A) (A) (A) (A) (A) (A) (A) (A) (A)
                 (A) (A) (A) (A) (A) (A) (A) (A) (A) (A) (A) (A)
                 (A) (A) (A) (A) (A) (A) (A) (A) (A) (A) (A) (A)
                 (A) (A) (A) (A) (A) (A) (A) (A) (A) (A) (A) (A)
                 (A) (A) (A) (A) (A) (A) (A) (A) (A) (A) (A) (A)
                 (A) (A) (A) (A) (A) (A) (A) (A) (A) (A) (A) (A)
                 (A) (A) (A) (A) (A) (A) (A) (A) (A) (A) (A) (A)
                 (A) (A) (A) (A) (A) (A) (A) (A) (A) (A) (A) (A)
                 (A) (A) (A) (A) (A) (A) (A) (A) (A) (A) (A) (A)
                 (A) (A) (A) (A) (A) (A) (A) (A) (A) (A) (A) (A)
                 (A) (A) (A) (A) (A) (A) (A) (A) (A) (A) (A) (A)
                 (A) (A) (A) (A) (A) (A) (A) (A) (A) (A) (A) (A)
                 (A) (A) (A) (A) (A) (A) (A) (A) (A) (A) (A) (A)
                 (A) (A) (A) (A) (A) (A) (A) (A) (A) (A) (A) (A)
                 (A) (A) (A) (A) (A) (A) (A) (A) (A) (A) (A) (A)
                 (A) (A) (A) (A) (A) (A)
 The electronic state of the initial guess is 1-A.
 Requested convergence on RMS density matrix=1.00D-08 within 128 cycles.
 Requested convergence on MAX density matrix=1.00D-06.
 Requested convergence on             energy=1.00D-06.
 No special actions if energy rises.
 SCF Done:  E(RB3LYP) =  -1297.96333445     A.U. after   13 cycles
             Convg  =    0.3458D-08             -V/T =  2.0064
 Range of M.O.s used for correlation:     1   685
 NBasis=   685 NAE=    91 NBE=    91 NFC=     0 NFV=     0
 NROrb=    685 NOA=    91 NOB=    91 NVA=   594 NVB=   594

 **** Warning!!: The largest alpha MO coefficient is  0.61269341D+02

          Differentiating once with respect to electric field.
                with respect to dipole field.
          Electric field/nuclear overlap derivatives assumed to be zero.
          There are     3 degrees of freedom in the 1st order CPHF.  IDoFFX=0.
      3 vectors produced by pass  0 Test12= 1.80D-12 3.33D-08 XBig12= 1.23D+02 1.57D+00.
 AX will form     3 AO Fock derivatives at one time.
      3 vectors produced by pass  1 Test12= 1.80D-12 3.33D-08 XBig12= 2.42D+01 4.32D-01.
      3 vectors produced by pass  2 Test12= 1.80D-12 3.33D-08 XBig12= 9.67D+00 2.00D-01.
      3 vectors produced by pass  3 Test12= 1.80D-12 3.33D-08 XBig12= 1.07D+00 9.93D-02.
      3 vectors produced by pass  4 Test12= 1.80D-12 3.33D-08 XBig12= 3.05D-01 4.93D-02.
      3 vectors produced by pass  5 Test12= 1.80D-12 3.33D-08 XBig12= 5.53D-02 1.94D-02.
      3 vectors produced by pass  6 Test12= 1.80D-12 3.33D-08 XBig12= 2.03D-02 1.67D-02.
      3 vectors produced by pass  7 Test12= 1.80D-12 3.33D-08 XBig12= 2.83D-03 8.55D-03.
      3 vectors produced by pass  8 Test12= 1.80D-12 3.33D-08 XBig12= 6.22D-04 2.59D-03.
      3 vectors produced by pass  9 Test12= 1.80D-12 3.33D-08 XBig12= 1.66D-04 1.51D-03.
      3 vectors produced by pass 10 Test12= 1.80D-12 3.33D-08 XBig12= 3.87D-05 5.71D-04.
      3 vectors produced by pass 11 Test12= 1.80D-12 3.33D-08 XBig12= 7.24D-06 3.36D-04.
      3 vectors produced by pass 12 Test12= 1.80D-12 3.33D-08 XBig12= 1.22D-06 1.18D-04.
      3 vectors produced by pass 13 Test12= 1.80D-12 3.33D-08 XBig12= 4.51D-07 6.31D-05.
      3 vectors produced by pass 14 Test12= 1.80D-12 3.33D-08 XBig12= 7.07D-08 2.52D-05.
      3 vectors produced by pass 15 Test12= 1.80D-12 3.33D-08 XBig12= 1.34D-08 1.04D-05.
      3 vectors produced by pass 16 Test12= 1.80D-12 3.33D-08 XBig12= 2.21D-09 4.60D-06.
      3 vectors produced by pass 17 Test12= 1.80D-12 3.33D-08 XBig12= 1.67D-10 1.20D-06.
      3 vectors produced by pass 18 Test12= 1.80D-12 3.33D-08 XBig12= 2.13D-11 3.08D-07.
      3 vectors produced by pass 19 Test12= 1.80D-12 3.33D-08 XBig12= 9.50D-12 1.74D-07.
      2 vectors produced by pass 20 Test12= 1.80D-12 3.33D-08 XBig12= 8.11D-12 1.79D-07.
      2 vectors produced by pass 21 Test12= 1.80D-12 3.33D-08 XBig12= 2.06D-12 8.28D-08.
      1 vectors produced by pass 22 Test12= 1.80D-12 3.33D-08 XBig12= 3.81D-13 3.67D-08.
 Inverted reduced A of dimension    65 with in-core refinement.
 End of Minotr Frequency-dependent properties file   721 does not exist.
 End of Minotr Frequency-dependent properties file   722 does not exist.
 Symmetrizing basis deriv contribution to polar:
 IMax=3 JMax=2 DiffMx= 0.00D+00
 G2DrvN: will do    16 centers at a time, making    3 passes doing MaxLOS=2.
 Calling FoFCou, ICntrl=  3107 FMM=F I1Cent=   0 AccDes= 0.00D+00.
 Calling FoFCou, ICntrl=  3107 FMM=F I1Cent=   0 AccDes= 0.00D+00.
 Calling FoFCou, ICntrl=  3107 FMM=F I1Cent=   0 AccDes= 0.00D+00.
 FoFDir/FoFCou used for L=0 through L=2.
 End of G2Drv Frequency-dependent properties file   721 does not exist.
 End of G2Drv Frequency-dependent properties file   722 does not exist.
          IDoAtm=111111111111111111111111111111111111111111111
          Differentiating once with respect to electric field.
                with respect to dipole field.
          Differentiating once with respect to nuclear coordinates.
          There are   138 degrees of freedom in the 1st order CPHF.  IDoFFX=5.
 Will reuse    3 saved solutions.
    135 vectors produced by pass  0 Test12= 5.41D-14 1.00D-09 XBig12= 1.49D-01 5.72D-02.
 AX will form    45 AO Fock derivatives at one time.
    135 vectors produced by pass  1 Test12= 5.41D-14 1.00D-09 XBig12= 1.66D-02 1.02D-02.
    132 vectors produced by pass  2 Test12= 5.41D-14 1.00D-09 XBig12= 1.02D-04 1.21D-03.
    132 vectors produced by pass  3 Test12= 5.41D-14 1.00D-09 XBig12= 4.30D-07 5.63D-05.
    132 vectors produced by pass  4 Test12= 5.41D-14 1.00D-09 XBig12= 8.96D-10 1.88D-06.
    132 vectors produced by pass  5 Test12= 5.41D-14 1.00D-09 XBig12= 2.69D-12 9.15D-08.
     82 vectors produced by pass  6 Test12= 5.41D-14 1.00D-09 XBig12= 9.91D-14 1.89D-08.
 Inverted reduced A of dimension   880 with in-core refinement.
 Isotropic polarizability for W=    0.000000      192.93 Bohr**3.
 End of Minotr Frequency-dependent properties file   721 does not exist.
 End of Minotr Frequency-dependent properties file   722 does not exist.

 **********************************************************************

            Population analysis using the SCF density.

 **********************************************************************

 Orbital symmetries:
       Occupied  (A) (A) (A) (A) (A) (A) (A) (A) (A) (A) (A) (A)
                 (A) (A) (A) (A) (A) (A) (A) (A) (A) (A) (A) (A)
                 (A) (A) (A) (A) (A) (A) (A) (A) (A) (A) (A) (A)
                 (A) (A) (A) (A) (A) (A) (A) (A) (A) (A) (A) (A)
                 (A) (A) (A) (A) (A) (A) (A) (A) (A) (A) (A) (A)
                 (A) (A) (A) (A) (A) (A) (A) (A) (A) (A) (A) (A)
                 (A) (A) (A) (A) (A) (A) (A) (A) (A) (A) (A) (A)
                 (A) (A) (A) (A) (A) (A) (A)
       Virtual   (A) (A) (A) (A) (A) (A) (A) (A) (A) (A) (A) (A)
                 (A) (A) (A) (A) (A) (A) (A) (A) (A) (A) (A) (A)
                 (A) (A) (A) (A) (A) (A) (A) (A) (A) (A) (A) (A)
                 (A) (A) (A) (A) (A) (A) (A) (A) (A) (A) (A) (A)
                 (A) (A) (A) (A) (A) (A) (A) (A) (A) (A) (A) (A)
                 (A) (A) (A) (A) (A) (A) (A) (A) (A) (A) (A) (A)
                 (A) (A) (A) (A) (A) (A) (A) (A) (A) (A) (A) (A)
                 (A) (A) (A) (A) (A) (A) (A) (A) (A) (A) (A) (A)
                 (A) (A) (A) (A) (A) (A) (A) (A) (A) (A) (A) (A)
                 (A) (A) (A) (A) (A) (A) (A) (A) (A) (A) (A) (A)
                 (A) (A) (A) (A) (A) (A) (A) (A) (A) (A) (A) (A)
                 (A) (A) (A) (A) (A) (A) (A) (A) (A) (A) (A) (A)
                 (A) (A) (A) (A) (A) (A) (A) (A) (A) (A) (A) (A)
                 (A) (A) (A) (A) (A) (A) (A) (A) (A) (A) (A) (A)
                 (A) (A) (A) (A) (A) (A) (A) (A) (A) (A) (A) (A)
                 (A) (A) (A) (A) (A) (A) (A) (A) (A) (A) (A) (A)
                 (A) (A) (A) (A) (A) (A) (A) (A) (A) (A) (A) (A)
                 (A) (A) (A) (A) (A) (A) (A) (A) (A) (A) (A) (A)
                 (A) (A) (A) (A) (A) (A) (A) (A) (A) (A) (A) (A)
                 (A) (A) (A) (A) (A) (A) (A) (A) (A) (A) (A) (A)
                 (A) (A) (A) (A) (A) (A) (A) (A) (A) (A) (A) (A)
                 (A) (A) (A) (A) (A) (A) (A) (A) (A) (A) (A) (A)
                 (A) (A) (A) (A) (A) (A) (A) (A) (A) (A) (A) (A)
                 (A) (A) (A) (A) (A) (A) (A) (A) (A) (A) (A) (A)
                 (A) (A) (A) (A) (A) (A) (A) (A) (A) (A) (A) (A)
                 (A) (A) (A) (A) (A) (A) (A) (A) (A) (A) (A) (A)
                 (A) (A) (A) (A) (A) (A) (A) (A) (A) (A) (A) (A)
                 (A) (A) (A) (A) (A) (A) (A) (A) (A) (A) (A) (A)
                 (A) (A) (A) (A) (A) (A) (A) (A) (A) (A) (A) (A)
                 (A) (A) (A) (A) (A) (A) (A) (A) (A) (A) (A) (A)
                 (A) (A) (A) (A) (A) (A) (A) (A) (A) (A) (A) (A)
                 (A) (A) (A) (A) (A) (A) (A) (A) (A) (A) (A) (A)
                 (A) (A) (A) (A) (A) (A) (A) (A) (A) (A) (A) (A)
                 (A) (A) (A) (A) (A) (A) (A) (A) (A) (A) (A) (A)
                 (A) (A) (A) (A) (A) (A) (A) (A) (A) (A) (A) (A)
                 (A) (A) (A) (A) (A) (A) (A) (A) (A) (A) (A) (A)
                 (A) (A) (A) (A) (A) (A) (A) (A) (A) (A) (A) (A)
                 (A) (A) (A) (A) (A) (A) (A) (A) (A) (A) (A) (A)
                 (A) (A) (A) (A) (A) (A) (A) (A) (A) (A) (A) (A)
                 (A) (A) (A) (A) (A) (A) (A) (A) (A) (A) (A) (A)
                 (A) (A) (A) (A) (A) (A) (A) (A) (A) (A) (A) (A)
                 (A) (A) (A) (A) (A) (A) (A) (A) (A) (A) (A) (A)
                 (A) (A) (A) (A) (A) (A) (A) (A) (A) (A) (A) (A)
                 (A) (A) (A) (A) (A) (A) (A) (A) (A) (A) (A) (A)
                 (A) (A) (A) (A) (A) (A) (A) (A) (A) (A) (A) (A)
                 (A) (A) (A) (A) (A) (A) (A) (A) (A) (A) (A) (A)
                 (A) (A) (A) (A) (A) (A) (A) (A) (A) (A) (A) (A)
                 (A) (A) (A) (A) (A) (A) (A) (A) (A) (A) (A) (A)
                 (A) (A) (A) (A) (A) (A) (A) (A) (A) (A) (A) (A)
                 (A) (A) (A) (A) (A) (A)
 The electronic state is 1-A.
 Alpha  occ. eigenvalues --  -19.19691 -19.18290 -19.18234 -19.17877 -19.17839
 Alpha  occ. eigenvalues --  -19.17711 -19.17013 -19.16405 -19.15839 -19.14478
 Alpha  occ. eigenvalues --  -19.13572 -10.31471 -10.30328 -10.26302 -10.26248
 Alpha  occ. eigenvalues --  -10.26088 -10.25951 -10.25233 -10.25132 -10.24767
 Alpha  occ. eigenvalues --  -10.24499 -10.24477 -10.24445  -1.10994  -1.09316
 Alpha  occ. eigenvalues --   -1.05858  -1.05060  -1.04297  -1.04060  -1.03036
 Alpha  occ. eigenvalues --   -1.02796  -1.02601  -1.01244  -1.00607  -0.82706
 Alpha  occ. eigenvalues --   -0.81185  -0.79292  -0.78644  -0.72528  -0.70318
 Alpha  occ. eigenvalues --   -0.67843  -0.64888  -0.63245  -0.63068  -0.61367
 Alpha  occ. eigenvalues --   -0.60254  -0.56688  -0.56342  -0.55335  -0.55020
 Alpha  occ. eigenvalues --   -0.54150  -0.53638  -0.52663  -0.51775  -0.51155
 Alpha  occ. eigenvalues --   -0.50924  -0.50620  -0.50085  -0.48976  -0.46947
 Alpha  occ. eigenvalues --   -0.46213  -0.45398  -0.44760  -0.44103  -0.43388
 Alpha  occ. eigenvalues --   -0.42880  -0.42385  -0.41249  -0.40759  -0.40070
 Alpha  occ. eigenvalues --   -0.39004  -0.38023  -0.37168  -0.37045  -0.36502
 Alpha  occ. eigenvalues --   -0.35404  -0.35209  -0.34937  -0.34048  -0.33077
 Alpha  occ. eigenvalues --   -0.32806  -0.31705  -0.30900  -0.30710  -0.30279
 Alpha  occ. eigenvalues --   -0.30223  -0.28698  -0.28362  -0.28182  -0.27432
 Alpha  occ. eigenvalues --   -0.26399
 Alpha virt. eigenvalues --   -0.02287  -0.01851  -0.01591  -0.00510   0.00237
 Alpha virt. eigenvalues --    0.01001   0.01702   0.02199   0.02830   0.03205
 Alpha virt. eigenvalues --    0.03800   0.04296   0.04600   0.05233   0.05435
 Alpha virt. eigenvalues --    0.06339   0.06479   0.07130   0.07616   0.08164
 Alpha virt. eigenvalues --    0.08397   0.08532   0.08854   0.09789   0.09868
 Alpha virt. eigenvalues --    0.10353   0.10808   0.11159   0.11687   0.12034
 Alpha virt. eigenvalues --    0.12333   0.12678   0.13047   0.13367   0.13502
 Alpha virt. eigenvalues --    0.13754   0.13890   0.14013   0.14642   0.15306
 Alpha virt. eigenvalues --    0.15416   0.15806   0.16355   0.16799   0.16901
 Alpha virt. eigenvalues --    0.17124   0.17189   0.17679   0.17905   0.18209
 Alpha virt. eigenvalues --    0.18667   0.18894   0.19132   0.19280   0.19873
 Alpha virt. eigenvalues --    0.20300   0.20330   0.20616   0.21088   0.21440
 Alpha virt. eigenvalues --    0.21675   0.21934   0.22319   0.22492   0.23163
 Alpha virt. eigenvalues --    0.23511   0.23817   0.24001   0.24233   0.24577
 Alpha virt. eigenvalues --    0.24917   0.24963   0.25131   0.25711   0.25799
 Alpha virt. eigenvalues --    0.26001   0.26158   0.26590   0.26795   0.27207
 Alpha virt. eigenvalues --    0.27446   0.27685   0.28077   0.28297   0.28516
 Alpha virt. eigenvalues --    0.28701   0.29073   0.29554   0.29780   0.30349
 Alpha virt. eigenvalues --    0.30979   0.31350   0.31477   0.31863   0.32179
 Alpha virt. eigenvalues --    0.32571   0.32874   0.33011   0.33370   0.33606
 Alpha virt. eigenvalues --    0.33833   0.34294   0.34809   0.34993   0.35354
 Alpha virt. eigenvalues --    0.35833   0.36228   0.36729   0.36849   0.37117
 Alpha virt. eigenvalues --    0.37508   0.37792   0.38376   0.38799   0.39308
 Alpha virt. eigenvalues --    0.39376   0.39852   0.40090   0.40762   0.40898
 Alpha virt. eigenvalues --    0.41631   0.41796   0.42538   0.43116   0.43443
 Alpha virt. eigenvalues --    0.43787   0.44225   0.45007   0.45405   0.45949
 Alpha virt. eigenvalues --    0.46390   0.47068   0.48000   0.48368   0.48990
 Alpha virt. eigenvalues --    0.49142   0.50733   0.55059   0.57010   0.57811
 Alpha virt. eigenvalues --    0.58846   0.59193   0.60442   0.61826   0.62139
 Alpha virt. eigenvalues --    0.63190   0.64238   0.64397   0.65885   0.66474
 Alpha virt. eigenvalues --    0.66900   0.67863   0.68027   0.69339   0.69949
 Alpha virt. eigenvalues --    0.70892   0.71659   0.73142   0.73926   0.74111
 Alpha virt. eigenvalues --    0.74651   0.75093   0.76668   0.77221   0.77791
 Alpha virt. eigenvalues --    0.78146   0.79334   0.80163   0.81198   0.81527
 Alpha virt. eigenvalues --    0.81927   0.82743   0.83348   0.84592   0.85363
 Alpha virt. eigenvalues --    0.87335   0.87707   0.88398   0.88987   0.89567
 Alpha virt. eigenvalues --    0.90238   0.90587   0.91336   0.91430   0.91633
 Alpha virt. eigenvalues --    0.92441   0.92773   0.93319   0.93661   0.94009
 Alpha virt. eigenvalues --    0.94416   0.94818   0.94921   0.95321   0.95755
 Alpha virt. eigenvalues --    0.96286   0.96629   0.97411   0.98284   0.98444
 Alpha virt. eigenvalues --    0.98552   0.99155   1.00207   1.01368   1.02186
 Alpha virt. eigenvalues --    1.02669   1.04054   1.04205   1.05217   1.05971
 Alpha virt. eigenvalues --    1.06249   1.06908   1.07136   1.07691   1.08490
 Alpha virt. eigenvalues --    1.08882   1.09797   1.09978   1.10543   1.10879
 Alpha virt. eigenvalues --    1.11788   1.12236   1.13605   1.14191   1.14946
 Alpha virt. eigenvalues --    1.15676   1.16133   1.16547   1.16872   1.17065
 Alpha virt. eigenvalues --    1.17876   1.18022   1.18505   1.19236   1.19554
 Alpha virt. eigenvalues --    1.19983   1.20665   1.20846   1.21450   1.22413
 Alpha virt. eigenvalues --    1.23275   1.23820   1.24304   1.24707   1.25082
 Alpha virt. eigenvalues --    1.25745   1.25945   1.26226   1.27704   1.27839
 Alpha virt. eigenvalues --    1.28549   1.28780   1.29733   1.30075   1.30870
 Alpha virt. eigenvalues --    1.31602   1.32084   1.32490   1.33245   1.33980
 Alpha virt. eigenvalues --    1.34358   1.35629   1.35855   1.36256   1.37044
 Alpha virt. eigenvalues --    1.37686   1.38208   1.39313   1.39812   1.40546
 Alpha virt. eigenvalues --    1.40873   1.41115   1.41990   1.42665   1.42925
 Alpha virt. eigenvalues --    1.43681   1.44723   1.46056   1.46629   1.47368
 Alpha virt. eigenvalues --    1.48274   1.48678   1.50101   1.50785   1.51857
 Alpha virt. eigenvalues --    1.52305   1.53174   1.54003   1.55267   1.56306
 Alpha virt. eigenvalues --    1.56648   1.58100   1.58614   1.58706   1.59971
 Alpha virt. eigenvalues --    1.61050   1.62351   1.62721   1.63359   1.63643
 Alpha virt. eigenvalues --    1.64229   1.66484   1.68007   1.68596   1.69728
 Alpha virt. eigenvalues --    1.70369   1.70709   1.73439   1.73824   1.74764
 Alpha virt. eigenvalues --    1.76014   1.76565   1.77512   1.77783   1.79384
 Alpha virt. eigenvalues --    1.80018   1.80457   1.81246   1.82074   1.83085
 Alpha virt. eigenvalues --    1.85125   1.86130   1.86673   1.86836   1.87909
 Alpha virt. eigenvalues --    1.89560   1.90194   1.91923   1.92080   1.93558
 Alpha virt. eigenvalues --    1.95388   1.95996   1.97818   1.98618   2.00079
 Alpha virt. eigenvalues --    2.01873   2.02437   2.03484   2.04017   2.04609
 Alpha virt. eigenvalues --    2.05012   2.05967   2.06605   2.09020   2.09929
 Alpha virt. eigenvalues --    2.11443   2.12079   2.14227   2.14894   2.17089
 Alpha virt. eigenvalues --    2.17932   2.19819   2.21602   2.23431   2.24649
 Alpha virt. eigenvalues --    2.26156   2.27553   2.28511   2.29529   2.30308
 Alpha virt. eigenvalues --    2.30672   2.31648   2.34564   2.35667   2.37966
 Alpha virt. eigenvalues --    2.39353   2.40573   2.41998   2.51303   2.51716
 Alpha virt. eigenvalues --    2.54359   2.54585   2.54824   2.55328   2.55804
 Alpha virt. eigenvalues --    2.61163   2.62879   2.63632   2.66433   2.67881
 Alpha virt. eigenvalues --    2.68511   2.69308   2.70716   2.71185   2.71945
 Alpha virt. eigenvalues --    2.72925   2.75456   2.75710   2.76893   2.78056
 Alpha virt. eigenvalues --    2.79312   2.80310   2.83847   2.86366   2.86447
 Alpha virt. eigenvalues --    2.87253   2.90140   2.91198   2.91907   2.92569
 Alpha virt. eigenvalues --    2.92763   2.94493   2.94600   2.95541   2.96555
 Alpha virt. eigenvalues --    2.97194   2.98045   2.99293   2.99969   3.01115
 Alpha virt. eigenvalues --    3.01734   3.02322   3.02544   3.03650   3.04175
 Alpha virt. eigenvalues --    3.04683   3.05207   3.06292   3.07446   3.07728
 Alpha virt. eigenvalues --    3.08531   3.09517   3.10735   3.11699   3.12750
 Alpha virt. eigenvalues --    3.13403   3.15588   3.18534   3.18927   3.21775
 Alpha virt. eigenvalues --    3.23274   3.29830   3.35095   3.71762   3.74710
 Alpha virt. eigenvalues --    3.94256   3.99850   4.06753   4.09699   4.11229
 Alpha virt. eigenvalues --    4.12797   4.13599   4.15960   4.16189   4.16878
 Alpha virt. eigenvalues --    4.17339   4.18589   4.20468   4.21397   4.22168
 Alpha virt. eigenvalues --    4.23102   4.24390   4.24975   4.26029   4.27110
 Alpha virt. eigenvalues --    4.27439   4.28110   4.28928   4.29476   4.30111
 Alpha virt. eigenvalues --    4.30711   4.31140   4.31170   4.31719   4.32617
 Alpha virt. eigenvalues --    4.33167   4.33678   4.34671   4.34770   4.35290
 Alpha virt. eigenvalues --    4.35335   4.36289   4.37333   4.37968   4.39044
 Alpha virt. eigenvalues --    4.39367   4.39873   4.40258   4.42147   4.42848
 Alpha virt. eigenvalues --    4.43750   4.45940   4.46458   4.47448   4.48985
 Alpha virt. eigenvalues --    4.49823   4.51117   4.52089   4.53039   4.55026
 Alpha virt. eigenvalues --    4.55860   4.56152   4.56294   4.57979   4.60964
 Alpha virt. eigenvalues --    4.61845   4.62286   4.63216   4.64120   4.64337
 Alpha virt. eigenvalues --    4.64787   4.65418   4.65905   4.67167   4.67408
 Alpha virt. eigenvalues --    4.68186   4.69042   4.69560   4.70558   4.71260
 Alpha virt. eigenvalues --    4.72133   4.72525   4.72967   4.73183   4.74153
 Alpha virt. eigenvalues --    4.74711   4.75547   4.75892   4.76295   4.76585
 Alpha virt. eigenvalues --    4.77212   4.77951   4.78943   4.79856   4.80127
 Alpha virt. eigenvalues --    4.80569   4.80858   4.81985   4.83927   4.85147
 Alpha virt. eigenvalues --    4.86723   4.87430   4.89412   4.89864   4.90638
 Alpha virt. eigenvalues --    4.91737   4.93157   4.94166   4.95590   4.96959
 Alpha virt. eigenvalues --    4.99314   5.00061   5.01128   5.01801   5.02729
 Alpha virt. eigenvalues --    5.06903   5.08014   5.10242   5.12192   5.14211
 Alpha virt. eigenvalues --    5.20023   5.24399   5.27188   5.28256   5.36170
 Alpha virt. eigenvalues --    5.45060   5.82780   5.96218   6.05567   6.42078
 Alpha virt. eigenvalues --    6.71906   6.73387   6.75117   6.77181   6.82457
 Alpha virt. eigenvalues --    6.86106   6.89304   6.93219   6.96503   7.01943
 Alpha virt. eigenvalues --    7.05108  11.83317  11.84011  12.06115  12.11367
 Alpha virt. eigenvalues --   12.23366  12.37711  12.67005  12.81815  12.90521
 Alpha virt. eigenvalues --   12.97373  13.09007  13.12942  13.19974  13.23454
 Alpha virt. eigenvalues --   13.24261  13.29101  13.33369  13.42095  13.48857
 Alpha virt. eigenvalues --   13.52845  13.59505  13.68017  13.85681
          Condensed to atoms (all electrons):
              1          2          3          4          5          6
     1  O    8.179767   0.252763  -0.037294  -0.012541   0.020023   0.018915
     2  C    0.252763   7.328049  -0.628565   0.037307  -0.039141  -1.330333
     3  C   -0.037294  -0.628565   6.652990   0.120186   0.002298   0.667137
     4  O   -0.012541   0.037307   0.120186   8.236834   0.225189  -0.072447
     5  H    0.020023  -0.039141   0.002298   0.225189   0.441594   0.004024
     6  C    0.018915  -1.330333   0.667137  -0.072447   0.004024   7.355946
     7  O    0.000050   0.013446  -0.078116   0.006375  -0.000221   0.231830
     8  H   -0.000001  -0.001427  -0.003016  -0.000199   0.000012   0.007949
     9  C   -0.057834   0.171534  -0.256486   0.008445  -0.003570  -0.011967
    10  O   -0.029464   0.002225   0.000523  -0.000046  -0.000007  -0.004792
    11  H    0.000864  -0.004870  -0.001848   0.000001   0.000000   0.000256
    12  C   -0.068441  -1.025507   0.072685   0.030000   0.007313   0.374042
    13  O    0.001213  -0.018410  -0.035844  -0.001519   0.000005  -0.016944
    14  C   -0.003593   0.733466  -0.445544  -0.012103   0.013080  -1.318354
    15  O   -0.000251  -0.007973  -0.017822   0.001026  -0.000050   0.013014
    16  C   -0.000040   0.096065  -0.056467  -0.001915   0.000364  -0.048677
    17  C   -0.000273  -0.043452  -0.003797   0.000725   0.000051  -0.059160
    18  O    0.000006   0.009728  -0.002886   0.000005   0.000000  -0.005282
    19  H   -0.000032  -0.007396   0.012145  -0.000006   0.000000   0.003195
    20  C   -0.000013   0.006881  -0.014654   0.000025   0.000001   0.024587
    21  O    0.000000   0.000057  -0.000028   0.000000   0.000000   0.000037
    22  H    0.000000  -0.000001   0.000002   0.000000   0.000000  -0.000023
    23  C    0.000001   0.007729   0.003791   0.000061  -0.000005  -0.071102
    24  O    0.000000  -0.000865  -0.012690  -0.000092  -0.000002   0.019706
    25  H    0.000000   0.000161   0.001455   0.000007   0.000000  -0.001070
    26  C   -0.000069   0.007899  -0.024327  -0.000089   0.000008  -0.005935
    27  O    0.000000   0.000042   0.000092   0.000000   0.000000   0.000874
    28  C    0.000002  -0.001223   0.000888  -0.000005   0.000000  -0.002658
    29  O    0.000000   0.000008   0.000012   0.000000   0.000000  -0.000178
    30  H    0.000000   0.000000   0.000000   0.000000   0.000000   0.000002
    31  H    0.000000  -0.000030  -0.000035   0.000000   0.000000   0.001554
    32  H    0.000000   0.000011   0.000455   0.000001   0.000000  -0.006457
    33  H    0.000000  -0.000251   0.001313   0.000000   0.000000  -0.003209
    34  H    0.000000  -0.002824   0.005378   0.000005   0.000000  -0.002645
    35  H    0.000000  -0.001684   0.001489   0.000000   0.000000   0.005154
    36  H    0.000000   0.000094  -0.000033   0.000000   0.000000   0.000418
    37  H    0.000000   0.000012   0.000000   0.000000   0.000000   0.000021
    38  H    0.263311   0.042597  -0.042449   0.002125  -0.002027   0.000113
    39  H   -0.000454  -0.010690  -0.002336   0.000008   0.000000  -0.002542
    40  H    0.002072  -0.002357  -0.003127   0.000014   0.000000   0.004076
    41  H    0.003950   0.057879  -0.092393   0.000827   0.000004  -0.010757
    42  H   -0.014464   0.368715  -0.110213   0.003312  -0.000188  -0.005215
    43  H   -0.000210   0.034894   0.261372  -0.021424  -0.002012  -0.208681
    44  H   -0.000261   0.004126  -0.090064   0.004915  -0.000191   0.347732
    45  H   -0.000052  -0.020830  -0.034209   0.000533   0.000003   0.012736
              7          8          9         10         11         12
     1  O    0.000050  -0.000001  -0.057834  -0.029464   0.000864  -0.068441
     2  C    0.013446  -0.001427   0.171534   0.002225  -0.004870  -1.025507
     3  C   -0.078116  -0.003016  -0.256486   0.000523  -0.001848   0.072685
     4  O    0.006375  -0.000199   0.008445  -0.000046   0.000001   0.030000
     5  H   -0.000221   0.000012  -0.003570  -0.000007   0.000000   0.007313
     6  C    0.231830   0.007949  -0.011967  -0.004792   0.000256   0.374042
     7  O    8.220676   0.238554   0.000106   0.000004   0.000000   0.009175
     8  H    0.238554   0.357405   0.000148   0.000000   0.000000   0.001726
     9  C    0.000106   0.000148   6.494856   0.046269  -0.004489  -0.779154
    10  O    0.000004   0.000000   0.046269   8.219602   0.233574   0.107021
    11  H    0.000000   0.000000  -0.004489   0.233574   0.446294   0.012703
    12  C    0.009175   0.001726  -0.779154   0.107021   0.012703   8.538259
    13  O    0.001234   0.000894  -0.033299  -0.002311  -0.000071  -0.008295
    14  C   -0.015128  -0.030193  -0.447878   0.013207  -0.003207  -1.206769
    15  O   -0.018148   0.015449   0.005875   0.000082   0.000004   0.028097
    16  C   -0.000769   0.008337  -0.042575  -0.000511   0.000059   0.028120
    17  C    0.003901  -0.001527   0.004142   0.000043  -0.000022  -0.109232
    18  O    0.000058  -0.000049   0.003798  -0.000148   0.000000  -0.016658
    19  H    0.000113  -0.000028  -0.016188   0.000036  -0.000001   0.006046
    20  C    0.000337   0.000803   0.015042  -0.000030  -0.000002  -0.012565
    21  O    0.000000   0.000000   0.000225   0.000000   0.000000   0.000093
    22  H    0.000000   0.000000  -0.000002   0.000000   0.000000  -0.000015
    23  C    0.028329   0.010513  -0.002643  -0.000011   0.000000  -0.015173
    24  O   -0.052683   0.017437   0.000131   0.000000   0.000000   0.002590
    25  H    0.003349  -0.002248  -0.000010   0.000000   0.000000  -0.000292
    26  C   -0.026396  -0.016250   0.014537  -0.000028   0.000002   0.028182
    27  O    0.000054  -0.000131   0.000051   0.000000   0.000000  -0.000135
    28  C   -0.000681   0.000068  -0.000331   0.000006   0.000000   0.001544
    29  O    0.000000  -0.000001  -0.000013   0.000000   0.000000  -0.000001
    30  H    0.000000   0.000000   0.000000   0.000000   0.000000   0.000000
    31  H   -0.000517   0.000272   0.000001   0.000000   0.000000   0.000091
    32  H    0.001554  -0.000648  -0.000020   0.000000   0.000000  -0.000428
    33  H   -0.000203  -0.000009   0.000085   0.000000   0.000000   0.000229
    34  H   -0.000447  -0.000306   0.000003   0.000000   0.000000  -0.003339
    35  H    0.000009  -0.000002  -0.000096   0.000000   0.000000  -0.000945
    36  H    0.000000   0.000000  -0.000020   0.000000   0.000000   0.000559
    37  H    0.000000   0.000000   0.000006   0.000000   0.000000   0.000089
    38  H   -0.000008   0.000000   0.011163   0.001284  -0.000006  -0.018965
    39  H   -0.000007   0.000000   0.491383  -0.037047  -0.005416  -0.089695
    40  H    0.000002   0.000000   0.504991  -0.046897  -0.006626  -0.164859
    41  H    0.000036   0.000002   0.079576  -0.002519  -0.000185   0.089569
    42  H    0.000657  -0.000004  -0.041032  -0.001171  -0.000005  -0.058903
    43  H    0.007991  -0.000259   0.008668  -0.000156   0.000000   0.025300
    44  H   -0.031771  -0.000669   0.015406   0.000015   0.000000   0.069161
    45  H   -0.002445   0.000139   0.027085   0.000090   0.000000   0.080722
             13         14         15         16         17         18
     1  O    0.001213  -0.003593  -0.000251  -0.000040  -0.000273   0.000006
     2  C   -0.018410   0.733466  -0.007973   0.096065  -0.043452   0.009728
     3  C   -0.035844  -0.445544  -0.017822  -0.056467  -0.003797  -0.002886
     4  O   -0.001519  -0.012103   0.001026  -0.001915   0.000725   0.000005
     5  H    0.000005   0.013080  -0.000050   0.000364   0.000051   0.000000
     6  C   -0.016944  -1.318354   0.013014  -0.048677  -0.059160  -0.005282
     7  O    0.001234  -0.015128  -0.018148  -0.000769   0.003901   0.000058
     8  H    0.000894  -0.030193   0.015449   0.008337  -0.001527  -0.000049
     9  C   -0.033299  -0.447878   0.005875  -0.042575   0.004142   0.003798
    10  O   -0.002311   0.013207   0.000082  -0.000511   0.000043  -0.000148
    11  H   -0.000071  -0.003207   0.000004   0.000059  -0.000022   0.000000
    12  C   -0.008295  -1.206769   0.028097   0.028120  -0.109232  -0.016658
    13  O    8.203031   0.236009  -0.019982  -0.089009   0.072725  -0.016575
    14  C    0.236009   8.223943   0.115602  -0.459423   0.252610   0.008228
    15  O   -0.019982   0.115602   8.201434   0.159862  -0.040792  -0.004656
    16  C   -0.089009  -0.459423   0.159862   7.945729  -1.031141  -0.001163
    17  C    0.072725   0.252610  -0.040792  -1.031141   8.244259   0.150764
    18  O   -0.016575   0.008228  -0.004656  -0.001163   0.150764   8.238014
    19  H    0.004938   0.031951   0.002632  -0.018794   0.005503   0.225968
    20  C    0.013061  -0.211007   0.004403  -0.184735  -1.656313  -0.001479
    21  O    0.000101  -0.000211   0.000536   0.035641  -0.101895   0.009183
    22  H   -0.000002   0.000041  -0.000028  -0.012003   0.058794  -0.000492
    23  C    0.007022   0.050334  -0.013250   0.039031  -0.351525   0.011936
    24  O   -0.001458   0.030044  -0.026913   0.048303  -0.000611  -0.000041
    25  H    0.000003  -0.004533   0.002593  -0.016991  -0.001185   0.000000
    26  C   -0.024159  -0.163708  -0.073611  -0.920804  -0.689981   0.033243
    27  O    0.000128   0.006074   0.000095  -0.012971   0.011263  -0.001815
    28  C   -0.000614   0.033570   0.006751   0.323628   0.763653  -0.025822
    29  O    0.000010  -0.000380  -0.000019  -0.001089  -0.000781   0.000249
    30  H    0.000000   0.000068   0.000000  -0.000316   0.004849  -0.000017
    31  H    0.000022   0.004002   0.000633   0.008186   0.002361   0.000005
    32  H    0.000040  -0.000638   0.002532   0.050581   0.004886   0.000008
    33  H   -0.000526   0.030159   0.000204  -0.050247   0.017223  -0.000011
    34  H   -0.004620   0.013286  -0.025069   0.156772   0.050630  -0.004483
    35  H   -0.003833   0.009982  -0.004106  -0.116722   0.271650  -0.040299
    36  H    0.000133  -0.005035   0.000758   0.055725  -0.220400   0.001613
    37  H    0.000024   0.000840   0.000468   0.030339  -0.026686   0.000454
    38  H   -0.000376   0.000805  -0.000003   0.000126  -0.000029  -0.000001
    39  H   -0.001930  -0.013728  -0.000231   0.001699  -0.000586   0.000691
    40  H   -0.004731   0.016958  -0.000460  -0.003783   0.002836   0.000164
    41  H   -0.031257   0.146617  -0.002017  -0.006256   0.006004   0.000638
    42  H    0.006326   0.104769  -0.000172  -0.002535   0.001784   0.000057
    43  H    0.004080   0.114439   0.002404   0.000032   0.002641   0.000068
    44  H    0.005258  -0.045034  -0.006042  -0.019066   0.002649   0.000089
    45  H   -0.042760   0.254028  -0.017067   0.002920  -0.004703  -0.000054
             19         20         21         22         23         24
     1  O   -0.000032  -0.000013   0.000000   0.000000   0.000001   0.000000
     2  C   -0.007396   0.006881   0.000057  -0.000001   0.007729  -0.000865
     3  C    0.012145  -0.014654  -0.000028   0.000002   0.003791  -0.012690
     4  O   -0.000006   0.000025   0.000000   0.000000   0.000061  -0.000092
     5  H    0.000000   0.000001   0.000000   0.000000  -0.000005  -0.000002
     6  C    0.003195   0.024587   0.000037  -0.000023  -0.071102   0.019706
     7  O    0.000113   0.000337   0.000000   0.000000   0.028329  -0.052683
     8  H   -0.000028   0.000803   0.000000   0.000000   0.010513   0.017437
     9  C   -0.016188   0.015042   0.000225  -0.000002  -0.002643   0.000131
    10  O    0.000036  -0.000030   0.000000   0.000000  -0.000011   0.000000
    11  H   -0.000001  -0.000002   0.000000   0.000000   0.000000   0.000000
    12  C    0.006046  -0.012565   0.000093  -0.000015  -0.015173   0.002590
    13  O    0.004938   0.013061   0.000101  -0.000002   0.007022  -0.001458
    14  C    0.031951  -0.211007  -0.000211   0.000041   0.050334   0.030044
    15  O    0.002632   0.004403   0.000536  -0.000028  -0.013250  -0.026913
    16  C   -0.018794  -0.184735   0.035641  -0.012003   0.039031   0.048303
    17  C    0.005503  -1.656313  -0.101895   0.058794  -0.351525  -0.000611
    18  O    0.225968  -0.001479   0.009183  -0.000492   0.011936  -0.000041
    19  H    0.389892  -0.028757  -0.000432   0.000008  -0.002326   0.000019
    20  C   -0.028757   7.756008   0.204371  -0.065470   0.230232  -0.006888
    21  O   -0.000432   0.204371   8.182807   0.249136  -0.001661   0.000000
    22  H    0.000008  -0.065470   0.249136   0.419721  -0.000265   0.000000
    23  C   -0.002326   0.230232  -0.001661  -0.000265   6.512870  -0.037275
    24  O    0.000019  -0.006888   0.000000   0.000000  -0.037275   8.331542
    25  H    0.000000   0.001238   0.000000   0.000000   0.001754   0.241673
    26  C   -0.006244   0.829778  -0.016457   0.000545  -0.917456   0.073052
    27  O   -0.000028  -0.048977   0.000215  -0.000853  -0.089685   0.002501
    28  C    0.004890  -1.040814   0.008035  -0.000754  -0.223551   0.008779
    29  O    0.000003  -0.080189  -0.006690   0.016699   0.013093   0.000010
    30  H    0.000000  -0.003577  -0.000926  -0.001883  -0.000215  -0.000002
    31  H    0.000000  -0.002412  -0.000003   0.000000   0.369525  -0.018598
    32  H    0.000002  -0.002942   0.000001   0.000000   0.623796  -0.064907
    33  H    0.000041  -0.044794   0.000213   0.000001   0.067754   0.001839
    34  H    0.000024   0.014922  -0.000351   0.000005  -0.021895   0.000241
    35  H    0.001329   0.075031  -0.005050  -0.000163   0.018930   0.000008
    36  H   -0.000083   0.462211  -0.040399  -0.007617   0.007582   0.000008
    37  H    0.000001  -0.108555  -0.001590   0.000338  -0.000482   0.000041
    38  H    0.000000   0.000001   0.000000   0.000000   0.000001   0.000000
    39  H    0.000314  -0.000297   0.000001   0.000000  -0.000003   0.000000
    40  H   -0.000114   0.000191   0.000000   0.000000  -0.000021   0.000000
    41  H   -0.001249   0.000248   0.000000   0.000000   0.000033   0.000000
    42  H   -0.000036   0.000050   0.000000   0.000000   0.000128   0.000009
    43  H    0.000001   0.000108   0.000000   0.000000   0.000467   0.000061
    44  H    0.000006   0.000682   0.000000   0.000000   0.000323  -0.000242
    45  H   -0.002671   0.005699   0.000003   0.000000  -0.002560  -0.000157
             25         26         27         28         29         30
     1  O    0.000000  -0.000069   0.000000   0.000002   0.000000   0.000000
     2  C    0.000161   0.007899   0.000042  -0.001223   0.000008   0.000000
     3  C    0.001455  -0.024327   0.000092   0.000888   0.000012   0.000000
     4  O    0.000007  -0.000089   0.000000  -0.000005   0.000000   0.000000
     5  H    0.000000   0.000008   0.000000   0.000000   0.000000   0.000000
     6  C   -0.001070  -0.005935   0.000874  -0.002658  -0.000178   0.000002
     7  O    0.003349  -0.026396   0.000054  -0.000681   0.000000   0.000000
     8  H   -0.002248  -0.016250  -0.000131   0.000068  -0.000001   0.000000
     9  C   -0.000010   0.014537   0.000051  -0.000331  -0.000013   0.000000
    10  O    0.000000  -0.000028   0.000000   0.000006   0.000000   0.000000
    11  H    0.000000   0.000002   0.000000   0.000000   0.000000   0.000000
    12  C   -0.000292   0.028182  -0.000135   0.001544  -0.000001   0.000000
    13  O    0.000003  -0.024159   0.000128  -0.000614   0.000010   0.000000
    14  C   -0.004533  -0.163708   0.006074   0.033570  -0.000380   0.000068
    15  O    0.002593  -0.073611   0.000095   0.006751  -0.000019   0.000000
    16  C   -0.016991  -0.920804  -0.012971   0.323628  -0.001089  -0.000316
    17  C   -0.001185  -0.689981   0.011263   0.763653  -0.000781   0.004849
    18  O    0.000000   0.033243  -0.001815  -0.025822   0.000249  -0.000017
    19  H    0.000000  -0.006244  -0.000028   0.004890   0.000003   0.000000
    20  C    0.001238   0.829778  -0.048977  -1.040814  -0.080189  -0.003577
    21  O    0.000000  -0.016457   0.000215   0.008035  -0.006690  -0.000926
    22  H    0.000000   0.000545  -0.000853  -0.000754   0.016699  -0.001883
    23  C    0.001754  -0.917456  -0.089685  -0.223551   0.013093  -0.000215
    24  O    0.241673   0.073052   0.002501   0.008779   0.000010  -0.000002
    25  H    0.414176   0.013655  -0.000706  -0.001973  -0.000002   0.000000
    26  C    0.013655   8.535457   0.165583  -0.765909  -0.055947   0.000505
    27  O   -0.000706   0.165583   8.183791   0.159599  -0.053752   0.001573
    28  C   -0.001973  -0.765909   0.159599   5.835566   0.341151  -0.011065
    29  O   -0.000002  -0.055947  -0.053752   0.341151   8.135354   0.261779
    30  H    0.000000   0.000505   0.001573  -0.011065   0.261779   0.423326
    31  H   -0.012286  -0.020876  -0.004181   0.002305  -0.000137   0.000000
    32  H    0.000407  -0.315572   0.003107   0.004623  -0.000085   0.000000
    33  H   -0.000223   0.201631  -0.032409   0.052507  -0.000744   0.000020
    34  H   -0.000011   0.062708   0.003081   0.001931  -0.000383   0.000004
    35  H    0.000000   0.093304  -0.000837  -0.068533  -0.000297   0.000017
    36  H    0.000000   0.031190  -0.000721  -0.038965  -0.002638  -0.000042
    37  H    0.000000   0.004890  -0.058726   0.444181  -0.026021  -0.010979
    38  H    0.000000   0.000002   0.000000   0.000000   0.000000   0.000000
    39  H    0.000000   0.000408   0.000000   0.000022   0.000000   0.000000
    40  H    0.000000  -0.000186   0.000000   0.000012   0.000000   0.000000
    41  H    0.000000  -0.000326   0.000001   0.000016   0.000000   0.000000
    42  H    0.000000  -0.000336   0.000000  -0.000008   0.000000   0.000000
    43  H    0.000000  -0.000515   0.000000  -0.000013   0.000000   0.000000
    44  H   -0.000006   0.000605  -0.000003  -0.000005   0.000000   0.000000
    45  H    0.000002   0.010868   0.000069   0.000044  -0.000001   0.000000
             31         32         33         34         35         36
     1  O    0.000000   0.000000   0.000000   0.000000   0.000000   0.000000
     2  C   -0.000030   0.000011  -0.000251  -0.002824  -0.001684   0.000094
     3  C   -0.000035   0.000455   0.001313   0.005378   0.001489  -0.000033
     4  O    0.000000   0.000001   0.000000   0.000005   0.000000   0.000000
     5  H    0.000000   0.000000   0.000000   0.000000   0.000000   0.000000
     6  C    0.001554  -0.006457  -0.003209  -0.002645   0.005154   0.000418
     7  O   -0.000517   0.001554  -0.000203  -0.000447   0.000009   0.000000
     8  H    0.000272  -0.000648  -0.000009  -0.000306  -0.000002   0.000000
     9  C    0.000001  -0.000020   0.000085   0.000003  -0.000096  -0.000020
    10  O    0.000000   0.000000   0.000000   0.000000   0.000000   0.000000
    11  H    0.000000   0.000000   0.000000   0.000000   0.000000   0.000000
    12  C    0.000091  -0.000428   0.000229  -0.003339  -0.000945   0.000559
    13  O    0.000022   0.000040  -0.000526  -0.004620  -0.003833   0.000133
    14  C    0.004002  -0.000638   0.030159   0.013286   0.009982  -0.005035
    15  O    0.000633   0.002532   0.000204  -0.025069  -0.004106   0.000758
    16  C    0.008186   0.050581  -0.050247   0.156772  -0.116722   0.055725
    17  C    0.002361   0.004886   0.017223   0.050630   0.271650  -0.220400
    18  O    0.000005   0.000008  -0.000011  -0.004483  -0.040299   0.001613
    19  H    0.000000   0.000002   0.000041   0.000024   0.001329  -0.000083
    20  C   -0.002412  -0.002942  -0.044794   0.014922   0.075031   0.462211
    21  O   -0.000003   0.000001   0.000213  -0.000351  -0.005050  -0.040399
    22  H    0.000000   0.000000   0.000001   0.000005  -0.000163  -0.007617
    23  C    0.369525   0.623796   0.067754  -0.021895   0.018930   0.007582
    24  O   -0.018598  -0.064907   0.001839   0.000241   0.000008   0.000008
    25  H   -0.012286   0.000407  -0.000223  -0.000011   0.000000   0.000000
    26  C   -0.020876  -0.315572   0.201631   0.062708   0.093304   0.031190
    27  O   -0.004181   0.003107  -0.032409   0.003081  -0.000837  -0.000721
    28  C    0.002305   0.004623   0.052507   0.001931  -0.068533  -0.038965
    29  O   -0.000137  -0.000085  -0.000744  -0.000383  -0.000297  -0.002638
    30  H    0.000000   0.000000   0.000020   0.000004   0.000017  -0.000042
    31  H    0.570639  -0.041314  -0.004285   0.000027   0.000006   0.000000
    32  H   -0.041314   0.578341   0.006344   0.003404  -0.000005  -0.000004
    33  H   -0.004285   0.006344   0.623563   0.006633   0.002015  -0.000003
    34  H    0.000027   0.003404   0.006633   0.610454   0.006513   0.001307
    35  H    0.000006  -0.000005   0.002015   0.006513   0.628983   0.007064
    36  H    0.000000  -0.000004  -0.000003   0.001307   0.007064   0.603857
    37  H   -0.000040  -0.000008   0.004382   0.000002   0.001315   0.006465
    38  H    0.000000   0.000000   0.000000   0.000000   0.000000   0.000000
    39  H    0.000000   0.000000   0.000000   0.000000  -0.000002   0.000000
    40  H    0.000000   0.000000   0.000000   0.000000  -0.000001   0.000000
    41  H    0.000000   0.000000   0.000000  -0.000005  -0.000001   0.000000
    42  H    0.000000   0.000000   0.000000   0.000000   0.000000   0.000000
    43  H    0.000000   0.000000   0.000000   0.000000   0.000000   0.000000
    44  H    0.000000   0.000000  -0.000005  -0.000005  -0.000008   0.000000
    45  H    0.000000   0.000023  -0.000003   0.003593  -0.000009   0.000001
             37         38         39         40         41         42
     1  O    0.000000   0.263311  -0.000454   0.002072   0.003950  -0.014464
     2  C    0.000012   0.042597  -0.010690  -0.002357   0.057879   0.368715
     3  C    0.000000  -0.042449  -0.002336  -0.003127  -0.092393  -0.110213
     4  O    0.000000   0.002125   0.000008   0.000014   0.000827   0.003312
     5  H    0.000000  -0.002027   0.000000   0.000000   0.000004  -0.000188
     6  C    0.000021   0.000113  -0.002542   0.004076  -0.010757  -0.005215
     7  O    0.000000  -0.000008  -0.000007   0.000002   0.000036   0.000657
     8  H    0.000000   0.000000   0.000000   0.000000   0.000002  -0.000004
     9  C    0.000006   0.011163   0.491383   0.504991   0.079576  -0.041032
    10  O    0.000000   0.001284  -0.037047  -0.046897  -0.002519  -0.001171
    11  H    0.000000  -0.000006  -0.005416  -0.006626  -0.000185  -0.000005
    12  C    0.000089  -0.018965  -0.089695  -0.164859   0.089569  -0.058903
    13  O    0.000024  -0.000376  -0.001930  -0.004731  -0.031257   0.006326
    14  C    0.000840   0.000805  -0.013728   0.016958   0.146617   0.104769
    15  O    0.000468  -0.000003  -0.000231  -0.000460  -0.002017  -0.000172
    16  C    0.030339   0.000126   0.001699  -0.003783  -0.006256  -0.002535
    17  C   -0.026686  -0.000029  -0.000586   0.002836   0.006004   0.001784
    18  O    0.000454  -0.000001   0.000691   0.000164   0.000638   0.000057
    19  H    0.000001   0.000000   0.000314  -0.000114  -0.001249  -0.000036
    20  C   -0.108555   0.000001  -0.000297   0.000191   0.000248   0.000050
    21  O   -0.001590   0.000000   0.000001   0.000000   0.000000   0.000000
    22  H    0.000338   0.000000   0.000000   0.000000   0.000000   0.000000
    23  C   -0.000482   0.000001  -0.000003  -0.000021   0.000033   0.000128
    24  O    0.000041   0.000000   0.000000   0.000000   0.000000   0.000009
    25  H    0.000000   0.000000   0.000000   0.000000   0.000000   0.000000
    26  C    0.004890   0.000002   0.000408  -0.000186  -0.000326  -0.000336
    27  O   -0.058726   0.000000   0.000000   0.000000   0.000001   0.000000
    28  C    0.444181   0.000000   0.000022   0.000012   0.000016  -0.000008
    29  O   -0.026021   0.000000   0.000000   0.000000   0.000000   0.000000
    30  H   -0.010979   0.000000   0.000000   0.000000   0.000000   0.000000
    31  H   -0.000040   0.000000   0.000000   0.000000   0.000000   0.000000
    32  H   -0.000008   0.000000   0.000000   0.000000   0.000000   0.000000
    33  H    0.004382   0.000000   0.000000   0.000000   0.000000   0.000000
    34  H    0.000002   0.000000   0.000000   0.000000  -0.000005   0.000000
    35  H    0.001315   0.000000  -0.000002  -0.000001  -0.000001   0.000000
    36  H    0.006465   0.000000   0.000000   0.000000   0.000000   0.000000
    37  H    0.618668   0.000000   0.000000   0.000000   0.000000   0.000000
    38  H    0.000000   0.417820   0.000023  -0.000179  -0.000178  -0.013824
    39  H    0.000000   0.000023   0.564129  -0.047881  -0.005976  -0.000005
    40  H    0.000000  -0.000179  -0.047881   0.606109   0.007440   0.003133
    41  H    0.000000  -0.000178  -0.005976   0.007440   0.633313   0.007298
    42  H    0.000000  -0.013824  -0.000005   0.003133   0.007298   0.627713
    43  H    0.000000  -0.000125   0.000005  -0.000002   0.002974   0.007022
    44  H    0.000000   0.000014   0.000001  -0.000013  -0.000082   0.002195
    45  H    0.000000   0.000002  -0.000017  -0.000012   0.002131  -0.000066
             43         44         45
     1  O   -0.000210  -0.000261  -0.000052
     2  C    0.034894   0.004126  -0.020830
     3  C    0.261372  -0.090064  -0.034209
     4  O   -0.021424   0.004915   0.000533
     5  H   -0.002012  -0.000191   0.000003
     6  C   -0.208681   0.347732   0.012736
     7  O    0.007991  -0.031771  -0.002445
     8  H   -0.000259  -0.000669   0.000139
     9  C    0.008668   0.015406   0.027085
    10  O   -0.000156   0.000015   0.000090
    11  H    0.000000   0.000000   0.000000
    12  C    0.025300   0.069161   0.080722
    13  O    0.004080   0.005258  -0.042760
    14  C    0.114439  -0.045034   0.254028
    15  O    0.002404  -0.006042  -0.017067
    16  C    0.000032  -0.019066   0.002920
    17  C    0.002641   0.002649  -0.004703
    18  O    0.000068   0.000089  -0.000054
    19  H    0.000001   0.000006  -0.002671
    20  C    0.000108   0.000682   0.005699
    21  O    0.000000   0.000000   0.000003
    22  H    0.000000   0.000000   0.000000
    23  C    0.000467   0.000323  -0.002560
    24  O    0.000061  -0.000242  -0.000157
[...]
 1752125,0.00058493,0.00166934,0.00215070,0.00060677,0.00058863,-0.0003
 1021,-0.00017891,-0.00010194,0.00012875,0.00000453,0.00026428,0.000007
 20,0.00004058,-0.00004744,-0.00004839,-0.00000419,-0.00001466,0.000040
 85,-0.00003010,0.00004109,-0.00002075,0.00003819,-0.00003867,-0.000002
 16,0.00000573,-0.00000257,0.00001028,-0.00000914,0.00000834,-0.0000022
 1,-0.00000073,-0.00000153,-0.00001259,-0.00000135,0.00000166,0.0000402
 8,0.00000890,0.00002581,-0.00001463,0.00000092,0.00000158,-0.00003234,
 -0.00001099,-0.00000711,0.00001735,-0.00000533,0.00001475,-0.00001645,
 0.00001115,-0.00001126,0.00000489,-0.00000300,0.00000510,-0.00000240,0
 .00000090,-0.00000047,0.00000035,0.00000184,0.00000233,0.00000657,-0.0
 0000165,-0.00000359,0.00001078,-0.00000034,0.00000791,0.00001002,-0.00
 000601,-0.00000258,0.00001955,0.00000153,0.00001383,0.00000574,0.00000
 068,-0.00000509,0.00000589,0.00000027,0.00000339,0.00175858,-0.0002686
 7,-0.00071413,0.00036388,0.00000153,0.00001343,0.00049565,-0.00119597,
 -0.00003158,-0.00012893,-0.00175532,0.00180323,0.37569044,-0.00959218,
 0.00131855,-0.00516721,0.03764736,-0.04879921,0.00102300,0.03759039,-0
 .00775908,-0.00373641,-0.00246121,0.00354953,-0.00004144,0.00044989,-0
 .00015470,0.00036669,0.00103907,0.00119233,0.00145444,-0.00060922,-0.0
 0020321,-0.00015606,-0.00007358,0.00001724,0.00005799,-0.00119849,0.00
 204939,-0.00078513,0.00032021,-0.00007209,0.00011173,-0.00004195,-0.00
 007823,0.00000019,-0.02663527,0.00145623,0.00306438,0.00164085,0.00088
 543,-0.00142067,0.00024257,-0.00058531,0.00006244,-0.00001477,0.000124
 84,-0.00008887,-0.00002814,0.00001193,0.00000478,0.00001404,-0.0000006
 3,-0.00001377,0.00001423,0.00001702,-0.00004006,-0.00003456,-0.0000280
 5,0.00003181,-0.00000454,-0.00000004,0.00000240,0.00000147,0.00000305,
 -0.00000482,-0.00000089,-0.00000058,0.00000035,0.00000103,-0.00000722,
 0.00000625,-0.00002997,-0.00000537,-0.00004166,0.00001135,0.00000142,-
 0.00000214,0.00000902,0.00000124,0.00000569,-0.00000473,0.00000513,-0.
 00000895,0.00000345,-0.00000624,0.00000857,0.00000152,0.00000087,-0.00
 000715,0.00000056,0.00000012,0.00000119,0.00000043,0.00000066,-0.00000
 429,-0.00000227,0.00000048,0.00000362,-0.00000279,0.00000143,-0.000002
 09,0.00000119,-0.00000403,0.00000596,0.00000143,0.00000396,0.00000260,
 0.,-0.00000064,-0.00000104,-0.00000091,0.00000093,-0.00000046,-0.00072
 185,0.00156774,0.00030090,0.00036592,0.00018044,-0.00002844,0.00092394
 ,-0.00009055,-0.00013079,-0.00221311,-0.00254679,0.00320748,-0.0371374
 0,0.05422746,-0.04209767,-0.00195457,-0.02181128,0.01262640,0.00001390
 ,-0.04151405,0.01017705,-0.00118093,0.00110384,-0.00103696,-0.00017563
 ,0.00065518,-0.00032623,-0.00030360,-0.00016156,0.00084816,0.00011926,
 0.00054541,-0.00030773,0.00003084,-0.00005926,0.00003128,0.00003839,0.
 00002519,-0.00030870,-0.00143193,0.00052287,-0.00014017,0.00005269,0.0
 0009842,0.00002094,-0.00002606,0.00005556,0.02571076,-0.00075921,-0.00
 084259,-0.00154214,-0.00014129,0.00267285,0.00042688,-0.00019175,-0.00
 005149,-0.00008066,0.00002692,-0.00021267,-0.00000577,-0.00005301,0.00
 002203,0.00002603,0.00000306,0.00002127,-0.00004535,-0.00003104,0.0000
 2472,0.00006439,0.00003974,-0.00005079,0.00000151,-0.00000455,0.000006
 69,-0.00000584,0.00000890,-0.00000996,0.00000102,-0.00000035,0.0000023
 4,0.00000883,0.00000476,-0.00000224,-0.00001818,-0.00000885,-0.0000076
 2,0.00000590,0.00000052,0.00000034,0.00002176,0.00001325,0.00000764,-0
 .00001049,0.00000298,-0.00001869,0.00000819,-0.00000782,0.00001583,0.0
 0000010,0.00000116,-0.00001094,0.00000102,-0.00000025,0.00000202,-0.00
 000150,-0.00000262,-0.00000143,-0.00000366,0.00000167,0.00000267,-0.00
 000649,-0.00000084,-0.00000534,-0.00000551,0.00000366,0.00000289,-0.00
 001458,-0.00000109,-0.00001381,-0.00000327,-0.00000008,0.00000390,-0.0
 0000324,-0.00000005,-0.00000256,-0.00339845,0.00064509,0.00296463,-0.0
 0015051,-0.00017509,-0.00000263,-0.00059454,0.00037312,0.00014570,0.00
 185320,0.00289155,-0.00333637,-0.00151328,0.00428206,0.05932656,0.0015
 4032,0.00004028,0.00065487,-0.01198557,0.00374612,-0.00186915,-0.34339
 266,0.03758495,-0.01231798,-0.01241428,-0.01170946,0.01220776,-0.00049
 135,-0.00072045,-0.00025888,-0.01421061,0.00291379,-0.00283501,0.00195
 659,-0.00010747,0.00091284,0.00016932,0.00000559,0.00006384,0.00060049
 ,0.00017104,-0.00013984,0.00000722,-0.00001263,-0.00003258,-0.00000372
 ,0.00000708,0.00001327,-0.00051228,-0.00079066,0.00053878,0.00050342,0
 .00026011,-0.00014186,-0.00201729,-0.00067652,0.00104562,0.00090514,-0
 .00011711,0.00015388,0.00002995,0.00012875,-0.00025229,-0.00002153,-0.
 00002062,-0.00004640,0.00005850,-0.00000747,0.00003728,-0.00006227,0.0
 0003744,0.00000396,-0.00001322,0.00001674,-0.00001179,0.00001288,-0.00
 001109,0.00001444,-0.00000337,0.00000049,-0.00000472,-0.00005061,-0.00
 002986,0.00004184,0.00006918,0.00003902,0.00000469,-0.00002548,-0.0000
 0300,0.00001439,-0.00002440,-0.00001844,-0.00001372,0.00001892,0.00000
 572,0.00001684,-0.00001520,0.00000115,-0.00002289,0.00000253,0.0000016
 2,0.00001636,-0.00000229,-0.00000028,-0.00000315,0.00000663,0.00000510
 ,-0.00000075,0.00001760,-0.00000103,-0.00001196,0.00001231,-0.00000345
 ,0.00001009,-0.00000102,-0.00000506,-0.00003166,0.00001373,-0.00000034
 ,0.00000866,0.00000615,0.00000009,-0.00000238,0.00000571,0.00000020,0.
 00000385,0.00026921,-0.00035855,-0.00014874,-0.00000014,0.00012858,0.0
 0000700,0.00001761,-0.00032878,0.00001328,0.00117528,0.00055534,-0.000
 46842,0.00059701,0.00133280,0.00026445,0.37561614,-0.00225381,0.002469
 68,0.00105210,0.03662307,-0.01038327,0.00077342,0.03786708,-0.04190410
 ,-0.00381557,-0.03301646,-0.00835894,0.01356202,-0.00015186,-0.0002732
 2,-0.00072965,-0.00876973,0.00195726,-0.00255776,-0.00020155,0.0007704
 8,0.00116699,-0.00000963,0.00002625,-0.00003188,-0.00013980,-0.0001501
 6,-0.00003311,-0.00007634,-0.00001594,-0.00001869,0.00001506,0.0000196
 5,-0.00001073,0.00223462,0.00222736,-0.00108012,-0.00046615,-0.0001303
 4,0.00023163,0.00082919,-0.00026592,0.00102404,-0.00001787,-0.00008755
 ,-0.00013466,0.00004971,0.00001703,0.00000129,0.00000473,-0.00000749,-
 0.00001131,-0.00001700,0.00000023,0.00002307,0.00002872,-0.00000533,-0
 .00002702,-0.00000209,0.00000192,0.00000319,-0.00000059,0.00000114,-0.
 00000422,-0.00000007,0.00000134,-0.00000001,-0.00000003,0.00001980,-0.
 00001718,0.00005480,-0.00000099,0.00007383,-0.00001610,0.,-0.00000071,
 -0.00000183,0.00002227,0.00000804,0.00000014,-0.00001263,-0.00000625,0
 .00000044,0.00000439,0.00000127,-0.00000092,-0.00000154,0.00000012,0.0
 0000012,0.00000012,-0.00000032,-0.00000082,-0.00000398,0.00000470,0.00
 000358,0.00000124,-0.00000538,0.00000109,-0.00000460,0.00000109,0.0000
 0529,0.00000581,-0.00001209,-0.00000309,-0.00000177,-0.00000194,-0.000
 00021,-0.00000013,0.00000130,-0.00000005,-0.00000090,-0.00000046,-0.00
 006513,0.00030477,0.00042234,-0.00009557,-0.00003050,-0.00000560,-0.00
 024531,0.00019783,0.00001776,-0.00105606,-0.00010178,0.00033884,0.0014
 8476,-0.00605025,-0.00195187,-0.03219686,0.05959866,-0.00029805,0.0013
 7361,0.00146406,0.01122757,-0.00500406,0.00216898,-0.01138435,-0.00461
 396,-0.04197586,0.03086056,0.01222231,-0.00762521,0.00128648,0.0000098
 5,0.00034620,-0.03598011,0.00342563,-0.00553179,0.00180547,0.00110705,
 0.00293610,0.00000024,0.00033278,0.00001062,-0.00009358,-0.00008631,0.
 00006756,-0.00001339,-0.00000491,-0.00001456,0.00000025,0.00001143,-0.
 00000920,-0.00021557,0.00068864,-0.00022604,0.00032179,0.00017690,-0.0
 0021820,-0.00250307,-0.00012374,-0.00004295,0.00044201,-0.00001415,0.0
 0020511,0.00017495,0.00004700,0.00005301,-0.00001019,-0.00002711,-0.00
 002263,0.00002570,0.00001129,0.00002111,-0.00003114,0.00000047,-0.0000
 2181,-0.00000454,0.00000131,0.00000855,0.00000283,0.00000935,-0.000008
 70,-0.00000201,-0.00000110,0.00000045,-0.00001906,0.00000587,0.0000203
 5,0.00008483,0.00000060,0.00008542,-0.00000610,0.00000690,-0.00000843,
 -0.00002800,0.00000751,0.00003252,0.00001018,0.00000835,-0.00001858,-0
 .00000257,-0.00001352,0.00001495,0.00000586,0.00000230,-0.00001185,-0.
 00000054,0.00000023,0.00000245,0.00000048,-0.00000330,0.00000063,0.000
 01128,0.00000095,-0.00000883,0.00000930,-0.00000574,0.00000967,0.00003
 851,0.00001006,-0.00006700,0.00000607,-0.00000499,0.00000917,0.0000009
 7,0.00000052,-0.00000229,0.00000080,0.00000112,0.00000058,0.00001762,0
 .00033250,0.00007150,-0.00004229,-0.00004907,-0.00000711,-0.00002763,0
 .00007602,-0.00002723,-0.00021292,0.00017477,0.00023077,0.00076730,-0.
 00185639,-0.00022612,0.00452930,-0.00709336,0.05460293,0.00042771,-0.0
 0009089,0.00003690,-0.00066877,0.00086223,0.00013108,-0.00987474,-0.00
 211437,-0.00083487,0.00154312,0.00050138,0.00016441,0.00010333,0.00003
 311,0.00005181,-0.35561285,0.00499656,-0.02706964,-0.00695541,0.011526
 29,0.00432767,-0.00037261,0.00044908,-0.00114528,-0.00004260,-0.000017
 12,-0.00001499,0.00004624,0.00002187,0.00001508,-0.00001284,-0.0000077
 8,0.00000218,-0.00003082,-0.00010172,0.00021718,0.00152080,-0.00093497
 ,-0.00027316,-0.01481598,0.00056246,-0.00236106,0.00145594,0.00043375,
 -0.00168725,0.00044451,0.00014545,0.00020128,-0.00002020,-0.00000839,-
 0.00005776,0.00006757,0.00001470,-0.00003832,-0.00007860,-0.00000831,0
 .00001572,-0.00000667,0.00001601,0.00003724,0.00001144,0.00000232,-0.0
 0002802,-0.00000467,0.00000355,0.00000266,0.00001558,0.00012834,-0.000
 07295,0.00021544,-0.00011094,0.00044649,-0.00003404,-0.00000612,-0.000
 06148,-0.00005101,0.00008103,0.00006378,0.00001695,-0.00006496,-0.0000
 3049,-0.00001508,0.00002962,0.00002309,0.00000995,-0.00001251,-0.00002
 019,-0.00000115,0.00000252,0.00000355,-0.00000377,-0.00002697,0.000031
 49,0.00001729,-0.00000614,-0.00002999,0.00002312,-0.00001458,0.0000178
 5,0.00009178,0.00004446,-0.00028876,0.00002106,-0.00001729,0.00002624,
 0.00000728,0.00000214,-0.00000782,0.00000459,-0.00000197,0.00000163,-0
 .00003693,-0.00007251,-0.00009619,0.00000727,0.00000241,-0.00001058,0.
 00003573,-0.00004114,-0.00000782,0.00009836,0.00015223,-0.00000204,0.0
 0062362,-0.00063681,-0.00028472,0.00037522,-0.00049691,-0.00117095,0.3
 8167469,0.00015721,0.00001157,0.00009000,-0.00078229,0.00033212,0.0003
 1323,-0.00626965,0.00128068,-0.00008570,0.00077800,0.00027349,-0.00020
 242,-0.00008053,-0.00003682,0.00003261,0.00652036,-0.03881063,0.003287
 54,0.03769427,-0.01756425,-0.00547430,0.00109525,0.00035893,0.00174541
 ,-0.00005081,0.00005186,0.00002478,0.00001661,-0.00002711,-0.00000355,
 -0.00000750,0.00000162,0.00000004,-0.00013232,-0.00017452,-0.00006160,
 0.00142881,0.00160553,-0.00027494,-0.02562884,0.00055627,-0.00193099,0
 .00082041,0.00068623,-0.00189163,0.00006960,0.00023978,0.00000339,-0.0
 0000182,-0.00004390,-0.00016777,0.00009773,-0.00001498,0.00006302,-0.0
 0013255,0.00014264,-0.00003057,-0.00000260,0.00002138,0.00001413,0.000
 00844,0.00001552,-0.00000647,-0.00000351,-0.00000263,-0.00000250,-0.00
 004023,-0.00008027,0.00012620,-0.00041208,-0.00005909,-0.00041544,0.00
 010367,0.00001046,-0.00002326,0.00003231,-0.00008025,0.00002564,-0.000
 00897,0.00006671,-0.00001636,0.00000519,-0.00005031,0.00001957,0.00000
 457,0.00001424,-0.00001064,0.00000078,-0.00000101,0.00000241,0.0000025
 2,0.00001573,-0.00002868,-0.00002126,-0.00000846,0.00005109,-0.0000014
 3,0.00002376,0.00000470,0.00011498,-0.00002175,-0.00008414,0.00002334,
 -0.00000864,0.00002680,0.00000464,-0.00000092,-0.00000801,-0.00000179,
 0.00000496,-0.00000026,0.00001875,0.00002839,-0.00001088,0.00000421,-0
 .00001663,-0.00000021,0.00002719,-0.00003917,-0.00001601,0.00014520,0.
 00006724,0.00002892,0.00004893,-0.00010967,-0.00021344,-0.00015653,-0.
 00000027,-0.00151766,-0.01415839,0.05402758,0.00070097,-0.00005919,-0.
 00025732,-0.00120454,0.00194802,0.00117569,-0.03504881,-0.00207722,-0.
 00437515,0.00181750,-0.00011422,0.00320857,0.00010838,-0.00023835,0.00
 049206,-0.02997832,0.00296361,-0.04557536,0.01194120,-0.00719186,0.002
 14052,0.00095757,-0.00005236,0.00058103,-0.00004542,-0.00001039,0.0000
 7877,0.00000571,0.00001157,0.00001292,0.00000283,-0.00000165,0.0000062
 0,-0.00028242,-0.00020544,-0.00058240,-0.00133721,-0.00016743,0.000501
 85,0.02348183,0.00204601,0.00015369,-0.00000187,-0.00040677,0.00196889
 ,0.00018148,-0.00017772,-0.00007095,0.00000857,0.00006499,0.00018745,-
 0.00009646,-0.00001073,-0.00010550,0.00010303,-0.00009572,0.00012714,0
 .00000273,-0.00002768,-0.00002929,-0.00001218,-0.00002603,0.00002017,0
 .00000649,0.00000249,0.00000114,0.00010833,0.00003834,-0.00006585,-0.0
 0026759,-0.00000184,-0.00002707,0.00001980,-0.00001103,0.00004304,0.00
 002030,-0.00001236,-0.00004917,-0.00003395,-0.00003861,0.00008745,0.00
 000976,0.00006404,-0.00004557,-0.00001625,-0.00001378,0.00002932,0.000
 00099,-0.00000032,-0.00000594,-0.00001680,-0.00000491,0.00001567,-0.00
 004766,-0.00000318,0.00003567,-0.00003990,0.00000576,-0.00004996,-0.00
 023448,0.00000201,0.00006194,-0.00003595,0.00003146,-0.00002445,-0.000
 00787,-0.00000193,0.00001103,-0.00000184,-0.00000419,-0.00000137,0.000
 02037,-0.00018006,-0.00008707,0.00000413,-0.00003747,0.00000682,0.0000
 0504,-0.00001779,-0.00000087,0.00016962,-0.00000016,-0.00011666,0.0006
 3375,-0.00049903,0.00001520,-0.00179989,-0.00145697,-0.00567116,0.0287
 4650,0.00378022,0.04853704,0.00003711,-0.00000541,0.00015471,-0.000025
 03,0.00025162,0.00003347,-0.00123121,0.00002208,-0.00113589,0.00077096
 ,0.00010029,-0.00012478,-0.00000139,0.00000113,0.00011144,-0.01449659,
 0.00328207,0.00090546,0.00293443,0.00054124,-0.00111595,-0.00067946,-0
 .00034916,-0.00028150,0.00048252,-0.00009864,0.00020999,-0.00003402,0.
 00013241,0.00004472,0.00000649,0.00000852,0.00002093,0.00024219,-0.000
 48549,-0.00021187,-0.00162849,0.00799128,0.00101145,-0.35456368,0.0300
 3271,0.02088578,-0.01333151,-0.00066071,-0.00873075,0.00116950,-0.0005
 3344,0.00169898,0.00001770,-0.00018747,-0.00027599,0.00045717,0.000018
 92,-0.00022800,-0.00084956,0.00029238,0.00052831,0.00000209,0.00004290
 ,0.00007258,0.00002493,0.00004996,-0.00006086,-0.00001515,-0.00000081,
 0.00000112,-0.00019316,0.00012962,0.00001328,0.00010634,-0.00010286,0.
 00008540,-0.00001274,-0.00001448,-0.00003203,0.00031356,0.00016716,0.0
 0007807,-0.00001541,-0.00004971,-0.00023456,-0.00001100,-0.00007389,0.
 00010809,0.00002858,0.00001088,-0.00006934,0.00000061,0.00000157,0.000
 01108,0.00003664,-0.00002747,0.00000466,0.00007635,-0.00002598,-0.0000
 2511,0.00004289,0.00004986,0.00017394,0.00051199,0.00027915,-0.0016205
 8,0.00001374,-0.00011233,0.00016040,0.00001708,0.00000647,-0.00003080,
 0.00000359,0.00000767,-0.00000186,0.00000614,0.00000935,0.00001237,-0.
 00001435,-0.00004100,0.00000503,0.00000454,-0.00021184,-0.00010083,0.0
 0028636,0.00044732,0.00102918,0.00008205,-0.00016804,-0.00019224,0.001
 26024,0.00009945,0.00041572,-0.00021988,-0.00132987,0.00145253,0.37838
 683,0.00007392,0.00033874,-0.00033574,-0.00047785,-0.00068663,-0.00013
 376,-0.00073104,0.00008702,-0.00123330,0.00032794,-0.00006965,0.000374
 38,0.00010438,-0.00010264,0.00004177,-0.02185138,0.00272179,0.00290344
 ,0.00103197,0.00286842,-0.00013607,-0.00058552,-0.00024705,-0.00035732
 ,-0.00027873,0.00016782,-0.00016605,-0.00012173,-0.00030345,-0.0001779
 0,-0.00001666,0.00003522,-0.00002212,0.00364626,0.00129524,0.00544012,
 0.03556630,-0.02332259,-0.00883344,0.02969881,-0.04332367,0.00063235,-
 0.00591949,0.00474238,-0.00278584,0.00024031,-0.00067588,0.00087246,0.
 00003893,-0.00015042,-0.00005102,-0.00045897,0.00014898,0.00059048,0.0
 0131692,-0.00049302,-0.00126513,0.00002866,0.00000639,0.00007700,-0.00
 001023,0.00006233,-0.00005570,-0.00000569,-0.00000321,0.00000710,-0.00
 005275,0.00007371,-0.00004908,0.00004655,-0.00005346,0.00006240,-0.000
 01492,-0.00000147,-0.00001637,-0.00002575,0.00016141,0.00010202,-0.000
 01319,0.00001048,-0.00014007,0.00001821,-0.00007455,0.00010681,0.00001
 528,0.00001303,-0.00006090,0.00000138,-0.00000085,0.00001141,0.0000135
 0,-0.00002507,0.00000135,0.00001937,-0.00000441,-0.00002340,-0.0000025
 6,-0.00003012,-0.00001463,0.00032937,-0.00001478,-0.00000159,-0.000027
 97,-0.00004569,-0.00003221,-0.00000523,-0.00000123,0.00000144,-0.00000
 697,0.00000359,-0.00000730,-0.00002348,0.00001480,-0.00001335,0.000050
 08,0.00003144,0.00000428,-0.00016011,0.00019237,0.00004852,-0.00148620
 ,0.00049035,-0.00031475,-0.00002726,-0.00011554,0.00006239,0.00029365,
 0.00014437,0.00037405,-0.00106073,-0.00268544,0.00218786,-0.03949737,0
 .05882094,-0.00002983,-0.00007798,-0.00024239,-0.00008578,0.00021374,-
 0.00011386,0.00162586,-0.00009695,0.00108477,-0.00048990,0.00003413,-0
 .00019378,-0.00001701,-0.00000417,0.00000090,0.02145015,-0.00169196,0.
 00185326,-0.00210035,-0.00096578,0.00084871,-0.00025541,0.00018588,-0.
 00011585,-0.00006587,-0.00004771,0.00003549,-0.00006648,-0.00007081,-0
 .00006116,0.00000264,0.00001548,-0.00000179,0.00187933,0.00027662,0.00
 285041,0.00772221,-0.00660641,0.00146176,0.02539859,0.00303419,-0.0460
 0734,-0.03857303,0.00051437,-0.01593355,-0.00405943,-0.00066897,0.0063
 0481,0.00003943,0.00013525,-0.00068668,0.00017010,0.00003495,0.0003789
 0,-0.00030904,0.00025936,-0.00052448,0.00006017,0.00010787,0.00010185,
 0.00002374,0.00006800,-0.00006926,-0.00001552,0.00000160,-0.00000144,-
 0.00012306,0.00018926,0.00006988,0.00002892,-0.00017990,0.00009388,0.0
 0002401,-0.00002930,-0.00006149,0.00009992,-0.00008306,-0.00004498,0.0
 0011265,0.00000371,-0.00023323,-0.00000729,-0.00011819,0.00011800,0.00
 002640,0.00002537,-0.00006971,0.00000057,0.00000160,0.00001178,0.00002
 211,-0.00002635,0.00000138,0.00003816,-0.00003309,-0.00000870,0.000209
 66,0.00010052,0.00014720,0.00181831,-0.00007027,0.00013760,0.00024179,
 -0.00018651,0.00000429,0.00002504,0.00001097,-0.00006026,-0.00000313,0
 .00000746,0.00000031,-0.00002493,0.00000437,0.00000158,0.00001422,0.00
 001581,-0.00000622,-0.00010130,0.00007202,-0.00002226,-0.00064736,0.00
 014960,0.00008931,-0.00017073,0.00003235,0.00009768,-0.00016325,0.0002
 9982,-0.00061712,0.00103053,0.00283769,-0.00235817,-0.01475579,0.00232
 542,0.05174001\\0.00782687,-0.01295961,-0.00675763,-0.02174728,0.00808
 775,0.00622451,0.00236444,-0.03089641,0.00371786,0.00083888,0.03501942
 ,0.02933043,-0.00533270,-0.01976195,-0.01993852,0.02457437,0.00395229,
 0.00420795,-0.00017857,0.02053493,-0.00844214,-0.00609821,-0.00706658,
 0.02171841,-0.02187076,0.01824598,-0.00734297,-0.00048009,0.00768089,0
 .00421075,0.01048567,-0.03222531,0.00019287,0.03511486,-0.00520348,0.0
 1864051,-0.00652329,-0.00674433,0.02726177,-0.03523058,0.00991909,-0.0
 5475524,-0.01348144,-0.00967088,-0.00776996,0.01841475,0.00230585,-0.0
 0339673,-0.01518852,0.03792720,0.01773774,0.00363698,-0.02160322,0.001
 49177,0.00075639,0.03391726,-0.01326863,0.03885285,-0.02690320,-0.0040
 1246,0.00512468,-0.01628686,-0.00864063,-0.01807579,0.01024968,0.02121
 021,0.00649789,-0.01607607,-0.00444301,-0.01228440,-0.01206309,0.00061
 945,0.00778507,0.03408772,0.00025118,-0.01459403,-0.00701443,0.0118842
 9,0.00780776,0.01076836,0.02885488,0.00002044,-0.02323648,-0.03723456,
 0.00051917,0.01703775,0.01475415,-0.00222130,-0.00266630,-0.00098342,-
 0.00293316,-0.00559801,-0.01722183,0.02059878,-0.00297734,-0.00008024,
 -0.02303766,0.00294050,0.00035246,0.02225899,-0.00303906,-0.00036478,-
 0.02521353,0.00081829,0.00391100,0.02309697,-0.00119779,0.00242587,-0.
 02263037,0.00125844,-0.00278836,-0.00104455,0.00254185,-0.00026293,0.0
 0485152,0.00396452,-0.01942959,-0.02254392,0.00349343,-0.00276947,0.02
 508531,-0.00349077,0.00332650,-0.02191782,0.00232102,-0.00081904,0.023
 38924,-0.00243539,0.00006559,-0.01770183,0.00239160,-0.00289478,0.0204
 2791,-0.00034726,0.00122676\\\@


 REFRAIN FROM ILLUSIONS, INSIST ON WORK AND NOT WORDS,
 PATIENTLY SEEK DIVINE AND SCIENTIFIC TRUTH.
 LAST WORDS OF MARIA MENDELEEVA TO HER SON DMITRI, C. 1850
 Job cpu time:  1 days  7 hours 50 minutes 28.2 seconds.
 File lengths (MBytes):  RWF=   1769 Int=      0 D2E=      0 Chk=     28 Scr=      1
 Normal termination of Gaussian 09 at Sat Mar 26 11:07:10 2016.
Gaussian '09 finished on node026 at Sat Mar 26 11:07:10 EDT 2016.
