Gaussian '09 started on node010 at Tue Mar  1 03:16:31 EST 2016.
 Entering Gaussian System, Link 0=/usr/local/gaussian/g09/g09
 Initial command:
 /usr/local/gaussian/g09/l1.exe /home/srmcgrat/thesis/gaussian/cellobiose/350/9000/2/gdp/gaussian27862/Gau-27898.inp -scrdir=/home/srmcgrat/thesis/gaussian/cellobiose/350/9000/2/gdp/gaussian27862/
 Entering Link 1 = /usr/local/gaussian/g09/l1.exe PID=     27900.
  
 Copyright (c) 1988,1990,1992,1993,1995,1998,2003,2009,2010,
            Gaussian, Inc.  All Rights Reserved.
  
 This is part of the Gaussian(R) 09 program.  It is based on
 the Gaussian(R) 03 system (copyright 2003, Gaussian, Inc.),
 the Gaussian(R) 98 system (copyright 1998, Gaussian, Inc.),
 the Gaussian(R) 94 system (copyright 1995, Gaussian, Inc.),
 the Gaussian 92(TM) system (copyright 1992, Gaussian, Inc.),
 the Gaussian 90(TM) system (copyright 1990, Gaussian, Inc.),
 the Gaussian 88(TM) system (copyright 1988, Gaussian, Inc.),
 the Gaussian 86(TM) system (copyright 1986, Carnegie Mellon
 University), and the Gaussian 82(TM) system (copyright 1983,
 Carnegie Mellon University). Gaussian is a federally registered
 trademark of Gaussian, Inc.
  
 This software contains proprietary and confidential information,
 including trade secrets, belonging to Gaussian, Inc.
  
 This software is provided under written license and may be
 used, copied, transmitted, or stored only in accord with that
 written license.
  
 The following legend is applicable only to US Government
 contracts under FAR:
  
                    RESTRICTED RIGHTS LEGEND
  
 Use, reproduction and disclosure by the US Government is
 subject to restrictions as set forth in subparagraphs (a)
 and (c) of the Commercial Computer Software - Restricted
 Rights clause in FAR 52.227-19.
  
 Gaussian, Inc.
 340 Quinnipiac St., Bldg. 40, Wallingford CT 06492
  
  
 ---------------------------------------------------------------
 Warning -- This program may not be used in any manner that
 competes with the business of Gaussian, Inc. or will provide
 assistance to any competitor of Gaussian, Inc.  The licensee
 of this program is prohibited from giving any competitor of
 Gaussian, Inc. access to this program.  By using this program,
 the user acknowledges that Gaussian, Inc. is engaged in the
 business of creating and licensing software in the field of
 computational chemistry and represents and warrants to the
 licensee that it is not a competitor of Gaussian, Inc. and that
 it will not use this program in any manner prohibited above.
 ---------------------------------------------------------------
  

 Cite this work as:
 Gaussian 09, Revision B.01,
 M. J. Frisch, G. W. Trucks, H. B. Schlegel, G. E. Scuseria, 
 M. A. Robb, J. R. Cheeseman, G. Scalmani, V. Barone, B. Mennucci, 
 G. A. Petersson, H. Nakatsuji, M. Caricato, X. Li, H. P. Hratchian, 
 A. F. Izmaylov, J. Bloino, G. Zheng, J. L. Sonnenberg, M. Hada, 
 M. Ehara, K. Toyota, R. Fukuda, J. Hasegawa, M. Ishida, T. Nakajima, 
 Y. Honda, O. Kitao, H. Nakai, T. Vreven, J. A. Montgomery, Jr., 
 J. E. Peralta, F. Ogliaro, M. Bearpark, J. J. Heyd, E. Brothers, 
 K. N. Kudin, V. N. Staroverov, T. Keith, R. Kobayashi, J. Normand, 
 K. Raghavachari, A. Rendell, J. C. Burant, S. S. Iyengar, J. Tomasi, 
 M. Cossi, N. Rega, J. M. Millam, M. Klene, J. E. Knox, J. B. Cross, 
 V. Bakken, C. Adamo, J. Jaramillo, R. Gomperts, R. E. Stratmann, 
 O. Yazyev, A. J. Austin, R. Cammi, C. Pomelli, J. W. Ochterski, 
 R. L. Martin, K. Morokuma, V. G. Zakrzewski, G. A. Voth, 
 P. Salvador, J. J. Dannenberg, S. Dapprich, A. D. Daniels, 
 O. Farkas, J. B. Foresman, J. V. Ortiz, J. Cioslowski, 
 and D. J. Fox, Gaussian, Inc., Wallingford CT, 2010.
 
 ******************************************
 Gaussian 09:  EM64L-G09RevB.01 12-Aug-2010
                 1-Mar-2016 
 ******************************************
 ------------------------------------------------
 # freq=raman b3lyp/6-31+g(d,p) geom=connectivity
 ------------------------------------------------
 1/10=4,30=1,38=1,57=2/1,3;
 2/12=2,17=6,18=5,40=1/2;
 3/5=1,6=6,7=111,11=2,16=1,25=1,30=1,71=2,74=-5/1,2,3;
 4//1;
 5/5=2,38=5,98=1/2;
 8/6=4,10=90,11=11/1;
 10/13=10,15=4/2;
 11/6=3,8=1,9=11,15=111,16=1/1,2,10;
 10/6=1/2;
 6/7=2,8=2,9=2,10=2,18=1,28=1/1;
 7/8=1,10=1,25=1/1,2,3,16;
 1/10=4,30=1/3;
 99//99;
 ------------
 350 9000.com
 ------------
 Symbolic Z-matrix:
 Charge =  0 Multiplicity = 1
 O                     7.723     7.379     22.674 
 C                     8.306     7.896     23.879 
 C                     7.747     9.197     24.431 
 O                     7.977     10.25     23.484 
 H                     7.631     9.904     22.612 
 C                     8.293     9.745     25.74 
 O                     7.538     10.892    26.155 
 H                     7.779     11.082    27.107 
 C                     8.676     5.578     24.884 
 O                     8.683     4.928     23.604 
 H                     8.907     3.961     23.722 
 C                     8.064     6.959     25.05 
 O                     8.613     7.42      26.293 
 C                     8.138     8.673     26.807 
 O                     8.926     8.92      27.981 
 C                     8.371     8.428     29.21 
 C                     8.873     7.091     29.73 
 O                     8.478     6.092     28.778 
 H                     8.921     6.402     27.937 
 C                     8.322     6.706     31.093 
 O                     9.2       5.651     31.513 
 H                     8.818     5.218     32.329 
 C                     7.867     10.856    30.033 
 O                     8.334     11.54     28.861 
 H                     8.208     12.502    29.102 
 C                     8.461     9.483     30.3 
 O                     7.839     9.009     31.503 
 C                     8.594     7.895     32.001 
 O                     7.78      7.589     33.142 
 H                     8.34373   7.38772   33.89253 
 H                     9.62296   8.09251   32.21811 
 H                     7.2924    6.41593   31.06674 
 H                     9.94136   7.11806   29.78269 
 H                     7.32713   8.28992   29.0198 
 H                     9.49994   9.62548   30.51261 
 H                     8.07284   11.47541   30.88086 
 H                     6.80584   10.74634   29.95051 
 H                     8.42003   7.11872   22.06736 
 H                     8.16741   4.92634   25.56339 
 H                     9.69402   5.64577   25.2064 
 H                     7.0071    6.84496   25.17192 
 H                     9.36038   8.00566   23.73354 
 H                     6.68964   9.07642   24.54214 
 H                     9.32483   10.00506   25.62778 
 H                     7.10702   8.58234   27.07858 
 

 GradGradGradGradGradGradGradGradGradGradGradGradGradGradGradGradGradGrad
 Berny optimization.
 Initialization pass.
 Trust Radius=3.00D-01 FncErr=1.00D-07 GrdErr=1.00D-07
 Number of steps in this run=      2 maximum allowed number of steps=      2.
 GradGradGradGradGradGradGradGradGradGradGradGradGradGradGradGradGradGrad

                          Input orientation:                          
 ---------------------------------------------------------------------
 Center     Atomic      Atomic             Coordinates (Angstroms)
 Number     Number       Type             X           Y           Z
 ---------------------------------------------------------------------
      1          8           0        7.723000    7.379000   22.674000
      2          6           0        8.306000    7.896000   23.879000
      3          6           0        7.747000    9.197000   24.431000
      4          8           0        7.977000   10.250000   23.484000
      5          1           0        7.631000    9.904000   22.612000
      6          6           0        8.293000    9.745000   25.740000
      7          8           0        7.538000   10.892000   26.155000
      8          1           0        7.779000   11.082000   27.107000
      9          6           0        8.676000    5.578000   24.884000
     10          8           0        8.683000    4.928000   23.604000
     11          1           0        8.907000    3.961000   23.722000
     12          6           0        8.064000    6.959000   25.050000
     13          8           0        8.613000    7.420000   26.293000
     14          6           0        8.138000    8.673000   26.807000
     15          8           0        8.926000    8.920000   27.981000
     16          6           0        8.371000    8.428000   29.210000
     17          6           0        8.873000    7.091000   29.730000
     18          8           0        8.478000    6.092000   28.778000
     19          1           0        8.921000    6.402000   27.937000
     20          6           0        8.322000    6.706000   31.093000
     21          8           0        9.200000    5.651000   31.513000
     22          1           0        8.818000    5.218000   32.329000
     23          6           0        7.867000   10.856000   30.033000
     24          8           0        8.334000   11.540000   28.861000
     25          1           0        8.208000   12.502000   29.102000
     26          6           0        8.461000    9.483000   30.300000
     27          8           0        7.839000    9.009000   31.503000
     28          6           0        8.594000    7.895000   32.001000
     29          8           0        7.780000    7.589000   33.142000
     30          1           0        8.343726    7.387718   33.892532
     31          1           0        9.622956    8.092515   32.218114
     32          1           0        7.292402    6.415934   31.066743
     33          1           0        9.941359    7.118060   29.782694
     34          1           0        7.327133    8.289924   29.019796
     35          1           0        9.499940    9.625484   30.512607
     36          1           0        8.072844   11.475406   30.880859
     37          1           0        6.805836   10.746341   29.950506
     38          1           0        8.420026    7.118724   22.067360
     39          1           0        8.167414    4.926336   25.563392
     40          1           0        9.694020    5.645773   25.206401
     41          1           0        7.007103    6.844962   25.171917
     42          1           0        9.360380    8.005657   23.733543
     43          1           0        6.689641    9.076416   24.542140
     44          1           0        9.324832   10.005056   25.627782
     45          1           0        7.107016    8.582338   27.078575
 ---------------------------------------------------------------------
                    Distance matrix (angstroms):
                    1          2          3          4          5
     1  O    0.000000
     2  C    1.434992   0.000000
     3  C    2.528389   1.519798   0.000000
     4  O    2.993870   2.409478   1.434754   0.000000
     5  H    2.527436   2.468396   1.955010   0.999908   0.000000
     6  C    3.914487   2.623412   1.520494   2.333327   3.201236
     7  O    4.949016   3.840054   2.426702   2.781928   3.679353
     8  H    5.776403   4.565995   3.273412   3.722574   4.649152
     9  C    3.005979   2.553439   3.763696   4.927087   4.996827
    10  O    2.791756   3.004460   4.447964   5.369965   5.181828
    11  H    3.766017   3.983726   5.409619   6.361844   6.178958
    12  C    2.436813   1.519136   2.343564   3.645628   3.847643
    13  O    3.727055   2.479561   2.715645   4.037806   4.548004
    14  C    4.350672   3.033997   2.464312   3.681736   4.401186
    15  O    5.655629   4.273100   3.750903   4.784612   5.609941
    16  C    6.651286   5.357874   4.880531   6.021793   6.801454
    17  C    7.154899   5.933272   5.812273   7.056530   7.753803
    18  O    6.283726   5.223428   5.391827   6.750289   7.298514
    19  H    5.485335   4.367794   4.634904   5.960491   6.502594
    20  C    8.467071   7.311508   7.135681   8.400943   9.090217
    21  O    9.126633   8.007323   8.052332   9.333347   9.988872
    22  H    9.954294   8.878982   8.908304  10.210893  10.853002
    23  C    8.140341   6.842955   5.843722   6.577898   7.485535
    24  O    7.481057   6.172507   5.045703   5.541090   6.497746
    25  H    8.234047   6.964522   5.740539   6.056962   7.014459
    26  C    7.945271   6.616029   5.919185   6.876075   7.744126
    27  O    8.978953   7.718953   7.075097   8.115632   8.938354
    28  C    9.381782   8.127105   7.727711   8.858104   9.649703
    29  O   10.470261   9.283000   8.858232  10.019815  10.782501
    30  H   11.235695  10.026495   9.651434  10.801143  11.579726
    31  H    9.757512   8.444750   8.085681   9.145964   9.976311
    32  H    8.458785   7.408214   7.209305   8.524478   9.152264
    33  H    7.451358   6.175208   6.146367   7.303513   8.032314
    34  H    6.423054   5.247966   4.696395   5.908406   6.614940
    35  H    8.345536   6.958545   6.343685   7.218773   8.123429
    36  H    9.179077   7.867181   6.848210   7.498288   8.428438
    37  H    8.070174   6.872999   5.809577   6.590423   7.432637
    38  H    0.960000   1.974639   3.218538   3.465260   2.945667
    39  H    3.815973   3.416912   4.438202   5.718525   5.811678
    40  H    3.647197   2.958397   4.123511   5.207084   5.396245
    41  H    2.652790   2.112688   2.574585   3.922250   4.037343
    42  H    2.048498   1.070000   2.123379   2.648223   2.802199
    43  H    2.727453   2.108495   1.070000   2.038198   2.301411
    44  H    4.264606   2.923076   2.138877   2.544101   3.460378
    45  H    4.607357   3.485097   2.792318   4.056962   4.687392
                    6          7          8          9         10
     6  C    0.000000
     7  O    1.434524   0.000000
     8  H    1.980014   1.000242   0.000000
     9  C    4.271219   5.581136   6.003362   0.000000
    10  O    5.283757   6.586951   7.138623   1.435601   0.000000
    11  H    6.156621   7.472109   7.964876   2.004568   0.999594
    12  C    2.879295   4.119004   4.616449   1.519625   2.568859
    13  O    2.411189   3.637232   3.842967   2.319960   3.666836
    14  C    1.520427   2.389365   2.454009   3.683259   4.957949
    15  O    2.470505   3.024831   2.598794   4.563209   5.929017
    16  C    3.712341   4.012257   3.437556   5.189393   6.616236
    17  C    4.827030   5.386135   4.899494   5.080521   6.499427
    18  O    4.754795   5.550111   5.308573   3.932764   5.307278
    19  H    4.049301   5.024770   4.888299   3.171720   4.583035
    20  C    6.155564   6.520820   5.944108   6.320552   7.705630
    21  O    7.135195   7.677141   7.136374   6.650079   7.958788
    22  H    8.011509   8.482391   7.920562   7.455051   8.730862
    23  C    4.454845   3.892097   2.936034   7.417814   8.782886
    24  O    3.600604   2.894124   1.895865   7.174882   8.454371
    25  H    4.348715   3.424297   2.486054   8.121104   9.371185
    26  C    4.570609   4.474174   3.635543   6.680442   8.101464
    27  O    5.827519   5.677798   4.860632   7.502232   8.930907
    28  C    6.535535   6.653785   5.896815   7.485112   8.906212
    29  O    7.726649   7.732176   6.972967   8.546432   9.943328
    30  H    8.486644   8.532209   7.746617   9.194516  10.583913
    31  H    6.816557   6.996106   6.201667   7.810809   9.225000
    32  H    6.360666   6.649865   6.139097   6.390836   7.735648
    33  H    5.095221   5.760115   5.248615   5.288678   6.675034
    34  H    3.715805   3.875864   3.414478   5.126284   6.517036
    35  H    4.924304   4.943886   4.084267   6.981563   8.394201
    36  H    5.428738   4.791676   3.805670   8.432408   9.807828
    37  H    4.576319   3.868222   3.024110   7.475208   8.812206
    38  H    4.516829   5.632440   6.443325   3.220685   2.688808
    39  H    4.823535   6.027878   6.358128   1.070000   2.026092
    40  H    4.364773   5.750753   6.068949   1.070000   2.026092
    41  H    3.222804   4.198430   4.721531   2.115020   2.990274
    42  H    2.861902   4.185152   4.831652   2.772264   3.153982
    43  H    2.110126   2.572426   3.433304   4.037499   4.697120
    44  H    1.070000   2.063346   2.395306   4.535749   5.503103
    45  H    2.133102   2.524535   2.588567   4.037811   5.283047
                   11         12         13         14         15
    11  H    0.000000
    12  C    3.385593   0.000000
    13  O    4.319856   1.434911   0.000000
    14  C    5.684323   2.455671   1.435211   0.000000
    15  O    6.536905   3.630334   2.279762   1.435350   0.000000
    16  C    7.096445   4.422421   3.095726   2.426669   1.435455
    17  C    6.774520   4.751242   3.462486   3.403950   2.531215
    18  O    5.503484   3.849814   2.820822   3.265272   2.972120
    19  H    4.870821   3.062592   1.958041   2.654700   2.518389
    20  C    7.887261   6.053794   4.861530   4.719400   3.866672
    21  O    7.977570   6.691168   5.542773   5.692694   4.820421
    22  H    8.698760   7.522196   6.428384   6.549191   5.711530
    23  C    9.404858   6.328958   5.133246   3.904613   3.013350
    24  O    9.174906   5.965080   4.862804   3.532283   2.826529
    25  H   10.118383   6.867626   5.820759   4.464657   3.821373
    26  C    8.600086   5.838723   4.509448   3.600205   2.431246
    27  O    9.336321   6.774536   5.501645   4.717490   3.687001
    28  C    9.171487   7.033733   5.727761   5.271703   4.161880
    29  O   10.157210   8.121454   6.901540   6.437037   5.451678
    30  H   10.747064   8.857337   7.604370   7.204099   6.134586
    31  H    9.474490   7.422739   6.048079   5.641118   4.373055
    32  H    7.910681   6.090278   5.053786   4.894364   4.296603
    33  H    6.911507   5.093934   3.746154   3.811128   2.742999
    34  H    7.021553   4.251307   3.137776   2.387618   2.008101
    35  H    8.862861   6.245970   4.843130   4.061235   2.690009
    36  H   10.412078   7.375426   6.147075   4.945104   3.958176
    37  H    9.447223   6.319959   5.263814   3.994375   3.421925
    38  H    3.598082   3.008057   4.240759   4.995948   6.202559
    39  H    2.206714   2.099045   2.636141   3.947774   4.729655
    40  H    2.379350   2.099045   2.344607   3.761279   4.359910
    41  H    3.745545   1.070000   2.041176   2.700768   3.984833
    42  H    4.070005   2.123477   2.729907   3.374270   4.366418
    43  H    5.635316   2.574924   3.083591   2.718470   4.105061
    44  H    6.351158   3.346937   2.762560   2.138574   2.621841
    45  H    5.988598   2.768783   2.058190   1.070000   2.058419
                   16         17         18         19         20
    16  C    0.000000
    17  C    1.519860   0.000000
    18  O    2.378018   1.435385   0.000000
    19  H    2.455138   1.921425   0.999815   0.000000
    20  C    2.552131   1.519735   2.400116   3.226694   0.000000
    21  O    3.701726   2.315085   2.862864   3.664644   1.435378
    22  H    4.498007   3.204053   3.672748   4.549959   1.996962
    23  C    2.612763   3.908845   4.964277   5.034108   4.307334
    24  O    3.131727   4.565006   5.450535   5.253322   5.324427
    25  H    4.078690   5.487762   6.423860   6.251047   6.129494
    26  C    1.519613   2.493252   3.716941   3.909978   2.891349
    27  O    2.424548   2.809165   4.042627   4.547915   2.388556
    28  C    2.850175   2.425221   3.694860   4.341898   1.520582
    29  O    4.063721   3.617236   4.666124   5.459201   2.296052
    30  H    4.796773   4.206524   5.277817   6.064095   2.881422
    31  H    3.275468   2.784991   4.140938   4.656019   2.209251
    32  H    2.942665   2.177358   2.597869   3.528147   1.070000
    33  H    2.123664   1.070000   2.050275   2.227209   2.123445
    34  H    1.070000   2.081229   2.492756   2.697613   2.792266
    35  H    2.098871   2.725644   4.066784   4.166506   3.201216
    36  H    3.488173   4.603015   5.793723   5.926645   4.780619
    37  H    2.893578   4.205153   5.082695   5.234637   4.464124
    38  H    7.261812   7.676067   6.788977   5.934420   9.035603
    39  H    5.059728   4.748078   3.433503   2.894735   5.810995
    40  H    5.051730   4.819305   3.799229   2.936939   6.136658
    41  H    4.546684   4.931351   3.966651   3.391887   6.066917
    42  H    5.581114   6.085363   5.466921   4.520379   7.545128
    43  H    5.003631   5.968486   5.481557   4.863798   7.155224
    44  H    4.028547   5.052135   5.094410   4.298556   6.462047
    45  H    2.482830   3.517505   3.312012   2.963327   4.594827
                   21         22         23         24         25
    21  O    0.000000
    22  H    0.999634   0.000000
    23  C    5.573088   6.161417   0.000000
    24  O    6.516393   7.226961   1.435106   0.000000
    25  H    7.330292   7.990137   1.921551   0.999700   0.000000
    26  C    4.086773   4.736509   1.519623   2.513583   3.257848
    27  O    3.623339   4.001549   2.360740   3.692039   4.254646
    28  C    2.375061   2.706305   3.628922   4.818010   5.456890
    29  O    2.902738   2.712942   4.510736   5.851861   6.375136
    30  H    3.067828   2.716108   5.210781   6.523638   7.008816
    31  H    2.576251   2.987153   3.936363   4.981644   5.581740
    32  H    2.103141   2.314258   4.594885   5.675058   6.460552
    33  H    2.386595   3.369842   4.282268   4.794443   5.696902
    34  H    4.085048   4.755022   2.811189   3.406169   4.303983
    35  H    4.109413   4.815625   2.100163   2.784348   3.454456
    36  H    5.966053   6.465872   1.070000   2.037696   2.058276
    37  H    5.842594   6.345754   1.070000   2.037696   2.401742
    38  H    9.590760  10.443772   8.816149   8.106085   8.860630
    39  H    6.081875   6.803072   7.431592   7.392058   8.361464
    40  H    6.325921   7.189007   7.333520   7.067366   8.024450
    41  H    6.814960   7.559774   6.360658   6.116647   6.992123
    42  H    8.129581   9.052464   7.073740   6.311565   7.096859
    43  H    8.162614   8.947205   5.890894   5.236956   5.901895
    44  H    7.321829   8.251007   4.717555   3.713691   4.421791
    45  H    5.712919   6.466312   3.804700   3.664736   4.546445
                   26         27         28         29         30
    26  C    0.000000
    27  O    1.434841   0.000000
    28  C    2.330844   1.434930   0.000000
    29  O    3.482522   2.169378   1.434612   0.000000
    30  H    4.160558   2.931410   1.974301   0.960000   0.000000
    31  H    2.638702   2.129279   1.070000   2.122164   2.221901
    32  H    3.370521   2.685718   2.180511   2.433213   3.167764
    33  H    2.837607   3.309837   2.709224   4.022213   4.417682
    34  H    2.085187   2.635408   3.263203   4.205823   5.058754
    35  H    1.070000   2.029693   2.455731   3.744218   4.215248
    36  H    2.111337   2.554389   3.787563   4.505849   5.084560
    37  H    2.111337   2.548729   3.941092   4.593847   5.402317
    38  H    8.565503   9.640645   9.965444  11.103082  11.828477
    39  H    6.579122   7.214912   7.101953   8.042088   8.687005
    40  H    6.495337   7.375605   7.241246   8.391265   8.961391
    41  H    5.947293   6.742234   7.089231   8.041964   8.839133
    42  H    6.790419   7.980336   8.303640   9.549360  10.228416
    43  H    6.037878   7.055433   7.788255   8.795389   9.644559
    44  H    4.779997   6.141499   6.753100   8.042842   8.724628
    45  H    3.608607   4.504817   5.187853   6.180999   7.027558
                   31         32         33         34         35
    31  H    0.000000
    32  H    3.093228   0.000000
    33  H    2.642388   3.026341   0.000000
    34  H    3.941954   2.775434   2.964702   0.000000
    35  H    2.296493   3.934654   2.648547   2.955215   0.000000
    36  H    3.954119   5.122685   4.866599   3.763899   2.365254
    37  H    4.485644   4.498350   4.798343   2.678050   2.971612
    38  H   10.268062   9.096941   7.863894   7.134598   8.875374
    39  H    7.511898   5.768139   5.074746   4.895562   6.953586
    40  H    7.426689   6.380010   4.813653   5.209191   6.635630
    41  H    7.618921   5.917299   5.472084   4.122682   6.516787
    42  H    8.489077   7.783289   6.141465   5.670924   6.971301
    43  H    8.276047   7.071911   6.470875   4.590683   6.621611
    44  H    6.868709   6.826044   5.096876   4.293978   4.902679
    45  H    5.743234   4.542374   4.182089   1.975423   4.313562
                   36         37         38         39         40
    36  H    0.000000
    37  H    1.732744   0.000000
    38  H    9.837630   8.826618   0.000000
    39  H    8.436511   7.414386   4.134322   0.000000
    40  H    8.295318   7.540817   3.694079   1.724981   0.000000
    41  H    7.427572   6.172209   3.421925   2.276116   2.942578
    42  H    8.048667   7.258627   2.108810   3.775413   2.801728
    43  H    6.917207   5.661499   3.598795   4.522160   4.608345
    44  H    5.596804   5.057745   4.671851   5.209335   4.395135
    45  H    4.874426   3.608546   5.383162   4.097143   4.338322
                   41         42         43         44         45
    41  H    0.000000
    42  H    2.992332   0.000000
    43  H    2.340253   2.988846   0.000000
    44  H    3.945361   2.754451   2.997536   0.000000
    45  H    2.581434   4.074242   2.617598   3.007929   0.000000
 Stoichiometry    C12H22O11
 Framework group  C1[X(C12H22O11)]
 Deg. of freedom   129
 Full point group                 C1      NOp   1
 Largest Abelian subgroup         C1      NOp   1
 Largest concise Abelian subgroup C1      NOp   1
                         Standard orientation:                         
 ---------------------------------------------------------------------
 Center     Atomic      Atomic             Coordinates (Angstroms)
 Number     Number       Type             X           Y           Z
 ---------------------------------------------------------------------
      1          8           0       -5.055099   -0.559100    0.518587
      2          6           0       -3.818522   -0.160608   -0.090744
      3          6           0       -3.238860    1.187029    0.306314
      4          8           0       -4.144008    2.226784   -0.091347
      5          1           0       -5.035903    1.956074    0.270668
      6          6           0       -1.898337    1.618159   -0.267295
      7          8           0       -1.465878    2.843611    0.340247
      8          1           0       -0.502020    2.971580    0.105540
      9          6           0       -2.881302   -2.535685   -0.116730
     10          8           0       -4.181478   -3.143029   -0.076390
     11          1           0       -4.089623   -4.134395   -0.165521
     12          6           0       -2.686057   -1.090401    0.310230
     13          8           0       -1.414275   -0.743917   -0.256771
     14          6           0       -0.871927    0.545995    0.062315
     15          8           0        0.330208    0.650404   -0.714989
     16          6           0        1.527004    0.201758   -0.061594
     17          6           0        2.015661   -1.205212   -0.364289
     18          8           0        1.020912   -2.113789    0.130981
     19          1           0        0.202752   -1.841699   -0.375192
     20          6           0        3.349985   -1.552330    0.274993
     21          8           0        3.758098   -2.727599   -0.440895
     22          1           0        4.548835   -3.128988    0.020505
     23          6           0        2.416199    2.650364    0.138872
     24          8           0        1.280361    3.299348   -0.451229
     25          1           0        1.549630    4.262094   -0.447424
     26          6           0        2.653347    1.202766   -0.257959
     27          8           0        3.822976    0.781715    0.458598
     28          6           0        4.303783   -0.437740   -0.125165
     29          8           0        5.411909   -0.664766    0.757235
     30          1           0        6.170135   -0.961852    0.248871
     31          1           0        4.554686   -0.386763   -1.164083
     32          1           0        3.286686   -1.700471    1.332796
     33          1           0        2.097700   -1.323560   -1.424555
     34          1           0        1.304558    0.210872    0.984989
     35          1           0        2.898191    1.198026   -1.299558
     36          1           0        3.289288    3.211427   -0.121559
     37          1           0        2.301844    2.686802    1.202119
     38          1           0       -5.651215   -0.892862   -0.155838
     39          1           0       -2.237665   -3.132650    0.495041
     40          1           0       -2.529795   -2.614824   -1.124242
     41          1           0       -2.596216   -1.064850    1.376145
     42          1           0       -3.932093   -0.189471   -1.154308
     43          1           0       -3.160016    1.206473    1.373228
     44          1           0       -1.974322    1.740324   -1.327579
     45          1           0       -0.631099    0.586841    1.104060
 ---------------------------------------------------------------------
 Rotational constants (GHZ):      0.4093139      0.1469550      0.1110584
 Standard basis: 6-31+G(d,p) (6D, 7F)
 There are   547 symmetry adapted basis functions of A   symmetry.
 Integral buffers will be    131072 words long.
 Raffenetti 2 integral format.
 Two-electron integral symmetry is turned on.
   547 basis functions,   890 primitive gaussians,   547 cartesian basis functions
    91 alpha electrons       91 beta electrons
       nuclear repulsion energy      2291.6574952940 Hartrees.
 NAtoms=   45 NActive=   45 NUniq=   45 SFac= 1.00D+00 NAtFMM=   50 NAOKFM=F Big=F
 One-electron integrals computed using PRISM.
 NBasis=   547 RedAO= T  NBF=   547
 NBsUse=   547 1.00D-06 NBFU=   547
 Harris functional with IExCor=  402 diagonalized for initial guess.
 ExpMin= 4.38D-02 ExpMax= 5.48D+03 ExpMxC= 8.25D+02 IAcc=2 IRadAn=         0 AccDes= 0.00D+00
 HarFok:  IExCor=  402 AccDes= 0.00D+00 IRadAn=         0 IDoV= 1
 ScaDFX=  1.000000  1.000000  1.000000  1.000000
 FoFCou: FMM=F IPFlag=           0 FMFlag=      100000 FMFlg1=           0
         NFxFlg=           0 DoJE=T BraDBF=F KetDBF=T FulRan=T
         Omega=  0.000000  0.000000  1.000000  0.000000  0.000000 ICntrl=     500 IOpCl=  0
         NMat0=    1 NMatS0=    1 NMatT0=    0 NMatD0=    1 NMtDS0=    0 NMtDT0=    0
         I1Cent=           4 NGrid=           0.
 Petite list used in FoFCou.
 Initial guess orbital symmetries:
       Occupied  (A) (A) (A) (A) (A) (A) (A) (A) (A) (A) (A) (A)
                 (A) (A) (A) (A) (A) (A) (A) (A) (A) (A) (A) (A)
                 (A) (A) (A) (A) (A) (A) (A) (A) (A) (A) (A) (A)
                 (A) (A) (A) (A) (A) (A) (A) (A) (A) (A) (A) (A)
                 (A) (A) (A) (A) (A) (A) (A) (A) (A) (A) (A) (A)
                 (A) (A) (A) (A) (A) (A) (A) (A) (A) (A) (A) (A)
                 (A) (A) (A) (A) (A) (A) (A) (A) (A) (A) (A) (A)
                 (A) (A) (A) (A) (A) (A) (A)
       Virtual   (A) (A) (A) (A) (A) (A) (A) (A) (A) (A) (A) (A)
                 (A) (A) (A) (A) (A) (A) (A) (A) (A) (A) (A) (A)
                 (A) (A) (A) (A) (A) (A) (A) (A) (A) (A) (A) (A)
                 (A) (A) (A) (A) (A) (A) (A) (A) (A) (A) (A) (A)
                 (A) (A) (A) (A) (A) (A) (A) (A) (A) (A) (A) (A)
                 (A) (A) (A) (A) (A) (A) (A) (A) (A) (A) (A) (A)
                 (A) (A) (A) (A) (A) (A) (A) (A) (A) (A) (A) (A)
                 (A) (A) (A) (A) (A) (A) (A) (A) (A) (A) (A) (A)
                 (A) (A) (A) (A) (A) (A) (A) (A) (A) (A) (A) (A)
                 (A) (A) (A) (A) (A) (A) (A) (A) (A) (A) (A) (A)
                 (A) (A) (A) (A) (A) (A) (A) (A) (A) (A) (A) (A)
                 (A) (A) (A) (A) (A) (A) (A) (A) (A) (A) (A) (A)
                 (A) (A) (A) (A) (A) (A) (A) (A) (A) (A) (A) (A)
                 (A) (A) (A) (A) (A) (A) (A) (A) (A) (A) (A) (A)
                 (A) (A) (A) (A) (A) (A) (A) (A) (A) (A) (A) (A)
                 (A) (A) (A) (A) (A) (A) (A) (A) (A) (A) (A) (A)
                 (A) (A) (A) (A) (A) (A) (A) (A) (A) (A) (A) (A)
                 (A) (A) (A) (A) (A) (A) (A) (A) (A) (A) (A) (A)
                 (A) (A) (A) (A) (A) (A) (A) (A) (A) (A) (A) (A)
                 (A) (A) (A) (A) (A) (A) (A) (A) (A) (A) (A) (A)
                 (A) (A) (A) (A) (A) (A) (A) (A) (A) (A) (A) (A)
                 (A) (A) (A) (A) (A) (A) (A) (A) (A) (A) (A) (A)
                 (A) (A) (A) (A) (A) (A) (A) (A) (A) (A) (A) (A)
                 (A) (A) (A) (A) (A) (A) (A) (A) (A) (A) (A) (A)
                 (A) (A) (A) (A) (A) (A) (A) (A) (A) (A) (A) (A)
                 (A) (A) (A) (A) (A) (A) (A) (A) (A) (A) (A) (A)
                 (A) (A) (A) (A) (A) (A) (A) (A) (A) (A) (A) (A)
                 (A) (A) (A) (A) (A) (A) (A) (A) (A) (A) (A) (A)
                 (A) (A) (A) (A) (A) (A) (A) (A) (A) (A) (A) (A)
                 (A) (A) (A) (A) (A) (A) (A) (A) (A) (A) (A) (A)
                 (A) (A) (A) (A) (A) (A) (A) (A) (A) (A) (A) (A)
                 (A) (A) (A) (A) (A) (A) (A) (A) (A) (A) (A) (A)
                 (A) (A) (A) (A) (A) (A) (A) (A) (A) (A) (A) (A)
                 (A) (A) (A) (A) (A) (A) (A) (A) (A) (A) (A) (A)
                 (A) (A) (A) (A) (A) (A) (A) (A) (A) (A) (A) (A)
                 (A) (A) (A) (A) (A) (A) (A) (A) (A) (A) (A) (A)
                 (A) (A) (A) (A) (A) (A) (A) (A) (A) (A) (A) (A)
                 (A) (A) (A) (A) (A) (A) (A) (A) (A) (A) (A) (A)
 The electronic state of the initial guess is 1-A.
 Requested convergence on RMS density matrix=1.00D-08 within 128 cycles.
 Requested convergence on MAX density matrix=1.00D-06.
 Requested convergence on             energy=1.00D-06.
 No special actions if energy rises.
 SCF Done:  E(RB3LYP) =  -1297.93710977     A.U. after   14 cycles
             Convg  =    0.3024D-08             -V/T =  2.0086
 Range of M.O.s used for correlation:     1   547
 NBasis=   547 NAE=    91 NBE=    91 NFC=     0 NFV=     0
 NROrb=    547 NOA=    91 NOB=    91 NVA=   456 NVB=   456

 **** Warning!!: The largest alpha MO coefficient is  0.81718353D+02

          Differentiating once with respect to electric field.
                with respect to dipole field.
          Electric field/nuclear overlap derivatives assumed to be zero.
          There are     3 degrees of freedom in the 1st order CPHF.  IDoFFX=0.
      3 vectors produced by pass  0 Test12= 1.38D-12 3.33D-08 XBig12= 1.19D+02 1.15D+00.
 AX will form     3 AO Fock derivatives at one time.
      3 vectors produced by pass  1 Test12= 1.38D-12 3.33D-08 XBig12= 2.38D+01 3.57D-01.
      3 vectors produced by pass  2 Test12= 1.38D-12 3.33D-08 XBig12= 1.01D+01 2.86D-01.
      3 vectors produced by pass  3 Test12= 1.38D-12 3.33D-08 XBig12= 9.30D-01 1.01D-01.
      3 vectors produced by pass  4 Test12= 1.38D-12 3.33D-08 XBig12= 2.82D-01 4.38D-02.
      3 vectors produced by pass  5 Test12= 1.38D-12 3.33D-08 XBig12= 5.41D-02 2.26D-02.
      3 vectors produced by pass  6 Test12= 1.38D-12 3.33D-08 XBig12= 1.82D-02 1.85D-02.
      3 vectors produced by pass  7 Test12= 1.38D-12 3.33D-08 XBig12= 2.10D-03 1.05D-02.
      3 vectors produced by pass  8 Test12= 1.38D-12 3.33D-08 XBig12= 4.86D-04 2.93D-03.
      3 vectors produced by pass  9 Test12= 1.38D-12 3.33D-08 XBig12= 1.20D-04 1.93D-03.
      3 vectors produced by pass 10 Test12= 1.38D-12 3.33D-08 XBig12= 2.41D-05 7.68D-04.
      3 vectors produced by pass 11 Test12= 1.38D-12 3.33D-08 XBig12= 6.37D-06 4.50D-04.
      3 vectors produced by pass 12 Test12= 1.38D-12 3.33D-08 XBig12= 7.13D-07 1.10D-04.
      3 vectors produced by pass 13 Test12= 1.38D-12 3.33D-08 XBig12= 2.71D-07 5.21D-05.
      3 vectors produced by pass 14 Test12= 1.38D-12 3.33D-08 XBig12= 3.90D-08 1.52D-05.
      3 vectors produced by pass 15 Test12= 1.38D-12 3.33D-08 XBig12= 1.17D-08 7.76D-06.
      3 vectors produced by pass 16 Test12= 1.38D-12 3.33D-08 XBig12= 1.18D-09 4.53D-06.
      3 vectors produced by pass 17 Test12= 1.38D-12 3.33D-08 XBig12= 1.04D-10 9.45D-07.
      3 vectors produced by pass 18 Test12= 1.38D-12 3.33D-08 XBig12= 4.23D-11 5.78D-07.
      3 vectors produced by pass 19 Test12= 1.38D-12 3.33D-08 XBig12= 1.33D-11 3.76D-07.
      2 vectors produced by pass 20 Test12= 1.38D-12 3.33D-08 XBig12= 9.07D-12 2.37D-07.
      2 vectors produced by pass 21 Test12= 1.38D-12 3.33D-08 XBig12= 1.43D-12 8.86D-08.
 Inverted reduced A of dimension    64 with in-core refinement.
 End of Minotr Frequency-dependent properties file   721 does not exist.
 End of Minotr Frequency-dependent properties file   722 does not exist.
 Symmetrizing basis deriv contribution to polar:
 IMax=3 JMax=2 DiffMx= 0.00D+00
 G2DrvN: will do    23 centers at a time, making    2 passes doing MaxLOS=2.
 Calling FoFCou, ICntrl=  3107 FMM=F I1Cent=   0 AccDes= 0.00D+00.
 Calling FoFCou, ICntrl=  3107 FMM=F I1Cent=   0 AccDes= 0.00D+00.
 FoFDir/FoFCou used for L=0 through L=2.
 End of G2Drv Frequency-dependent properties file   721 does not exist.
 End of G2Drv Frequency-dependent properties file   722 does not exist.
          IDoAtm=111111111111111111111111111111111111111111111
          Differentiating once with respect to electric field.
                with respect to dipole field.
          Differentiating once with respect to nuclear coordinates.
          There are   138 degrees of freedom in the 1st order CPHF.  IDoFFX=5.
 Will reuse    3 saved solutions.
    135 vectors produced by pass  0 Test12= 4.15D-14 1.00D-09 XBig12= 2.43D-01 1.04D-01.
 AX will form    68 AO Fock derivatives at one time.
    135 vectors produced by pass  1 Test12= 4.15D-14 1.00D-09 XBig12= 3.23D-02 1.37D-02.
    132 vectors produced by pass  2 Test12= 4.15D-14 1.00D-09 XBig12= 1.95D-04 2.14D-03.
    132 vectors produced by pass  3 Test12= 4.15D-14 1.00D-09 XBig12= 6.54D-07 8.62D-05.
    132 vectors produced by pass  4 Test12= 4.15D-14 1.00D-09 XBig12= 1.29D-09 2.65D-06.
    132 vectors produced by pass  5 Test12= 4.15D-14 1.00D-09 XBig12= 5.87D-12 2.10D-07.
     79 vectors produced by pass  6 Test12= 4.15D-14 1.00D-09 XBig12= 1.11D-13 2.36D-08.
 Inverted reduced A of dimension   877 with in-core refinement.
 Isotropic polarizability for W=    0.000000      186.76 Bohr**3.
 End of Minotr Frequency-dependent properties file   721 does not exist.
 End of Minotr Frequency-dependent properties file   722 does not exist.

 **********************************************************************

            Population analysis using the SCF density.

 **********************************************************************

 Orbital symmetries:
       Occupied  (A) (A) (A) (A) (A) (A) (A) (A) (A) (A) (A) (A)
                 (A) (A) (A) (A) (A) (A) (A) (A) (A) (A) (A) (A)
                 (A) (A) (A) (A) (A) (A) (A) (A) (A) (A) (A) (A)
                 (A) (A) (A) (A) (A) (A) (A) (A) (A) (A) (A) (A)
                 (A) (A) (A) (A) (A) (A) (A) (A) (A) (A) (A) (A)
                 (A) (A) (A) (A) (A) (A) (A) (A) (A) (A) (A) (A)
                 (A) (A) (A) (A) (A) (A) (A) (A) (A) (A) (A) (A)
                 (A) (A) (A) (A) (A) (A) (A)
       Virtual   (A) (A) (A) (A) (A) (A) (A) (A) (A) (A) (A) (A)
                 (A) (A) (A) (A) (A) (A) (A) (A) (A) (A) (A) (A)
                 (A) (A) (A) (A) (A) (A) (A) (A) (A) (A) (A) (A)
                 (A) (A) (A) (A) (A) (A) (A) (A) (A) (A) (A) (A)
                 (A) (A) (A) (A) (A) (A) (A) (A) (A) (A) (A) (A)
                 (A) (A) (A) (A) (A) (A) (A) (A) (A) (A) (A) (A)
                 (A) (A) (A) (A) (A) (A) (A) (A) (A) (A) (A) (A)
                 (A) (A) (A) (A) (A) (A) (A) (A) (A) (A) (A) (A)
                 (A) (A) (A) (A) (A) (A) (A) (A) (A) (A) (A) (A)
                 (A) (A) (A) (A) (A) (A) (A) (A) (A) (A) (A) (A)
                 (A) (A) (A) (A) (A) (A) (A) (A) (A) (A) (A) (A)
                 (A) (A) (A) (A) (A) (A) (A) (A) (A) (A) (A) (A)
                 (A) (A) (A) (A) (A) (A) (A) (A) (A) (A) (A) (A)
                 (A) (A) (A) (A) (A) (A) (A) (A) (A) (A) (A) (A)
                 (A) (A) (A) (A) (A) (A) (A) (A) (A) (A) (A) (A)
                 (A) (A) (A) (A) (A) (A) (A) (A) (A) (A) (A) (A)
                 (A) (A) (A) (A) (A) (A) (A) (A) (A) (A) (A) (A)
                 (A) (A) (A) (A) (A) (A) (A) (A) (A) (A) (A) (A)
                 (A) (A) (A) (A) (A) (A) (A) (A) (A) (A) (A) (A)
                 (A) (A) (A) (A) (A) (A) (A) (A) (A) (A) (A) (A)
                 (A) (A) (A) (A) (A) (A) (A) (A) (A) (A) (A) (A)
                 (A) (A) (A) (A) (A) (A) (A) (A) (A) (A) (A) (A)
                 (A) (A) (A) (A) (A) (A) (A) (A) (A) (A) (A) (A)
                 (A) (A) (A) (A) (A) (A) (A) (A) (A) (A) (A) (A)
                 (A) (A) (A) (A) (A) (A) (A) (A) (A) (A) (A) (A)
                 (A) (A) (A) (A) (A) (A) (A) (A) (A) (A) (A) (A)
                 (A) (A) (A) (A) (A) (A) (A) (A) (A) (A) (A) (A)
                 (A) (A) (A) (A) (A) (A) (A) (A) (A) (A) (A) (A)
                 (A) (A) (A) (A) (A) (A) (A) (A) (A) (A) (A) (A)
                 (A) (A) (A) (A) (A) (A) (A) (A) (A) (A) (A) (A)
                 (A) (A) (A) (A) (A) (A) (A) (A) (A) (A) (A) (A)
                 (A) (A) (A) (A) (A) (A) (A) (A) (A) (A) (A) (A)
                 (A) (A) (A) (A) (A) (A) (A) (A) (A) (A) (A) (A)
                 (A) (A) (A) (A) (A) (A) (A) (A) (A) (A) (A) (A)
                 (A) (A) (A) (A) (A) (A) (A) (A) (A) (A) (A) (A)
                 (A) (A) (A) (A) (A) (A) (A) (A) (A) (A) (A) (A)
                 (A) (A) (A) (A) (A) (A) (A) (A) (A) (A) (A) (A)
                 (A) (A) (A) (A) (A) (A) (A) (A) (A) (A) (A) (A)
 The electronic state is 1-A.
 Alpha  occ. eigenvalues --  -19.19390 -19.18980 -19.18702 -19.18683 -19.18206
 Alpha  occ. eigenvalues --  -19.17596 -19.17459 -19.16895 -19.15239 -19.14878
 Alpha  occ. eigenvalues --  -19.14586 -10.30888 -10.30601 -10.25894 -10.25490
 Alpha  occ. eigenvalues --  -10.25405 -10.25383 -10.25263 -10.25205 -10.24668
 Alpha  occ. eigenvalues --  -10.24389 -10.24357 -10.23903  -1.09854  -1.09278
 Alpha  occ. eigenvalues --   -1.05363  -1.04878  -1.03916  -1.03666  -1.02692
 Alpha  occ. eigenvalues --   -1.02398  -1.02055  -1.01007  -1.00129  -0.81713
 Alpha  occ. eigenvalues --   -0.80084  -0.79193  -0.78124  -0.71659  -0.69959
 Alpha  occ. eigenvalues --   -0.67308  -0.64885  -0.62951  -0.61992  -0.61689
 Alpha  occ. eigenvalues --   -0.60104  -0.56497  -0.55507  -0.54754  -0.54450
 Alpha  occ. eigenvalues --   -0.53833  -0.53107  -0.52691  -0.52509  -0.51407
 Alpha  occ. eigenvalues --   -0.50476  -0.49561  -0.48838  -0.48001  -0.46585
 Alpha  occ. eigenvalues --   -0.45561  -0.45100  -0.44092  -0.43390  -0.42928
 Alpha  occ. eigenvalues --   -0.42331  -0.41682  -0.41142  -0.39862  -0.39048
 Alpha  occ. eigenvalues --   -0.38535  -0.38389  -0.37914  -0.36024  -0.35997
 Alpha  occ. eigenvalues --   -0.35763  -0.35172  -0.34381  -0.33999  -0.33615
 Alpha  occ. eigenvalues --   -0.32113  -0.31797  -0.30764  -0.30445  -0.30036
 Alpha  occ. eigenvalues --   -0.29215  -0.28450  -0.28202  -0.27614  -0.26335
 Alpha  occ. eigenvalues --   -0.25831
 Alpha virt. eigenvalues --   -0.01961  -0.01944  -0.01605   0.00021   0.00298
 Alpha virt. eigenvalues --    0.01122   0.02130   0.02544   0.02869   0.03452
 Alpha virt. eigenvalues --    0.03763   0.04290   0.04959   0.05369   0.05844
 Alpha virt. eigenvalues --    0.06217   0.06350   0.07403   0.07750   0.07960
 Alpha virt. eigenvalues --    0.08874   0.09024   0.09187   0.09611   0.10089
 Alpha virt. eigenvalues --    0.10492   0.11252   0.11588   0.11806   0.12312
 Alpha virt. eigenvalues --    0.12647   0.13005   0.13140   0.13422   0.13779
 Alpha virt. eigenvalues --    0.14266   0.14401   0.14636   0.14994   0.15134
 Alpha virt. eigenvalues --    0.15427   0.15975   0.16699   0.17132   0.17460
 Alpha virt. eigenvalues --    0.17584   0.17762   0.18003   0.18426   0.18733
 Alpha virt. eigenvalues --    0.19048   0.19306   0.19593   0.19941   0.20117
 Alpha virt. eigenvalues --    0.20658   0.21042   0.21092   0.21585   0.21790
 Alpha virt. eigenvalues --    0.22171   0.22549   0.22894   0.23007   0.23313
 Alpha virt. eigenvalues --    0.23692   0.23758   0.24053   0.24647   0.25045
 Alpha virt. eigenvalues --    0.25266   0.25553   0.25830   0.25962   0.26199
 Alpha virt. eigenvalues --    0.26335   0.26761   0.26961   0.27245   0.27691
 Alpha virt. eigenvalues --    0.27832   0.28040   0.28496   0.28779   0.28830
 Alpha virt. eigenvalues --    0.29466   0.29719   0.30069   0.30173   0.30988
 Alpha virt. eigenvalues --    0.31519   0.31792   0.32223   0.32398   0.32714
 Alpha virt. eigenvalues --    0.32890   0.33360   0.33521   0.34071   0.34302
 Alpha virt. eigenvalues --    0.34727   0.34938   0.35391   0.35481   0.36115
 Alpha virt. eigenvalues --    0.36155   0.36885   0.37229   0.37545   0.37878
 Alpha virt. eigenvalues --    0.38244   0.38510   0.38987   0.39467   0.39682
 Alpha virt. eigenvalues --    0.40056   0.40524   0.40893   0.41530   0.42482
 Alpha virt. eigenvalues --    0.42737   0.43085   0.43220   0.43885   0.44116
 Alpha virt. eigenvalues --    0.44426   0.45022   0.45278   0.46738   0.46832
 Alpha virt. eigenvalues --    0.47991   0.48397   0.48854   0.49810   0.49990
 Alpha virt. eigenvalues --    0.51257   0.51465   0.54892   0.62466   0.64600
 Alpha virt. eigenvalues --    0.66467   0.66755   0.67972   0.69968   0.70580
 Alpha virt. eigenvalues --    0.71290   0.71949   0.72674   0.73553   0.74218
 Alpha virt. eigenvalues --    0.75176   0.76077   0.76760   0.77466   0.79322
 Alpha virt. eigenvalues --    0.79652   0.79959   0.81727   0.81988   0.83753
 Alpha virt. eigenvalues --    0.84760   0.84915   0.86528   0.88548   0.88892
 Alpha virt. eigenvalues --    0.91087   0.91617   0.92938   0.93973   0.94689
 Alpha virt. eigenvalues --    0.96347   0.96818   0.97208   0.98458   1.01038
 Alpha virt. eigenvalues --    1.01338   1.02481   1.03041   1.03366   1.03699
 Alpha virt. eigenvalues --    1.04732   1.05738   1.06897   1.07146   1.08093
 Alpha virt. eigenvalues --    1.08475   1.08873   1.09216   1.10391   1.10943
 Alpha virt. eigenvalues --    1.11771   1.12384   1.12966   1.14668   1.15716
 Alpha virt. eigenvalues --    1.17227   1.18414   1.19002   1.20153   1.21484
 Alpha virt. eigenvalues --    1.22371   1.22700   1.23486   1.24471   1.25473
 Alpha virt. eigenvalues --    1.25835   1.26541   1.27198   1.27563   1.29108
 Alpha virt. eigenvalues --    1.29721   1.30211   1.30263   1.31356   1.32078
 Alpha virt. eigenvalues --    1.32612   1.33652   1.33769   1.34651   1.35234
 Alpha virt. eigenvalues --    1.35436   1.36827   1.37357   1.38207   1.38513
 Alpha virt. eigenvalues --    1.39614   1.40229   1.41215   1.42303   1.42902
 Alpha virt. eigenvalues --    1.44425   1.45506   1.46152   1.46776   1.48617
 Alpha virt. eigenvalues --    1.48886   1.50083   1.50811   1.51943   1.53665
 Alpha virt. eigenvalues --    1.55149   1.55669   1.56544   1.56700   1.57279
 Alpha virt. eigenvalues --    1.57965   1.59089   1.59609   1.60612   1.62057
 Alpha virt. eigenvalues --    1.62995   1.63401   1.64246   1.64621   1.65095
 Alpha virt. eigenvalues --    1.66591   1.67360   1.68769   1.69102   1.69754
 Alpha virt. eigenvalues --    1.70390   1.70903   1.71249   1.73457   1.73760
 Alpha virt. eigenvalues --    1.74570   1.75433   1.76387   1.77042   1.77935
 Alpha virt. eigenvalues --    1.78530   1.79135   1.80396   1.82231   1.82841
 Alpha virt. eigenvalues --    1.83976   1.84749   1.85491   1.86049   1.86838
 Alpha virt. eigenvalues --    1.88170   1.89542   1.89656   1.90227   1.91616
 Alpha virt. eigenvalues --    1.92402   1.92737   1.93958   1.94525   1.95379
 Alpha virt. eigenvalues --    1.96018   1.96595   1.97654   1.98575   1.99484
 Alpha virt. eigenvalues --    2.00407   2.00813   2.01329   2.01954   2.02654
 Alpha virt. eigenvalues --    2.03245   2.03766   2.04857   2.06601   2.07676
 Alpha virt. eigenvalues --    2.08881   2.09307   2.10153   2.11685   2.12249
 Alpha virt. eigenvalues --    2.13505   2.14082   2.14358   2.15047   2.16303
 Alpha virt. eigenvalues --    2.16684   2.17295   2.18780   2.19458   2.20887
 Alpha virt. eigenvalues --    2.24003   2.24240   2.25526   2.25854   2.26647
 Alpha virt. eigenvalues --    2.29760   2.31189   2.32524   2.33280   2.34972
 Alpha virt. eigenvalues --    2.35110   2.36351   2.37776   2.39277   2.39744
 Alpha virt. eigenvalues --    2.40228   2.42613   2.42650   2.43457   2.44327
 Alpha virt. eigenvalues --    2.45713   2.46179   2.47556   2.49573   2.50637
 Alpha virt. eigenvalues --    2.50842   2.51596   2.53455   2.55300   2.55895
 Alpha virt. eigenvalues --    2.56437   2.57414   2.58622   2.59588   2.60010
 Alpha virt. eigenvalues --    2.61687   2.62644   2.63219   2.64514   2.65020
 Alpha virt. eigenvalues --    2.66267   2.66968   2.68180   2.69247   2.69601
 Alpha virt. eigenvalues --    2.71381   2.72052   2.72635   2.73965   2.75253
 Alpha virt. eigenvalues --    2.75586   2.76991   2.78423   2.79599   2.79985
 Alpha virt. eigenvalues --    2.81214   2.82024   2.83728   2.84702   2.86132
 Alpha virt. eigenvalues --    2.86609   2.87565   2.88636   2.89545   2.90698
 Alpha virt. eigenvalues --    2.91432   2.91646   2.92238   2.92867   2.93826
 Alpha virt. eigenvalues --    2.94252   2.95842   2.96369   2.97760   2.99942
 Alpha virt. eigenvalues --    3.00315   3.03670   3.04305   3.05292   3.05897
 Alpha virt. eigenvalues --    3.07228   3.07724   3.08943   3.10563   3.12626
 Alpha virt. eigenvalues --    3.15418   3.18220   3.25060   3.27794   3.29162
 Alpha virt. eigenvalues --    3.30576   3.36011   3.37426   3.40170   3.41322
 Alpha virt. eigenvalues --    3.43132   3.46167   3.46960   3.47799   3.48880
 Alpha virt. eigenvalues --    3.50084   3.50833   3.52321   3.53014   3.53576
 Alpha virt. eigenvalues --    3.55766   3.56540   3.57522   3.60385   3.64909
 Alpha virt. eigenvalues --    3.66642   3.67007   3.68538   4.26979   4.34763
 Alpha virt. eigenvalues --    4.35782   4.36671   4.39097   4.42620   4.45397
 Alpha virt. eigenvalues --    4.46802   4.50666   4.51985   4.52684   4.54163
 Alpha virt. eigenvalues --    4.59363   4.61166   4.62897   4.69897   4.71045
 Alpha virt. eigenvalues --    4.78709   4.83563   4.86554   4.87020   4.92734
 Alpha virt. eigenvalues --    4.93100
          Condensed to atoms (all electrons):
              1          2          3          4          5          6
     1  O    8.208948   0.292366  -0.041126  -0.022829   0.023901   0.037416
     2  C    0.292366   9.181139  -2.294420   0.035018  -0.127094  -2.937634
     3  C   -0.041126  -2.294420   8.935372   0.097540   0.095240   1.526604
     4  O   -0.022829   0.035018   0.097540   8.257074   0.190073  -0.066444
     5  H    0.023901  -0.127094   0.095240   0.190073   0.438121   0.017803
     6  C    0.037416  -2.937634   1.526604  -0.066444   0.017803  14.332368
     7  O   -0.000949   0.108311  -0.206855   0.005923  -0.000734   0.080744
     8  H    0.000015  -0.019979   0.015898  -0.001089   0.000016   0.080255
     9  C   -0.046105   0.138917  -0.512729   0.016934  -0.003774   0.391715
    10  O   -0.009595   0.021224   0.022638   0.000747  -0.000117  -0.014782
    11  H    0.003284  -0.001405  -0.001944   0.000001   0.000000  -0.000093
    12  C   -0.136105  -1.259080   0.313386  -0.010653   0.018920   0.341589
    13  O    0.003106  -0.015194   0.027589  -0.000084  -0.000206  -0.156485
    14  C    0.004780   1.853831  -1.259290   0.008494   0.007730  -5.476729
    15  O    0.000445  -0.040229  -0.012841  -0.000373   0.000085   0.283367
    16  C    0.002600   0.213696  -0.315627   0.001338   0.001548  -1.458307
    17  C    0.000389  -0.003120  -0.060074   0.000598   0.000054   0.281846
    18  O    0.000032   0.007065  -0.002721  -0.000014   0.000000  -0.009016
    19  H   -0.000010  -0.003267   0.005814  -0.000004   0.000000   0.014543
    20  C    0.000067   0.000296  -0.008336  -0.000006   0.000002   0.059963
    21  O    0.000000   0.000013  -0.000040   0.000000   0.000000  -0.000760
    22  H    0.000000   0.000003   0.000000   0.000000   0.000000  -0.000060
    23  C    0.000066   0.024894  -0.018889   0.000838   0.000008  -0.415608
    24  O    0.000000   0.002671  -0.007216  -0.000050  -0.000004  -0.002469
    25  H    0.000000   0.000077   0.001398   0.000005   0.000000  -0.005256
    26  C   -0.000168   0.032618  -0.095972   0.000533   0.000001  -0.503216
    27  O    0.000000  -0.000187   0.000755   0.000001   0.000000   0.002609
    28  C   -0.000001  -0.000675   0.002373  -0.000017   0.000000   0.031034
    29  O    0.000000   0.000008   0.000056   0.000000   0.000000  -0.000676
    30  H    0.000000   0.000000   0.000000   0.000000   0.000000  -0.000003
    31  H    0.000000  -0.000004   0.000012   0.000000   0.000000   0.000170
    32  H    0.000000   0.000009   0.000064   0.000000   0.000000   0.000355
    33  H    0.000000   0.000047   0.000418   0.000000   0.000000   0.003471
    34  H   -0.000001  -0.000457   0.001454  -0.000001   0.000000   0.024869
    35  H    0.000000  -0.000109   0.000698   0.000000   0.000000   0.004735
    36  H    0.000000  -0.000001  -0.000070   0.000000   0.000000   0.000316
    37  H    0.000000  -0.000018   0.000206   0.000000   0.000000   0.002122
    38  H    0.246850   0.035189   0.016301   0.000134  -0.001667  -0.002167
    39  H    0.000122   0.005586   0.001284   0.000029   0.000000  -0.001842
    40  H   -0.000676  -0.004584  -0.012700   0.000003   0.000000   0.020464
    41  H    0.003771   0.031812  -0.060212   0.000183  -0.000012  -0.035000
    42  H   -0.053708   0.500853  -0.157650   0.004221  -0.001255  -0.028553
    43  H   -0.005918   0.190039   0.118180  -0.033080  -0.006955  -0.300049
    44  H   -0.000780   0.131443  -0.203830   0.009586  -0.000028   0.110560
    45  H    0.000033   0.046053  -0.043650  -0.000131   0.000007  -0.141884
              7          8          9         10         11         12
     1  O   -0.000949   0.000015  -0.046105  -0.009595   0.003284  -0.136105
     2  C    0.108311  -0.019979   0.138917   0.021224  -0.001405  -1.259080
     3  C   -0.206855   0.015898  -0.512729   0.022638  -0.001944   0.313386
     4  O    0.005923  -0.001089   0.016934   0.000747   0.000001  -0.010653
     5  H   -0.000734   0.000016  -0.003774  -0.000117   0.000000   0.018920
     6  C    0.080744   0.080255   0.391715  -0.014782  -0.000093   0.341589
     7  O    8.255894   0.200986  -0.001502   0.000022   0.000000   0.012086
     8  H    0.200986   0.363478   0.000635  -0.000001   0.000000   0.004382
     9  C   -0.001502   0.000635   7.273551   0.092881   0.000118  -1.891751
    10  O    0.000022  -0.000001   0.092881   8.407618   0.200496  -0.032505
    11  H    0.000000   0.000000   0.000118   0.200496   0.427587   0.021322
    12  C    0.012086   0.004382  -1.891751  -0.032505   0.021322   9.752650
    13  O    0.012614   0.001011   0.033969  -0.002938   0.000560  -0.162621
    14  C    0.072498  -0.052491  -0.373355   0.009436  -0.002232  -0.803827
    15  O   -0.018956   0.014056   0.001805  -0.000157   0.000004   0.015861
    16  C    0.031487  -0.017838  -0.237969  -0.002441  -0.000108   0.160429
    17  C    0.000711  -0.001043   0.081058   0.000781  -0.000046  -0.297554
    18  O    0.000085  -0.000031   0.004583  -0.000027   0.000026  -0.004867
    19  H   -0.000025  -0.000002  -0.001006   0.000050  -0.000006   0.000594
    20  C    0.001919   0.000877   0.010158   0.000064   0.000005  -0.030498
    21  O   -0.000004   0.000000  -0.000046   0.000000   0.000000   0.000064
    22  H    0.000000   0.000000  -0.000015   0.000000   0.000000   0.000066
    23  C    0.031997   0.007116  -0.002936  -0.000003   0.000000  -0.015041
    24  O   -0.021666   0.004815   0.000010  -0.000001   0.000000   0.001853
    25  H    0.002432  -0.001840  -0.000014   0.000000   0.000000  -0.000408
    26  C   -0.014626  -0.012757   0.005346  -0.000078   0.000000   0.071657
    27  O    0.000092   0.000017  -0.000057   0.000000   0.000000   0.000566
    28  C   -0.000596  -0.000174  -0.002072   0.000006   0.000000   0.003460
    29  O   -0.000001  -0.000001  -0.000019   0.000000   0.000000   0.000144
    30  H    0.000000   0.000000   0.000000   0.000000   0.000000  -0.000001
    31  H    0.000000   0.000000  -0.000004   0.000000   0.000000   0.000026
    32  H    0.000000   0.000000  -0.000044   0.000000   0.000000   0.000246
    33  H   -0.000006   0.000001  -0.000361   0.000000   0.000000   0.001999
    34  H   -0.000225  -0.000041   0.000343   0.000002   0.000000   0.000289
    35  H    0.000028   0.000001   0.000028   0.000000   0.000000   0.000611
    36  H   -0.000384   0.000193  -0.000004   0.000000   0.000000  -0.000024
    37  H    0.000711   0.000421   0.000009   0.000000   0.000000   0.000526
    38  H   -0.000009   0.000000  -0.006576  -0.000892  -0.000105  -0.027945
    39  H   -0.000007   0.000000   0.397775  -0.045750  -0.009941  -0.028309
    40  H    0.000004   0.000000   0.662068  -0.061480  -0.002401  -0.308056
    41  H   -0.000023   0.000000   0.022194   0.005997  -0.000156   0.227772
    42  H    0.000098   0.000001   0.040222   0.000735   0.000018  -0.149967
    43  H    0.010051  -0.000145   0.033060   0.000276   0.000001  -0.023435
    44  H   -0.036946  -0.004974   0.009914   0.000028   0.000000  -0.012200
    45  H    0.005567  -0.002535   0.002712   0.000059   0.000000  -0.027910
             13         14         15         16         17         18
     1  O    0.003106   0.004780   0.000445   0.002600   0.000389   0.000032
     2  C   -0.015194   1.853831  -0.040229   0.213696  -0.003120   0.007065
     3  C    0.027589  -1.259290  -0.012841  -0.315627  -0.060074  -0.002721
     4  O   -0.000084   0.008494  -0.000373   0.001338   0.000598  -0.000014
     5  H   -0.000206   0.007730   0.000085   0.001548   0.000054   0.000000
     6  C   -0.156485  -5.476729   0.283367  -1.458307   0.281846  -0.009016
     7  O    0.012614   0.072498  -0.018956   0.031487   0.000711   0.000085
     8  H    0.001011  -0.052491   0.014056  -0.017838  -0.001043  -0.000031
     9  C    0.033969  -0.373355   0.001805  -0.237969   0.081058   0.004583
    10  O   -0.002938   0.009436  -0.000157  -0.002441   0.000781  -0.000027
    11  H    0.000560  -0.002232   0.000004  -0.000108  -0.000046   0.000026
    12  C   -0.162621  -0.803827   0.015861   0.160429  -0.297554  -0.004867
    13  O    8.571835   0.204757  -0.031044   0.062977  -0.082067   0.014363
    14  C    0.204757  13.172228   0.031841  -0.792764  -0.531650  -0.077690
    15  O   -0.031044   0.031841   8.245874   0.041652  -0.041734  -0.010209
    16  C    0.062977  -0.792764   0.041652  15.847870  -3.170753  -0.209069
    17  C   -0.082067  -0.531650  -0.041734  -3.170753   9.234544   0.427336
    18  O    0.014363  -0.077690  -0.010209  -0.209069   0.427336   8.162398
    19  H    0.010892  -0.010983   0.015519  -0.084897   0.057318   0.198116
    20  C   -0.017824  -0.150714   0.047262  -1.685468  -0.030347  -0.105870
    21  O    0.000117  -0.002675  -0.000444   0.005008   0.017715  -0.002757
    22  H    0.000000  -0.000686   0.000034  -0.008989  -0.031451  -0.000852
    23  C    0.016018  -0.387397  -0.028662  -0.258985  -0.039742   0.009453
    24  O    0.000921   0.097063  -0.028859   0.001035   0.003755   0.000273
    25  H    0.000025  -0.010609   0.002631  -0.003846  -0.001626   0.000001
    26  C    0.032588  -0.979065  -0.074601  -4.152819   0.294750   0.114969
    27  O    0.000139  -0.008624   0.008699  -0.090339  -0.021243   0.001112
    28  C   -0.002828   0.109827   0.010956   0.924049  -0.073088  -0.006343
    29  O    0.000050  -0.001921   0.000299   0.060582  -0.033673   0.000187
    30  H    0.000000  -0.000109   0.000005  -0.021704   0.014693  -0.000073
    31  H    0.000003   0.008397   0.000134   0.157707  -0.049174  -0.000898
    32  H    0.000164   0.010215  -0.000877   0.112015  -0.061732   0.003003
    33  H    0.001575   0.066323  -0.006391   0.063734   0.331309  -0.042093
    34  H   -0.003853   0.060225  -0.069847   0.392531   0.005935  -0.005408
    35  H   -0.000259   0.068454   0.004482   0.126174  -0.046602  -0.000443
    36  H    0.000003   0.000329   0.000196  -0.004267  -0.002492   0.000024
    37  H   -0.000026   0.004730   0.003065   0.037740   0.002130  -0.000023
    38  H   -0.000723  -0.001303  -0.000011   0.000169  -0.000053   0.000000
    39  H   -0.000654  -0.001239  -0.000166   0.009993  -0.003081  -0.001175
    40  H    0.005301   0.001753  -0.000016  -0.011616   0.005600   0.000213
    41  H   -0.049706   0.088201  -0.001056   0.001252   0.006712   0.000466
    42  H    0.012872   0.072591  -0.000218  -0.000725   0.001362   0.000052
    43  H    0.006007   0.203415  -0.000171   0.012451   0.001914   0.000077
    44  H    0.011877   0.178883  -0.009176   0.038404   0.005554   0.000121
    45  H   -0.068603   0.406096  -0.066373   0.047990   0.043485  -0.000555
             19         20         21         22         23         24
     1  O   -0.000010   0.000067   0.000000   0.000000   0.000066   0.000000
     2  C   -0.003267   0.000296   0.000013   0.000003   0.024894   0.002671
     3  C    0.005814  -0.008336  -0.000040   0.000000  -0.018889  -0.007216
     4  O   -0.000004  -0.000006   0.000000   0.000000   0.000838  -0.000050
     5  H    0.000000   0.000002   0.000000   0.000000   0.000008  -0.000004
     6  C    0.014543   0.059963  -0.000760  -0.000060  -0.415608  -0.002469
     7  O   -0.000025   0.001919  -0.000004   0.000000   0.031997  -0.021666
     8  H   -0.000002   0.000877   0.000000   0.000000   0.007116   0.004815
     9  C   -0.001006   0.010158  -0.000046  -0.000015  -0.002936   0.000010
    10  O    0.000050   0.000064   0.000000   0.000000  -0.000003  -0.000001
    11  H   -0.000006   0.000005   0.000000   0.000000   0.000000   0.000000
    12  C    0.000594  -0.030498   0.000064   0.000066  -0.015041   0.001853
    13  O    0.010892  -0.017824   0.000117   0.000000   0.016018   0.000921
    14  C   -0.010983  -0.150714  -0.002675  -0.000686  -0.387397   0.097063
    15  O    0.015519   0.047262  -0.000444   0.000034  -0.028662  -0.028859
    16  C   -0.084897  -1.685468   0.005008  -0.008989  -0.258985   0.001035
    17  C    0.057318  -0.030347   0.017715  -0.031451  -0.039742   0.003755
    18  O    0.198116  -0.105870  -0.002757  -0.000852   0.009453   0.000273
    19  H    0.392294   0.031905  -0.001038   0.000032  -0.004209  -0.000028
    20  C    0.031905   8.257665   0.016047   0.072997   0.096293  -0.009558
    21  O   -0.001038   0.016047   8.300836   0.196229   0.000382   0.000059
    22  H    0.000032   0.072997   0.196229   0.437503   0.000342   0.000000
    23  C   -0.004209   0.096293   0.000382   0.000342   7.232290  -0.171802
    24  O   -0.000028  -0.009558   0.000059   0.000000  -0.171802   8.507698
    25  H    0.000000   0.000563   0.000000   0.000000   0.046645   0.185368
    26  C   -0.003400   0.164610   0.038160   0.005964  -0.960985   0.106022
    27  O    0.000110  -0.175375   0.012952  -0.001003  -0.047739   0.003646
    28  C    0.000308  -0.580297  -0.050185  -0.017624  -0.170767   0.011849
    29  O    0.000059  -0.179356   0.023534   0.009283  -0.010388   0.000124
    30  H    0.000000  -0.023633  -0.005593  -0.000930   0.001936  -0.000001
    31  H    0.000013  -0.084888   0.003052  -0.000394  -0.013763  -0.000028
    32  H    0.000030   0.319591  -0.027625  -0.008892   0.005594   0.000007
    33  H   -0.007975  -0.084070  -0.003058   0.000323   0.010703   0.000127
    34  H   -0.000674   0.017189  -0.000633   0.000009   0.020201   0.000545
    35  H    0.000035  -0.019156  -0.000220   0.000005  -0.009567   0.007288
    36  H    0.000000   0.001223  -0.000004   0.000000   0.416436  -0.041241
    37  H    0.000001   0.001109  -0.000010   0.000000   0.586018  -0.068015
    38  H    0.000000   0.000001   0.000000   0.000000   0.000003   0.000000
    39  H    0.000323  -0.001186  -0.000001   0.000000   0.000024   0.000000
    40  H   -0.000199   0.001128   0.000003   0.000000   0.000008   0.000001
    41  H    0.000230   0.001208   0.000001   0.000000   0.000490   0.000013
    42  H   -0.000002   0.000063   0.000000   0.000000   0.000066   0.000008
    43  H   -0.000003   0.000069   0.000000   0.000000   0.001190   0.000141
    44  H   -0.000024   0.000491   0.000000   0.000000   0.008644   0.001053
    45  H    0.000455   0.010640   0.000005   0.000000   0.016551   0.001528
             25         26         27         28         29         30
     1  O    0.000000  -0.000168   0.000000  -0.000001   0.000000   0.000000
     2  C    0.000077   0.032618  -0.000187  -0.000675   0.000008   0.000000
     3  C    0.001398  -0.095972   0.000755   0.002373   0.000056   0.000000
     4  O    0.000005   0.000533   0.000001  -0.000017   0.000000   0.000000
     5  H    0.000000   0.000001   0.000000   0.000000   0.000000   0.000000
     6  C   -0.005256  -0.503216   0.002609   0.031034  -0.000676  -0.000003
     7  O    0.002432  -0.014626   0.000092  -0.000596  -0.000001   0.000000
     8  H   -0.001840  -0.012757   0.000017  -0.000174  -0.000001   0.000000
     9  C   -0.000014   0.005346  -0.000057  -0.002072  -0.000019   0.000000
    10  O    0.000000  -0.000078   0.000000   0.000006   0.000000   0.000000
    11  H    0.000000   0.000000   0.000000   0.000000   0.000000   0.000000
    12  C   -0.000408   0.071657   0.000566   0.003460   0.000144  -0.000001
    13  O    0.000025   0.032588   0.000139  -0.002828   0.000050   0.000000
    14  C   -0.010609  -0.979065  -0.008624   0.109827  -0.001921  -0.000109
    15  O    0.002631  -0.074601   0.008699   0.010956   0.000299   0.000005
    16  C   -0.003846  -4.152819  -0.090339   0.924049   0.060582  -0.021704
    17  C   -0.001626   0.294750  -0.021243  -0.073088  -0.033673   0.014693
    18  O    0.000001   0.114969   0.001112  -0.006343   0.000187  -0.000073
    19  H    0.000000  -0.003400   0.000110   0.000308   0.000059   0.000000
    20  C    0.000563   0.164610  -0.175375  -0.580297  -0.179356  -0.023633
    21  O    0.000000   0.038160   0.012952  -0.050185   0.023534  -0.005593
    22  H    0.000000   0.005964  -0.001003  -0.017624   0.009283  -0.000930
    23  C    0.046645  -0.960985  -0.047739  -0.170767  -0.010388   0.001936
    24  O    0.185368   0.106022   0.003646   0.011849   0.000124  -0.000001
    25  H    0.420283  -0.002435  -0.000312  -0.002679   0.000003   0.000000
    26  C   -0.002435  13.647921   0.334852  -1.140741  -0.081646   0.021190
    27  O   -0.000312   0.334852   8.374036   0.066947  -0.075329   0.002026
    28  C   -0.002679  -1.140741   0.066947   5.785245   0.394382   0.022374
    29  O    0.000003  -0.081646  -0.075329   0.394382   8.292979   0.224450
    30  H    0.000000   0.021190   0.002026   0.022374   0.224450   0.413770
    31  H    0.000000  -0.102744  -0.047426   0.423768  -0.041751  -0.006770
    32  H    0.000000  -0.037389   0.000656  -0.032800  -0.007224   0.000397
    33  H    0.000000  -0.105281   0.001749   0.007691  -0.000481   0.000013
    34  H    0.000000  -0.240048   0.002218   0.012175  -0.000909   0.000002
    35  H   -0.000249   0.093158  -0.046676   0.047099  -0.000594   0.000024
    36  H   -0.012822  -0.030252  -0.002291   0.002839  -0.000261  -0.000001
    37  H   -0.001926  -0.294230   0.007967   0.008857  -0.000175   0.000000
    38  H    0.000000  -0.000008   0.000000   0.000000   0.000000   0.000000
    39  H    0.000000   0.000206   0.000000   0.000020   0.000000   0.000000
    40  H    0.000000  -0.000049   0.000000  -0.000073   0.000000   0.000000
    41  H    0.000000  -0.000534  -0.000001  -0.000063   0.000000   0.000000
    42  H    0.000000   0.000130   0.000000  -0.000004   0.000000   0.000000
    43  H    0.000000   0.000478   0.000000  -0.000015   0.000000   0.000000
    44  H    0.000015  -0.003171   0.000000  -0.000168   0.000000   0.000000
    45  H    0.000018  -0.010716  -0.000078  -0.001452  -0.000003   0.000000
             31         32         33         34         35         36
     1  O    0.000000   0.000000   0.000000  -0.000001   0.000000   0.000000
     2  C   -0.000004   0.000009   0.000047  -0.000457  -0.000109  -0.000001
     3  C    0.000012   0.000064   0.000418   0.001454   0.000698  -0.000070
     4  O    0.000000   0.000000   0.000000  -0.000001   0.000000   0.000000
     5  H    0.000000   0.000000   0.000000   0.000000   0.000000   0.000000
     6  C    0.000170   0.000355   0.003471   0.024869   0.004735   0.000316
     7  O    0.000000   0.000000  -0.000006  -0.000225   0.000028  -0.000384
     8  H    0.000000   0.000000   0.000001  -0.000041   0.000001   0.000193
     9  C   -0.000004  -0.000044  -0.000361   0.000343   0.000028  -0.000004
    10  O    0.000000   0.000000   0.000000   0.000002   0.000000   0.000000
    11  H    0.000000   0.000000   0.000000   0.000000   0.000000   0.000000
    12  C    0.000026   0.000246   0.001999   0.000289   0.000611  -0.000024
    13  O    0.000003   0.000164   0.001575  -0.003853  -0.000259   0.000003
    14  C    0.008397   0.010215   0.066323   0.060225   0.068454   0.000329
    15  O    0.000134  -0.000877  -0.006391  -0.069847   0.004482   0.000196
    16  C    0.157707   0.112015   0.063734   0.392531   0.126174  -0.004267
    17  C   -0.049174  -0.061732   0.331309   0.005935  -0.046602  -0.002492
    18  O   -0.000898   0.003003  -0.042093  -0.005408  -0.000443   0.000024
    19  H    0.000013   0.000030  -0.007975  -0.000674   0.000035   0.000000
    20  C   -0.084888   0.319591  -0.084070   0.017189  -0.019156   0.001223
    21  O    0.003052  -0.027625  -0.003058  -0.000633  -0.000220  -0.000004
    22  H   -0.000394  -0.008892   0.000323   0.000009   0.000005   0.000000
    23  C   -0.013763   0.005594   0.010703   0.020201  -0.009567   0.416436
    24  O   -0.000028   0.000007   0.000127   0.000545   0.007288  -0.041241
    25  H    0.000000   0.000000   0.000000   0.000000  -0.000249  -0.012822
    26  C   -0.102744  -0.037389  -0.105281  -0.240048   0.093158  -0.030252
    27  O   -0.047426   0.000656   0.001749   0.002218  -0.046676  -0.002291
    28  C    0.423768  -0.032800   0.007691   0.012175   0.047099   0.002839
    29  O   -0.041751  -0.007224  -0.000481  -0.000909  -0.000594  -0.000261
    30  H   -0.006770   0.000397   0.000013   0.000002   0.000024  -0.000001
    31  H    0.594856   0.003053   0.000695  -0.000033   0.006121  -0.000011
    32  H    0.003053   0.546953   0.004623   0.001439  -0.000035   0.000002
    33  H    0.000695   0.004623   0.594943   0.006521   0.002949   0.000006
    34  H   -0.000033   0.001439   0.006521   0.630926   0.007621  -0.000048
    35  H    0.006121  -0.000035   0.002949   0.007621   0.630456  -0.009712
    36  H   -0.000011   0.000002   0.000006  -0.000048  -0.009712   0.591247
    37  H   -0.000011  -0.000010   0.000005   0.004068   0.006843  -0.045021
    38  H    0.000000   0.000000   0.000000   0.000000   0.000000   0.000000
    39  H    0.000000   0.000000   0.000001   0.000000   0.000000   0.000000
    40  H    0.000000   0.000000  -0.000001   0.000000   0.000000   0.000000
    41  H    0.000000   0.000000   0.000000  -0.000013   0.000000   0.000000
    42  H    0.000000   0.000000   0.000000   0.000000   0.000000   0.000000
    43  H    0.000000   0.000000   0.000000  -0.000004   0.000000   0.000000
    44  H    0.000000   0.000000  -0.000003   0.000004  -0.000003   0.000000
    45  H    0.000000  -0.000013  -0.000027   0.014335  -0.000014   0.000003
             37         38         39         40         41         42
     1  O    0.000000   0.246850   0.000122  -0.000676   0.003771  -0.053708
     2  C   -0.000018   0.035189   0.005586  -0.004584   0.031812   0.500853
     3  C    0.000206   0.016301   0.001284  -0.012700  -0.060212  -0.157650
     4  O    0.000000   0.000134   0.000029   0.000003   0.000183   0.004221
     5  H    0.000000  -0.001667   0.000000   0.000000  -0.000012  -0.001255
     6  C    0.002122  -0.002167  -0.001842   0.020464  -0.035000  -0.028553
     7  O    0.000711  -0.000009  -0.000007   0.000004  -0.000023   0.000098
     8  H    0.000421   0.000000   0.000000   0.000000   0.000000   0.000001
     9  C    0.000009  -0.006576   0.397775   0.662068   0.022194   0.040222
    10  O    0.000000  -0.000892  -0.045750  -0.061480   0.005997   0.000735
    11  H    0.000000  -0.000105  -0.009941  -0.002401  -0.000156   0.000018
    12  C    0.000526  -0.027945  -0.028309  -0.308056   0.227772  -0.149967
    13  O   -0.000026  -0.000723  -0.000654   0.005301  -0.049706   0.012872
    14  C    0.004730  -0.001303  -0.001239   0.001753   0.088201   0.072591
    15  O    0.003065  -0.000011  -0.000166  -0.000016  -0.001056  -0.000218
    16  C    0.037740   0.000169   0.009993  -0.011616   0.001252  -0.000725
    17  C    0.002130  -0.000053  -0.003081   0.005600   0.006712   0.001362
    18  O   -0.000023   0.000000  -0.001175   0.000213   0.000466   0.000052
    19  H    0.000001   0.000000   0.000323  -0.000199   0.000230  -0.000002
    20  C    0.001109   0.000001  -0.001186   0.001128   0.001208   0.000063
    21  O   -0.000010   0.000000  -0.000001   0.000003   0.000001   0.000000
    22  H    0.000000   0.000000   0.000000   0.000000   0.000000   0.000000
    23  C    0.586018   0.000003   0.000024   0.000008   0.000490   0.000066
    24  O   -0.068015   0.000000   0.000000   0.000001   0.000013   0.000008
    25  H   -0.001926   0.000000   0.000000   0.000000   0.000000   0.000000
    26  C   -0.294230  -0.000008   0.000206  -0.000049  -0.000534   0.000130
    27  O    0.007967   0.000000   0.000000   0.000000  -0.000001   0.000000
    28  C    0.008857   0.000000   0.000020  -0.000073  -0.000063  -0.000004
    29  O   -0.000175   0.000000   0.000000   0.000000   0.000000   0.000000
    30  H    0.000000   0.000000   0.000000   0.000000   0.000000   0.000000
    31  H   -0.000011   0.000000   0.000000   0.000000   0.000000   0.000000
    32  H   -0.000010   0.000000   0.000000   0.000000   0.000000   0.000000
    33  H    0.000005   0.000000   0.000001  -0.000001   0.000000   0.000000
    34  H    0.004068   0.000000   0.000000   0.000000  -0.000013   0.000000
    35  H    0.006843   0.000000   0.000000   0.000000   0.000000   0.000000
    36  H   -0.045021   0.000000   0.000000   0.000000   0.000000   0.000000
    37  H    0.594655   0.000000   0.000000   0.000000   0.000000   0.000000
    38  H    0.000000   0.375234  -0.000038   0.000139   0.000023  -0.009974
    39  H    0.000000  -0.000038   0.601228  -0.051327  -0.011491  -0.000067
    40  H    0.000000   0.000139  -0.051327   0.603997   0.006850   0.002942
    41  H    0.000000   0.000023  -0.011491   0.006850   0.610630   0.006251
    42  H    0.000000  -0.009974  -0.000067   0.002942   0.006251   0.612546
    43  H    0.000000   0.000038   0.000003   0.000000   0.004271   0.006611
    44  H   -0.000004   0.000010   0.000001  -0.000003   0.000028   0.002641
    45  H   -0.000052   0.000002   0.000022   0.000003   0.005366   0.000020
             43         44         45
     1  O   -0.005918  -0.000780   0.000033
     2  C    0.190039   0.131443   0.046053
     3  C    0.118180  -0.203830  -0.043650
     4  O   -0.033080   0.009586  -0.000131
     5  H   -0.006955  -0.000028   0.000007
     6  C   -0.300049   0.110560  -0.141884
     7  O    0.010051  -0.036946   0.005567
     8  H   -0.000145  -0.004974  -0.002535
     9  C    0.033060   0.009914   0.002712
    10  O    0.000276   0.000028   0.000059
    11  H    0.000001   0.000000   0.000000
    12  C   -0.023435  -0.012200  -0.027910
    13  O    0.006007   0.011877  -0.068603
    14  C    0.203415   0.178883   0.406096
    15  O   -0.000171  -0.009176  -0.066373
    16  C    0.012451   0.038404   0.047990
    17  C    0.001914   0.005554   0.043485
    18  O    0.000077   0.000121  -0.000555
    19  H   -0.000003  -0.000024   0.000455
    20  C    0.000069   0.000491   0.010640
    21  O    0.000000   0.000000   0.000005
    22  H    0.000000   0.000000   0.000000
    23  C    0.001190   0.008644   0.016551
    24  O    0.000141   0.001053   0.001528
    25  H    0.000000   0.000015   0.000018
    26  C    0.000478  -0.003171  -0.010716
    27  O    0.000000   0.000000  -0.000078
    28  C   -0.000015  -0.000168  -0.001452
    29  O    0.000000   0.000000  -0.000003
    30  H    0.000000   0.000000   0.000000
    31  H    0.000000   0.000000   0.000000
    32  H    0.000000   0.000000  -0.000013
    33  H    0.000000  -0.000003  -0.000027
    34  H   -0.000004   0.000004   0.014335
    35  H    0.000000  -0.000003  -0.000014
    36  H    0.000000   0.000000   0.000003
    37  H    0.000000  -0.000004  -0.000052
    38  H    0.000038   0.000010   0.000002
    39  H    0.000003   0.000001   0.000022
    40  H    0.000000  -0.000003   0.000003
    41  H    0.004271   0.000028   0.005366
    42  H    0.006611   0.002641   0.000020
    43  H    0.633738   0.006915   0.003380
    44  H    0.006915   0.600231   0.005322
    45  H    0.003380   0.005322   0.633316
 Mulliken atomic charges:
              1
     1  O   -0.510223
     2  C   -0.145724
     3  C    0.132913
     4  O   -0.494496
     5  H    0.348339
     6  C   -0.091885
     7  O   -0.530748
     8  H    0.420766
     9  C   -0.139667
    10  O   -0.592292
    11  H    0.365015
    12  C    0.272257
    13  O   -0.436218
    14  C    0.183254
    15  O   -0.285859
    16  C    0.174099
    17  C   -0.237205
    18  O   -0.463819
    19  H    0.389109
    20  C    0.073176
    21  O   -0.519083
    22  H    0.348103
    23  C    0.022281
    24  O   -0.586937
    25  H    0.384557
    26  C   -0.118222
    27  O   -0.304469
    28  C    0.217402
    29  O   -0.571733
    30  H    0.357942
    31  H    0.149890
    32  H    0.168226
    33  H    0.150519
    34  H    0.119291
    35  H    0.126828
    36  H    0.136089
    37  H    0.148337
    38  H    0.377379
    39  H    0.139657
    40  H    0.142705
    41  H    0.134545
    42  H    0.137818
    43  H    0.137469
    44  H    0.149584
    45  H    0.121029
 Sum of Mulliken atomic charges =   0.00000
 Mulliken charges with hydrogens summed into heavy atoms:
              1
     1  O   -0.132844
     2  C   -0.007906
     3  C    0.270382
     4  O   -0.146157
     6  C    0.057699
     7  O   -0.109981
     9  C    0.142695
    10  O   -0.227277
    12  C    0.406802
    13  O   -0.436218
    14  C    0.304284
    15  O   -0.285859
    16  C    0.293389
    17  C   -0.086687
    18  O   -0.074710
    20  C    0.241401
    21  O   -0.170980
    23  C    0.306707
    24  O   -0.202380
    26  C    0.008606
    27  O   -0.304469
    28  C    0.367293
    29  O   -0.213791
 Sum of Mulliken charges with hydrogens summed into heavy atoms =   0.00000
 APT atomic charges:
              1
     1  O   -0.638495
     2  C    0.398742
     3  C    0.399966
     4  O   -0.628957
     5  H    0.250995
     6  C    0.384313
     7  O   -0.689519
     8  H    0.409824
     9  C    0.475800
    10  O   -0.633453
    11  H    0.253180
    12  C    0.455564
    13  O   -0.870859
    14  C    0.937938
    15  O   -0.860681
    16  C    0.439988
    17  C    0.352654
    18  O   -0.673862
    19  H    0.350604
    20  C    0.398432
    21  O   -0.597458
    22  H    0.236971
    23  C    0.455818
    24  O   -0.628409
    25  H    0.242721
    26  C    0.427693
    27  O   -0.752746
    28  C    0.841076
    29  O   -0.653444
    30  H    0.253892
    31  H   -0.049242
    32  H   -0.006189
    33  H   -0.039795
    34  H   -0.034466
    35  H   -0.065402
    36  H   -0.045035
    37  H   -0.037051
    38  H    0.283018
    39  H   -0.054231
    40  H   -0.047933
    41  H   -0.056977
    42  H   -0.040391
    43  H   -0.053156
    44  H   -0.029622
    45  H   -0.061817
 Sum of APT charges=   0.00000
 APT Atomic charges with hydrogens summed into heavy atoms:
              1
     1  O   -0.355477
     2  C    0.358352
     3  C    0.346810
     4  O   -0.377962
[...]
 00011775,-0.00009865,-0.00000367,0.00010533,0.00000627,0.00011012,-0.0
 0000279,0.00000939,-0.00000187,-0.00002035,0.00000438,-0.00000414,0.00
 002207,-0.00001915,0.00001382,-0.00003172,0.00002484,-0.00001309,-0.00
 000429,0.00000168,-0.00000056,0.00000907,-0.00000405,0.00000299,-0.000
 00204,-0.00000048,-0.00000120,-0.00000919,0.00000122,-0.00000028,0.000
 02724,0.00000876,0.00002353,-0.00001067,-0.00000313,0.00000224,-0.0000
 1282,-0.00000474,-0.00000245,0.00001151,-0.00000226,0.00000522,-0.0000
 1012,0.00000432,-0.00000287,0.00000405,0.00000011,-0.00000044,-0.00000
 116,-0.00000060,0.00000025,0.00000213,0.00000051,0.00000124,0.00000171
 ,0.00000065,-0.00000267,0.00000667,0.00000030,0.00000776,0.00001111,0.
 00000135,-0.00000695,0.00000627,0.00000061,0.00000527,0.00000034,-0.00
 000041,0.00000250,0.00000450,0.00000011,-0.00000329,0.00112324,0.00019
 135,-0.00037602,0.00013230,0.00001483,0.00001319,0.00023754,-0.0006458
 2,0.00019608,0.00073925,-0.00018584,0.00018550,0.37482877,-0.01356029,
 -0.00245001,-0.00637836,-0.02676646,-0.04642106,0.00602296,0.03312213,
 0.00146383,-0.00676535,-0.00221489,0.00346229,-0.00021328,0.00045525,-
 0.00020636,0.00014178,0.00053241,0.00129773,0.00078723,-0.00036808,-0.
 00032090,-0.00004652,-0.00010582,-0.00000710,0.00004826,-0.00086630,0.
 00122948,-0.00069033,0.00022440,-0.00020933,-0.00020019,0.00006838,-0.
 00003669,-0.00007638,-0.02665095,-0.00279228,0.00612001,0.00155162,0.0
 0091902,-0.00138160,0.00026177,-0.00049166,-0.00001712,0.00000041,0.00
 010224,-0.00002175,-0.00003826,0.00001472,-0.00000606,0.00001197,0.000
 00077,-0.00000927,0.00001853,-0.00000914,-0.00001237,-0.00002292,0.000
 02161,0.00001439,-0.00000713,0.00000091,0.00000049,0.00000396,0.000000
 20,-0.00000129,-0.00000099,0.00000012,-0.00000048,-0.00000185,-0.00000
 882,0.00000648,-0.00001739,-0.00000308,-0.00003570,0.00000600,0.000003
 76,-0.00000408,0.00000480,-0.00000201,0.00000823,-0.00000099,0.0000026
 4,-0.00000567,0.00000064,-0.00000166,0.00000712,0.00000304,0.00000002,
 -0.00000655,-0.00000044,0.00000060,0.00000143,0.00000004,0.00000071,0.
 00000002,0.00000056,-0.00000040,-0.00000155,0.00000192,0.00000360,0.00
 000352,0.00000296,-0.00000757,0.00000634,-0.00000108,0.00000108,-0.000
 00094,0.00000005,0.00000137,-0.00000445,-0.00000036,-0.00000014,0.0000
 0261,-0.00144391,0.00128092,0.00001543,0.00025597,0.00041519,-0.000011
 24,0.00055704,-0.00021206,0.00014462,-0.00088104,-0.00244747,0.0035579
 0,0.03444942,0.05063940,-0.03956853,-0.01170546,-0.01206268,0.05406384
 ,0.00548179,-0.05104141,0.01081217,0.00214307,-0.00128106,-0.00134351,
 0.00004505,0.00067999,-0.00013487,-0.00029666,-0.00008238,0.00078556,0
 .00036363,0.00038292,-0.00028526,-0.00007309,-0.00004589,-0.00000110,0
 .00003234,0.00002558,-0.00004622,-0.00124685,0.00076746,-0.00004030,0.
 00023616,0.00022799,0.00002257,-0.00001375,0.00011285,0.02672631,0.003
 14217,-0.00424925,-0.00126947,-0.00087063,0.00207207,0.00037580,-0.000
 17121,-0.00027627,-0.00010886,0.00001251,-0.00013566,0.00001752,-0.000
 03028,0.00000135,0.00001112,0.00000292,0.00001774,-0.00004425,-0.00000
 296,-0.00001054,0.00005205,0.00000299,-0.00000984,0.00000785,-0.000007
 91,0.00000974,-0.00001348,0.00001083,-0.00001057,0.00000304,-0.0000011
 9,0.00000151,0.00000881,0.00000242,0.00000329,-0.00001826,-0.00000861,
 -0.00001369,0.00000739,0.00000320,-0.00000218,0.00000618,0.00000797,0.
 00001039,-0.00001019,0.00000515,-0.00001905,0.00000904,-0.00000799,0.0
 0001889,0.00000169,0.00000142,-0.00001283,0.00000049,0.00000032,0.0000
 0209,-0.00000168,-0.00000016,-0.00000207,-0.00000235,0.00000017,0.0000
 0418,-0.00001057,-0.00000351,-0.00001178,-0.00001472,0.00000098,0.0000
 1056,-0.00000626,-0.00000242,-0.00000635,-0.00000170,-0.00000218,-0.00
 000239,-0.00000308,0.00000136,0.00000368,-0.00282952,0.00084483,0.0030
 1562,-0.00012178,-0.00028849,-0.00001874,-0.00055345,0.00032835,-0.000
 08767,0.00061112,0.00270786,-0.00388520,-0.04721844,0.00120252,0.06624
 247,0.00175949,0.00029396,0.00031536,-0.01662206,0.00014106,0.00120055
 ,-0.35124033,-0.02650784,0.02338045,0.00056889,-0.00728002,0.00770427,
 0.00034433,-0.00066937,0.00018303,-0.01557263,-0.00103253,-0.00033290,
 0.00222444,0.00072813,0.00074618,0.00023928,0.00013149,0.00006710,0.00
 063994,0.00034861,-0.00004648,0.00007910,-0.00010267,-0.00010143,-0.00
 000748,-0.00000540,-0.00001980,-0.00106025,-0.00165742,0.00072962,0.00
 036348,0.00070249,-0.00035072,-0.00128079,-0.00122727,0.00116252,0.000
 59893,0.00016000,-0.00017955,-0.00010038,0.00006012,-0.00009211,0.0000
 1090,-0.00001787,-0.00005774,0.00004513,0.00001284,0.00003734,-0.00002
 544,-0.00001003,0.00000958,-0.00001942,0.00001286,-0.00000232,0.000016
 67,0.00000146,0.00000808,-0.00000607,-0.00000096,-0.00000477,-0.000042
 00,-0.00002994,0.00003875,0.00004378,0.00003374,0.00000293,-0.00001704
 ,-0.00000685,0.00000914,-0.00000219,-0.00000160,-0.00001136,0.00001601
 ,0.00000771,-0.00000262,-0.00000671,-0.00000702,-0.00000854,0.00000244
 ,0.00000507,0.00000669,-0.00000087,-0.00000167,-0.00000184,0.00000269,
 0.00000134,0.00000202,0.00000288,0.00000055,-0.00000487,0.00001127,-0.
 00000086,0.00000949,0.00002200,0.00000997,-0.00004690,0.00000972,0.000
 00137,0.00001231,0.00000644,0.00000415,-0.00000056,0.00001643,0.000001
 97,-0.00001303,0.00025001,-0.00025679,-0.00018063,-0.00004841,0.000139
 80,-0.00002036,0.00016395,-0.00029528,0.00003758,0.00121100,0.00049635
 ,-0.00063767,0.00001788,0.00201045,0.00058800,0.37676533,-0.00223222,0
 .00174663,0.00106915,0.03248103,-0.00082743,-0.00313106,-0.02561955,-0
 .04181958,-0.00187778,-0.03001863,-0.01404524,0.01664393,-0.00011383,0
 .00009076,-0.00103832,-0.01138946,0.00001114,-0.00137441,0.00004425,0.
 00090052,0.00097439,0.00006564,-0.00001025,-0.00000290,-0.00006046,0.0
 0014853,-0.00018831,-0.00004095,-0.00003557,0.00003242,-0.00001689,0.0
 0000756,0.00002840,0.00205388,0.00103098,-0.00126939,-0.00039221,-0.00
 000500,0.00007753,0.00009679,-0.00033940,0.00043443,0.00017095,0.00002
 115,-0.00019829,-0.00001599,0.00002638,-0.00001397,0.00000601,-0.00001
 396,-0.00003329,-0.00000319,0.00000610,0.00001690,0.00000587,-0.000001
 79,-0.00001881,-0.00000537,0.00000439,0.00000551,0.00000217,0.00000025
 ,-0.00000492,-0.00000156,0.00000094,-0.00000060,-0.00001499,0.00001543
 ,-0.00001861,0.00006591,0.00001001,0.00007681,-0.00002262,-0.00000726,
 0.00000371,-0.00001123,0.00002887,0.00000527,0.00001027,-0.00001371,-0
 .00000531,-0.00000295,0.00000446,-0.00000267,-0.00000009,-0.00000054,0
 .00000234,0.00000001,-0.00000074,-0.00000086,0.00000074,-0.00000011,0.
 00000036,0.00000029,0.00000056,-0.00000125,0.00000043,0.00000045,0.000
 00200,0.00000198,0.00000760,-0.00001393,0.00000470,-0.00000512,0.00000
 295,0.00000256,-0.00000427,0.00000693,0.00000656,0.00000325,-0.0000093
 7,0.00000826,0.00028417,0.00035011,-0.00005914,-0.00008286,-0.00003379
 ,-0.00016915,0.00004791,-0.00001975,-0.00003037,-0.00088786,0.00048127
 ,0.00197714,-0.00495650,-0.00185849,0.03376335,0.05885655,-0.00074525,
 0.00140335,0.00137540,0.01436050,-0.00217194,0.00056674,0.02377794,-0.
 00367877,-0.04536736,0.02660383,0.01695220,-0.01165836,0.00151738,0.00
 029981,0.00064082,-0.03326985,-0.00485105,0.00057756,0.00155864,0.0018
 0792,0.00236948,-0.00006307,0.00035204,0.00001475,-0.00023417,-0.00018
 165,0.00004095,-0.00003809,0.00004076,0.00004161,-0.00001043,0.0000124
 8,0.00000231,-0.00065696,0.00112156,-0.00038567,0.00026085,0.00030951,
 -0.00018743,-0.00129596,-0.00087617,0.00132427,0.00040185,0.00006234,-
 0.00009898,0.00001169,0.00003722,0.00002370,0.00002033,-0.00001497,-0.
 00002772,0.00001506,0.00001520,0.00000702,-0.00001263,-0.00001783,0.00
 000542,-0.00000873,0.00000337,0.00001197,0.00000127,0.00001132,-0.0000
 0868,-0.00000201,-0.00000075,-0.00000220,-0.00001069,0.00000212,0.0000
 1374,0.00005863,-0.00000047,0.00007173,-0.00000458,0.00000285,-0.00000
 884,-0.00000689,0.00001453,0.00001694,0.00000819,0.00000036,-0.0000272
 3,0.00000036,-0.00000915,0.00001648,0.00000718,0.00000137,-0.00001073,
 -0.00000141,0.00000137,0.00000188,0.00000061,0.00000137,-0.00000045,0.
 00000004,0.00000119,-0.00000139,0.00000203,-0.00000222,0.00000314,0.00
 002553,0.00001562,-0.00004617,0.00000461,-0.00000230,0.00000565,0.0000
 0113,-0.00000340,0.00000223,0.00000828,0.00000317,-0.00001185,-0.00005
 672,0.00034755,0.00004719,-0.00000044,-0.00010156,-0.00000844,-0.00004
 420,0.00010220,-0.00004903,-0.00048249,0.00025811,0.00026601,0.0010466
 2,-0.00188250,-0.00043766,-0.03157323,-0.00752374,0.05641787,0.0004051
 9,0.00000157,-0.00012988,-0.00068719,0.00081283,0.00015875,-0.01157472
 ,-0.00585631,0.00056335,0.00153401,0.00040436,0.00093976,0.00036306,0.
 00011860,0.00019253,-0.33380907,-0.08588703,0.02859703,-0.01870041,0.0
 1088483,0.00822480,-0.00073052,-0.00001445,-0.00122791,-0.00002522,-0.
 00001705,-0.00001531,0.00003309,0.00002961,0.00001280,-0.00001211,-0.0
 0000952,-0.00000048,-0.00009812,-0.00008221,0.00005811,0.00120783,-0.0
 0121446,-0.00034382,-0.00239757,-0.00028686,-0.00000089,0.00072470,0.0
 0005748,-0.00022295,0.00020880,0.00003338,0.00021002,0.00000695,0.0000
 2460,-0.00001020,0.00002032,-0.00000529,-0.00003692,-0.00001911,-0.000
 03461,0.00000675,-0.00001471,0.00000863,0.00002728,0.00000999,-0.00000
 731,-0.00001701,-0.00000275,0.00000302,-0.00000133,0.00000953,0.000143
 88,-0.00012775,0.00026834,-0.00005028,0.00050448,-0.00005204,-0.000024
 83,-0.00005121,-0.00005021,0.00009414,0.00002745,0.00004355,-0.0000837
 0,-0.00001062,-0.00002981,0.00004306,0.00000221,0.00000951,-0.00001436
 ,-0.00000862,-0.00000192,0.00000161,0.00000196,0.00000442,-0.00000258,
 0.00000210,0.00000115,0.00000239,-0.00000278,0.00000147,-0.00000537,0.
 00001174,-0.00000753,0.00006170,-0.00023542,0.00001640,-0.00001565,0.0
 0000673,0.00000318,-0.00003032,0.00004439,0.00001608,-0.00000104,-0.00
 003681,-0.00004128,-0.00013231,-0.00005543,0.00001623,0.00000398,-0.00
 000437,0.00003424,-0.00003703,0.00000888,0.00005869,0.00012188,-0.0000
 3545,0.00054720,-0.00048838,-0.00029663,0.00002403,-0.00068331,-0.0014
 1946,0.36232123,0.00024931,0.00002010,-0.00008659,-0.00083788,0.000599
 32,0.00056879,-0.01255957,-0.00245896,0.00145017,0.00144094,0.00064469
 ,0.00063211,0.00010653,-0.00012735,0.00013857,-0.08661207,-0.06424026,
 0.01002321,0.03817040,-0.00401814,-0.00936808,0.00101347,0.00099761,0.
 00114488,-0.00008429,0.00002722,0.00002288,0.00003416,-0.00002298,-0.0
 0001684,-0.00000756,-0.00000070,-0.00000177,-0.00017077,-0.00020707,-0
 .00002833,0.00135458,0.00134067,-0.00055960,-0.02552541,-0.00563412,0.
 00292047,0.00117482,0.00094290,-0.00149590,-0.00009320,0.00010518,0.00
 006760,0.00008552,0.00000182,-0.00011604,0.00007932,-0.00003216,0.0000
 7111,-0.00008006,0.00002775,-0.00001691,-0.00001388,0.00002347,0.00000
 078,0.00000936,0.00000910,0.00000354,-0.00000428,-0.00000155,-0.000003
 12,-0.00005614,-0.00011956,0.00013238,-0.00026937,-0.00007334,-0.00040
 150,0.00007670,0.00002585,-0.00002218,0.00008645,-0.00004218,-0.000003
 85,-0.00001896,0.00004958,-0.00002310,0.00001389,-0.00003875,0.0000039
 4,-0.00000060,0.00001432,0.00000332,0.00000043,-0.00000100,-0.00000130
 ,-0.00000101,0.00000382,0.00000017,0.00000379,0.00000146,-0.00000861,0
 .00002093,-0.00002387,0.00002744,0.00022471,0.00003933,-0.00012315,-0.
 00000373,0.00003163,0.00002859,0.00000657,0.00002486,-0.00003515,0.000
 00194,-0.00000542,0.00002968,0.00000544,-0.00003369,-0.00002432,0.0000
 1803,-0.00001937,0.00000249,0.00004250,-0.00005664,0.00000401,0.000148
 61,0.00011662,-0.00000700,0.00030709,-0.00014357,-0.00004178,-0.000388
 95,-0.00043539,-0.00216413,0.08181008,0.07531716,0.00048515,0.00003185
 ,-0.00043249,-0.00110150,0.00126909,0.00122479,-0.03063414,-0.01060572
 ,0.00139202,0.00152817,-0.00005821,0.00275511,0.00018544,-0.00018970,0
 .00056019,0.02818920,0.01121941,-0.04744792,0.01206972,-0.00451007,0.0
 0040060,0.00095054,0.00010489,0.00047954,-0.00004710,-0.00000187,0.000
 08481,0.00001134,0.00001643,0.00001429,0.00000262,0.00000080,0.0000104
 0,-0.00040625,-0.00014593,-0.00054374,-0.00145838,-0.00054115,0.000565
 71,0.02681927,0.00943894,-0.00381699,-0.00045321,-0.00114937,0.0026454
 1,0.00043292,-0.00008254,-0.00032734,-0.00013727,0.00000179,0.00019839
 ,-0.00007954,0.00002096,-0.00008659,0.00008188,-0.00001434,0.00007334,
 0.00002882,-0.00004710,-0.00002519,-0.00001177,-0.00002070,0.00001693,
 0.00000695,-0.00000076,0.00000550,0.00009051,0.00007395,-0.00005419,-0
 .00023719,-0.00010561,-0.00009007,0.00003462,-0.00000264,0.00003120,-0
 .00005191,-0.00003667,-0.00002551,-0.00003223,-0.00001025,0.00007573,0
 .00000116,0.00003217,-0.00002094,-0.00000871,-0.00000987,0.00000760,0.
 00000184,-0.00000040,-0.00000116,-0.00000155,-0.00000234,-0.00000250,-
 0.00000499,-0.00000347,0.00001077,-0.00003329,0.00004066,-0.00002848,-
 0.00037679,-0.00008282,0.00005817,-0.00002615,-0.00001789,-0.00006651,
 -0.00001771,-0.00000945,0.00000841,-0.00004131,-0.00001073,0.00004433,
 0.00002987,-0.00012656,-0.00005418,0.00001316,-0.00003900,0.00000604,0
 .00002728,-0.00002423,0.00001021,0.00012651,0.00003610,-0.00010525,0.0
 0053527,-0.00030408,-0.00003400,-0.00193839,-0.00152662,-0.00507894,-0
 .03497624,-0.00545898,0.05044885,0.00008974,-0.00006374,0.00022020,0.0
 0007802,0.00046873,-0.00013716,-0.00041396,-0.00035608,-0.00014956,0.0
 0036643,0.00005654,-0.00010554,-0.00006036,0.00000604,0.00009529,-0.00
 411101,0.00100471,0.00201979,0.00225614,0.00052024,-0.00182472,-0.0005
 0163,-0.00053575,-0.00000517,0.00035762,-0.00018042,0.00022021,0.00001
 352,0.00024169,0.00011246,-0.00000658,-0.00000768,0.00003214,-0.000417
 30,-0.00029717,-0.00061989,-0.00747533,0.01019798,0.00708144,-0.331079
 30,-0.03494351,0.07848972,-0.02352520,-0.00548452,-0.00850504,-0.00006
 768,-0.00155051,0.00495416,0.00045273,0.00028703,-0.00031798,0.0004369
 8,-0.00019987,-0.00013353,-0.00028828,-0.00028386,0.00051249,-0.000059
 44,0.00010562,0.00004958,0.00003889,0.00000997,-0.00002807,-0.00002043
 ,0.00000439,-0.00001273,-0.00032515,0.00002309,0.00000676,0.00018781,-
 0.00001448,0.00006491,0.00001676,-0.00004294,-0.00001622,0.00068189,0.
 00026276,-0.00000862,0.00008513,-0.00012842,-0.00029671,-0.00001486,-0
 .00000697,0.00001697,0.00001413,0.00000513,-0.00002161,-0.00000125,0.0
 0000349,0.00000155,0.00000606,0.00000383,0.00000350,0.00001712,0.00001
 739,-0.00004292,0.00008449,-0.00027929,0.00019871,0.00189656,0.0007260
 3,-0.00133229,0.00006968,0.00020411,0.00035057,0.00006752,0.00001229,0
 .00000441,0.00012383,-0.00001423,-0.00003659,-0.00000143,-0.00000035,-
 0.00001561,-0.00000163,0.00002463,-0.00001725,0.00009393,-0.00022306,-
 0.00003472,0.00028059,0.00064961,0.00111753,0.00001864,-0.00010621,-0.
 00016607,0.00059560,0.00013538,0.00024471,0.00036507,0.00024220,0.0004
 2339,0.35967594,-0.00007739,0.00029225,-0.00034147,-0.00024846,-0.0006
 9551,-0.00011057,-0.00073499,-0.00037968,-0.00099028,0.00041143,0.0001
 0318,0.00038453,0.00016749,-0.00007580,0.00009947,-0.02268211,-0.00248
 781,0.00874969,0.00013600,0.00309687,-0.00087776,-0.00078138,-0.000805
 19,-0.00012726,0.00014053,-0.00006520,0.00004626,-0.00015941,-0.000349
 98,-0.00029054,-0.00000203,0.00002621,-0.00003154,0.00385034,0.0022610
 2,0.00393644,0.03635825,-0.01311786,-0.01850458,-0.03638559,-0.0449266
 1,0.01288414,-0.00993439,0.00325040,-0.00244998,0.00089068,-0.00055524
 ,0.00174545,0.00018990,-0.00011163,-0.00003780,-0.00029494,0.00017044,
 0.00021237,0.00017769,0.00016021,-0.00082925,0.00002995,0.00002430,0.0
 0011859,-0.00003094,0.00007131,-0.00006931,-0.00000602,-0.00000513,-0.
 00000486,-0.00014999,0.00005005,-0.00012935,0.00008773,-0.00002751,0.0
 0009074,-0.00000808,-0.00001504,-0.00001406,-0.00001049,0.00020220,0.0
 0009234,0.00001167,-0.00005572,-0.00016793,0.00001229,-0.00003547,0.00
 010432,0.00002149,0.00000609,-0.00006520,-0.00000178,0.00000192,0.0000
 1015,-0.00000017,0.00000060,-0.00000417,-0.00000625,-0.00000039,0.0000
 0109,-0.00001836,-0.00006155,0.00002978,0.00046517,0.00023469,0.000190
 36,0.00000282,-0.00002118,0.00003734,0.00003942,-0.00002356,0.00001260
 ,0.00004706,-0.00002721,-0.00006172,-0.00001283,0.00000647,0.00001915,
 -0.00006002,-0.00006653,-0.00000251,-0.00031117,0.00006823,-0.00013609
 ,-0.00138279,0.00006435,-0.00005837,-0.00000063,-0.00013438,0.00005361
 ,0.00043149,0.00023802,0.00030173,0.00032263,-0.00262838,0.00285205,0.
 02950616,0.05634376,-0.00007757,-0.00006753,-0.00027919,-0.00015868,0.
 00012380,-0.00006486,0.00162977,0.00009895,0.00108052,-0.00055748,0.00
 002093,-0.00006480,-0.00006505,-0.00005085,-0.00004080,0.02462390,0.00
 503846,-0.00438260,-0.00187399,-0.00224618,0.00164637,0.00001570,0.000
 38546,-0.00003185,-0.00006238,-0.00010343,0.00008835,-0.00006680,-0.00
 016207,-0.00015368,0.00001345,0.00002118,-0.00000484,0.00213356,0.0010
 4180,0.00275096,0.01359187,-0.00882895,-0.00319322,0.08582688,0.015028
 53,-0.06704206,-0.03391785,-0.00387668,-0.01111536,-0.00806648,-0.0027
 1937,0.00338842,0.00037161,0.00014806,-0.00051809,0.00005774,0.0000969
 5,0.00036803,-0.00007380,-0.00002680,-0.00044424,-0.00000585,0.0000916
 7,0.00008791,0.00000524,0.00006712,-0.00003645,-0.00001255,-0.00000233
 ,-0.00001374,-0.00007680,0.00004977,0.00006795,0.00002740,-0.00013546,
 0.00003580,0.00004414,-0.00000964,-0.00005054,-0.00030327,-0.00014725,
 -0.00008549,0.00013885,0.00009832,-0.00012746,0.00001052,-0.00009175,0
 .00007740,0.00001770,0.00002514,-0.00004150,-0.00000205,0.00000170,0.0
 0000599,0.00000083,0.00000117,0.00000549,0.00001412,0.00001521,-0.0000
 4267,0.00024555,-0.00011817,0.00002067,0.00096776,0.00033338,-0.000768
 57,0.00019310,0.00006315,0.00003386,0.00002149,-0.00000135,-0.00000203
 ,0.00003179,-0.00006772,-0.00003272,-0.00002524,0.00000128,0.00001658,
 -0.00002117,-0.00002389,-0.00001606,-0.00018815,0.00007559,-0.00006117
 ,-0.00092810,-0.00015050,-0.00016341,-0.00015038,-0.00001423,0.0001287
 9,-0.00062319,-0.00004797,-0.00044772,-0.00033364,0.00273208,-0.002886
 34,-0.08239251,-0.00666761,0.08230837\\0.01495696,-0.02467246,-0.01418
 143,-0.00858508,0.00853294,-0.02811003,0.00005309,-0.03537128,0.041518
 69,0.01139271,0.00820495,0.03026707,-0.00943237,-0.01199815,-0.0231304
 2,0.01179850,0.00245857,-0.02442424,-0.00496774,0.00432663,-0.01008042
 ,0.00120104,0.00194837,0.01939330,-0.00827011,0.02411395,-0.00289694,0
 .00193005,0.01256664,0.00873826,0.00691016,-0.03211270,-0.00109830,-0.
 00503293,0.02444599,0.01403307,-0.00887673,0.00039181,0.00583589,-0.03
 092396,0.01328867,-0.00469472,0.00295740,0.00563819,0.01278147,0.02288
 404,-0.01501043,-0.00648732,0.01743076,0.01465994,0.03284704,-0.020221
 18,-0.00945628,0.01569587,0.01684029,0.01462238,-0.01330424,-0.0630139
 6,-0.01035688,0.01611246,0.01793525,0.02025378,-0.02833037,-0.00917610
 ,-0.01217571,0.02451311,0.00570952,0.00490681,0.00767490,-0.00171262,-
 0.02804769,-0.01038916,-0.00611866,0.02684722,0.01574775,-0.00936313,-
 0.01137505,0.00341577,-0.02339655,-0.00469432,0.01378877,0.09450204,0.
 01001886,-0.01464317,-0.01919533,0.00145967,-0.01393109,-0.00203842,-0
 .00171554,-0.00758162,-0.01608113,-0.00504597,-0.00223268,0.01477885,-
 0.00014903,-0.00203787,-0.02096749,0.00042750,-0.00527810,0.02090456,0
 .00469397,0.00085571,-0.02316335,-0.00531648,-0.00294897,-0.00286072,-
 0.00587590,-0.01669524,0.02078831,0.00257810,-0.00082466,-0.00371591,0
 .00386432,-0.00123110,0.00762623,0.00932925,-0.01586166,-0.01875429,-0
 .00459490,-0.00836147,0.02131593,0.00054836,-0.00036430,-0.01873130,-0
 .00357214,0.00194428,0.02222558,0.00270136,-0.00393460,-0.01892290,-0.
 00297477,0.00317993,0.01938068,0.00168744,-0.00528920\\\@


 ...THE PHYSICISTS HAVE MADE THEIR UNIVERSE, AND IF YOU DO NOT LIKE
 IT, YOU MUST MAKE YOUR OWN.
                               -- E. R. HARRISON IN "COSMOLOGY" (1980)
 Job cpu time:  0 days 13 hours  8 minutes 12.2 seconds.
 File lengths (MBytes):  RWF=   1326 Int=      0 D2E=      0 Chk=     19 Scr=      1
 Normal termination of Gaussian 09 at Tue Mar  1 16:25:11 2016.
Gaussian '09 finished on node010 at Tue Mar  1 16:25:11 EST 2016.
