Gaussian '09 started on node011 at Mon Feb  8 13:54:04 EST 2016.
 Entering Gaussian System, Link 0=/usr/local/gaussian/g09/g09
 Initial command:
 /usr/local/gaussian/g09/l1.exe /home/srmcgrat/thesis/gaussian/cellobiose/320/6000/1/2dfp/gaussian4677/Gau-4757.inp -scrdir=/home/srmcgrat/thesis/gaussian/cellobiose/320/6000/1/2dfp/gaussian4677/
 Entering Link 1 = /usr/local/gaussian/g09/l1.exe PID=      4759.
  
 Copyright (c) 1988,1990,1992,1993,1995,1998,2003,2009,2010,
            Gaussian, Inc.  All Rights Reserved.
  
 This is part of the Gaussian(R) 09 program.  It is based on
 the Gaussian(R) 03 system (copyright 2003, Gaussian, Inc.),
 the Gaussian(R) 98 system (copyright 1998, Gaussian, Inc.),
 the Gaussian(R) 94 system (copyright 1995, Gaussian, Inc.),
 the Gaussian 92(TM) system (copyright 1992, Gaussian, Inc.),
 the Gaussian 90(TM) system (copyright 1990, Gaussian, Inc.),
 the Gaussian 88(TM) system (copyright 1988, Gaussian, Inc.),
 the Gaussian 86(TM) system (copyright 1986, Carnegie Mellon
 University), and the Gaussian 82(TM) system (copyright 1983,
 Carnegie Mellon University). Gaussian is a federally registered
 trademark of Gaussian, Inc.
  
 This software contains proprietary and confidential information,
 including trade secrets, belonging to Gaussian, Inc.
  
 This software is provided under written license and may be
 used, copied, transmitted, or stored only in accord with that
 written license.
  
 The following legend is applicable only to US Government
 contracts under FAR:
  
                    RESTRICTED RIGHTS LEGEND
  
 Use, reproduction and disclosure by the US Government is
 subject to restrictions as set forth in subparagraphs (a)
 and (c) of the Commercial Computer Software - Restricted
 Rights clause in FAR 52.227-19.
  
 Gaussian, Inc.
 340 Quinnipiac St., Bldg. 40, Wallingford CT 06492
  
  
 ---------------------------------------------------------------
 Warning -- This program may not be used in any manner that
 competes with the business of Gaussian, Inc. or will provide
 assistance to any competitor of Gaussian, Inc.  The licensee
 of this program is prohibited from giving any competitor of
 Gaussian, Inc. access to this program.  By using this program,
 the user acknowledges that Gaussian, Inc. is engaged in the
 business of creating and licensing software in the field of
 computational chemistry and represents and warrants to the
 licensee that it is not a competitor of Gaussian, Inc. and that
 it will not use this program in any manner prohibited above.
 ---------------------------------------------------------------
  

 Cite this work as:
 Gaussian 09, Revision B.01,
 M. J. Frisch, G. W. Trucks, H. B. Schlegel, G. E. Scuseria, 
 M. A. Robb, J. R. Cheeseman, G. Scalmani, V. Barone, B. Mennucci, 
 G. A. Petersson, H. Nakatsuji, M. Caricato, X. Li, H. P. Hratchian, 
 A. F. Izmaylov, J. Bloino, G. Zheng, J. L. Sonnenberg, M. Hada, 
 M. Ehara, K. Toyota, R. Fukuda, J. Hasegawa, M. Ishida, T. Nakajima, 
 Y. Honda, O. Kitao, H. Nakai, T. Vreven, J. A. Montgomery, Jr., 
 J. E. Peralta, F. Ogliaro, M. Bearpark, J. J. Heyd, E. Brothers, 
 K. N. Kudin, V. N. Staroverov, T. Keith, R. Kobayashi, J. Normand, 
 K. Raghavachari, A. Rendell, J. C. Burant, S. S. Iyengar, J. Tomasi, 
 M. Cossi, N. Rega, J. M. Millam, M. Klene, J. E. Knox, J. B. Cross, 
 V. Bakken, C. Adamo, J. Jaramillo, R. Gomperts, R. E. Stratmann, 
 O. Yazyev, A. J. Austin, R. Cammi, C. Pomelli, J. W. Ochterski, 
 R. L. Martin, K. Morokuma, V. G. Zakrzewski, G. A. Voth, 
 P. Salvador, J. J. Dannenberg, S. Dapprich, A. D. Daniels, 
 O. Farkas, J. B. Foresman, J. V. Ortiz, J. Cioslowski, 
 and D. J. Fox, Gaussian, Inc., Wallingford CT, 2010.
 
 ******************************************
 Gaussian 09:  EM64L-G09RevB.01 12-Aug-2010
                 8-Feb-2016 
 ******************************************
 --------------------------------------------------
 # freq=raman b3lyp/6-31+g(2df,p) geom=connectivity
 --------------------------------------------------
 1/10=4,30=1,38=1,57=2/1,3;
 2/12=2,17=6,18=5,40=1/2;
 3/5=1,6=6,7=114,11=2,16=1,25=1,30=1,71=2,74=-5/1,2,3;
 4//1;
 5/5=2,38=5,98=1/2;
 8/6=4,10=90,11=11/1;
 10/13=10,15=4/2;
 11/6=3,8=1,9=11,15=111,16=1/1,2,10;
 10/6=1/2;
 6/7=2,8=2,9=2,10=2,18=1,28=1/1;
 7/8=1,10=1,25=1/1,2,3,16;
 1/10=4,30=1/3;
 99//99;
 ------------
 320 6000.com
 ------------
 Symbolic Z-matrix:
 Charge =  0 Multiplicity = 1
 O                     7.754     7.444     12.332 
 C                     8.339     7.762     13.604 
 C                     7.755     9.091     14.053 
 O                     8.064     10.089    13.068 
 H                     7.918     9.691     12.162 
 C                     8.297     9.498     15.414 
 O                     7.689     10.699    15.912 
 H                     8.119     10.928    16.786 
 C                     8.04      5.321     14.226 
 O                     7.63      4.649     13.026 
 H                     7.396     3.7       13.236 
 C                     7.926     6.768     14.677 
 O                     8.489     7.079     15.959 
 C                     8.078     8.376     16.416 
 O                     8.873     8.801     17.532 
 C                     8.414     8.406     18.833 
 C                     8.875     7.022     19.261 
 O                     8.49      5.906     18.445 
 H                     8.592     6.281     17.523 
 C                     8.392     6.654     20.654 
 O                     9.223     5.585     21.129 
 H                     8.856     5.307     22.017 
 C                     8.213     10.778    19.691 
 O                     8.349     11.526    18.474 
 H                     8.183     12.494    18.662 
 C                     8.782     9.39      19.931 
 O                     8.214     9.058     21.206 
 C                     8.636     7.765     21.662 
 O                     7.84      7.565     22.839 
 H                     8.41554   7.43629   23.59648 
 H                     9.67244   7.79426   21.92626 
 H                     7.36232   6.36328   20.64227 
 H                     9.94449   7.04159   19.28771 
 H                     7.34539   8.37698   18.78674 
 H                     9.84686   9.44919   20.01746 
 H                     8.61505   11.39862   20.46436 
 H                     7.16141   10.70043   19.87278 
 H                     8.45017   7.28368   11.69072 
 H                     9.08812   5.11519   14.2891 
 H                     7.55527   4.77115   15.00549 
 H                     6.8751    6.9261    14.80155 
 H                     9.40476   7.82148   13.52972 
 H                     6.69168   8.9935    14.12189 
 H                     9.34949   9.66673   15.32071 
 H                     7.0471    8.34591   16.70101 
 

 GradGradGradGradGradGradGradGradGradGradGradGradGradGradGradGradGradGrad
 Berny optimization.
 Initialization pass.
 Trust Radius=3.00D-01 FncErr=1.00D-07 GrdErr=1.00D-07
 Number of steps in this run=      2 maximum allowed number of steps=      2.
 GradGradGradGradGradGradGradGradGradGradGradGradGradGradGradGradGradGrad

                          Input orientation:                          
 ---------------------------------------------------------------------
 Center     Atomic      Atomic             Coordinates (Angstroms)
 Number     Number       Type             X           Y           Z
 ---------------------------------------------------------------------
      1          8           0        7.754000    7.444000   12.332000
      2          6           0        8.339000    7.762000   13.604000
      3          6           0        7.755000    9.091000   14.053000
      4          8           0        8.064000   10.089000   13.068000
      5          1           0        7.918000    9.691000   12.162000
      6          6           0        8.297000    9.498000   15.414000
      7          8           0        7.689000   10.699000   15.912000
      8          1           0        8.119000   10.928000   16.786000
      9          6           0        8.040000    5.321000   14.226000
     10          8           0        7.630000    4.649000   13.026000
     11          1           0        7.396000    3.700000   13.236000
     12          6           0        7.926000    6.768000   14.677000
     13          8           0        8.489000    7.079000   15.959000
     14          6           0        8.078000    8.376000   16.416000
     15          8           0        8.873000    8.801000   17.532000
     16          6           0        8.414000    8.406000   18.833000
     17          6           0        8.875000    7.022000   19.261000
     18          8           0        8.490000    5.906000   18.445000
     19          1           0        8.592000    6.281000   17.523000
     20          6           0        8.392000    6.654000   20.654000
     21          8           0        9.223000    5.585000   21.129000
     22          1           0        8.856000    5.307000   22.017000
     23          6           0        8.213000   10.778000   19.691000
     24          8           0        8.349000   11.526000   18.474000
     25          1           0        8.183000   12.494000   18.662000
     26          6           0        8.782000    9.390000   19.931000
     27          8           0        8.214000    9.058000   21.206000
     28          6           0        8.636000    7.765000   21.662000
     29          8           0        7.840000    7.565000   22.839000
     30          1           0        8.415544    7.436286   23.596484
     31          1           0        9.672442    7.794258   21.926258
     32          1           0        7.362319    6.363279   20.642268
     33          1           0        9.944487    7.041591   19.287713
     34          1           0        7.345394    8.376978   18.786741
     35          1           0        9.846858    9.449188   20.017456
     36          1           0        8.615048   11.398625   20.464358
     37          1           0        7.161412   10.700429   19.872784
     38          1           0        8.450170    7.283679   11.690717
     39          1           0        9.088123    5.115194   14.289096
     40          1           0        7.555272    4.771146   15.005487
     41          1           0        6.875100    6.926103   14.801547
     42          1           0        9.404760    7.821482   13.529721
     43          1           0        6.691681    8.993500   14.121891
     44          1           0        9.349486    9.666728   15.320708
     45          1           0        7.047095    8.345913   16.701010
 ---------------------------------------------------------------------
                    Distance matrix (angstroms):
                    1          2          3          4          5
     1  O    0.000000
     2  C    1.435734   0.000000
     3  C    2.382111   1.519506   0.000000
     4  O    2.762937   2.403716   1.435866   0.000000
     5  H    2.259382   2.444922   1.990590   1.000278   0.000000
     6  C    3.743326   2.508298   1.520439   2.430491   3.279694
     7  O    4.838972   3.791482   2.458841   2.932757   3.889859
     8  H    5.666533   4.494116   3.313058   3.811885   4.790819
     9  C    2.859399   2.536684   3.784713   4.906665   4.834447
    10  O    2.882540   3.244616   4.560890   5.457446   5.123593
    11  H    3.868193   4.186229   5.464362   6.426023   6.108849
    12  C    2.446546   1.519847   2.411420   3.692826   3.856062
    13  O    3.718680   2.456627   2.867008   4.195069   4.643899
    14  C    4.201506   2.890062   2.489844   3.760807   4.455484
    15  O    5.489409   4.098031   3.665715   4.716007   5.526393
    16  C    6.604850   5.269042   4.873593   6.015830   6.811717
    17  C    7.031768   5.730318   5.714755   6.958266   7.644293
    18  O    6.346330   5.186793   5.474862   6.825767   7.357275
    19  H    5.385285   4.197134   4.542859   5.884443   6.389264
    20  C    8.383724   7.136734   7.065263   8.333919   9.031174
    21  O    9.110491   7.883299   8.032237   9.306397   9.948334
    22  H    9.978998   8.779116   8.885727  10.177396  10.826834
    23  C    8.092040   6.794387   5.902777   6.660409   7.612781
    24  O    7.398710   6.155055   5.082057   5.600985   6.587437
    25  H    8.108973   6.928169   5.745126   6.090240   7.083575
    26  C    7.911289   6.548096   5.974530   6.935769   7.822689
    27  O    9.031305   7.712694   7.167788   8.204420   9.070956
    28  C    9.377093   8.063472   7.773758   8.921042   9.719825
    29  O   10.508049   9.250569   8.917942  10.094216  10.886886
    30  H   11.283896   9.998084   9.708372  10.863216  11.665278
    31  H    9.790449   8.428469   8.206480   9.290945  10.100318
    32  H    8.389393   7.242067   7.142346   8.470117   9.126744
    33  H    7.303568   5.949888   6.032922   7.176891   7.867770
    34  H    6.534607   5.312838   4.804779   6.012604   6.778032
    35  H    8.213834   6.800930   6.330790   7.202977   8.092413
    36  H    9.083816   7.769540   6.868066   7.531592   8.504764
    37  H    8.235224   7.022730   6.067330   6.891560   7.813294
    38  H    0.960000   1.975298   3.054514   3.148946   2.510081
    39  H    3.321663   2.834806   4.199999   5.222897   5.179935
    40  H    3.785654   3.394643   4.428122   5.682625   5.694028
    41  H    2.671955   2.067812   2.453839   3.797708   3.962260
    42  H    2.074135   1.070000   2.146440   2.674409   2.752492
    43  H    2.594837   2.120958   1.070000   2.047942   2.414857
    44  H    4.051971   2.756113   2.116821   2.627828   3.468022
    45  H    4.516792   3.406089   2.840464   4.155864   4.813558
                    6          7          8          9         10
     6  C    0.000000
     7  O    1.435294   0.000000
     8  H    1.989716   1.000608   0.000000
     9  C    4.350255   5.647006   6.164275   0.000000
    10  O    5.446121   6.703356   7.335023   1.435160   0.000000
    11  H    6.258777   7.498855   8.085123   2.005611   0.999728
    12  C    2.851966   4.127245   4.668054   1.519936   2.702513
    13  O    2.487056   3.707642   3.954191   2.509074   3.904519
    14  C    1.520148   2.408665   2.579009   3.759065   5.057997
    15  O    2.302935   2.762003   2.376796   4.871748   6.252055
    16  C    3.591060   3.783611   3.261551   5.557117   6.960672
    17  C    4.611298   5.112996   4.685509   5.379763   6.786485
    18  O    4.703900   5.480013   5.301925   4.283070   5.628962
    19  H    3.857978   4.788471   4.728796   3.478004   4.879741
    20  C    5.962798   6.272384   5.770878   6.574190   7.923828
    21  O    6.987866   7.464800   6.973386   7.008609   8.310978
    22  H    7.840700   8.228401   7.713765   7.833628   9.098028
    23  C    4.465219   3.815974   2.910388   7.724960   9.073409
    24  O    3.671388   2.771890   1.805505   7.526155   8.802886
    25  H    4.420239   3.320928   2.444551   8.435074   9.675450
    26  C    4.544247   4.365832   3.563150   7.046584   8.454774
    27  O    5.809282   5.567310   4.800242   7.919334   9.310893
    28  C    6.492743   6.524390   5.835001   7.849997   9.235908
    29  O    7.686089   7.604478   6.930110   8.902770  10.239244
    30  H    8.439062   8.380004   7.659158   9.613607  10.959981
    31  H    6.870523   6.967271   6.217377   8.250809   9.658095
    32  H    6.167243   6.425001   6.023292   6.535602   7.811398
    33  H    4.873788   5.464366   4.969421   5.675248   7.091572
    34  H    3.679351   3.711332   3.333038   5.533700   6.867674
    35  H    4.857597   4.803452   3.951542   7.338094   8.765655
    36  H    5.405520   4.697978   3.741372   8.728420  10.092419
    37  H    4.755644   3.995768   3.239907   7.848334   9.149744
    38  H    4.334688   5.482976   6.273170   3.232338   3.065484
    39  H    4.593504   5.980824   6.400191   1.070000   1.984659
    40  H    4.802103   5.998258   6.433884   1.070000   1.984659
    41  H    3.001925   4.016253   4.636865   2.065092   2.984567
    42  H    2.754696   4.110863   4.680490   2.932539   3.669898
    43  H    2.121584   2.666059   3.588455   3.913573   4.577783
    44  H    1.070000   2.042652   2.291721   4.668886   5.779266
    45  H    2.132125   2.563512   2.797030   4.032572   5.245249
                   11         12         13         14         15
    11  H    0.000000
    12  C    3.430744   0.000000
    13  O    4.475156   1.434299   0.000000
    14  C    5.695832   2.373371   1.435263   0.000000
    15  O    6.830618   3.630554   2.363698   1.434610   0.000000
    16  C    7.383033   4.493721   3.166454   2.440427   1.435029
    17  C    7.037311   4.688088   3.324974   3.250008   2.480783
    18  O    5.761680   3.906272   2.748841   3.222962   3.059621
    19  H    5.144934   2.963181   1.758837   2.424597   2.535634
    20  C    8.046419   5.996222   4.715194   4.585251   3.819405
    21  O    8.318089   6.686554   5.431362   5.595809   4.837723
    22  H    9.045441   7.541553   6.322502   6.433914   5.685380
    23  C    9.614187   6.426715   5.261806   4.063675   3.000902
    24  O    9.465259   6.102024   5.110835   3.772440   2.930455
    25  H   10.363169   6.980928   6.059874   4.691851   3.923168
    26  C    8.894949   5.933981   4.604710   3.725458   2.471923
    27  O    9.638371   6.924947   5.614541   4.840219   3.741471
    28  C    9.437124   7.091427   5.745991   5.310857   4.264547
    29  O   10.361128   8.201271   6.927611   6.478371   5.546083
    30  H   11.060693   8.957871   7.646189   7.249576   6.232951
    31  H    9.872473   7.526952   6.125381   5.765727   4.578443
    32  H    7.870641   6.005494   4.869770   4.735460   4.230651
    33  H    7.367784   5.040617   3.633204   3.675753   2.706683
    34  H    7.258609   4.451503   3.314920   2.481355   2.021818
    35  H    9.222148   6.276857   4.892099   4.153441   2.747005
    36  H   10.630337   7.443855   6.242860   5.080736   3.925929
    37  H    9.649245   6.560851   5.494992   4.265262   3.466502
    38  H    4.042516   3.075478   4.273365   4.864152   6.049929
    39  H    2.444395   2.057369   2.646519   4.022055   4.914049
    40  H    2.074561   2.057369   2.665938   3.906119   4.935524
    41  H    3.623537   1.070000   1.991921   2.481054   3.868102
    42  H    4.594345   2.147744   2.700239   3.224653   4.154571
    43  H    5.413133   2.604715   3.204783   2.750659   4.052660
    44  H    6.615433   3.292916   2.800748   2.117150   2.422053
    45  H    5.806250   2.712729   2.057848   1.070000   2.057080
                   16         17         18         19         20
    16  C    0.000000
    17  C    1.520250   0.000000
    18  O    2.531071   1.435109   0.000000
    19  H    2.502680   1.910449   1.000556   0.000000
    20  C    2.527059   1.519593   2.334264   3.159476   0.000000
    21  O    3.726143   2.382330   2.800747   3.726367   1.434903
    22  H    4.465089   3.246093   3.640322   4.605910   1.971668
    23  C    2.530405   3.838057   5.036430   5.006683   4.238725
    24  O    3.141259   4.602397   5.621843   5.336054   5.337662
    25  H    4.098091   5.548013   6.598718   6.329769   6.173925
    26  C    1.519633   2.462717   3.798910   3.937060   2.856663
    27  O    2.469055   2.892273   4.199333   4.628078   2.472975
    28  C    2.909193   2.524672   3.718371   4.397217   1.519842
    29  O    4.133375   3.764061   4.741521   5.520328   2.430813
    30  H    4.861186   4.379401   5.374487   6.184903   3.044789
    31  H    3.395018   2.887195   4.133140   4.779747   2.135031
    32  H    2.924413   2.151748   2.511723   3.353911   1.070000
    33  H    2.100183   1.070000   2.028611   2.349879   2.104087
    34  H    1.070000   2.097756   2.744565   2.746669   2.747852
    35  H    2.131727   2.721759   4.107050   4.223078   3.214790
    36  H    3.414316   4.546481   5.853407   5.902728   4.753649
    37  H    2.813278   4.103840   5.175931   5.205710   4.300957
    38  H    7.230016   7.586709   6.893470   5.919545   8.985562
    39  H    5.650744   5.329274   4.272548   3.473238   6.585174
    40  H    5.347844   4.991735   3.740570   3.113252   6.012566
    41  H    4.561899   4.888304   4.113789   3.281800   6.051961
    42  H    5.426604   5.810970   5.354047   4.356597   7.289996
    43  H    5.050356   5.921498   5.608554   4.747253   7.143724
    44  H    3.847177   4.769238   4.964171   4.109384   6.199784
    45  H    2.533263   3.412848   3.328161   2.706708   4.505272
                   21         22         23         24         25
    21  O    0.000000
    22  H    1.000258   0.000000
    23  C    5.482262   5.979596   0.000000
    24  O    6.565697   7.175365   1.434953   0.000000
    25  H    7.409586   7.960020   2.001099   0.999962   0.000000
    26  C    4.013441   4.585604   1.519179   2.621609   3.406461
    27  O    3.617422   3.891001   2.292079   3.684165   4.275394
    28  C    2.319711   2.493229   3.625181   4.938708   5.618599
    29  O    2.959255   2.608928   4.513580   5.916234   6.469932
    30  H    3.188687   2.687495   5.144014   6.555153   7.069914
    31  H    2.391326   2.619401   4.003632   5.253140   5.912816
    32  H    2.074792   2.288383   4.595469   5.685826   6.494669
    33  H    2.456123   3.412128   4.137806   4.828833   5.763950
    34  H    4.099600   4.705451   2.708382   3.319845   4.203215
    35  H    4.068990   4.705071   2.131151   2.989813   3.725126
    36  H    5.882992   6.290998   1.070000   2.012096   2.152906
    37  H    5.656486   6.046351   1.070000   2.012096   2.393019
    38  H    9.621017  10.521601   8.733331   8.001278   8.707331
    39  H    6.857346   7.733768   7.874883   7.691434   8.624866
    40  H    6.398522   7.151248   7.646498   7.634700   8.567766
    41  H    6.880978   7.655601   6.366619   6.067812   6.900375
    42  H    7.923631   8.868915   6.937049   6.267693   7.047369
    43  H    8.192987   8.978157   6.042668   5.301049   5.923692
    44  H    7.100195   8.005691   4.650374   3.794880   4.529723
    45  H    5.653698   6.384895   4.026713   3.866704   4.726773
                   26         27         28         29         30
    26  C    0.000000
    27  O    1.434738   0.000000
    28  C    2.378719   1.434527   0.000000
    29  O    3.560120   2.244017   1.434902   0.000000
    30  H    4.169780   2.895685   1.974559   0.960000   0.000000
    31  H    2.705612   2.059822   1.070000   2.059976   2.120753
    32  H    3.417958   2.881784   2.151032   2.549107   3.314818
    33  H    2.698188   3.277242   2.805833   4.161065   4.589004
    34  H    2.097470   2.659151   3.210498   4.162301   5.016349
    35  H    1.070000   2.057156   2.647110   3.941923   4.348549
    36  H    2.084926   2.487850   3.825966   4.575621   5.054715
    37  H    2.084926   2.362833   3.740648   4.369191   5.108172
    38  H    8.511696   9.682180   9.984623  11.168513  11.906796
    39  H    7.085109   8.009580   7.847650   8.981104   9.615992
    40  H    6.862897   7.566862   7.378367   8.321696   9.035943
    41  H    6.001528   6.881472   7.132344   8.120337   8.943387
    42  H    6.620004   7.865885   8.168729   9.443354  10.122581
    43  H    6.186469   7.246118   7.883073   8.907707   9.755231
    44  H    4.653323   6.024662   6.658650   7.951134   8.621810
    45  H    3.812197   4.707831   5.241517   6.238065   7.088557
                   31         32         33         34         35
    31  H    0.000000
    32  H    3.005495   0.000000
    33  H    2.757251   2.993747   0.000000
    34  H    3.951111   2.738293   2.964711   0.000000
    35  H    2.532339   4.010755   2.517654   2.986907   0.000000
    36  H    4.030719   5.191887   4.704854   3.681952   2.348911
    37  H    4.355210   4.409460   4.634103   2.571335   2.966168
    38  H   10.320898   9.064261   7.746350   7.264254   8.716350
    39  H    8.114497   6.700665   5.424992   5.822813   7.223108
    40  H    7.843385   5.860496   5.403770   5.229145   7.228781
    41  H    7.703267   5.887969   5.436926   4.267081   6.511759
    42  H    8.400846   7.542297   5.835581   5.673254   6.703400
    43  H    8.439862   7.062799   6.409089   4.750607   6.702274
    44  H    6.873408   6.571196   4.794007   4.206332   4.728017
    45  H    5.873669   4.423090   4.097215   2.107183   4.478247
                   36         37         38         39         40
    36  H    0.000000
    37  H    1.717700   0.000000
    38  H    9.692097   8.959983   0.000000
    39  H    8.822651   8.129246   3.443964   0.000000
    40  H    8.651351   7.681283   4.254570   1.726620   0.000000
    41  H    7.422823   6.328108   3.505135   2.905077   2.268935
    42  H    7.842753   7.318155   2.140657   2.828587   3.860445
    43  H    7.050593   6.017228   3.453459   4.562034   4.399409
    44  H    5.476861   5.155347   4.434470   4.674291   5.223533
    45  H    5.093163   3.951830   5.310367   4.518924   3.988985
                   41         42         43         44         45
    41  H    0.000000
    42  H    2.969583   0.000000
    43  H    2.183965   3.014148   0.000000
    44  H    3.728692   2.572085   2.992378   0.000000
    45  H    2.377688   3.986312   2.682824   2.991787   0.000000
 Stoichiometry    C12H22O11
 Framework group  C1[X(C12H22O11)]
 Deg. of freedom   129
 Full point group                 C1      NOp   1
 Largest Abelian subgroup         C1      NOp   1
 Largest concise Abelian subgroup C1      NOp   1
                         Standard orientation:                         
 ---------------------------------------------------------------------
 Center     Atomic      Atomic             Coordinates (Angstroms)
 Number     Number       Type             X           Y           Z
 ---------------------------------------------------------------------
      1          8           0        5.031101   -0.254204   -0.165979
      2          6           0        3.701844   -0.040186    0.332626
      3          6           0        3.206419    1.275098   -0.244851
      4          8           0        4.096636    2.324885    0.164015
      5          1           0        5.035723    1.992409    0.073837
      6          6           0        1.785619    1.573452    0.206866
      7          8           0        1.251855    2.758660   -0.401777
      8          1           0        0.335794    2.915252   -0.030930
      9          6           0        3.270278   -2.505507   -0.080541
     10          8           0        4.539446   -3.083120   -0.420043
     11          1           0        4.411748   -4.035565   -0.695720
     12          6           0        2.731223   -1.088311   -0.186278
     13          8           0        1.394065   -0.881199    0.289460
     14          6           0        0.880482    0.395891   -0.117053
     15          8           0       -0.315833    0.719892    0.605416
     16          6           0       -1.550789    0.255673    0.040889
     17          6           0       -1.915545   -1.168048    0.429650
     18          8           0       -1.000094   -2.214539    0.074203
     19          1           0       -0.115394   -1.783315    0.254383
     20          6           0       -3.242172   -1.610592   -0.164805
     21          8           0       -3.701583   -2.735569    0.598291
     22          1           0       -4.540093   -3.059005    0.159193
     23          6           0       -2.551545    2.571480   -0.155256
     24          8           0       -1.401084    3.392960    0.091121
     25          1           0       -1.642128    4.351485   -0.060705
     26          6           0       -2.736670    1.152542    0.354889
     27          8           0       -3.942242    0.756488   -0.314595
     28          6           0       -4.338261   -0.577024    0.035811
     29          8           0       -5.438982   -0.827407   -0.850002
     30          1           0       -6.225177   -1.024735   -0.335649
     31          1           0       -4.677345   -0.599704    1.050409
     32          1           0       -3.137082   -1.865497   -1.198671
     33          1           0       -2.019950   -1.185845    1.494396
     34          1           0       -1.426355    0.265321   -1.021807
     35          1           0       -2.902888    1.170459    1.411748
     36          1           0       -3.392090    3.126181    0.206255
     37          1           0       -2.651956    2.517148   -1.219148
     38          1           0        5.630366   -0.395073    0.570660
     39          1           0        3.146525   -2.749771    0.953829
     40          1           0        2.566660   -3.089005   -0.636736
     41          1           0        2.671692   -0.903868   -1.238579
     42          1           0        3.695492   -0.011435    1.402221
     43          1           0        3.220545    1.208706   -1.312696
     44          1           0        1.791707    1.712844    1.267730
     45          1           0        0.672640    0.381437   -1.166573
 ---------------------------------------------------------------------
 Rotational constants (GHZ):      0.4075157      0.1438927      0.1091066
 Standard basis: 6-31+G(2df,p) (6D, 7F)
 There are   846 symmetry adapted basis functions of A   symmetry.
 Integral buffers will be    131072 words long.
 Raffenetti 2 integral format.
 Two-electron integral symmetry is turned on.
   846 basis functions,  1258 primitive gaussians,   915 cartesian basis functions
    91 alpha electrons       91 beta electrons
       nuclear repulsion energy      2282.2240866709 Hartrees.
 NAtoms=   45 NActive=   45 NUniq=   45 SFac= 1.00D+00 NAtFMM=   50 NAOKFM=F Big=F
 One-electron integrals computed using PRISM.
 NBasis=   846 RedAO= T  NBF=   846
 NBsUse=   846 1.00D-06 NBFU=   846
 Harris functional with IExCor=  402 diagonalized for initial guess.
 ExpMin= 4.38D-02 ExpMax= 5.48D+03 ExpMxC= 8.25D+02 IAcc=2 IRadAn=         0 AccDes= 0.00D+00
 HarFok:  IExCor=  402 AccDes= 0.00D+00 IRadAn=         0 IDoV= 1
 ScaDFX=  1.000000  1.000000  1.000000  1.000000
 FoFCou: FMM=F IPFlag=           0 FMFlag=      100000 FMFlg1=           0
         NFxFlg=           0 DoJE=T BraDBF=F KetDBF=T FulRan=T
         Omega=  0.000000  0.000000  1.000000  0.000000  0.000000 ICntrl=     500 IOpCl=  0
         NMat0=    1 NMatS0=    1 NMatT0=    0 NMatD0=    1 NMtDS0=    0 NMtDT0=    0
         I1Cent=           4 NGrid=           0.
 Petite list used in FoFCou.
 Initial guess orbital symmetries:
       Occupied  (A) (A) (A) (A) (A) (A) (A) (A) (A) (A) (A) (A)
                 (A) (A) (A) (A) (A) (A) (A) (A) (A) (A) (A) (A)
                 (A) (A) (A) (A) (A) (A) (A) (A) (A) (A) (A) (A)
                 (A) (A) (A) (A) (A) (A) (A) (A) (A) (A) (A) (A)
                 (A) (A) (A) (A) (A) (A) (A) (A) (A) (A) (A) (A)
                 (A) (A) (A) (A) (A) (A) (A) (A) (A) (A) (A) (A)
                 (A) (A) (A) (A) (A) (A) (A) (A) (A) (A) (A) (A)
                 (A) (A) (A) (A) (A) (A) (A)
       Virtual   (A) (A) (A) (A) (A) (A) (A) (A) (A) (A) (A) (A)
                 (A) (A) (A) (A) (A) (A) (A) (A) (A) (A) (A) (A)
                 (A) (A) (A) (A) (A) (A) (A) (A) (A) (A) (A) (A)
                 (A) (A) (A) (A) (A) (A) (A) (A) (A) (A) (A) (A)
                 (A) (A) (A) (A) (A) (A) (A) (A) (A) (A) (A) (A)
                 (A) (A) (A) (A) (A) (A) (A) (A) (A) (A) (A) (A)
                 (A) (A) (A) (A) (A) (A) (A) (A) (A) (A) (A) (A)
                 (A) (A) (A) (A) (A) (A) (A) (A) (A) (A) (A) (A)
                 (A) (A) (A) (A) (A) (A) (A) (A) (A) (A) (A) (A)
                 (A) (A) (A) (A) (A) (A) (A) (A) (A) (A) (A) (A)
                 (A) (A) (A) (A) (A) (A) (A) (A) (A) (A) (A) (A)
                 (A) (A) (A) (A) (A) (A) (A) (A) (A) (A) (A) (A)
                 (A) (A) (A) (A) (A) (A) (A) (A) (A) (A) (A) (A)
                 (A) (A) (A) (A) (A) (A) (A) (A) (A) (A) (A) (A)
                 (A) (A) (A) (A) (A) (A) (A) (A) (A) (A) (A) (A)
                 (A) (A) (A) (A) (A) (A) (A) (A) (A) (A) (A) (A)
                 (A) (A) (A) (A) (A) (A) (A) (A) (A) (A) (A) (A)
                 (A) (A) (A) (A) (A) (A) (A) (A) (A) (A) (A) (A)
                 (A) (A) (A) (A) (A) (A) (A) (A) (A) (A) (A) (A)
                 (A) (A) (A) (A) (A) (A) (A) (A) (A) (A) (A) (A)
                 (A) (A) (A) (A) (A) (A) (A) (A) (A) (A) (A) (A)
                 (A) (A) (A) (A) (A) (A) (A) (A) (A) (A) (A) (A)
                 (A) (A) (A) (A) (A) (A) (A) (A) (A) (A) (A) (A)
                 (A) (A) (A) (A) (A) (A) (A) (A) (A) (A) (A) (A)
                 (A) (A) (A) (A) (A) (A) (A) (A) (A) (A) (A) (A)
                 (A) (A) (A) (A) (A) (A) (A) (A) (A) (A) (A) (A)
                 (A) (A) (A) (A) (A) (A) (A) (A) (A) (A) (A) (A)
                 (A) (A) (A) (A) (A) (A) (A) (A) (A) (A) (A) (A)
                 (A) (A) (A) (A) (A) (A) (A) (A) (A) (A) (A) (A)
                 (A) (A) (A) (A) (A) (A) (A) (A) (A) (A) (A) (A)
                 (A) (A) (A) (A) (A) (A) (A) (A) (A) (A) (A) (A)
                 (A) (A) (A) (A) (A) (A) (A) (A) (A) (A) (A) (A)
                 (A) (A) (A) (A) (A) (A) (A) (A) (A) (A) (A) (A)
                 (A) (A) (A) (A) (A) (A) (A) (A) (A) (A) (A) (A)
                 (A) (A) (A) (A) (A) (A) (A) (A) (A) (A) (A) (A)
                 (A) (A) (A) (A) (A) (A) (A) (A) (A) (A) (A) (A)
                 (A) (A) (A) (A) (A) (A) (A) (A) (A) (A) (A) (A)
                 (A) (A) (A) (A) (A) (A) (A) (A) (A) (A) (A) (A)
                 (A) (A) (A) (A) (A) (A) (A) (A) (A) (A) (A) (A)
                 (A) (A) (A) (A) (A) (A) (A) (A) (A) (A) (A) (A)
                 (A) (A) (A) (A) (A) (A) (A) (A) (A) (A) (A) (A)
                 (A) (A) (A) (A) (A) (A) (A) (A) (A) (A) (A) (A)
                 (A) (A) (A) (A) (A) (A) (A) (A) (A) (A) (A) (A)
                 (A) (A) (A) (A) (A) (A) (A) (A) (A) (A) (A) (A)
                 (A) (A) (A) (A) (A) (A) (A) (A) (A) (A) (A) (A)
                 (A) (A) (A) (A) (A) (A) (A) (A) (A) (A) (A) (A)
                 (A) (A) (A) (A) (A) (A) (A) (A) (A) (A) (A) (A)
                 (A) (A) (A) (A) (A) (A) (A) (A) (A) (A) (A) (A)
                 (A) (A) (A) (A) (A) (A) (A) (A) (A) (A) (A) (A)
                 (A) (A) (A) (A) (A) (A) (A) (A) (A) (A) (A) (A)
                 (A) (A) (A) (A) (A) (A) (A) (A) (A) (A) (A) (A)
                 (A) (A) (A) (A) (A) (A) (A) (A) (A) (A) (A) (A)
                 (A) (A) (A) (A) (A) (A) (A) (A) (A) (A) (A) (A)
                 (A) (A) (A) (A) (A) (A) (A) (A) (A) (A) (A) (A)
                 (A) (A) (A) (A) (A) (A) (A) (A) (A) (A) (A) (A)
                 (A) (A) (A) (A) (A) (A) (A) (A) (A) (A) (A) (A)
                 (A) (A) (A) (A) (A) (A) (A) (A) (A) (A) (A) (A)
                 (A) (A) (A) (A) (A) (A) (A) (A) (A) (A) (A) (A)
                 (A) (A) (A) (A) (A) (A) (A) (A) (A) (A) (A) (A)
                 (A) (A) (A) (A) (A) (A) (A) (A) (A) (A) (A) (A)
                 (A) (A) (A) (A) (A) (A) (A) (A) (A) (A) (A) (A)
                 (A) (A) (A) (A) (A) (A) (A) (A) (A) (A) (A) (A)
                 (A) (A) (A) (A) (A) (A) (A) (A) (A) (A) (A)
 The electronic state of the initial guess is 1-A.
 Requested convergence on RMS density matrix=1.00D-08 within 128 cycles.
 Requested convergence on MAX density matrix=1.00D-06.
 Requested convergence on             energy=1.00D-06.
 No special actions if energy rises.
 SCF Done:  E(RB3LYP) =  -1297.99844119     A.U. after   14 cycles
             Convg  =    0.1771D-08             -V/T =  2.0065
 Range of M.O.s used for correlation:     1   846
 NBasis=   846 NAE=    91 NBE=    91 NFC=     0 NFV=     0
 NROrb=    846 NOA=    91 NOB=    91 NVA=   755 NVB=   755

 **** Warning!!: The largest alpha MO coefficient is  0.68358659D+02

          Differentiating once with respect to electric field.
                with respect to dipole field.
          Electric field/nuclear overlap derivatives assumed to be zero.
          There are     3 degrees of freedom in the 1st order CPHF.  IDoFFX=0.
      3 vectors produced by pass  0 Test12= 2.29D-12 3.33D-08 XBig12= 1.22D+02 1.35D+00.
 AX will form     3 AO Fock derivatives at one time.
      3 vectors produced by pass  1 Test12= 2.29D-12 3.33D-08 XBig12= 2.31D+01 3.95D-01.
      3 vectors produced by pass  2 Test12= 2.29D-12 3.33D-08 XBig12= 9.69D+00 2.57D-01.
      3 vectors produced by pass  3 Test12= 2.29D-12 3.33D-08 XBig12= 1.07D+00 9.08D-02.
      3 vectors produced by pass  4 Test12= 2.29D-12 3.33D-08 XBig12= 2.72D-01 3.62D-02.
      3 vectors produced by pass  5 Test12= 2.29D-12 3.33D-08 XBig12= 6.17D-02 2.26D-02.
      3 vectors produced by pass  6 Test12= 2.29D-12 3.33D-08 XBig12= 1.99D-02 1.94D-02.
      3 vectors produced by pass  7 Test12= 2.29D-12 3.33D-08 XBig12= 2.85D-03 1.18D-02.
      3 vectors produced by pass  8 Test12= 2.29D-12 3.33D-08 XBig12= 5.85D-04 3.24D-03.
      3 vectors produced by pass  9 Test12= 2.29D-12 3.33D-08 XBig12= 1.78D-04 1.92D-03.
      3 vectors produced by pass 10 Test12= 2.29D-12 3.33D-08 XBig12= 3.89D-05 7.11D-04.
      3 vectors produced by pass 11 Test12= 2.29D-12 3.33D-08 XBig12= 7.92D-06 4.67D-04.
      3 vectors produced by pass 12 Test12= 2.29D-12 3.33D-08 XBig12= 1.29D-06 1.41D-04.
      3 vectors produced by pass 13 Test12= 2.29D-12 3.33D-08 XBig12= 4.45D-07 5.34D-05.
      3 vectors produced by pass 14 Test12= 2.29D-12 3.33D-08 XBig12= 6.10D-08 2.70D-05.
      3 vectors produced by pass 15 Test12= 2.29D-12 3.33D-08 XBig12= 8.11D-09 9.84D-06.
      3 vectors produced by pass 16 Test12= 2.29D-12 3.33D-08 XBig12= 1.42D-09 5.02D-06.
      3 vectors produced by pass 17 Test12= 2.29D-12 3.33D-08 XBig12= 1.48D-10 1.45D-06.
      3 vectors produced by pass 18 Test12= 2.29D-12 3.33D-08 XBig12= 2.61D-11 3.26D-07.
      3 vectors produced by pass 19 Test12= 2.29D-12 3.33D-08 XBig12= 9.45D-12 2.27D-07.
      3 vectors produced by pass 20 Test12= 2.29D-12 3.33D-08 XBig12= 7.00D-12 1.72D-07.
      2 vectors produced by pass 21 Test12= 2.29D-12 3.33D-08 XBig12= 3.76D-12 1.49D-07.
      1 vectors produced by pass 22 Test12= 2.29D-12 3.33D-08 XBig12= 8.42D-13 5.21D-08.
 Inverted reduced A of dimension    66 with in-core refinement.
 End of Minotr Frequency-dependent properties file   721 does not exist.
 End of Minotr Frequency-dependent properties file   722 does not exist.
 Symmetrizing basis deriv contribution to polar:
 IMax=3 JMax=2 DiffMx= 0.00D+00
 G2DrvN: will do     8 centers at a time, making    6 passes doing MaxLOS=3.
 Calling FoFCou, ICntrl=  3107 FMM=F I1Cent=   0 AccDes= 0.00D+00.
 Calling FoFCou, ICntrl=  3107 FMM=F I1Cent=   0 AccDes= 0.00D+00.
 Calling FoFCou, ICntrl=  3107 FMM=F I1Cent=   0 AccDes= 0.00D+00.
 Calling FoFCou, ICntrl=  3107 FMM=F I1Cent=   0 AccDes= 0.00D+00.
 Calling FoFCou, ICntrl=  3107 FMM=F I1Cent=   0 AccDes= 0.00D+00.
 Calling FoFCou, ICntrl=  3107 FMM=F I1Cent=   0 AccDes= 0.00D+00.
 FoFDir/FoFCou used for L=0 through L=3.
 End of G2Drv Frequency-dependent properties file   721 does not exist.
 End of G2Drv Frequency-dependent properties file   722 does not exist.
          IDoAtm=111111111111111111111111111111111111111111111
          Differentiating once with respect to electric field.
                with respect to dipole field.
          Differentiating once with respect to nuclear coordinates.
          There are   138 degrees of freedom in the 1st order CPHF.  IDoFFX=5.
 Will reuse    3 saved solutions.
    135 vectors produced by pass  0 Test12= 6.87D-14 1.00D-09 XBig12= 1.98D-01 1.23D-01.
 AX will form    27 AO Fock derivatives at one time.
    135 vectors produced by pass  1 Test12= 6.87D-14 1.00D-09 XBig12= 2.22D-02 1.36D-02.
    132 vectors produced by pass  2 Test12= 6.87D-14 1.00D-09 XBig12= 1.75D-04 2.08D-03.
    132 vectors produced by pass  3 Test12= 6.87D-14 1.00D-09 XBig12= 9.31D-07 6.12D-05.
    132 vectors produced by pass  4 Test12= 6.87D-14 1.00D-09 XBig12= 2.19D-09 3.34D-06.
    132 vectors produced by pass  5 Test12= 6.87D-14 1.00D-09 XBig12= 5.36D-12 1.20D-07.
     96 vectors produced by pass  6 Test12= 6.87D-14 1.00D-09 XBig12= 2.55D-13 2.88D-08.
      1 vectors produced by pass  7 Test12= 6.87D-14 1.00D-09 XBig12= 7.29D-16 1.30D-09.
 Inverted reduced A of dimension   895 with in-core refinement.
 Isotropic polarizability for W=    0.000000      191.84 Bohr**3.
 End of Minotr Frequency-dependent properties file   721 does not exist.
 End of Minotr Frequency-dependent properties file   722 does not exist.

 **********************************************************************

            Population analysis using the SCF density.

 **********************************************************************

 Orbital symmetries:
       Occupied  (A) (A) (A) (A) (A) (A) (A) (A) (A) (A) (A) (A)
                 (A) (A) (A) (A) (A) (A) (A) (A) (A) (A) (A) (A)
                 (A) (A) (A) (A) (A) (A) (A) (A) (A) (A) (A) (A)
                 (A) (A) (A) (A) (A) (A) (A) (A) (A) (A) (A) (A)
                 (A) (A) (A) (A) (A) (A) (A) (A) (A) (A) (A) (A)
                 (A) (A) (A) (A) (A) (A) (A) (A) (A) (A) (A) (A)
                 (A) (A) (A) (A) (A) (A) (A) (A) (A) (A) (A) (A)
                 (A) (A) (A) (A) (A) (A) (A)
       Virtual   (A) (A) (A) (A) (A) (A) (A) (A) (A) (A) (A) (A)
                 (A) (A) (A) (A) (A) (A) (A) (A) (A) (A) (A) (A)
                 (A) (A) (A) (A) (A) (A) (A) (A) (A) (A) (A) (A)
                 (A) (A) (A) (A) (A) (A) (A) (A) (A) (A) (A) (A)
                 (A) (A) (A) (A) (A) (A) (A) (A) (A) (A) (A) (A)
                 (A) (A) (A) (A) (A) (A) (A) (A) (A) (A) (A) (A)
                 (A) (A) (A) (A) (A) (A) (A) (A) (A) (A) (A) (A)
                 (A) (A) (A) (A) (A) (A) (A) (A) (A) (A) (A) (A)
                 (A) (A) (A) (A) (A) (A) (A) (A) (A) (A) (A) (A)
                 (A) (A) (A) (A) (A) (A) (A) (A) (A) (A) (A) (A)
                 (A) (A) (A) (A) (A) (A) (A) (A) (A) (A) (A) (A)
                 (A) (A) (A) (A) (A) (A) (A) (A) (A) (A) (A) (A)
                 (A) (A) (A) (A) (A) (A) (A) (A) (A) (A) (A) (A)
                 (A) (A) (A) (A) (A) (A) (A) (A) (A) (A) (A) (A)
                 (A) (A) (A) (A) (A) (A) (A) (A) (A) (A) (A) (A)
                 (A) (A) (A) (A) (A) (A) (A) (A) (A) (A) (A) (A)
                 (A) (A) (A) (A) (A) (A) (A) (A) (A) (A) (A) (A)
                 (A) (A) (A) (A) (A) (A) (A) (A) (A) (A) (A) (A)
                 (A) (A) (A) (A) (A) (A) (A) (A) (A) (A) (A) (A)
                 (A) (A) (A) (A) (A) (A) (A) (A) (A) (A) (A) (A)
                 (A) (A) (A) (A) (A) (A) (A) (A) (A) (A) (A) (A)
                 (A) (A) (A) (A) (A) (A) (A) (A) (A) (A) (A) (A)
                 (A) (A) (A) (A) (A) (A) (A) (A) (A) (A) (A) (A)
                 (A) (A) (A) (A) (A) (A) (A) (A) (A) (A) (A) (A)
                 (A) (A) (A) (A) (A) (A) (A) (A) (A) (A) (A) (A)
                 (A) (A) (A) (A) (A) (A) (A) (A) (A) (A) (A) (A)
                 (A) (A) (A) (A) (A) (A) (A) (A) (A) (A) (A) (A)
                 (A) (A) (A) (A) (A) (A) (A) (A) (A) (A) (A) (A)
                 (A) (A) (A) (A) (A) (A) (A) (A) (A) (A) (A) (A)
                 (A) (A) (A) (A) (A) (A) (A) (A) (A) (A) (A) (A)
                 (A) (A) (A) (A) (A) (A) (A) (A) (A) (A) (A) (A)
                 (A) (A) (A) (A) (A) (A) (A) (A) (A) (A) (A) (A)
                 (A) (A) (A) (A) (A) (A) (A) (A) (A) (A) (A) (A)
                 (A) (A) (A) (A) (A) (A) (A) (A) (A) (A) (A) (A)
                 (A) (A) (A) (A) (A) (A) (A) (A) (A) (A) (A) (A)
                 (A) (A) (A) (A) (A) (A) (A) (A) (A) (A) (A) (A)
                 (A) (A) (A) (A) (A) (A) (A) (A) (A) (A) (A) (A)
                 (A) (A) (A) (A) (A) (A) (A) (A) (A) (A) (A) (A)
                 (A) (A) (A) (A) (A) (A) (A) (A) (A) (A) (A) (A)
                 (A) (A) (A) (A) (A) (A) (A) (A) (A) (A) (A) (A)
                 (A) (A) (A) (A) (A) (A) (A) (A) (A) (A) (A) (A)
                 (A) (A) (A) (A) (A) (A) (A) (A) (A) (A) (A) (A)
                 (A) (A) (A) (A) (A) (A) (A) (A) (A) (A) (A) (A)
                 (A) (A) (A) (A) (A) (A) (A) (A) (A) (A) (A) (A)
                 (A) (A) (A) (A) (A) (A) (A) (A) (A) (A) (A) (A)
                 (A) (A) (A) (A) (A) (A) (A) (A) (A) (A) (A) (A)
                 (A) (A) (A) (A) (A) (A) (A) (A) (A) (A) (A) (A)
                 (A) (A) (A) (A) (A) (A) (A) (A) (A) (A) (A) (A)
                 (A) (A) (A) (A) (A) (A) (A) (A) (A) (A) (A) (A)
                 (A) (A) (A) (A) (A) (A) (A) (A) (A) (A) (A) (A)
                 (A) (A) (A) (A) (A) (A) (A) (A) (A) (A) (A) (A)
                 (A) (A) (A) (A) (A) (A) (A) (A) (A) (A) (A) (A)
                 (A) (A) (A) (A) (A) (A) (A) (A) (A) (A) (A) (A)
                 (A) (A) (A) (A) (A) (A) (A) (A) (A) (A) (A) (A)
                 (A) (A) (A) (A) (A) (A) (A) (A) (A) (A) (A) (A)
                 (A) (A) (A) (A) (A) (A) (A) (A) (A) (A) (A) (A)
                 (A) (A) (A) (A) (A) (A) (A) (A) (A) (A) (A) (A)
                 (A) (A) (A) (A) (A) (A) (A) (A) (A) (A) (A) (A)
                 (A) (A) (A) (A) (A) (A) (A) (A) (A) (A) (A) (A)
                 (A) (A) (A) (A) (A) (A) (A) (A) (A) (A) (A) (A)
                 (A) (A) (A) (A) (A) (A) (A) (A) (A) (A) (A) (A)
                 (A) (A) (A) (A) (A) (A) (A) (A) (A) (A) (A) (A)
                 (A) (A) (A) (A) (A) (A) (A) (A) (A) (A) (A)
 The electronic state is 1-A.
 Alpha  occ. eigenvalues --  -19.19861 -19.18803 -19.18180 -19.18070 -19.17904
 Alpha  occ. eigenvalues --  -19.17328 -19.16511 -19.16217 -19.14441 -19.14048
 Alpha  occ. eigenvalues --  -19.13429 -10.30792 -10.30139 -10.26483 -10.26231
 Alpha  occ. eigenvalues --  -10.25688 -10.25111 -10.24808 -10.24567 -10.24419
 Alpha  occ. eigenvalues --  -10.24034 -10.24021 -10.23761  -1.10391  -1.09141
 Alpha  occ. eigenvalues --   -1.05729  -1.05015  -1.04440  -1.03684  -1.02881
 Alpha  occ. eigenvalues --   -1.02718  -1.01422  -1.00797  -0.99684  -0.82335
 Alpha  occ. eigenvalues --   -0.81022  -0.79011  -0.78207  -0.72015  -0.69941
 Alpha  occ. eigenvalues --   -0.67252  -0.64981  -0.63134  -0.62742  -0.61320
 Alpha  occ. eigenvalues --   -0.60325  -0.56350  -0.55692  -0.55007  -0.54865
 Alpha  occ. eigenvalues --   -0.53856  -0.53252  -0.52449  -0.52316  -0.51719
 Alpha  occ. eigenvalues --   -0.50588  -0.49880  -0.49370  -0.48622  -0.46560
 Alpha  occ. eigenvalues --   -0.45675  -0.45166  -0.44221  -0.43794  -0.43293
 Alpha  occ. eigenvalues --   -0.42460  -0.41978  -0.41134  -0.40024  -0.39741
 Alpha  occ. eigenvalues --   -0.39064  -0.38083  -0.37385  -0.36997  -0.35872
 Alpha  occ. eigenvalues --   -0.35261  -0.35118  -0.33982  -0.33835  -0.33281
 Alpha  occ. eigenvalues --   -0.32934  -0.31217  -0.30775  -0.30398  -0.30288
 Alpha  occ. eigenvalues --   -0.29639  -0.28783  -0.28389  -0.27543  -0.26668
 Alpha  occ. eigenvalues --   -0.26558
 Alpha virt. eigenvalues --   -0.02229  -0.01923  -0.01822  -0.00414   0.00457
 Alpha virt. eigenvalues --    0.01219   0.01794   0.02438   0.03061   0.03550
 Alpha virt. eigenvalues --    0.03880   0.04280   0.04768   0.05275   0.05539
 Alpha virt. eigenvalues --    0.05976   0.06624   0.07202   0.07561   0.07877
 Alpha virt. eigenvalues --    0.08541   0.08749   0.08956   0.09498   0.09792
 Alpha virt. eigenvalues --    0.10291   0.10997   0.11358   0.11858   0.12361
 Alpha virt. eigenvalues --    0.12434   0.12693   0.12837   0.13293   0.13330
 Alpha virt. eigenvalues --    0.14164   0.14391   0.14470   0.14740   0.15041
 Alpha virt. eigenvalues --    0.16042   0.16230   0.16668   0.16856   0.17081
 Alpha virt. eigenvalues --    0.17219   0.17421   0.17697   0.18261   0.18493
 Alpha virt. eigenvalues --    0.18678   0.19130   0.19331   0.19452   0.19910
 Alpha virt. eigenvalues --    0.20374   0.20715   0.21211   0.21247   0.21640
 Alpha virt. eigenvalues --    0.21940   0.22230   0.22410   0.23025   0.23165
 Alpha virt. eigenvalues --    0.23632   0.23930   0.24260   0.24472   0.24662
 Alpha virt. eigenvalues --    0.24858   0.25112   0.25693   0.25779   0.26158
 Alpha virt. eigenvalues --    0.26321   0.26747   0.26823   0.27003   0.27074
 Alpha virt. eigenvalues --    0.27389   0.27588   0.28179   0.28530   0.28762
 Alpha virt. eigenvalues --    0.28968   0.29662   0.30104   0.30460   0.30808
 Alpha virt. eigenvalues --    0.31021   0.31421   0.31624   0.31881   0.32517
 Alpha virt. eigenvalues --    0.32860   0.32907   0.33299   0.33315   0.33875
 Alpha virt. eigenvalues --    0.34119   0.34522   0.34983   0.35443   0.35890
 Alpha virt. eigenvalues --    0.36128   0.36250   0.36768   0.37194   0.37618
 Alpha virt. eigenvalues --    0.38164   0.38254   0.38469   0.38783   0.38902
 Alpha virt. eigenvalues --    0.39382   0.39974   0.40513   0.40846   0.41394
 Alpha virt. eigenvalues --    0.41760   0.42550   0.42994   0.43340   0.43536
 Alpha virt. eigenvalues --    0.43939   0.44546   0.44981   0.46300   0.46891
 Alpha virt. eigenvalues --    0.46987   0.47621   0.48272   0.48843   0.49705
 Alpha virt. eigenvalues --    0.50336   0.50718   0.52280   0.56825   0.58500
 Alpha virt. eigenvalues --    0.59027   0.59360   0.60430   0.61434   0.62157
 Alpha virt. eigenvalues --    0.62923   0.63837   0.63935   0.64800   0.66330
 Alpha virt. eigenvalues --    0.66461   0.66555   0.67601   0.68551   0.69477
 Alpha virt. eigenvalues --    0.69812   0.70801   0.71901   0.72756   0.73135
 Alpha virt. eigenvalues --    0.73769   0.74116   0.74909   0.76433   0.76852
 Alpha virt. eigenvalues --    0.77310   0.77513   0.78783   0.80015   0.81512
 Alpha virt. eigenvalues --    0.81940   0.82337   0.82770   0.83656   0.84137
 Alpha virt. eigenvalues --    0.84911   0.87207   0.87686   0.87757   0.88367
 Alpha virt. eigenvalues --    0.89431   0.89779   0.90358   0.90579   0.91069
 Alpha virt. eigenvalues --    0.91174   0.91806   0.92366   0.93039   0.93554
 Alpha virt. eigenvalues --    0.94061   0.94601   0.95069   0.95236   0.95802
 Alpha virt. eigenvalues --    0.96748   0.97053   0.97287   0.97788   0.98267
 Alpha virt. eigenvalues --    0.98440   0.99203   1.00131   1.00666   1.01569
 Alpha virt. eigenvalues --    1.02882   1.03496   1.04026   1.04599   1.05286
 Alpha virt. eigenvalues --    1.06405   1.06631   1.07114   1.07382   1.08054
 Alpha virt. eigenvalues --    1.08350   1.08689   1.09303   1.10237   1.11158
 Alpha virt. eigenvalues --    1.11245   1.12662   1.12923   1.13680   1.13773
 Alpha virt. eigenvalues --    1.14278   1.15113   1.15389   1.15716   1.16420
 Alpha virt. eigenvalues --    1.16689   1.17683   1.18122   1.18929   1.19097
 Alpha virt. eigenvalues --    1.19359   1.20285   1.20679   1.21241   1.22242
 Alpha virt. eigenvalues --    1.22485   1.23350   1.23497   1.24023   1.24732
 Alpha virt. eigenvalues --    1.25332   1.25820   1.25928   1.26836   1.27672
 Alpha virt. eigenvalues --    1.28198   1.28537   1.28887   1.29355   1.30057
 Alpha virt. eigenvalues --    1.30798   1.31125   1.32202   1.32784   1.33175
 Alpha virt. eigenvalues --    1.33757   1.34091   1.35281   1.35647   1.36406
 Alpha virt. eigenvalues --    1.37149   1.37980   1.38354   1.38630   1.39647
 Alpha virt. eigenvalues --    1.39867   1.41049   1.41296   1.41787   1.43145
 Alpha virt. eigenvalues --    1.43924   1.45442   1.45542   1.46317   1.47548
 Alpha virt. eigenvalues --    1.47772   1.48099   1.48975   1.49863   1.51432
 Alpha virt. eigenvalues --    1.51855   1.52538   1.53454   1.54161   1.55978
 Alpha virt. eigenvalues --    1.56330   1.57236   1.57642   1.58113   1.58941
 Alpha virt. eigenvalues --    1.60262   1.61130   1.61741   1.62520   1.63098
 Alpha virt. eigenvalues --    1.63891   1.65412   1.66000   1.66362   1.67062
 Alpha virt. eigenvalues --    1.67984   1.68979   1.70055   1.71146   1.71614
 Alpha virt. eigenvalues --    1.72770   1.73910   1.74890   1.76303   1.76636
 Alpha virt. eigenvalues --    1.78471   1.79219   1.79283   1.80952   1.82094
 Alpha virt. eigenvalues --    1.83119   1.84082   1.84242   1.84412   1.85164
 Alpha virt. eigenvalues --    1.86584   1.87135   1.88123   1.88923   1.89910
 Alpha virt. eigenvalues --    1.91356   1.91899   1.92518   1.93763   1.95077
 Alpha virt. eigenvalues --    1.96887   1.97876   1.98917   1.99346   2.00411
 Alpha virt. eigenvalues --    2.01540   2.02226   2.03764   2.04732   2.05081
 Alpha virt. eigenvalues --    2.07544   2.08906   2.09653   2.10652   2.12161
 Alpha virt. eigenvalues --    2.15002   2.15589   2.16402   2.18661   2.20286
 Alpha virt. eigenvalues --    2.20829   2.21787   2.22638   2.23594   2.24857
 Alpha virt. eigenvalues --    2.28190   2.28243   2.29537   2.30442   2.30755
 Alpha virt. eigenvalues --    2.32203   2.34343   2.36133   2.39575   2.41572
 Alpha virt. eigenvalues --    2.44643   2.45496   2.46941   2.48966   2.49651
 Alpha virt. eigenvalues --    2.50612   2.51172   2.52222   2.53010   2.54966
 Alpha virt. eigenvalues --    2.55859   2.57134   2.58455   2.59305   2.60348
 Alpha virt. eigenvalues --    2.61734   2.63358   2.63891   2.64911   2.65554
 Alpha virt. eigenvalues --    2.66312   2.67999   2.68394   2.69407   2.70764
 Alpha virt. eigenvalues --    2.72791   2.73652   2.75697   2.75975   2.77785
 Alpha virt. eigenvalues --    2.79052   2.80485   2.80582   2.82580   2.83356
 Alpha virt. eigenvalues --    2.84002   2.85324   2.85988   2.86610   2.87627
 Alpha virt. eigenvalues --    2.88666   2.89695   2.91006   2.91296   2.93034
 Alpha virt. eigenvalues --    2.93843   2.95630   2.95792   2.97144   2.97882
 Alpha virt. eigenvalues --    2.99226   3.00641   3.01789   3.02177   3.02940
 Alpha virt. eigenvalues --    3.03387   3.04131   3.04765   3.05413   3.05990
 Alpha virt. eigenvalues --    3.07587   3.08137   3.09813   3.10657   3.11025
 Alpha virt. eigenvalues --    3.11967   3.12346   3.13201   3.15149   3.17250
 Alpha virt. eigenvalues --    3.18636   3.20525   3.21620   3.23346   3.24262
 Alpha virt. eigenvalues --    3.24433   3.25525   3.25844   3.27028   3.27634
 Alpha virt. eigenvalues --    3.28731   3.30844   3.31812   3.32758   3.33617
 Alpha virt. eigenvalues --    3.34234   3.34995   3.36639   3.39149   3.40314
 Alpha virt. eigenvalues --    3.40567   3.41793   3.42417   3.44167   3.45593
 Alpha virt. eigenvalues --    3.46309   3.47738   3.48161   3.48841   3.52044
 Alpha virt. eigenvalues --    3.53071   3.55087   3.57675   3.58993   3.59517
 Alpha virt. eigenvalues --    3.62212   3.63842   3.64463   3.64940   3.66253
 Alpha virt. eigenvalues --    3.68272   3.69479   3.70953   3.72069   3.74400
 Alpha virt. eigenvalues --    3.74995   3.75866   3.76821   3.79217   3.80355
 Alpha virt. eigenvalues --    3.80737   3.82031   3.82533   3.83549   3.84435
 Alpha virt. eigenvalues --    3.86259   3.86883   3.88251   3.89164   3.92556
 Alpha virt. eigenvalues --    3.93734   3.95759   3.98989   4.01060   4.03142
 Alpha virt. eigenvalues --    4.05205   4.06497   4.07334   4.08941   4.14910
 Alpha virt. eigenvalues --    4.15703   4.16100   4.16916   4.18675   4.18879
 Alpha virt. eigenvalues --    4.19744   4.21198   4.22069   4.23375   4.24318
 Alpha virt. eigenvalues --    4.26254   4.27477   4.27973   4.29000   4.29711
 Alpha virt. eigenvalues --    4.30418   4.31441   4.32972   4.33501   4.34516
 Alpha virt. eigenvalues --    4.35485   4.36267   4.37804   4.38430   4.39218
 Alpha virt. eigenvalues --    4.39600   4.40645   4.41438   4.42378   4.43863
 Alpha virt. eigenvalues --    4.44313   4.45161   4.45384   4.47047   4.47518
 Alpha virt. eigenvalues --    4.47887   4.48675   4.49510   4.49814   4.50786
 Alpha virt. eigenvalues --    4.51188   4.51476   4.53093   4.53672   4.54278
 Alpha virt. eigenvalues --    4.54987   4.56278   4.56864   4.57368   4.57586
 Alpha virt. eigenvalues --    4.58650   4.59154   4.59924   4.61219   4.61631
 Alpha virt. eigenvalues --    4.62362   4.62934   4.63241   4.63574   4.64451
 Alpha virt. eigenvalues --    4.65250   4.66314   4.66371   4.67805   4.68161
 Alpha virt. eigenvalues --    4.68561   4.70579   4.71475   4.71824   4.72119
 Alpha virt. eigenvalues --    4.72920   4.74422   4.74833   4.75263   4.76302
 Alpha virt. eigenvalues --    4.77140   4.77918   4.78185   4.78720   4.79101
 Alpha virt. eigenvalues --    4.79967   4.80263   4.81010   4.82121   4.83027
 Alpha virt. eigenvalues --    4.83616   4.84612   4.84895   4.85544   4.86782
 Alpha virt. eigenvalues --    4.86979   4.87181   4.88536   4.89022   4.91047
 Alpha virt. eigenvalues --    4.91848   4.93437   4.95136   4.95620   4.96550
 Alpha virt. eigenvalues --    4.98145   4.99574   4.99803   5.01508   5.01711
 Alpha virt. eigenvalues --    5.03828   5.04621   5.07047   5.10356   5.10530
 Alpha virt. eigenvalues --    5.12442   5.14485   5.15813   5.16481   5.17696
 Alpha virt. eigenvalues --    5.18121   5.18754   5.19326   5.19470   5.22616
 Alpha virt. eigenvalues --    5.23701   5.25558   5.25822   5.27257   5.29624
 Alpha virt. eigenvalues --    5.30386   5.31504   5.33480   5.33994   5.34791
 Alpha virt. eigenvalues --    5.35554   5.36886   5.37835   5.38686   5.38869
 Alpha virt. eigenvalues --    5.40177   5.42532   5.43192   5.43739   5.43847
 Alpha virt. eigenvalues --    5.44643   5.45233   5.46231   5.46626   5.47444
 Alpha virt. eigenvalues --    5.48065   5.48749   5.49998   5.51813   5.52982
 Alpha virt. eigenvalues --    5.53470   5.54456   5.55195   5.55528   5.57290
 Alpha virt. eigenvalues --    5.58162   5.58501   5.60653   5.63708   5.65489
 Alpha virt. eigenvalues --    5.66489   5.69480   5.70854   5.71389   5.73391
 Alpha virt. eigenvalues --    5.75660   5.77589   5.78605   5.80458   5.81400
 Alpha virt. eigenvalues --    5.84453   5.86776   5.87130   5.89635   5.90224
 Alpha virt. eigenvalues --    5.90537   5.91543   5.92352   5.94306   5.95075
 Alpha virt. eigenvalues --    5.96462   5.96672   5.97841   5.97929   6.01987
 Alpha virt. eigenvalues --    6.02829   6.03275   6.04792   6.04954   6.07542
 Alpha virt. eigenvalues --    6.08765   6.09402   6.10673   6.11479   6.12382
 Alpha virt. eigenvalues --    6.12957   6.17349   6.17699   6.20294   6.23344
 Alpha virt. eigenvalues --    6.26648   6.29009   6.31281   6.33341   6.38194
 Alpha virt. eigenvalues --    6.53161   6.65934   6.97849   7.02035   7.07077
 Alpha virt. eigenvalues --    7.11855   7.15868   7.25137   7.26458   7.30998
 Alpha virt. eigenvalues --    7.31571   7.34261   7.50622   7.51420   7.69472
 Alpha virt. eigenvalues --    7.80894   8.08205  11.98123  12.13684  12.19225
 Alpha virt. eigenvalues --   12.26832  12.44434  12.54571  12.78647  12.94015
 Alpha virt. eigenvalues --   12.96738  13.10120  13.24080  13.33651  13.40342
 Alpha virt. eigenvalues --   13.46919  13.49400  13.57623  13.61142  13.64691
 Alpha virt. eigenvalues --   13.75668  13.76437  13.90273  14.07192  14.18595
          Condensed to atoms (all electrons):
              1          2          3          4          5          6
     1  O    8.079401   0.267564  -0.050395  -0.024493   0.022535   0.000512
     2  C    0.267564   7.205846   0.006371   0.045800  -0.063352  -1.538078
     3  C   -0.050395   0.006371   6.733991   0.193397   0.007858  -0.016099
     4  O   -0.024493   0.045800   0.193397   8.106170   0.241459  -0.122611
     5  H    0.022535  -0.063352   0.007858   0.241459   0.417894   0.010569
     6  C    0.000512  -1.538078  -0.016099  -0.122611   0.010569   9.038572
     7  O   -0.000041   0.014019  -0.111838   0.008135  -0.000496   0.254120
     8  H    0.000008  -0.004048   0.016603  -0.000324   0.000013   0.027734
     9  C   -0.002608  -0.859416  -0.444358   0.012900  -0.004997   0.776157
    10  O   -0.019458   0.034579   0.000462  -0.000194   0.000013   0.000217
    11  H    0.002180  -0.012597   0.000152   0.000001   0.000000   0.000788
    12  C   -0.121029  -0.471133  -0.494534   0.011292   0.014730   1.008574
    13  O    0.001979  -0.060774  -0.000074  -0.001732   0.000021   0.000243
    14  C    0.008990   1.064253   0.404902   0.010305   0.008644  -3.066294
    15  O   -0.000139  -0.013177  -0.010176   0.000597  -0.000009   0.006868
    16  C    0.002071   0.133593  -0.081345  -0.003822   0.000720  -0.440334
    17  C    0.000282  -0.022074   0.005410   0.000959   0.000031  -0.062299
    18  O    0.000015   0.004411   0.001911  -0.000011   0.000000  -0.004566
    19  H   -0.000028  -0.000988   0.003105   0.000004   0.000000  -0.000510
    20  C    0.000060   0.001711  -0.012729  -0.000040   0.000001   0.089138
    21  O    0.000000  -0.000093   0.000026   0.000000   0.000000   0.000358
    22  H    0.000000   0.000003   0.000000   0.000000   0.000000  -0.000044
    23  C    0.000017   0.002481  -0.002742  -0.000032  -0.000002  -0.040226
    24  O   -0.000002   0.000522  -0.013108  -0.000087  -0.000002   0.003712
    25  H    0.000000   0.000052   0.001382   0.000003   0.000000   0.002466
    26  C    0.000000   0.015605  -0.041321   0.000104   0.000009  -0.059607
    27  O    0.000000   0.000009   0.000113   0.000001   0.000000   0.000809
    28  C    0.000001   0.001435  -0.000114   0.000008   0.000000  -0.024580
    29  O    0.000000   0.000009   0.000021   0.000000   0.000000  -0.000261
    30  H    0.000000   0.000000   0.000000   0.000000   0.000000   0.000005
    31  H    0.000000   0.000006   0.000004   0.000000   0.000000  -0.000101
    32  H    0.000000   0.000085  -0.000003   0.000000   0.000000   0.000805
    33  H    0.000000  -0.000709   0.000992  -0.000001   0.000000   0.011020
    34  H   -0.000001  -0.002082   0.003086   0.000005   0.000000   0.018471
    35  H    0.000000  -0.000048   0.000703   0.000000   0.000000  -0.001113
    36  H    0.000000  -0.000006  -0.000058   0.000000   0.000000   0.000284
    37  H    0.000000   0.000044   0.000090   0.000000   0.000000  -0.003699
    38  H    0.277550   0.034567  -0.040063   0.001267  -0.002827   0.009248
    39  H    0.001840  -0.040111  -0.005688  -0.000017   0.000000   0.012489
    40  H    0.000252  -0.003520   0.001553   0.000016   0.000000   0.002046
    41  H    0.004724   0.025325  -0.036520   0.001860  -0.000008  -0.065102
    42  H   -0.008887   0.352093  -0.026005   0.002207  -0.000176  -0.056453
    43  H    0.000998   0.027529   0.276275  -0.016147  -0.001881  -0.177499
    44  H    0.000340   0.026263  -0.163529   0.005092  -0.000205   0.397913
    45  H    0.000195  -0.009416  -0.068580   0.000307   0.000002   0.078114
              7          8          9         10         11         12
     1  O   -0.000041   0.000008  -0.002608  -0.019458   0.002180  -0.121029
     2  C    0.014019  -0.004048  -0.859416   0.034579  -0.012597  -0.471133
     3  C   -0.111838   0.016603  -0.444358   0.000462   0.000152  -0.494534
     4  O    0.008135  -0.000324   0.012900  -0.000194   0.000001   0.011292
     5  H   -0.000496   0.000013  -0.004997   0.000013   0.000000   0.014730
     6  C    0.254120   0.027734   0.776157   0.000217   0.000788   1.008574
     7  O    8.113534   0.252118   0.001407   0.000000   0.000000  -0.000641
     8  H    0.252118   0.331115   0.000137   0.000000   0.000000  -0.000153
     9  C    0.001407   0.000137  10.951817   0.140762  -0.009199  -3.084253
    10  O    0.000000   0.000000   0.140762   8.114543   0.246806   0.020294
    11  H    0.000000   0.000000  -0.009199   0.246806   0.421940   0.012934
    12  C   -0.000641  -0.000153  -3.084253   0.020294   0.012934  10.818017
    13  O    0.001834  -0.000229  -0.037488   0.001705  -0.000476   0.115271
    14  C   -0.033076  -0.071918  -1.884939  -0.001366  -0.003806  -1.585541
    15  O   -0.002317   0.008318   0.019697   0.000037   0.000001   0.002195
    16  C    0.030110   0.019739  -0.308129  -0.000225  -0.000034  -0.117703
    17  C   -0.000827   0.001291   0.025972  -0.000380  -0.000053  -0.210204
    18  O   -0.000076  -0.000020  -0.009482  -0.000023   0.000001   0.000891
    19  H   -0.000036  -0.000003   0.005432  -0.000006  -0.000001  -0.009572
    20  C   -0.000017   0.000849   0.012654  -0.000014  -0.000003  -0.019158
    21  O   -0.000002   0.000000   0.000426   0.000000   0.000000   0.000038
    22  H    0.000000   0.000000  -0.000009   0.000000   0.000000  -0.000001
    23  C    0.013130   0.007162  -0.005342  -0.000001   0.000000  -0.019195
    24  O   -0.042327   0.007070   0.000129   0.000000   0.000000   0.007228
    25  H    0.003024  -0.001494  -0.000016   0.000000   0.000000  -0.000567
    26  C   -0.011170  -0.017404  -0.010879   0.000015  -0.000002   0.034527
    27  O    0.000138  -0.000040  -0.000070   0.000000   0.000000  -0.000421
    28  C    0.000388  -0.000083  -0.003181  -0.000002   0.000000  -0.002121
    29  O   -0.000002   0.000000  -0.000026   0.000000   0.000000   0.000020
    30  H    0.000000   0.000000   0.000000   0.000000   0.000000  -0.000001
    31  H    0.000001   0.000000   0.000001   0.000000   0.000000   0.000049
    32  H    0.000003   0.000000  -0.000109   0.000000   0.000000   0.000289
    33  H   -0.000009  -0.000001  -0.000282   0.000000   0.000000  -0.001664
    34  H   -0.001626  -0.000023   0.000343   0.000000   0.000000  -0.001660
    35  H   -0.000083   0.000005   0.000014   0.000000   0.000000   0.000356
    36  H   -0.000493   0.000171   0.000003   0.000000   0.000000   0.000170
    37  H    0.000399   0.000165  -0.000018   0.000000   0.000000  -0.000575
    38  H    0.000003   0.000000   0.025470  -0.001143  -0.000040  -0.032745
    39  H    0.000008   0.000000   0.732329  -0.070392   0.001570  -0.329449
    40  H   -0.000007   0.000000   0.435221  -0.019530  -0.014747  -0.080531
    41  H    0.000502   0.000006   0.041832  -0.002795  -0.000116   0.103132
    42  H    0.000705   0.000002  -0.088748  -0.001450   0.000002  -0.062087
    43  H    0.008271  -0.000123   0.016501  -0.000269   0.000000   0.022170
    44  H   -0.022027  -0.005125   0.022690   0.000010   0.000000   0.084817
    45  H   -0.002621  -0.000026   0.035710   0.000056   0.000000   0.096894
             13         14         15         16         17         18
     1  O    0.001979   0.008990  -0.000139   0.002071   0.000282   0.000015
     2  C   -0.060774   1.064253  -0.013177   0.133593  -0.022074   0.004411
     3  C   -0.000074   0.404902  -0.010176  -0.081345   0.005410   0.001911
     4  O   -0.001732   0.010305   0.000597  -0.003822   0.000959  -0.000011
     5  H    0.000021   0.008644  -0.000009   0.000720   0.000031   0.000000
     6  C    0.000243  -3.066294   0.006868  -0.440334  -0.062299  -0.004566
     7  O    0.001834  -0.033076  -0.002317   0.030110  -0.000827  -0.000076
     8  H   -0.000229  -0.071918   0.008318   0.019739   0.001291  -0.000020
     9  C   -0.037488  -1.884939   0.019697  -0.308129   0.025972  -0.009482
    10  O    0.001705  -0.001366   0.000037  -0.000225  -0.000380  -0.000023
    11  H   -0.000476  -0.003806   0.000001  -0.000034  -0.000053   0.000001
    12  C    0.115271  -1.585541   0.002195  -0.117703  -0.210204   0.000891
    13  O    7.920231   0.252650   0.003334  -0.025227   0.023506  -0.010120
    14  C    0.252650  11.592660   0.159277  -0.638335   0.076950   0.013018
    15  O    0.003334   0.159277   7.805818   0.234976  -0.039134  -0.010677
    16  C   -0.025227  -0.638335   0.234976  10.451519  -1.384531   0.024294
    17  C    0.023506   0.076950  -0.039134  -1.384531   7.543944   0.219863
    18  O   -0.010120   0.013018  -0.010677   0.024294   0.219863   8.123089
    19  H    0.023915  -0.001743   0.007600  -0.060540   0.027544   0.233226
    20  C   -0.003398  -0.228162   0.012758  -0.996628  -0.177457  -0.104323
    21  O   -0.000163   0.007514   0.000240   0.051583  -0.008591  -0.000148
    22  H    0.000000  -0.001411  -0.000016  -0.020087   0.009704  -0.000298
    23  C    0.001951  -0.098582  -0.045527   0.206735  -0.115362   0.010733
    24  O    0.000094   0.077888  -0.011848  -0.036891   0.001420  -0.000008
    25  H   -0.000007  -0.012789   0.001800  -0.005620  -0.001280   0.000000
    26  C   -0.010478  -0.541722  -0.035032  -2.082578  -0.231259  -0.007175
    27  O    0.000175   0.006821   0.003108   0.071294  -0.014102  -0.001148
    28  C    0.001500  -0.023151   0.001012   0.574026   0.203437   0.009750
    29  O    0.000021  -0.000263  -0.000051  -0.004544  -0.009385   0.000348
    30  H    0.000000   0.000065   0.000000   0.000859   0.005473  -0.000033
    31  H    0.000015   0.001364   0.000297   0.044502   0.010351   0.000451
    32  H    0.000164  -0.006301   0.000021   0.073061  -0.118680   0.006637
    33  H   -0.002068   0.019305  -0.006292  -0.062123   0.300159  -0.026097
    34  H   -0.002349  -0.048426  -0.038846   0.160134   0.006661  -0.001932
    35  H   -0.000099   0.018521  -0.002721   0.050128  -0.033936   0.000223
    36  H    0.000006   0.012752   0.000901   0.015943   0.001364   0.000010
    37  H    0.000014  -0.011848  -0.000130   0.072276   0.001528   0.000068
    38  H   -0.000755  -0.007579   0.000001   0.000058  -0.000060  -0.000001
    39  H   -0.004081  -0.007571   0.000120  -0.005565   0.003424  -0.000276
    40  H    0.001175  -0.005759  -0.000058  -0.000522   0.000171  -0.000024
    41  H   -0.048528   0.197731  -0.000089  -0.001146   0.009196  -0.000653
    42  H    0.003692   0.149685  -0.000194  -0.000166   0.001921   0.000028
    43  H    0.004925   0.079802   0.000470  -0.005619   0.002189   0.000047
    44  H    0.004989  -0.070441  -0.006487  -0.025229  -0.000311   0.000127
    45  H   -0.041344   0.140372  -0.028239   0.025538  -0.012224  -0.001109
             19         20         21         22         23         24
     1  O   -0.000028   0.000060   0.000000   0.000000   0.000017  -0.000002
     2  C   -0.000988   0.001711  -0.000093   0.000003   0.002481   0.000522
     3  C    0.003105  -0.012729   0.000026   0.000000  -0.002742  -0.013108
     4  O    0.000004  -0.000040   0.000000   0.000000  -0.000032  -0.000087
     5  H    0.000000   0.000001   0.000000   0.000000  -0.000002  -0.000002
     6  C   -0.000510   0.089138   0.000358  -0.000044  -0.040226   0.003712
     7  O   -0.000036  -0.000017  -0.000002   0.000000   0.013130  -0.042327
     8  H   -0.000003   0.000849   0.000000   0.000000   0.007162   0.007070
     9  C    0.005432   0.012654   0.000426  -0.000009  -0.005342   0.000129
    10  O   -0.000006  -0.000014   0.000000   0.000000  -0.000001   0.000000
    11  H   -0.000001  -0.000003   0.000000   0.000000   0.000000   0.000000
    12  C   -0.009572  -0.019158   0.000038  -0.000001  -0.019195   0.007228
    13  O    0.023915  -0.003398  -0.000163   0.000000   0.001951   0.000094
    14  C   -0.001743  -0.228162   0.007514  -0.001411  -0.098582   0.077888
    15  O    0.007600   0.012758   0.000240  -0.000016  -0.045527  -0.011848
    16  C   -0.060540  -0.996628   0.051583  -0.020087   0.206735  -0.036891
    17  C    0.027544  -0.177457  -0.008591   0.009704  -0.115362   0.001420
    18  O    0.233226  -0.104323  -0.000148  -0.000298   0.010733  -0.000008
    19  H    0.353130   0.005732  -0.000090   0.000018  -0.002679  -0.000006
    20  C    0.005732   7.463248   0.068453  -0.016960   0.058992  -0.004877
    21  O   -0.000090   0.068453   8.102286   0.238967  -0.000880   0.000012
    22  H    0.000018  -0.016960   0.238967   0.433407   0.000060   0.000000
    23  C   -0.002679   0.058992  -0.000880   0.000060   6.362396   0.136892
    24  O   -0.000006  -0.004877   0.000012   0.000000   0.136892   8.194167
    25  H    0.000000   0.000675   0.000000   0.000000  -0.042362   0.255134
    26  C    0.002817   0.706345  -0.042662   0.010221  -0.950036  -0.008254
    27  O    0.000035  -0.135810   0.005275  -0.000038  -0.095696   0.004094
    28  C    0.002160  -0.997401   0.038539   0.009161  -0.115616   0.003179
    29  O    0.000003  -0.042706  -0.001304   0.009763   0.011420   0.000009
    30  H    0.000000  -0.020385  -0.001652  -0.001382  -0.000351  -0.000001
    31  H    0.000003  -0.132317  -0.002413  -0.000896  -0.005323   0.000043
    32  H   -0.000095   0.310109  -0.015205  -0.006379   0.005655   0.000010
    33  H   -0.001583   0.008409  -0.001298  -0.000063   0.014645  -0.000005
    34  H    0.000091   0.063168  -0.000326   0.000012   0.007423   0.000125
    35  H    0.000018  -0.021656  -0.000117   0.000005   0.059114   0.001936
    36  H    0.000000  -0.004332   0.000001   0.000000   0.385180  -0.023198
    37  H    0.000000   0.000136  -0.000009   0.000000   0.618541  -0.058618
    38  H    0.000000   0.000000   0.000000   0.000000   0.000001   0.000000
    39  H    0.000047   0.000275   0.000000   0.000000  -0.000014   0.000000
    40  H    0.000500  -0.000280   0.000001   0.000000  -0.000009   0.000000
    41  H    0.000229   0.000542  -0.000001   0.000000  -0.000044  -0.000003
    42  H   -0.000013   0.000050   0.000000   0.000000   0.000061   0.000005
    43  H    0.000000   0.000011   0.000000   0.000000   0.000144   0.000041
    44  H   -0.000020   0.000470   0.000000   0.000000   0.001219   0.000254
    45  H   -0.000402   0.013749   0.000008   0.000000   0.000895   0.000096
             25         26         27         28         29         30
     1  O    0.000000   0.000000   0.000000   0.000001   0.000000   0.000000
     2  C    0.000052   0.015605   0.000009   0.001435   0.000009   0.000000
     3  C    0.001382  -0.041321   0.000113  -0.000114   0.000021   0.000000
     4  O    0.000003   0.000104   0.000001   0.000008   0.000000   0.000000
     5  H    0.000000   0.000009   0.000000   0.000000   0.000000   0.000000
     6  C    0.002466  -0.059607   0.000809  -0.024580  -0.000261   0.000005
     7  O    0.003024  -0.011170   0.000138   0.000388  -0.000002   0.000000
     8  H   -0.001494  -0.017404  -0.000040  -0.000083   0.000000   0.000000
     9  C   -0.000016  -0.010879  -0.000070  -0.003181  -0.000026   0.000000
    10  O    0.000000   0.000015   0.000000  -0.000002   0.000000   0.000000
    11  H    0.000000  -0.000002   0.000000   0.000000   0.000000   0.000000
    12  C   -0.000567   0.034527  -0.000421  -0.002121   0.000020  -0.000001
    13  O   -0.000007  -0.010478   0.000175   0.001500   0.000021   0.000000
    14  C   -0.012789  -0.541722   0.006821  -0.023151  -0.000263   0.000065
    15  O    0.001800  -0.035032   0.003108   0.001012  -0.000051   0.000000
    16  C   -0.005620  -2.082578   0.071294   0.574026  -0.004544   0.000859
    17  C   -0.001280  -0.231259  -0.014102   0.203437  -0.009385   0.005473
    18  O    0.000000  -0.007175  -0.001148   0.009750   0.000348  -0.000033
    19  H    0.000000   0.002817   0.000035   0.002160   0.000003   0.000000
    20  C    0.000675   0.706345  -0.135810  -0.997401  -0.042706  -0.020385
    21  O    0.000000  -0.042662   0.005275   0.038539  -0.001304  -0.001652
    22  H    0.000000   0.010221  -0.000038   0.009161   0.009763  -0.001382
    23  C   -0.042362  -0.950036  -0.095696  -0.115616   0.011420  -0.000351
    24  O    0.255134  -0.008254   0.004094   0.003179   0.000009  -0.000001
    25  H    0.403027   0.040667  -0.000763  -0.000839  -0.000003   0.000000
    26  C    0.040667  10.235012   0.098426  -0.728755  -0.032078  -0.000969
    27  O   -0.000763   0.098426   7.927303   0.258563  -0.043286   0.000676
    28  C   -0.000839  -0.728755   0.258563   6.123549   0.323180   0.000623
    29  O   -0.000003  -0.032078  -0.043286   0.323180   8.013925   0.270713
    30  H    0.000000  -0.000969   0.000676   0.000623   0.270713   0.409306
    31  H    0.000000  -0.028757  -0.041757   0.451328  -0.023637  -0.008895
    32  H    0.000000   0.006959   0.002806   0.008275  -0.000564  -0.000076
    33  H    0.000000   0.027886   0.000077  -0.037682   0.000122   0.000009
    34  H   -0.000027   0.072193   0.003291  -0.003297  -0.000486   0.000003
    35  H   -0.000151   0.144351  -0.028590   0.056286  -0.001005   0.000018
    36  H   -0.010473  -0.056901  -0.003814   0.004436  -0.000043  -0.000001
    37  H   -0.000564  -0.316410   0.000447   0.002751  -0.000235   0.000001
    38  H    0.000000   0.000002   0.000000   0.000000   0.000000   0.000000
    39  H    0.000000  -0.000240   0.000000  -0.000009   0.000000   0.000000
    40  H    0.000000   0.000074   0.000000   0.000024   0.000000   0.000000
    41  H    0.000000  -0.000708   0.000000  -0.000026   0.000000   0.000000
    42  H    0.000000  -0.000355   0.000000  -0.000005   0.000000   0.000000
    43  H    0.000000  -0.000719   0.000000  -0.000004   0.000000   0.000000
    44  H   -0.000003  -0.002139   0.000000   0.000028   0.000000   0.000000
    45  H    0.000006   0.028195   0.000257  -0.000599  -0.000002   0.000000
             31         32         33         34         35         36
     1  O    0.000000   0.000000   0.000000  -0.000001   0.000000   0.000000
     2  C    0.000006   0.000085  -0.000709  -0.002082  -0.000048  -0.000006
     3  C    0.000004  -0.000003   0.000992   0.003086   0.000703  -0.000058
     4  O    0.000000   0.000000  -0.000001   0.000005   0.000000   0.000000
     5  H    0.000000   0.000000   0.000000   0.000000   0.000000   0.000000
     6  C   -0.000101   0.000805   0.011020   0.018471  -0.001113   0.000284
     7  O    0.000001   0.000003  -0.000009  -0.001626  -0.000083  -0.000493
     8  H    0.000000   0.000000  -0.000001  -0.000023   0.000005   0.000171
     9  C    0.000001  -0.000109  -0.000282   0.000343   0.000014   0.000003
    10  O    0.000000   0.000000   0.000000   0.000000   0.000000   0.000000
    11  H    0.000000   0.000000   0.000000   0.000000   0.000000   0.000000
    12  C    0.000049   0.000289  -0.001664  -0.001660   0.000356   0.000170
    13  O    0.000015   0.000164  -0.002068  -0.002349  -0.000099   0.000006
    14  C    0.001364  -0.006301   0.019305  -0.048426   0.018521   0.012752
    15  O    0.000297   0.000021  -0.006292  -0.038846  -0.002721   0.000901
    16  C    0.044502   0.073061  -0.062123   0.160134   0.050128   0.015943
    17  C    0.010351  -0.118680   0.300159   0.006661  -0.033936   0.001364
    18  O    0.000451   0.006637  -0.026097  -0.001932   0.000223   0.000010
    19  H    0.000003  -0.000095  -0.001583   0.000091   0.000018   0.000000
    20  C   -0.132317   0.310109   0.008409   0.063168  -0.021656  -0.004332
    21  O   -0.002413  -0.015205  -0.001298  -0.000326  -0.000117   0.000001
    22  H   -0.000896  -0.006379  -0.000063   0.000012   0.000005   0.000000
    23  C   -0.005323   0.005655   0.014645   0.007423   0.059114   0.385180
    24  O    0.000043   0.000010  -0.000005   0.000125   0.001936  -0.023198
    25  H    0.000000   0.000000   0.000000  -0.000027  -0.000151  -0.010473
    26  C   -0.028757   0.006959   0.027886   0.072193   0.144351  -0.056901
    27  O   -0.041757   0.002806   0.000077   0.003291  -0.028590  -0.003814
    28  C    0.451328   0.008275  -0.037682  -0.003297   0.056286   0.004436
    29  O   -0.023637  -0.000564   0.000122  -0.000486  -0.001005  -0.000043
    30  H   -0.008895  -0.000076   0.000009   0.000003   0.000018  -0.000001
    31  H    0.588452   0.004821   0.001138  -0.000032   0.003138  -0.000015
    32  H    0.004821   0.573712   0.005401   0.001039  -0.000053   0.000000
    33  H    0.001138   0.005401   0.610437   0.006819   0.002289   0.000006
    34  H   -0.000032   0.001039   0.006819   0.621995   0.006347   0.000034
    35  H    0.003138  -0.000053   0.002289   0.006347   0.615245  -0.006823
    36  H   -0.000015   0.000000   0.000006   0.000034  -0.006823   0.578790
    37  H   -0.000023  -0.000017  -0.000007   0.002668   0.006272  -0.042435
    38  H    0.000000   0.000000   0.000000   0.000000   0.000000   0.000000
    39  H    0.000000   0.000000   0.000000   0.000000   0.000000   0.000000
    40  H    0.000000   0.000000   0.000000   0.000000   0.000000   0.000000
    41  H    0.000000   0.000000  -0.000001  -0.000005   0.000000   0.000000
    42  H    0.000000   0.000000   0.000000   0.000000   0.000000   0.000000
    43  H    0.000000   0.000000   0.000000  -0.000002   0.000000   0.000000
    44  H    0.000000   0.000000  -0.000006  -0.000020  -0.000002   0.000000
    45  H    0.000000  -0.000009  -0.000027   0.008542  -0.000002  -0.000001
             37         38         39         40         41         42
[...]
 01418,-0.00002338,-0.00000182,-0.00000832,0.00003645,-0.00001598,0.000
 01872,-0.00003478,0.00002588,-0.00000950,-0.00000765,-0.00000014,0.000
 00260,0.00000925,0.00000019,0.00000099,-0.00000229,-0.00000093,-0.0000
 0156,-0.00000942,-0.00000159,0.00000834,0.00001814,0.00000593,0.000006
 21,-0.00000952,0.00000005,0.00000190,-0.00001660,-0.00000773,0.0000030
 3,0.00001065,0.00000338,-0.00000237,-0.00000850,0.00000004,0.00000394,
 0.00000612,0.00000043,-0.00000548,-0.00000121,0.00000001,0.00000094,0.
 00000222,0.00000063,0.00000127,0.00000289,0.00000128,-0.00000341,0.000
 00947,0.00000195,0.00000959,0.00001161,-0.00000103,-0.00000983,0.00000
 653,0.00000066,0.00000489,0.00000002,0.00000009,0.00000118,0.00000402,
 0.00000045,-0.00000308,0.00122441,0.00008050,-0.00065177,0.00024971,-0
 .00070369,0.00000016,0.00012820,-0.00005770,-0.00001084,0.00031020,-0.
 00102394,0.00087162,0.37976188,-0.00946619,-0.00008728,-0.00386274,-0.
 01542258,-0.04513330,0.00317856,0.03184415,0.00044796,-0.00451915,-0.0
 0210360,0.00323717,-0.00055034,0.00036343,-0.00015760,0.00034612,0.000
 94067,0.00129617,0.00111916,-0.00047537,-0.00016110,-0.00000810,-0.000
 07611,0.00000451,0.00002891,-0.00054738,0.00170214,-0.00063128,0.00013
 186,-0.00014327,0.00002643,0.00000430,-0.00000860,-0.00000044,-0.02683
 010,-0.00057662,0.00402897,0.00182892,0.00138212,-0.00180379,0.0002261
 7,-0.00045029,-0.00009782,0.00000971,0.00010867,-0.00002065,-0.0000273
 4,0.00002390,-0.00003526,0.00000117,0.00000966,-0.00000260,0.00001646,
 -0.00000716,-0.00003881,-0.00002449,-0.00000203,0.00002961,-0.00000524
 ,0.00000190,-0.00000221,0.00000478,-0.00000348,-0.00000101,-0.00000098
 ,0.00000039,-0.00000023,0.00000338,-0.00000424,-0.00000028,-0.00001134
 ,-0.00000799,-0.00001989,0.00000617,0.00000192,-0.00000376,0.00000161,
 -0.00000027,0.00000068,-0.00000044,-0.00000293,0.00000168,-0.00000097,
 0.00000438,0.00000056,0.00000153,-0.00000154,-0.00000229,-0.00000006,0
 .00000056,0.00000057,0.00000042,0.00000031,0.00000030,0.00000074,-0.00
 000048,-0.00000128,0.00000124,0.00000275,0.00000350,0.00000128,-0.0000
 0565,0.00000944,-0.00000103,0.00000121,-0.00000053,0.,0.00000093,-0.00
 000284,-0.00000065,-0.00000052,0.00000162,-0.00056896,0.00129787,0.000
 38612,0.00068311,-0.00035906,-0.00005008,0.00050901,0.00006883,-0.0000
 4558,-0.00137923,-0.00269422,0.00314437,0.01901698,0.04525390,-0.03899
 184,-0.00580737,-0.01396860,0.03459749,0.00177542,-0.04537992,0.010268
 37,0.00191443,-0.00089940,-0.00116072,0.00037966,0.00071444,-0.0003465
 9,-0.00046343,-0.00004975,0.00106997,0.00017950,0.00035170,-0.00032470
 ,-0.00001053,-0.00004441,0.00001802,0.00002384,0.00000955,-0.00030472,
 -0.00091155,0.00007710,0.00001220,0.00001490,0.00021481,-0.00003067,-0
 .00006971,0.00006817,0.02422816,0.00084267,-0.00212453,-0.00126764,-0.
 00055939,0.00282867,0.00047269,-0.00012778,-0.00024889,-0.00014270,-0.
 00001132,-0.00017010,0.00000598,-0.00004439,0.00000738,0.00002569,0.00
 000257,0.00001630,-0.00004480,-0.00000952,0.00000783,0.00005349,0.0000
 1458,-0.00002181,0.00000558,-0.00000413,0.00000495,-0.00001132,0.00000
 782,-0.00000783,0.00000224,-0.00000051,0.00000202,0.00000544,0.0000012
 3,0.00000030,-0.00001282,-0.00000830,-0.00001336,0.00000543,0.00000241
 ,-0.00000064,0.00001460,0.00001295,0.00000672,-0.00001000,0.00000287,-
 0.00001519,0.00000763,-0.00000741,0.00001344,0.00000004,0.00000078,-0.
 00000907,0.00000059,0.00000011,0.00000194,-0.00000234,-0.00000015,-0.0
 0000248,-0.00000321,-0.00000081,0.00000436,-0.00001183,-0.00000360,-0.
 00001295,-0.00001121,0.00000243,0.00001247,-0.00000638,-0.00000262,-0.
 00000623,-0.00000120,-0.00000229,-0.00000253,-0.00000235,0.00000127,0.
 00000292,-0.00261474,0.00047567,0.00345791,-0.00044630,0.00038702,0.00
 010594,-0.00022485,-0.00003474,0.00008372,0.00134717,0.00294499,-0.003
 34495,-0.02640481,0.00123018,0.05870750,0.00181887,-0.00015809,-0.0003
 3964,-0.01619217,0.00004921,-0.00072257,-0.35057888,-0.01934856,0.0107
 3238,-0.00222008,-0.00805757,0.00931556,-0.00016464,-0.00080717,-0.000
 13705,-0.01483025,0.00030767,-0.00070626,0.00189933,-0.00003510,0.0003
 4944,0.00020072,0.00005886,0.00008041,0.00082610,0.00013690,-0.0001144
 8,-0.00001379,-0.00008901,-0.00007905,0.00000744,0.00002503,-0.0000030
 4,-0.00128833,-0.00170905,0.00082135,0.00075719,0.00046860,0.00026222,
 -0.00120704,-0.00111615,0.00044337,0.00055449,0.00014925,-0.00021368,-
 0.00005869,0.00005176,-0.00009774,-0.00001015,-0.00004497,-0.00007828,
 0.00004601,0.00001960,0.00007730,-0.00003355,0.00001528,-0.00005093,-0
 .00001922,0.00001060,0.00000162,0.00001442,0.00000608,0.00000528,-0.00
 000548,-0.00000100,-0.00000441,-0.00002765,-0.00002286,0.00003764,0.00
 002971,0.00003094,-0.00001826,-0.00001850,-0.00000788,0.00001006,-0.00
 000731,0.00000181,-0.00000519,0.00001255,0.00001732,-0.00001519,-0.000
 00555,-0.00002025,-0.00000084,0.00000469,0.00000665,0.00000312,-0.0000
 0111,-0.00000108,-0.00000144,0.00000268,0.00000184,0.00000234,0.000004
 92,0.00000125,-0.00000535,0.00001393,0.00000242,0.00000944,0.00001343,
 0.00000082,-0.00004653,0.00000915,-0.00000036,0.00000885,0.00000302,0.
 00000398,-0.00000171,0.00000957,0.00000206,-0.00001172,0.00038184,-0.0
 0041129,-0.00023956,0.00009128,-0.00041922,-0.00003175,-0.00001994,0.0
 0016353,-0.00000042,0.00193926,0.00015091,-0.00076378,-0.00005623,0.00
 191512,0.00063737,0.37748175,-0.00180343,0.00226716,0.00150905,0.03153
 348,-0.00309231,-0.00053597,-0.02159870,-0.03969181,-0.00438916,-0.028
 32264,-0.01167809,0.01555461,-0.00059364,-0.00029060,-0.00073687,-0.01
 159474,0.00091916,-0.00172610,0.00034445,0.00091159,0.00135861,0.00009
 931,0.00001045,-0.00000895,0.00002685,-0.00004422,0.00015379,-0.000049
 19,0.00001671,-0.00006884,0.00000825,0.00001764,-0.00000061,0.00303831
 ,0.00120163,-0.00141323,-0.00031842,-0.00018412,0.00025405,0.00030426,
 -0.00051724,0.00044619,0.00014606,0.00000834,-0.00029484,-0.00003327,0
 .00003022,-0.00003312,0.00001164,-0.00002643,-0.00004414,-0.00000460,0
 .00000938,0.00004908,0.00000941,0.00000815,-0.00005587,-0.00000691,0.0
 0000792,0.00000862,0.00000273,0.00000409,-0.00000534,-0.00000233,0.000
 00130,-0.00000133,-0.00001034,0.00003097,-0.00001733,0.00004776,0.0000
 0541,0.00009126,-0.00002139,-0.00000356,0.00000239,-0.00000529,0.00003
 513,0.00000729,0.00000623,-0.00001522,-0.00001315,-0.00000123,0.000000
 43,0.00000258,0.00000133,-0.00000004,0.00000059,-0.00000031,0.,-0.0000
 0049,0.00000070,-0.00000011,0.00000021,0.00000097,0.00000043,-0.000001
 03,0.00000161,0.00000007,0.00000096,0.00000556,0.00000805,-0.00001883,
 0.00000304,-0.00000531,0.00000113,0.00000166,-0.00000613,0.00000973,0.
 00000162,-0.00000037,-0.00000444,-0.00004727,0.00023659,0.00040479,-0.
 00023252,0.00006001,0.00003016,-0.00008038,-0.00007817,-0.00002937,-0.
 00033200,-0.00087196,0.00070985,0.00170948,-0.00470068,-0.00179019,0.0
 2838528,0.05520363,-0.00022378,0.00089096,0.00139333,0.01210488,-0.002
 69171,0.00032249,0.01087699,-0.00452757,-0.04042764,0.02687765,0.01588
 406,-0.01110320,0.00148613,0.00036721,0.00044312,-0.03376395,-0.003080
 81,-0.00058031,0.00202230,0.00133337,0.00239804,0.00000751,0.00028995,
 0.00006793,-0.00020083,-0.00007305,0.00007877,-0.00000956,0.00002771,-
 0.00000470,0.00000206,0.00000632,-0.00000331,-0.00053822,0.00126643,-0
 .00057434,0.00007099,0.00041655,-0.00021554,-0.00107938,-0.00067389,0.
 00126386,0.00043482,0.00003909,-0.00019632,0.00007207,0.00006483,0.000
 04599,0.00002023,-0.00002684,-0.00004703,0.00001802,0.00002337,0.00000
 004,-0.00002073,-0.00001954,0.00002072,-0.00001336,0.00000148,0.000017
 94,-0.00000042,0.00001677,-0.00001893,-0.00000229,-0.00000010,-0.00000
 096,-0.00001666,0.00003014,0.00001077,0.00004162,-0.00000889,0.0000888
 2,-0.00000609,0.00000779,-0.00000324,-0.00000682,0.00003384,0.00003722
 ,0.00000526,0.00000065,-0.00004067,0.00000019,-0.00001507,0.00002903,0
 .00000961,0.00000225,-0.00002082,-0.00000035,0.00000100,0.00000349,-0.
 00000005,0.00000098,-0.00000109,0.00000044,0.00000116,-0.00000318,0.00
 000272,-0.00000230,0.00000569,0.00003076,0.00001625,-0.00006796,0.0000
 0516,-0.00000565,0.00000418,0.00000093,-0.00000929,0.00000586,0.000005
 17,-0.00000024,-0.00000443,-0.00006148,0.00035743,0.00011867,-0.000026
 41,0.00011629,-0.00002402,-0.00003074,-0.00007717,-0.00001470,-0.00065
 385,0.00073834,0.00009150,0.00077389,-0.00152381,-0.00049039,-0.016637
 13,-0.00780035,0.05316584,0.00062078,0.00010643,-0.00004705,-0.0008089
 7,0.00089534,0.00044240,-0.01430310,-0.00512153,-0.00003911,0.00173695
 ,0.00062451,0.00067398,0.00021110,0.00006547,0.00009923,-0.34050099,-0
 .05948871,0.02315090,-0.01540015,0.01198288,0.00804765,0.00016874,0.00
 023607,-0.00144641,-0.00000430,0.00000421,-0.00001451,0.00003697,0.000
 01993,0.00001141,-0.00001196,0.00000087,0.00000035,-0.00010281,-0.0000
 3697,0.00019511,0.00120027,-0.00133534,-0.00031164,-0.00689995,-0.0012
 0074,0.00010952,0.00125452,0.00050464,-0.00147907,0.00048458,0.0001643
 4,0.00007803,0.00001880,0.00000889,-0.00005697,0.00004439,-0.00000315,
 -0.00002682,-0.00004401,-0.00003548,-0.00000753,-0.00002739,0.00002156
 ,0.00003536,0.00001407,-0.00000458,-0.00003000,-0.00000547,0.00000584,
 -0.00000171,-0.00002992,0.00023107,-0.00017840,0.00021692,-0.00006764,
 0.00058960,-0.00005442,-0.00002058,-0.00002111,-0.00004921,0.00011556,
 0.00006883,0.00002891,-0.00010344,-0.00001369,-0.00002126,0.00005612,0
 .00000996,0.00000924,-0.00001616,-0.00001043,-0.00000169,0.00000221,0.
 00000148,0.00000527,-0.00000432,0.00000220,0.00000397,0.00000301,-0.00
 000487,0.00000682,-0.00000788,0.00001927,0.00001155,0.00007129,-0.0003
 5517,0.00001741,-0.00001786,0.00000449,0.00000776,-0.00004154,0.000064
 19,-0.00000440,-0.00001757,-0.00000774,-0.00002335,-0.00013569,-0.0001
 2883,0.00002778,-0.00004692,-0.00000336,0.00000551,0.00001407,-0.00001
 016,0.00010600,0.00016286,-0.00007277,0.00084832,-0.00047866,-0.000221
 89,0.00013661,-0.00079909,-0.00185645,0.37066460,0.00022099,-0.0000174
 6,0.00002692,-0.00109605,0.00025986,0.00021339,-0.00890833,-0.00105306
 ,0.00011620,0.00106743,0.00042173,0.00000033,0.00001790,-0.00006564,0.
 00003734,-0.06023921,-0.04888358,0.00706215,0.03980578,-0.01027071,-0.
 01080506,0.00075934,0.00141666,0.00152795,-0.00002337,0.00005357,0.000
 02915,0.00000499,-0.00003669,-0.00000635,0.00000084,0.00000608,-0.0000
 0267,-0.00015123,-0.00022276,-0.00001369,0.00146532,0.00161882,-0.0005
 6368,-0.02788151,-0.00545652,0.00449843,0.00074680,0.00092058,-0.00241
 629,-0.00019152,0.00025111,-0.00001867,0.00002195,-0.00003909,-0.00021
 649,0.00012247,-0.00002635,0.00007832,-0.00012258,0.00007186,-0.000015
 87,-0.00002608,0.00003068,0.00001119,0.00001110,0.00002078,-0.00000778
 ,-0.00000534,-0.00000087,-0.00000398,-0.00002369,-0.00014285,0.0001474
 1,-0.00028268,-0.00007345,-0.00040014,0.00008115,0.00002345,-0.0000179
 8,0.00011440,-0.00004627,-0.00000290,-0.00001789,0.00006333,-0.0000456
 1,0.00000841,-0.00005616,0.00001759,0.00000457,0.00001522,-0.00000773,
 0.00000028,-0.00000077,0.00000118,-0.00000113,0.00000574,0.00000014,0.
 00000729,0.00000278,-0.00001130,0.00002730,-0.00001367,0.00002833,0.00
 023338,-0.00000251,-0.00007326,0.00000035,0.00003099,0.00002504,-0.000
 00169,0.00002824,-0.00005030,0.00001102,-0.00000260,0.00001798,0.00000
 984,0.00000726,-0.00001946,0.00003400,-0.00005508,-0.00000994,0.000000
 23,-0.00001306,0.00000406,0.00017255,0.00015765,-0.00000378,0.00010791
 ,-0.00018631,-0.00038059,-0.00014689,-0.00002281,-0.00163889,0.0538901
 2,0.06415983,0.00049871,0.00015769,-0.00025975,-0.00106381,0.00106388,
 0.00109513,-0.03316541,-0.00818899,-0.00050450,0.00161608,0.00008188,0
 .00289348,0.00015017,-0.00018120,0.00036542,0.02045466,0.00653512,-0.0
 4407176,0.01498414,-0.00705391,-0.00083538,0.00123981,0.00008283,0.000
 82100,-0.00003577,-0.00001446,0.00008342,0.00001258,0.00000427,0.00000
 243,0.00000120,0.00000109,0.00000439,-0.00036606,-0.00009232,-0.000512
 42,-0.00135512,-0.00029500,0.00091193,0.02528437,0.00806001,-0.0047573
 7,0.00037178,-0.00012555,0.00190421,0.00046183,-0.00016666,-0.00013577
 ,-0.00002023,0.00006137,0.00023851,-0.00011244,0.00000402,-0.00009012,
 0.00011584,-0.00004506,0.00008000,0.00002481,-0.00004237,-0.00002548,-
 0.00001298,-0.00002480,0.00002258,0.00000633,-0.00000217,0.00000505,0.
 00005446,-0.00001869,-0.00004264,-0.00020673,-0.00001503,-0.00011139,0
 .00003123,-0.00000323,0.00003442,-0.00004928,-0.00004820,-0.00002827,-
 0.00003348,-0.00001024,0.00009770,0.00000823,0.00004554,-0.00003113,-0
 .00001303,-0.00001021,0.00001648,0.00000102,-0.00000058,-0.00000313,-0
 .00000182,-0.00000281,-0.00000211,-0.00000874,-0.00000547,0.00001397,-
 0.00004213,0.00003076,-0.00002715,-0.00037275,-0.00004398,-0.00000607,
 -0.00003969,-0.00001561,-0.00006635,-0.00000586,0.00000540,-0.00000893
 ,-0.00001988,-0.00000277,0.00003356,0.00008958,-0.00012868,-0.00005682
 ,0.00000640,-0.00001851,-0.00000445,-0.00000169,-0.00003880,0.00000455
 ,0.00015750,0.00010062,-0.00016926,0.00037736,-0.00027369,-0.00000522,
 -0.00191959,-0.00156865,-0.00531808,-0.02740184,-0.00029755,0.05127938
 ,0.00006702,-0.00010680,0.00021276,0.00008297,0.00052709,-0.00007455,-
 0.00034716,-0.00047098,-0.00007292,0.00027367,0.00007626,-0.00010695,-
 0.00001086,0.00001370,0.00005973,-0.00473804,0.00026446,0.00254423,0.0
 0191166,0.00011210,-0.00126430,-0.00038555,-0.00016131,-0.00006117,0.0
 0046776,-0.00030715,0.00026094,0.00001041,0.00015249,0.00000992,-0.000
 01641,-0.00000263,0.00003373,-0.00040668,-0.00034467,-0.00040807,-0.00
 567997,0.00982893,0.00551299,-0.32792647,-0.01678372,0.08200588,-0.023
 95587,-0.00717744,-0.00675596,0.00018982,-0.00055476,0.00444317,0.0001
 2273,0.00008803,-0.00047737,0.00054231,-0.00018125,-0.00024464,-0.0006
 4389,0.00000834,0.00078273,-0.00007654,0.00009851,0.00004448,0.0000416
 1,0.00002756,-0.00004541,-0.00001846,0.00000717,-0.00001145,-0.0001882
 6,0.00006385,0.00006528,0.00014388,-0.00005600,0.00004984,0.00000026,-
 0.00002089,-0.00002460,0.00070233,0.00010619,-0.00000728,0.00002012,-0
 .00008813,-0.00022790,-0.00001903,-0.00003603,0.00003675,0.00002103,0.
 00000817,-0.00003075,0.00000017,0.00000194,0.00000330,0.00000697,0.000
 00599,0.00000315,0.00002711,0.00002007,-0.00004701,0.00008434,-0.00019
 220,0.00015684,0.00145577,0.00049670,-0.00145814,0.00011312,0.00016311
 ,0.00030081,0.00003513,-0.00000147,0.00000037,0.00005567,-0.00002680,-
 0.00004070,0.00000509,-0.00000268,-0.00000735,-0.00001183,-0.00021476,
 -0.00011569,-0.00001639,0.00000531,-0.00002838,0.00047634,0.00035955,0
 .00111415,0.00001912,-0.00009150,-0.00017852,0.00049959,0.00016769,0.0
 0027917,0.00040552,0.00017149,0.00030026,0.35665988,-0.00003368,0.0003
 6957,-0.00034024,-0.00048003,-0.00060822,-0.00016287,-0.00078218,-0.00
 019044,-0.00111151,0.00037455,0.00004289,0.00040461,0.00012670,-0.0001
 1861,0.00004917,-0.02217703,-0.00143765,0.00869940,0.00075498,0.002988
 38,-0.00081429,-0.00049279,-0.00029561,-0.00007481,-0.00004886,0.00013
 117,-0.00019033,-0.00018836,-0.00026607,-0.00011389,0.00001089,0.00003
 785,-0.00005170,0.00491510,0.00088704,0.00473143,0.03519246,-0.0180720
 3,-0.01996331,-0.01838091,-0.03852593,0.00922189,-0.01234182,0.0022106
 8,-0.00390869,-0.00003662,-0.00072236,0.00154612,0.00024497,-0.0001542
 5,-0.00011183,-0.00035506,0.00012197,0.00047089,0.00060510,-0.00000300
 ,-0.00121677,0.00002723,0.00003378,0.00010423,-0.00003186,0.00007505,-
 0.00007612,-0.00000539,-0.00000212,0.00000038,-0.00010228,0.00010960,-
 0.00010476,0.00010410,-0.00006429,0.00010374,-0.00001841,-0.00000913,-
 0.00000915,-0.00003664,0.00014352,0.00006050,0.00000829,-0.00002586,-0
 .00017509,0.00001216,-0.00006037,0.00011548,0.00002201,0.00001036,-0.0
 0006649,-0.00000007,0.00000072,0.00001205,-0.00000414,0.00000079,-0.00
 000794,-0.00000769,0.00000159,0.00000101,0.00001318,-0.00005893,0.0000
 2248,0.00052118,0.00024749,-0.00021162,0.00002383,-0.00001647,0.000020
 53,0.00002374,-0.00002828,0.00000963,0.00001950,-0.00001781,-0.0000404
 4,-0.00002567,0.00001385,0.00001359,-0.00019274,0.00017184,0.00000186,
 -0.00000364,-0.00003882,0.00001859,-0.00148630,0.00046413,0.00002618,-
 0.00002452,-0.00015260,0.00003303,0.00041371,0.00023470,0.00024095,-0.
 00020346,-0.00287796,0.00250073,0.01404649,0.05544981,-0.00007106,-0.0
 0009195,-0.00025820,-0.00012846,0.00039555,-0.00008845,0.00137237,-0.0
 0013141,0.00124835,-0.00056230,0.00010484,-0.00021731,-0.00005969,-0.0
 0001552,-0.00001037,0.02574964,0.00323606,-0.00502521,-0.00215328,-0.0
 0202132,0.00161051,-0.00013394,0.00015871,-0.00010100,-0.00020813,-0.0
 0005988,-0.00000736,-0.00007074,-0.00009579,-0.00005866,0.00001440,0.0
 0000633,-0.00001007,0.00267544,0.00020759,0.00295940,0.01071728,-0.008
 70745,-0.00227467,0.08989487,0.01164453,-0.06924638,-0.03412306,-0.007
 03567,-0.00866070,-0.00631001,-0.00165878,0.00485489,0.00024881,0.0001
 2624,-0.00065766,0.00001437,0.00008585,0.00036036,-0.00012830,0.000141
 80,-0.00048845,-0.00002023,0.00010268,0.00004868,0.00001200,0.00005449
 ,-0.00004084,-0.00001196,0.00000459,-0.00000835,-0.00009268,0.00008590
 ,0.00009685,0.00006607,-0.00009623,0.00003838,0.00002279,-0.00000752,-
 0.00003367,-0.00019585,-0.00014497,-0.00002494,0.00013565,0.00007558,-
 0.00010447,-0.00000029,-0.00008339,0.00005571,0.00001247,0.00001964,-0
 .00003457,0.00000072,0.00000111,0.00000462,-0.00000084,0.00000124,0.00
 000221,0.00001788,0.00001578,-0.00004420,0.00021550,-0.00011228,0.0000
 2154,0.00104508,0.00003091,-0.00026982,0.00019793,0.00006513,0.0000197
 0,0.00001369,-0.00000411,-0.00000469,0.00002833,-0.00003603,-0.0000263
 3,-0.00002191,0.00000027,0.00001325,-0.00013133,0.00014971,0.00000321,
 0.00000773,-0.00002084,-0.00000859,-0.00091037,0.00015344,-0.00017133,
 -0.00018863,-0.00003833,0.00011813,-0.00055215,-0.00003673,-0.00045243
 ,0.00014357,0.00318686,-0.00283407,-0.08653137,0.00034335,0.07970701\\
 -0.00199197,-0.00335112,-0.00790927,0.01442094,-0.00608972,-0.00725967
 ,-0.01824627,-0.02419698,0.02280188,0.00135604,0.00674891,0.01616400,-
 0.00054375,-0.00880109,-0.03092464,0.01203412,-0.01444121,0.00333428,-
 0.00868846,0.01236676,-0.00540711,0.01101787,0.00522799,0.01833033,-0.
 02844331,0.04459991,-0.03335735,0.02010021,-0.00188816,0.01329225,-0.0
 0847689,-0.03590866,0.00004678,0.03768959,-0.00890168,0.03751250,-0.01
 739675,0.00726266,0.01054326,-0.02569287,-0.01749454,-0.01342575,0.002
 47280,0.01908765,-0.00067485,0.01391140,0.01985792,0.00208552,0.003541
 24,0.02741269,-0.00311625,-0.00078815,-0.03429939,0.02588502,0.0036364
 8,0.02382448,-0.01505178,-0.02858072,-0.00657767,-0.01507970,0.0164054
 4,0.01516131,-0.02308026,-0.01041798,-0.00642177,0.02891656,0.01309870
 ,-0.02686955,-0.00755441,-0.01119388,-0.01538279,0.00449856,-0.0053730
 4,0.03486784,0.00369221,0.00201174,-0.01639753,0.01785348,-0.00602689,
 0.01195893,0.01699901,0.03799790,-0.02275020,-0.01418942,-0.00943063,0
 .00806636,0.01342531,-0.00129496,-0.00316891,-0.00173324,-0.01899388,-
 0.00049721,-0.00251459,0.01696674,0.00254196,0.00172750,-0.02262105,-0
 .00137920,-0.00193003,0.02218929,-0.00167879,-0.00006931,-0.02140821,0
 .00081441,-0.00153541,-0.00611582,-0.00741241,-0.01662834,0.01898987,0
 .00483954,-0.00586123,-0.00046648,0.00448714,-0.00027885,-0.02292371,0
 .00632935,-0.00690079,0.00209498,0.00819984,-0.02027875,0.02351334,-0.
 00455211,-0.00025864,-0.01797185,-0.00155387,0.00178285,0.02065639,0.0
 0267351,0.00011577,-0.01994633,0.00003293,0.00197173,0.01892881,0.0036
 5244,-0.00595918\\\@


 ALL OUR THINKING ABOUT NATURE MUST NECESSARILY MOVE IN CIRCLES OR SPIRALS;
 FOR WE CAN ONLY UNDERSTAND NATURE IF WE THINK ABOUT HER, AND WE CAN ONLY
 THINK BECAUSE OUR BRAIN IS BUILT IN ACCORDANCE WITH NATURE'S LAWS.

                                             -- TIMOTHY FERRIS, "GALAXIES"
 Job cpu time:  3 days 22 hours 52 minutes 20.8 seconds.
 File lengths (MBytes):  RWF=   2340 Int=      0 D2E=      0 Chk=     43 Scr=      1
 Normal termination of Gaussian 09 at Fri Feb 12 12:48:23 2016.
Gaussian '09 finished on node011 at Fri Feb 12 12:48:23 EST 2016.
