Gaussian '09 started on node008 at Thu Jan 21 04:48:19 EST 2016.
 Entering Gaussian System, Link 0=/usr/local/gaussian/g09/g09
 Initial command:
 /usr/local/gaussian/g09/l1.exe /home/srmcgrat/thesis/gaussian/cellobiose/350/6000/gaussian27842/Gau-27878.inp -scrdir=/home/srmcgrat/thesis/gaussian/cellobiose/350/6000/gaussian27842/
 Entering Link 1 = /usr/local/gaussian/g09/l1.exe PID=     27880.
  
 Copyright (c) 1988,1990,1992,1993,1995,1998,2003,2009,2010,
            Gaussian, Inc.  All Rights Reserved.
  
 This is part of the Gaussian(R) 09 program.  It is based on
 the Gaussian(R) 03 system (copyright 2003, Gaussian, Inc.),
 the Gaussian(R) 98 system (copyright 1998, Gaussian, Inc.),
 the Gaussian(R) 94 system (copyright 1995, Gaussian, Inc.),
 the Gaussian 92(TM) system (copyright 1992, Gaussian, Inc.),
 the Gaussian 90(TM) system (copyright 1990, Gaussian, Inc.),
 the Gaussian 88(TM) system (copyright 1988, Gaussian, Inc.),
 the Gaussian 86(TM) system (copyright 1986, Carnegie Mellon
 University), and the Gaussian 82(TM) system (copyright 1983,
 Carnegie Mellon University). Gaussian is a federally registered
 trademark of Gaussian, Inc.
  
 This software contains proprietary and confidential information,
 including trade secrets, belonging to Gaussian, Inc.
  
 This software is provided under written license and may be
 used, copied, transmitted, or stored only in accord with that
 written license.
  
 The following legend is applicable only to US Government
 contracts under FAR:
  
                    RESTRICTED RIGHTS LEGEND
  
 Use, reproduction and disclosure by the US Government is
 subject to restrictions as set forth in subparagraphs (a)
 and (c) of the Commercial Computer Software - Restricted
 Rights clause in FAR 52.227-19.
  
 Gaussian, Inc.
 340 Quinnipiac St., Bldg. 40, Wallingford CT 06492
  
  
 ---------------------------------------------------------------
 Warning -- This program may not be used in any manner that
 competes with the business of Gaussian, Inc. or will provide
 assistance to any competitor of Gaussian, Inc.  The licensee
 of this program is prohibited from giving any competitor of
 Gaussian, Inc. access to this program.  By using this program,
 the user acknowledges that Gaussian, Inc. is engaged in the
 business of creating and licensing software in the field of
 computational chemistry and represents and warrants to the
 licensee that it is not a competitor of Gaussian, Inc. and that
 it will not use this program in any manner prohibited above.
 ---------------------------------------------------------------
  

 Cite this work as:
 Gaussian 09, Revision B.01,
 M. J. Frisch, G. W. Trucks, H. B. Schlegel, G. E. Scuseria, 
 M. A. Robb, J. R. Cheeseman, G. Scalmani, V. Barone, B. Mennucci, 
 G. A. Petersson, H. Nakatsuji, M. Caricato, X. Li, H. P. Hratchian, 
 A. F. Izmaylov, J. Bloino, G. Zheng, J. L. Sonnenberg, M. Hada, 
 M. Ehara, K. Toyota, R. Fukuda, J. Hasegawa, M. Ishida, T. Nakajima, 
 Y. Honda, O. Kitao, H. Nakai, T. Vreven, J. A. Montgomery, Jr., 
 J. E. Peralta, F. Ogliaro, M. Bearpark, J. J. Heyd, E. Brothers, 
 K. N. Kudin, V. N. Staroverov, T. Keith, R. Kobayashi, J. Normand, 
 K. Raghavachari, A. Rendell, J. C. Burant, S. S. Iyengar, J. Tomasi, 
 M. Cossi, N. Rega, J. M. Millam, M. Klene, J. E. Knox, J. B. Cross, 
 V. Bakken, C. Adamo, J. Jaramillo, R. Gomperts, R. E. Stratmann, 
 O. Yazyev, A. J. Austin, R. Cammi, C. Pomelli, J. W. Ochterski, 
 R. L. Martin, K. Morokuma, V. G. Zakrzewski, G. A. Voth, 
 P. Salvador, J. J. Dannenberg, S. Dapprich, A. D. Daniels, 
 O. Farkas, J. B. Foresman, J. V. Ortiz, J. Cioslowski, 
 and D. J. Fox, Gaussian, Inc., Wallingford CT, 2010.
 
 ******************************************
 Gaussian 09:  EM64L-G09RevB.01 12-Aug-2010
                21-Jan-2016 
 ******************************************
 ------------------------------------------------
 # freq=raman b3lyp/6-31+g(d,p) geom=connectivity
 ------------------------------------------------
 1/10=4,30=1,38=1,57=2/1,3;
 2/12=2,17=6,18=5,40=1/2;
 3/5=1,6=6,7=111,11=2,16=1,25=1,30=1,71=2,74=-5/1,2,3;
 4//1;
 5/5=2,38=5,98=1/2;
 8/6=4,10=90,11=11/1;
 10/13=10,15=4/2;
 11/6=3,8=1,9=11,15=111,16=1/1,2,10;
 10/6=1/2;
 6/7=2,8=2,9=2,10=2,18=1,28=1/1;
 7/8=1,10=1,25=1/1,2,3,16;
 1/10=4,30=1/3;
 99//99;
 ------------
 350 6000.com
 ------------
 Symbolic Z-matrix:
 Charge =  0 Multiplicity = 1
 O                     7.628     7.477     12.232 
 C                     8.256     7.845     13.469 
 C                     7.792     9.215     13.934 
 O                     7.981     10.243    12.951 
 H                     7.928     9.785     12.064 
 C                     8.296     9.551     15.328 
 O                     7.903     10.832    15.842 
 H                     8.442     11.047    16.657 
 C                     8.668     5.351     14.306 
 O                     8.189     4.547     13.218 
 H                     7.931     3.632     13.528 
 C                     8.049     6.728     14.479 
 O                     8.522     7.129     15.773 
 C                     8.065     8.39      16.283 
 O                     8.814     8.654     17.478 
 C                     8.265     8.31      18.759 
 C                     8.613     6.914     19.247 
 O                     8.308     5.993     18.19 
 H                     8.435     6.417     17.293 
 C                     8.042     6.569     20.613 
 O                     8.722     5.407     21.111 
 H                     8.437     5.323     22.065 
 C                     8.351     10.772    19.563 
 O                     9.098     11.523    18.595 
 H                     9.023     12.493    18.828 
 C                     8.703     9.314     19.812 
 O                     7.881     8.908     20.916 
 C                     8.238     7.702     21.607 
 O                     7.487     7.57      22.823 
 H                     8.09088   7.48946   23.56492 
 H                     9.27678   7.75246   21.85856 
 H                     6.99767   6.35622   20.51815 
 H                     9.67676   6.89418   19.36071 
 H                     7.19957   8.36766   18.67881 
 H                     9.74068   9.20003   20.04682 
 H                     8.43636   11.28442   20.49844 
 H                     7.32309   10.80546   19.26775 
 H                     7.02382   8.32379   16.52063 
 H                     9.35919   9.61547   15.22614 
 H                     6.73075   9.12731   14.03868 
 H                     8.30184   7.28203   11.57662 
 H                     9.30765   7.91384   13.28406 
 H                     6.99203   6.58264   14.56015 
 H                     8.50876   4.80432   15.21192 
 H                     9.72253   5.47979   14.1784 
 

 GradGradGradGradGradGradGradGradGradGradGradGradGradGradGradGradGradGrad
 Berny optimization.
 Initialization pass.
 Trust Radius=3.00D-01 FncErr=1.00D-07 GrdErr=1.00D-07
 Number of steps in this run=      2 maximum allowed number of steps=      2.
 GradGradGradGradGradGradGradGradGradGradGradGradGradGradGradGradGradGrad

                          Input orientation:                          
 ---------------------------------------------------------------------
 Center     Atomic      Atomic             Coordinates (Angstroms)
 Number     Number       Type             X           Y           Z
 ---------------------------------------------------------------------
      1          8           0        7.628000    7.477000   12.232000
      2          6           0        8.256000    7.845000   13.469000
      3          6           0        7.792000    9.215000   13.934000
      4          8           0        7.981000   10.243000   12.951000
      5          1           0        7.928000    9.785000   12.064000
      6          6           0        8.296000    9.551000   15.328000
      7          8           0        7.903000   10.832000   15.842000
      8          1           0        8.442000   11.047000   16.657000
      9          6           0        8.668000    5.351000   14.306000
     10          8           0        8.189000    4.547000   13.218000
     11          1           0        7.931000    3.632000   13.528000
     12          6           0        8.049000    6.728000   14.479000
     13          8           0        8.522000    7.129000   15.773000
     14          6           0        8.065000    8.390000   16.283000
     15          8           0        8.814000    8.654000   17.478000
     16          6           0        8.265000    8.310000   18.759000
     17          6           0        8.613000    6.914000   19.247000
     18          8           0        8.308000    5.993000   18.190000
     19          1           0        8.435000    6.417000   17.293000
     20          6           0        8.042000    6.569000   20.613000
     21          8           0        8.722000    5.407000   21.111000
     22          1           0        8.437000    5.323000   22.065000
     23          6           0        8.351000   10.772000   19.563000
     24          8           0        9.098000   11.523000   18.595000
     25          1           0        9.023000   12.493000   18.828000
     26          6           0        8.703000    9.314000   19.812000
     27          8           0        7.881000    8.908000   20.916000
     28          6           0        8.238000    7.702000   21.607000
     29          8           0        7.487000    7.570000   22.823000
     30          1           0        8.090877    7.489463   23.564921
     31          1           0        9.276784    7.752460   21.858559
     32          1           0        6.997669    6.356221   20.518146
     33          1           0        9.676756    6.894179   19.360712
     34          1           0        7.199568    8.367661   18.678809
     35          1           0        9.740676    9.200034   20.046818
     36          1           0        8.436360   11.284417   20.498437
     37          1           0        7.323087   10.805464   19.267746
     38          1           0        7.023824    8.323793   16.520632
     39          1           0        9.359187    9.615471   15.226138
     40          1           0        6.730749    9.127313   14.038677
     41          1           0        8.301841    7.282028   11.576619
     42          1           0        9.307645    7.913842   13.284061
     43          1           0        6.992031    6.582636   14.560148
     44          1           0        8.508764    4.804319   15.211916
     45          1           0        9.722529    5.479787   14.178397
 ---------------------------------------------------------------------
                    Distance matrix (angstroms):
                    1          2          3          4          5
     1  O    0.000000
     2  C    1.435262   0.000000
     3  C    2.438103   1.519349   0.000000
     4  O    2.879640   2.468674   1.434850   0.000000
     5  H    2.333471   2.417687   1.959667   0.999671   0.000000
     6  C    3.785884   2.523473   1.519917   2.495640   3.293004
     7  O    4.935965   3.831176   2.503492   2.951421   3.920474
     8  H    5.743529   4.522250   3.345662   3.820127   4.790876
     9  C    3.146896   2.662771   3.979479   5.122466   5.023397
    10  O    3.141945   3.308216   4.739250   5.706047   5.369961
    11  H    4.068839   4.225929   5.599468   6.636321   6.324770
    12  C    2.405671   1.520078   2.558953   3.833358   3.897706
    13  O    3.668654   2.427309   2.875103   4.237141   4.600419
    14  C    4.175541   2.872647   2.504587   3.813514   4.445757
    15  O    5.505674   4.127702   3.730837   4.869552   5.601388
    16  C    6.610702   5.310405   4.931874   6.127806   6.863834
    17  C    7.106154   5.863403   5.847787   7.149915   7.765781
    18  O    6.177574   5.071533   5.362935   6.754003   7.214675
    19  H    5.233409   4.085854   4.418725   5.804942   6.240426
    20  C    8.440203   7.260214   7.188383   8.497543   9.134607
    21  O    9.182504   8.034996   8.177719   9.514283  10.081941
    22  H   10.098618   8.960160   9.037525  10.367224  10.963053
    23  C    8.069902   6.761153   5.867058   6.643439   7.575493
    24  O    7.682368   6.364945   5.362595   5.894135   6.858827
    25  H    8.403184   7.135200   6.017631   6.378667   7.367767
    26  C    7.873157   6.526210   5.949000   6.961153   7.800895
    27  O    8.804750   7.531826   6.989313   8.076723   8.895462
    28  C    9.397518   8.139276   7.833455   9.024914   9.772607
    29  O   10.592347   9.389585   9.045074  10.239402  10.993488
    30  H   11.342377  10.103529   9.788843  10.965827  11.728905
    31  H    9.770619   8.451938   8.194037   9.339510  10.093752
    32  H    8.385325   7.313708   7.221811   8.563626   9.170312
    33  H    7.440135   6.134727   6.195782   7.427960   8.040957
    34  H    6.522130   5.341473   4.856148   6.077444   6.804055
    35  H    8.276692   6.878087   6.415926   7.384773   8.206910
    36  H    9.136950   7.827842   6.912996   7.632543   8.581749
    37  H    7.789311   6.577243   5.585544   6.375774   7.300768
    38  H    4.412986   3.325651   2.841656   4.164350   4.776424
    39  H    4.066317   2.727476   2.070284   2.733029   3.475076
    40  H    2.606276   2.072498   1.070000   1.997730   2.401106
    41  H    0.960000   1.974878   3.090884   3.280124   2.577240
    42  H    2.029500   1.070000   2.100622   2.701091   2.625491
    43  H    2.573834   2.093272   2.821587   4.118942   4.166765
    44  H    4.098642   3.513885   4.647680   5.913504   5.920629
    45  H    3.487746   2.871965   4.211708   5.218009   5.121120
                    6          7          8          9         10
     6  C    0.000000
     7  O    1.435133   0.000000
     8  H    2.006383   1.000485   0.000000
     9  C    4.338533   5.743334   6.166254   0.000000
    10  O    5.431718   6.816773   7.358038   1.435131   0.000000
    11  H    6.197402   7.562763   8.064365   2.025689   0.999944
    12  C    2.958232   4.326881   4.853029   1.519611   2.523189
    13  O    2.472890   3.755014   4.017285   2.309695   3.647689
    14  C    1.520956   2.486783   2.709549   3.675277   4.917138
    15  O    2.386511   2.872299   2.557122   4.581780   5.950267
    16  C    3.648671   3.873037   3.455561   5.361651   6.698405
    17  C    4.734218   5.239165   4.880474   5.182613   6.490863
    18  O    4.566240   5.393797   5.283083   3.953128   5.179369
    19  H    3.701689   4.677676   4.673483   3.180065   4.490327
    20  C    6.073555   6.399604   5.988524   6.453964   7.667863
    21  O    7.127223   7.606822   7.192087   6.805445   7.957584
    22  H    7.955063   8.328263   7.874685   7.762488   8.884430
    23  C    4.407844   3.748352   2.920401   7.558027   8.890213
    24  O    3.899394   3.079694   2.100656   7.528214   8.854546
    25  H    4.629675   3.595764   2.672399   8.460654   9.762508
    26  C    4.508667   4.324954   3.609077   6.783998   8.152872
    27  O    5.640161   5.426577   4.798867   7.547431   8.852818
    28  C    6.545839   6.568436   5.977720   7.682233   8.962798
    29  O    7.794477   7.716739   7.142906   8.880203  10.093927
    30  H    8.493461   8.417325   7.778093   9.520174  10.757625
    31  H    6.844332   6.897089   6.213459   7.948507   9.279952
    32  H    6.231364   6.535944   6.244834   6.510855   7.614768
    33  H    5.022743   5.570814   5.106917   5.380437   6.742075
    34  H    3.718921   3.822992   3.579135   5.511623   6.737719
    35  H    4.947476   4.870407   4.072924   6.994476   8.407805
    36  H    5.455076   4.708669   3.848771   8.579357   9.922638
    37  H    4.247568   3.474584   2.850666   7.495258   8.747434
    38  H    2.132332   2.743100   3.073382   4.055294   5.150648
    39  H    1.070000   1.994921   2.222132   4.417025   5.575963
    40  H    2.071684   2.744468   3.670040   4.252639   4.876399
    41  H    4.384191   5.563708   6.324945   3.363400   3.191746
    42  H    2.807383   4.126951   4.684308   2.832255   3.548431
    43  H    3.331834   4.531016   5.140987   2.095326   2.716231
    44  H    4.752865   6.090722   6.408103   1.070000   2.035722
    45  H    4.464454   5.892745   6.227125   1.070000   2.035722
                   11         12         13         14         15
    11  H    0.000000
    12  C    3.240917   0.000000
    13  O    4.197418   1.434910   0.000000
    14  C    5.499686   2.452940   1.434946   0.000000
    15  O    6.450013   3.645367   2.306060   1.434825   0.000000
    16  C    7.025568   4.568127   3.221336   2.485352   1.435513
    17  C    6.628998   4.804843   3.481836   3.356215   2.489450
    18  O    5.239341   3.791942   2.679213   3.072671   2.800697
    19  H    4.710145   2.857326   1.680748   2.247160   2.276408
    20  C    7.670431   6.136064   4.895876   4.697390   3.843362
    21  O    7.828039   6.795689   5.612444   5.713101   4.873414
    22  H    8.717562   7.724763   6.546612   6.555639   5.681396
    23  C    9.358270   6.503245   5.259733   4.063757   3.007909
    24  O    9.450093   6.405769   5.253827   4.028414   3.091845
    25  H   10.382668   7.286817   6.193264   4.922337   4.074813
    26  C    8.507042   5.962885   4.595705   3.703331   2.428060
    27  O    9.078613   6.798205   5.479614   4.665498   3.571393
    28  C    9.051486   7.196720   5.868947   5.371057   4.276298
    29  O   10.104554   8.405186   7.139202   6.616501   5.612932
    30  H   10.753853   9.117869   7.812159   7.337439   6.239364
    31  H    9.390822   7.550818   6.163800   5.741231   4.496247
    32  H    7.560068   6.141238   5.043529   4.817875   4.221532
    33  H    6.907243   5.148622   3.776278   3.782532   2.717705
    34  H    7.035077   4.587855   3.424446   2.547424   2.032319
    35  H    8.762016   6.322446   4.903048   4.198854   2.784908
    36  H   10.363487   7.559405   6.293217   5.126936   4.023027
    37  H    9.207216   6.331251   5.212200   3.910704   3.170932
    38  H    5.638416   2.786719   2.056943   1.070000   2.056774
    39  H    6.381640   3.257652   2.680015   2.072115   2.508493
    40  H    5.647996   2.772791   3.195264   2.713087   4.048815
    41  H    4.155492   2.965584   4.204938   4.840839   6.080371
    42  H    4.504313   2.101973   2.725442   3.280934   4.287265
    43  H    3.263931   1.070000   2.027395   2.717728   4.015468
    44  H    2.131600   2.109288   2.391470   3.768455   4.477538
    45  H    2.654601   2.109288   2.589195   3.955515   4.667808
                   16         17         18         19         20
    16  C    0.000000
    17  C    1.519231   0.000000
    18  O    2.386231   1.434753   0.000000
    19  H    2.400314   2.024058   1.000257   0.000000
    20  C    2.553062   1.520205   2.504688   3.346633   0.000000
    21  O    3.764062   2.399464   3.007829   3.959747   1.435496
    22  H    4.458855   3.240892   3.934611   4.895797   1.953675
    23  C    2.591381   3.879776   4.972506   4.911821   4.343177
    24  O    3.323275   4.680087   5.600806   5.310933   5.452483
    25  H    4.251684   5.609715   6.570256   6.294422   6.264372
    26  C    1.519430   2.467250   3.716981   3.848350   2.934884
    27  O    2.271059   2.701374   4.013805   4.431493   2.364033
    28  C    2.912301   2.516181   3.821187   4.505622   1.519915
    29  O    4.203449   3.806046   4.962425   5.727915   2.488800
    30  H    4.878573   4.387278   5.583576   6.372251   3.092487
    31  H    3.307843   2.822032   4.182411   4.830774   2.115818
    32  H    2.918557   2.129842   2.696139   3.531456   1.070000
    33  H    2.087980   1.070000   2.013997   2.458676   2.084801
    34  H    1.070000   2.105649   2.665815   2.692923   2.772358
    35  H    2.151338   2.671575   3.973085   4.127176   3.182515
    36  H    3.449951   4.549488   5.774466   5.828085   4.733266
    37  H    2.715393   4.099731   5.029055   4.939087   4.502685
    38  H    2.559492   3.456310   3.141416   2.494760   4.567653
    39  H    3.922068   4.901232   4.797059   3.918706   6.327263
    40  H    5.030246   5.963913   5.435543   4.565182   7.175379
    41  H    7.255665   7.685506   6.737836   5.782994   9.068192
    42  H    5.587397   6.085956   5.362571   4.367338   7.558029
    43  H    4.715357   4.970304   3.905799   3.094846   6.143259
    44  H    4.993097   4.554505   3.212826   2.633836   5.701199
    45  H    5.578210   5.383192   4.284535   3.498121   6.739042
                   21         22         23         24         25
    21  O    0.000000
    22  H    0.999198   0.000000
    23  C    5.596175   5.996582   0.000000
    24  O    6.623978   7.135672   1.434933   0.000000
    25  H    7.450778   7.888629   1.988379   1.000407   0.000000
    26  C    4.117331   4.590735   1.520417   2.552801   3.343157
    27  O    3.605871   3.805465   2.350746   3.702209   4.303038
    28  C    2.397352   2.430845   3.689933   4.940828   5.593992
    29  O    3.022373   2.554618   4.650473   6.008121   6.523439
    30  H    3.279740   2.657654   5.182479   6.479494   6.952889
    31  H    2.523452   2.578784   3.904394   4.989965   5.632177
    32  H    2.055679   2.352016   4.716239   5.899617   6.679717
    33  H    2.487322   3.364339   4.103175   4.727288   5.661976
    34  H    4.122968   4.718844   2.808636   3.683372   4.512825
    35  H    4.069065   4.561142   2.153220   2.813713   3.583881
    36  H    5.916152   6.163815   1.070000   2.029227   2.143637
    37  H    5.873496   6.254825   1.070000   2.029227   2.435336
    38  H    5.697628   6.460793   4.124454   4.340523   5.167489
    39  H    7.262840   8.126855   4.600258   3.880221   4.622402
    40  H    8.235506   9.044664   5.987350   5.665975   6.286484
    41  H    9.726083  10.670623   8.715767   8.238773   8.958617
    42  H    8.239431   9.196487   6.964863   6.424644   7.196177
    43  H    6.876669   7.745800   6.665290   6.717316   7.567813
    44  H    5.933623   6.873059   7.387153   7.545404   8.512127
    45  H    7.004809   7.992226   7.673497   7.511115   8.443536
                   26         27         28         29         30
    26  C    0.000000
    27  O    1.435039   0.000000
    28  C    2.456989   1.435049   0.000000
    29  O    3.685962   2.362653   1.435298   0.000000
    30  H    4.217588   3.012155   1.974911   0.960000   0.000000
    31  H    2.637430   2.042524   1.070000   2.041266   2.094568
    32  H    3.486438   2.729494   2.129588   2.650482   3.429603
    33  H    2.647148   3.114343   2.787186   4.152012   4.532632
    34  H    2.107128   2.400279   3.177381   4.230035   5.043784
    35  H    1.070000   2.073441   2.633687   3.929790   4.245579
    36  H    2.103529   2.475912   3.755259   4.483500   4.891254
    37  H    2.103529   2.574563   3.992576   4.809878   5.481886
    38  H    3.825343   4.516117   5.266117   6.364164   7.173334
    39  H    4.642370   5.921156   6.755282   8.087110   8.698496
    40  H    6.103760   6.976299   7.847473   8.953294   9.761241
    41  H    8.491840   9.489201  10.039372  11.279538  11.991952
    42  H    6.703732   7.827526   8.394065   9.717219  10.361308
    43  H    6.161957   6.826012   7.243172   8.336342   9.116783
    44  H    6.444821   7.054846   7.026163   8.162205   8.783923
    45  H    6.890436   7.780692   7.894695   9.170373   9.736936
                   31         32         33         34         35
    31  H    0.000000
    32  H    2.990076   0.000000
    33  H    2.671304   2.967585   0.000000
    34  H    3.847611   2.733096   2.961857   0.000000
    35  H    2.364967   3.979134   2.406614   3.003585   0.000000
    36  H    3.876979   5.133940   4.701828   3.653515   2.499971
    37  H    4.455343   4.633050   4.565802   2.510973   3.004846
    38  H    5.822003   4.455574   4.141002   2.165765   4.536858
    39  H    6.889601   6.648672   4.959937   4.259333   4.853564
    40  H    8.338050   7.052214   6.479961   4.725218   6.720321
    41  H   10.338767   9.083441   7.914096   7.268748   8.803026
    42  H    8.576072   7.752043   6.172653   5.809754   6.897586
    43  H    7.736626   5.962301   5.509103   4.493634   6.671535
    44  H    7.311583   5.731308   4.790013   5.141084   6.649526
    45  H    8.021759   6.955963   5.372056   5.912601   6.948305
                   36         37         38         39         40
    36  H    0.000000
    37  H    1.727245   0.000000
    38  H    5.155918   3.714146   0.000000
    39  H    5.606614   4.679357   2.966154   0.000000
    40  H    7.020734   5.523605   2.625193   2.925244   0.000000
    41  H    9.779369   8.516219   5.211705   4.458916   3.454726
    42  H    8.010439   6.935736   3.982373   2.582608   2.946583
    43  H    7.710779   6.332720   2.622238   3.904493   2.610667
    44  H    8.363266   7.339572   4.037880   4.885755   4.819347
    45  H    8.677031   7.747362   4.566995   4.281783   4.719609
                   41         42         43         44         45
    41  H    0.000000
    42  H    2.079949   0.000000
    43  H    3.332597   2.960166   0.000000
    44  H    4.404230   3.744859   2.426457   0.000000
    45  H    3.469247   2.626136   2.969449   1.731370   0.000000
 Stoichiometry    C12H22O11
 Framework group  C1[X(C12H22O11)]
 Deg. of freedom   129
 Full point group                 C1      NOp   1
 Largest Abelian subgroup         C1      NOp   1
 Largest concise Abelian subgroup C1      NOp   1
                         Standard orientation:                         
 ---------------------------------------------------------------------
 Center     Atomic      Atomic             Coordinates (Angstroms)
 Number     Number       Type             X           Y           Z
 ---------------------------------------------------------------------
      1          8           0        5.030671   -0.356420   -0.525313
      2          6           0        3.766987   -0.037430    0.075789
      3          6           0        3.257086    1.311924   -0.401353
      4          8           0        4.193770    2.378999   -0.194546
      5          1           0        5.099388    1.956993   -0.227845
      6          6           0        1.840448    1.592403    0.072584
      7          8           0        1.283689    2.850980   -0.334366
      8          1           0        0.449589    3.033931    0.186955
      9          6           0        3.022522   -2.562386    0.476687
     10          8           0        4.151774   -3.322761    0.022571
     11          1           0        3.884298   -4.249950   -0.239472
     12          6           0        2.807287   -1.194550   -0.149347
     13          8           0        1.488581   -0.845153    0.295515
     14          6           0        0.937964    0.393491   -0.175286
     15          8           0       -0.282116    0.610468    0.547935
     16          6           0       -1.536462    0.214211   -0.026779
     17          6           0       -1.975105   -1.199697    0.314574
     18          8           0       -0.875761   -2.077922    0.034076
     19          1           0        0.000603   -1.617927    0.178665
     20          6           0       -3.313862   -1.600414   -0.283906
     21          8           0       -3.778861   -2.780335    0.388560
     22          1           0       -4.722530   -2.903176    0.083938
     23          6           0       -2.440455    2.641988    0.036060
     24          8           0       -1.519305    3.432657    0.801147
     25          1           0       -1.789506    4.392357    0.718794
     26          6           0       -2.637934    1.175761    0.386559
     27          8           0       -3.707249    0.724205   -0.457242
     28          6           0       -4.356513   -0.508015   -0.111617
     29          8           0       -5.550220   -0.690179   -0.887479
     30          1           0       -6.300790   -0.799470   -0.299006
     31          1           0       -4.631605   -0.465912    0.921559
     32          1           0       -3.188669   -1.811022   -1.325477
     33          1           0       -2.110188   -1.222223    1.375774
     34          1           0       -1.436351    0.273194   -1.090451
     35          1           0       -2.889666    1.054244    1.419402
     36          1           0       -3.397327    3.116473    0.100560
     37          1           0       -2.125316    2.685519   -0.985553
     38          1           0        0.725052    0.315952   -1.221018
     39          1           0        1.917338    1.662778    1.137495
     40          1           0        3.178277    1.218242   -1.464327
     41          1           0        5.679103   -0.523669    0.162556
     42          1           0        3.926935    0.040638    1.130882
     43          1           0        2.754211   -1.344908   -1.207400
     44          1           0        2.142861   -3.145376    0.300001
     45          1           0        3.122722   -2.426726    1.533312
 ---------------------------------------------------------------------
 Rotational constants (GHZ):      0.3906555      0.1450702      0.1090252
 Standard basis: 6-31+G(d,p) (6D, 7F)
 There are   547 symmetry adapted basis functions of A   symmetry.
 Integral buffers will be    131072 words long.
 Raffenetti 2 integral format.
 Two-electron integral symmetry is turned on.
   547 basis functions,   890 primitive gaussians,   547 cartesian basis functions
    91 alpha electrons       91 beta electrons
       nuclear repulsion energy      2272.6103193062 Hartrees.
 NAtoms=   45 NActive=   45 NUniq=   45 SFac= 1.00D+00 NAtFMM=   50 NAOKFM=F Big=F
 One-electron integrals computed using PRISM.
 NBasis=   547 RedAO= T  NBF=   547
 NBsUse=   547 1.00D-06 NBFU=   547
 Harris functional with IExCor=  402 diagonalized for initial guess.
 ExpMin= 4.38D-02 ExpMax= 5.48D+03 ExpMxC= 8.25D+02 IAcc=2 IRadAn=         0 AccDes= 0.00D+00
 HarFok:  IExCor=  402 AccDes= 0.00D+00 IRadAn=         0 IDoV= 1
 ScaDFX=  1.000000  1.000000  1.000000  1.000000
 FoFCou: FMM=F IPFlag=           0 FMFlag=      100000 FMFlg1=           0
         NFxFlg=           0 DoJE=T BraDBF=F KetDBF=T FulRan=T
         Omega=  0.000000  0.000000  1.000000  0.000000  0.000000 ICntrl=     500 IOpCl=  0
         NMat0=    1 NMatS0=    1 NMatT0=    0 NMatD0=    1 NMtDS0=    0 NMtDT0=    0
         I1Cent=           4 NGrid=           0.
 Petite list used in FoFCou.
 Initial guess orbital symmetries:
       Occupied  (A) (A) (A) (A) (A) (A) (A) (A) (A) (A) (A) (A)
                 (A) (A) (A) (A) (A) (A) (A) (A) (A) (A) (A) (A)
                 (A) (A) (A) (A) (A) (A) (A) (A) (A) (A) (A) (A)
                 (A) (A) (A) (A) (A) (A) (A) (A) (A) (A) (A) (A)
                 (A) (A) (A) (A) (A) (A) (A) (A) (A) (A) (A) (A)
                 (A) (A) (A) (A) (A) (A) (A) (A) (A) (A) (A) (A)
                 (A) (A) (A) (A) (A) (A) (A) (A) (A) (A) (A) (A)
                 (A) (A) (A) (A) (A) (A) (A)
       Virtual   (A) (A) (A) (A) (A) (A) (A) (A) (A) (A) (A) (A)
                 (A) (A) (A) (A) (A) (A) (A) (A) (A) (A) (A) (A)
                 (A) (A) (A) (A) (A) (A) (A) (A) (A) (A) (A) (A)
                 (A) (A) (A) (A) (A) (A) (A) (A) (A) (A) (A) (A)
                 (A) (A) (A) (A) (A) (A) (A) (A) (A) (A) (A) (A)
                 (A) (A) (A) (A) (A) (A) (A) (A) (A) (A) (A) (A)
                 (A) (A) (A) (A) (A) (A) (A) (A) (A) (A) (A) (A)
                 (A) (A) (A) (A) (A) (A) (A) (A) (A) (A) (A) (A)
                 (A) (A) (A) (A) (A) (A) (A) (A) (A) (A) (A) (A)
                 (A) (A) (A) (A) (A) (A) (A) (A) (A) (A) (A) (A)
                 (A) (A) (A) (A) (A) (A) (A) (A) (A) (A) (A) (A)
                 (A) (A) (A) (A) (A) (A) (A) (A) (A) (A) (A) (A)
                 (A) (A) (A) (A) (A) (A) (A) (A) (A) (A) (A) (A)
                 (A) (A) (A) (A) (A) (A) (A) (A) (A) (A) (A) (A)
                 (A) (A) (A) (A) (A) (A) (A) (A) (A) (A) (A) (A)
                 (A) (A) (A) (A) (A) (A) (A) (A) (A) (A) (A) (A)
                 (A) (A) (A) (A) (A) (A) (A) (A) (A) (A) (A) (A)
                 (A) (A) (A) (A) (A) (A) (A) (A) (A) (A) (A) (A)
                 (A) (A) (A) (A) (A) (A) (A) (A) (A) (A) (A) (A)
                 (A) (A) (A) (A) (A) (A) (A) (A) (A) (A) (A) (A)
                 (A) (A) (A) (A) (A) (A) (A) (A) (A) (A) (A) (A)
                 (A) (A) (A) (A) (A) (A) (A) (A) (A) (A) (A) (A)
                 (A) (A) (A) (A) (A) (A) (A) (A) (A) (A) (A) (A)
                 (A) (A) (A) (A) (A) (A) (A) (A) (A) (A) (A) (A)
                 (A) (A) (A) (A) (A) (A) (A) (A) (A) (A) (A) (A)
                 (A) (A) (A) (A) (A) (A) (A) (A) (A) (A) (A) (A)
                 (A) (A) (A) (A) (A) (A) (A) (A) (A) (A) (A) (A)
                 (A) (A) (A) (A) (A) (A) (A) (A) (A) (A) (A) (A)
                 (A) (A) (A) (A) (A) (A) (A) (A) (A) (A) (A) (A)
                 (A) (A) (A) (A) (A) (A) (A) (A) (A) (A) (A) (A)
                 (A) (A) (A) (A) (A) (A) (A) (A) (A) (A) (A) (A)
                 (A) (A) (A) (A) (A) (A) (A) (A) (A) (A) (A) (A)
                 (A) (A) (A) (A) (A) (A) (A) (A) (A) (A) (A) (A)
                 (A) (A) (A) (A) (A) (A) (A) (A) (A) (A) (A) (A)
                 (A) (A) (A) (A) (A) (A) (A) (A) (A) (A) (A) (A)
                 (A) (A) (A) (A) (A) (A) (A) (A) (A) (A) (A) (A)
                 (A) (A) (A) (A) (A) (A) (A) (A) (A) (A) (A) (A)
                 (A) (A) (A) (A) (A) (A) (A) (A) (A) (A) (A) (A)
 The electronic state of the initial guess is 1-A.
 Requested convergence on RMS density matrix=1.00D-08 within 128 cycles.
 Requested convergence on MAX density matrix=1.00D-06.
 Requested convergence on             energy=1.00D-06.
 No special actions if energy rises.
 SCF Done:  E(RB3LYP) =  -1297.94131357     A.U. after   14 cycles
             Convg  =    0.2866D-08             -V/T =  2.0088
 Range of M.O.s used for correlation:     1   547
 NBasis=   547 NAE=    91 NBE=    91 NFC=     0 NFV=     0
 NROrb=    547 NOA=    91 NOB=    91 NVA=   456 NVB=   456

 **** Warning!!: The largest alpha MO coefficient is  0.63412031D+02

          Differentiating once with respect to electric field.
                with respect to dipole field.
          Electric field/nuclear overlap derivatives assumed to be zero.
          There are     3 degrees of freedom in the 1st order CPHF.  IDoFFX=0.
      3 vectors produced by pass  0 Test12= 1.38D-12 3.33D-08 XBig12= 1.20D+02 1.28D+00.
 AX will form     3 AO Fock derivatives at one time.
      3 vectors produced by pass  1 Test12= 1.38D-12 3.33D-08 XBig12= 2.12D+01 3.64D-01.
      3 vectors produced by pass  2 Test12= 1.38D-12 3.33D-08 XBig12= 9.17D+00 2.33D-01.
      3 vectors produced by pass  3 Test12= 1.38D-12 3.33D-08 XBig12= 8.83D-01 9.82D-02.
      3 vectors produced by pass  4 Test12= 1.38D-12 3.33D-08 XBig12= 2.58D-01 4.25D-02.
      3 vectors produced by pass  5 Test12= 1.38D-12 3.33D-08 XBig12= 4.77D-02 2.34D-02.
      3 vectors produced by pass  6 Test12= 1.38D-12 3.33D-08 XBig12= 1.63D-02 1.43D-02.
      3 vectors produced by pass  7 Test12= 1.38D-12 3.33D-08 XBig12= 2.29D-03 7.75D-03.
      3 vectors produced by pass  8 Test12= 1.38D-12 3.33D-08 XBig12= 3.41D-04 2.28D-03.
      3 vectors produced by pass  9 Test12= 1.38D-12 3.33D-08 XBig12= 8.90D-05 1.04D-03.
      3 vectors produced by pass 10 Test12= 1.38D-12 3.33D-08 XBig12= 2.31D-05 3.82D-04.
      3 vectors produced by pass 11 Test12= 1.38D-12 3.33D-08 XBig12= 6.47D-06 1.81D-04.
      3 vectors produced by pass 12 Test12= 1.38D-12 3.33D-08 XBig12= 4.80D-07 5.98D-05.
      3 vectors produced by pass 13 Test12= 1.38D-12 3.33D-08 XBig12= 1.15D-07 3.69D-05.
      3 vectors produced by pass 14 Test12= 1.38D-12 3.33D-08 XBig12= 2.84D-08 1.85D-05.
      3 vectors produced by pass 15 Test12= 1.38D-12 3.33D-08 XBig12= 7.45D-09 1.07D-05.
      3 vectors produced by pass 16 Test12= 1.38D-12 3.33D-08 XBig12= 1.18D-09 4.26D-06.
      3 vectors produced by pass 17 Test12= 1.38D-12 3.33D-08 XBig12= 9.94D-11 7.79D-07.
      3 vectors produced by pass 18 Test12= 1.38D-12 3.33D-08 XBig12= 2.76D-11 3.57D-07.
      3 vectors produced by pass 19 Test12= 1.38D-12 3.33D-08 XBig12= 1.16D-11 3.56D-07.
      2 vectors produced by pass 20 Test12= 1.38D-12 3.33D-08 XBig12= 1.05D-11 2.96D-07.
      2 vectors produced by pass 21 Test12= 1.38D-12 3.33D-08 XBig12= 6.85D-12 2.66D-07.
      1 vectors produced by pass 22 Test12= 1.38D-12 3.33D-08 XBig12= 1.43D-12 9.03D-08.
 Inverted reduced A of dimension    65 with in-core refinement.
 End of Minotr Frequency-dependent properties file   721 does not exist.
 End of Minotr Frequency-dependent properties file   722 does not exist.
 Symmetrizing basis deriv contribution to polar:
 IMax=3 JMax=2 DiffMx= 0.00D+00
 G2DrvN: will do    23 centers at a time, making    2 passes doing MaxLOS=2.
 Calling FoFCou, ICntrl=  3107 FMM=F I1Cent=   0 AccDes= 0.00D+00.
 Calling FoFCou, ICntrl=  3107 FMM=F I1Cent=   0 AccDes= 0.00D+00.
 FoFDir/FoFCou used for L=0 through L=2.
 End of G2Drv Frequency-dependent properties file   721 does not exist.
 End of G2Drv Frequency-dependent properties file   722 does not exist.
          IDoAtm=111111111111111111111111111111111111111111111
          Differentiating once with respect to electric field.
                with respect to dipole field.
          Differentiating once with respect to nuclear coordinates.
          There are   138 degrees of freedom in the 1st order CPHF.  IDoFFX=5.
 Will reuse    3 saved solutions.
    135 vectors produced by pass  0 Test12= 4.15D-14 1.00D-09 XBig12= 2.26D-01 9.16D-02.
 AX will form    68 AO Fock derivatives at one time.
    135 vectors produced by pass  1 Test12= 4.15D-14 1.00D-09 XBig12= 3.94D-02 1.37D-02.
    132 vectors produced by pass  2 Test12= 4.15D-14 1.00D-09 XBig12= 2.38D-04 2.12D-03.
    132 vectors produced by pass  3 Test12= 4.15D-14 1.00D-09 XBig12= 7.47D-07 9.61D-05.
    132 vectors produced by pass  4 Test12= 4.15D-14 1.00D-09 XBig12= 1.42D-09 4.15D-06.
    132 vectors produced by pass  5 Test12= 4.15D-14 1.00D-09 XBig12= 4.20D-12 1.37D-07.
     79 vectors produced by pass  6 Test12= 4.15D-14 1.00D-09 XBig12= 1.90D-13 2.45D-08.
      1 vectors produced by pass  7 Test12= 4.15D-14 1.00D-09 XBig12= 2.38D-16 1.07D-09.
 Inverted reduced A of dimension   878 with in-core refinement.
 Isotropic polarizability for W=    0.000000      188.61 Bohr**3.
 End of Minotr Frequency-dependent properties file   721 does not exist.
 End of Minotr Frequency-dependent properties file   722 does not exist.

 **********************************************************************

            Population analysis using the SCF density.

 **********************************************************************

 Orbital symmetries:
       Occupied  (A) (A) (A) (A) (A) (A) (A) (A) (A) (A) (A) (A)
                 (A) (A) (A) (A) (A) (A) (A) (A) (A) (A) (A) (A)
                 (A) (A) (A) (A) (A) (A) (A) (A) (A) (A) (A) (A)
                 (A) (A) (A) (A) (A) (A) (A) (A) (A) (A) (A) (A)
                 (A) (A) (A) (A) (A) (A) (A) (A) (A) (A) (A) (A)
                 (A) (A) (A) (A) (A) (A) (A) (A) (A) (A) (A) (A)
                 (A) (A) (A) (A) (A) (A) (A) (A) (A) (A) (A) (A)
                 (A) (A) (A) (A) (A) (A) (A)
       Virtual   (A) (A) (A) (A) (A) (A) (A) (A) (A) (A) (A) (A)
                 (A) (A) (A) (A) (A) (A) (A) (A) (A) (A) (A) (A)
                 (A) (A) (A) (A) (A) (A) (A) (A) (A) (A) (A) (A)
                 (A) (A) (A) (A) (A) (A) (A) (A) (A) (A) (A) (A)
                 (A) (A) (A) (A) (A) (A) (A) (A) (A) (A) (A) (A)
                 (A) (A) (A) (A) (A) (A) (A) (A) (A) (A) (A) (A)
                 (A) (A) (A) (A) (A) (A) (A) (A) (A) (A) (A) (A)
                 (A) (A) (A) (A) (A) (A) (A) (A) (A) (A) (A) (A)
                 (A) (A) (A) (A) (A) (A) (A) (A) (A) (A) (A) (A)
                 (A) (A) (A) (A) (A) (A) (A) (A) (A) (A) (A) (A)
                 (A) (A) (A) (A) (A) (A) (A) (A) (A) (A) (A) (A)
                 (A) (A) (A) (A) (A) (A) (A) (A) (A) (A) (A) (A)
                 (A) (A) (A) (A) (A) (A) (A) (A) (A) (A) (A) (A)
                 (A) (A) (A) (A) (A) (A) (A) (A) (A) (A) (A) (A)
                 (A) (A) (A) (A) (A) (A) (A) (A) (A) (A) (A) (A)
                 (A) (A) (A) (A) (A) (A) (A) (A) (A) (A) (A) (A)
                 (A) (A) (A) (A) (A) (A) (A) (A) (A) (A) (A) (A)
                 (A) (A) (A) (A) (A) (A) (A) (A) (A) (A) (A) (A)
                 (A) (A) (A) (A) (A) (A) (A) (A) (A) (A) (A) (A)
                 (A) (A) (A) (A) (A) (A) (A) (A) (A) (A) (A) (A)
                 (A) (A) (A) (A) (A) (A) (A) (A) (A) (A) (A) (A)
                 (A) (A) (A) (A) (A) (A) (A) (A) (A) (A) (A) (A)
                 (A) (A) (A) (A) (A) (A) (A) (A) (A) (A) (A) (A)
                 (A) (A) (A) (A) (A) (A) (A) (A) (A) (A) (A) (A)
                 (A) (A) (A) (A) (A) (A) (A) (A) (A) (A) (A) (A)
                 (A) (A) (A) (A) (A) (A) (A) (A) (A) (A) (A) (A)
                 (A) (A) (A) (A) (A) (A) (A) (A) (A) (A) (A) (A)
                 (A) (A) (A) (A) (A) (A) (A) (A) (A) (A) (A) (A)
                 (A) (A) (A) (A) (A) (A) (A) (A) (A) (A) (A) (A)
                 (A) (A) (A) (A) (A) (A) (A) (A) (A) (A) (A) (A)
                 (A) (A) (A) (A) (A) (A) (A) (A) (A) (A) (A) (A)
                 (A) (A) (A) (A) (A) (A) (A) (A) (A) (A) (A) (A)
                 (A) (A) (A) (A) (A) (A) (A) (A) (A) (A) (A) (A)
                 (A) (A) (A) (A) (A) (A) (A) (A) (A) (A) (A) (A)
                 (A) (A) (A) (A) (A) (A) (A) (A) (A) (A) (A) (A)
                 (A) (A) (A) (A) (A) (A) (A) (A) (A) (A) (A) (A)
                 (A) (A) (A) (A) (A) (A) (A) (A) (A) (A) (A) (A)
                 (A) (A) (A) (A) (A) (A) (A) (A) (A) (A) (A) (A)
 The electronic state is 1-A.
 Alpha  occ. eigenvalues --  -19.20109 -19.20050 -19.19011 -19.19006 -19.18463
 Alpha  occ. eigenvalues --  -19.18265 -19.17355 -19.17130 -19.16588 -19.15647
 Alpha  occ. eigenvalues --  -19.13976 -10.31752 -10.31552 -10.26767 -10.26530
 Alpha  occ. eigenvalues --  -10.26500 -10.25639 -10.25376 -10.25299 -10.25253
 Alpha  occ. eigenvalues --  -10.25213 -10.25051 -10.24513  -1.10358  -1.09271
 Alpha  occ. eigenvalues --   -1.05981  -1.05096  -1.04339  -1.03968  -1.03323
 Alpha  occ. eigenvalues --   -1.02828  -1.02528  -1.01007  -1.00143  -0.82353
 Alpha  occ. eigenvalues --   -0.80987  -0.79657  -0.78664  -0.72165  -0.70756
 Alpha  occ. eigenvalues --   -0.67988  -0.64984  -0.63793  -0.62993  -0.61548
 Alpha  occ. eigenvalues --   -0.60474  -0.56925  -0.56057  -0.55560  -0.55169
 Alpha  occ. eigenvalues --   -0.54639  -0.53950  -0.52954  -0.52174  -0.51371
 Alpha  occ. eigenvalues --   -0.50700  -0.50224  -0.49901  -0.49008  -0.46720
 Alpha  occ. eigenvalues --   -0.46386  -0.45637  -0.44978  -0.44236  -0.43910
 Alpha  occ. eigenvalues --   -0.42722  -0.42244  -0.41651  -0.40115  -0.39283
 Alpha  occ. eigenvalues --   -0.38923  -0.38124  -0.37096  -0.36448  -0.35830
 Alpha  occ. eigenvalues --   -0.35374  -0.35090  -0.34825  -0.34186  -0.33835
 Alpha  occ. eigenvalues --   -0.32987  -0.31851  -0.31256  -0.30416  -0.30141
 Alpha  occ. eigenvalues --   -0.29858  -0.29247  -0.27778  -0.27697  -0.27598
 Alpha  occ. eigenvalues --   -0.26345
 Alpha virt. eigenvalues --   -0.02632  -0.02063  -0.01966  -0.00520   0.00496
 Alpha virt. eigenvalues --    0.01118   0.01869   0.02324   0.03049   0.03342
 Alpha virt. eigenvalues --    0.03922   0.04325   0.04760   0.05276   0.05521
 Alpha virt. eigenvalues --    0.06024   0.06500   0.07224   0.07593   0.08079
 Alpha virt. eigenvalues --    0.08481   0.08763   0.09125   0.09575   0.09977
 Alpha virt. eigenvalues --    0.10498   0.10905   0.11122   0.11485   0.11766
 Alpha virt. eigenvalues --    0.12573   0.12758   0.13218   0.13623   0.13682
 Alpha virt. eigenvalues --    0.14214   0.14291   0.14563   0.14902   0.15101
 Alpha virt. eigenvalues --    0.15599   0.16031   0.16587   0.16677   0.16857
 Alpha virt. eigenvalues --    0.17052   0.17213   0.17863   0.18000   0.18278
 Alpha virt. eigenvalues --    0.18666   0.18795   0.19313   0.19451   0.19992
 Alpha virt. eigenvalues --    0.20263   0.20759   0.21195   0.21256   0.21492
 Alpha virt. eigenvalues --    0.21920   0.22090   0.22216   0.22773   0.22835
 Alpha virt. eigenvalues --    0.23445   0.23677   0.23926   0.24078   0.24282
 Alpha virt. eigenvalues --    0.24720   0.25305   0.25436   0.25533   0.26152
 Alpha virt. eigenvalues --    0.26500   0.26651   0.26759   0.27090   0.27329
 Alpha virt. eigenvalues --    0.27675   0.27845   0.27980   0.28384   0.28743
 Alpha virt. eigenvalues --    0.28817   0.29523   0.30029   0.30079   0.30184
 Alpha virt. eigenvalues --    0.30653   0.30718   0.31475   0.31801   0.32109
 Alpha virt. eigenvalues --    0.32429   0.33035   0.33278   0.33361   0.33734
 Alpha virt. eigenvalues --    0.33910   0.34581   0.34965   0.35326   0.35612
 Alpha virt. eigenvalues --    0.36045   0.36303   0.36486   0.37191   0.37717
 Alpha virt. eigenvalues --    0.37895   0.38235   0.38526   0.38904   0.39585
 Alpha virt. eigenvalues --    0.39836   0.40402   0.41170   0.41229   0.41569
 Alpha virt. eigenvalues --    0.42062   0.42518   0.43170   0.43328   0.43750
 Alpha virt. eigenvalues --    0.44534   0.45220   0.45467   0.46229   0.46773
 Alpha virt. eigenvalues --    0.47134   0.48136   0.48490   0.49215   0.49769
 Alpha virt. eigenvalues --    0.50736   0.51386   0.56013   0.62002   0.62529
 Alpha virt. eigenvalues --    0.63995   0.66557   0.67171   0.68012   0.68890
 Alpha virt. eigenvalues --    0.69707   0.71833   0.72487   0.73320   0.74083
 Alpha virt. eigenvalues --    0.74428   0.75501   0.75922   0.77076   0.78400
 Alpha virt. eigenvalues --    0.79437   0.79738   0.80803   0.81079   0.83666
 Alpha virt. eigenvalues --    0.86188   0.86511   0.86646   0.87918   0.89315
 Alpha virt. eigenvalues --    0.90468   0.90941   0.92253   0.93326   0.95076
 Alpha virt. eigenvalues --    0.95851   0.96987   0.97771   0.99374   0.99819
 Alpha virt. eigenvalues --    1.00453   1.00993   1.01554   1.03553   1.03799
 Alpha virt. eigenvalues --    1.04088   1.04645   1.05333   1.06848   1.07669
 Alpha virt. eigenvalues --    1.07788   1.08509   1.09008   1.09209   1.09835
 Alpha virt. eigenvalues --    1.10878   1.11259   1.13145   1.13318   1.15095
 Alpha virt. eigenvalues --    1.16240   1.16974   1.17850   1.19342   1.20221
 Alpha virt. eigenvalues --    1.21351   1.22244   1.22615   1.23317   1.23507
 Alpha virt. eigenvalues --    1.25333   1.26164   1.27103   1.27649   1.28092
 Alpha virt. eigenvalues --    1.28521   1.29265   1.29485   1.30192   1.30311
 Alpha virt. eigenvalues --    1.31172   1.32467   1.32880   1.34328   1.34605
 Alpha virt. eigenvalues --    1.35702   1.36059   1.36608   1.37299   1.37559
 Alpha virt. eigenvalues --    1.39172   1.39841   1.41402   1.42122   1.42582
 Alpha virt. eigenvalues --    1.45167   1.45438   1.46773   1.47062   1.47789
 Alpha virt. eigenvalues --    1.48468   1.49997   1.50497   1.51329   1.52043
 Alpha virt. eigenvalues --    1.53503   1.53658   1.56251   1.57463   1.57961
 Alpha virt. eigenvalues --    1.58409   1.59487   1.59653   1.60501   1.60711
 Alpha virt. eigenvalues --    1.61516   1.62654   1.63840   1.64535   1.65163
 Alpha virt. eigenvalues --    1.66030   1.66569   1.67728   1.68263   1.68510
 Alpha virt. eigenvalues --    1.70064   1.71040   1.71374   1.72503   1.73177
 Alpha virt. eigenvalues --    1.73941   1.75198   1.75539   1.75931   1.77336
 Alpha virt. eigenvalues --    1.77815   1.78365   1.79844   1.80684   1.81799
 Alpha virt. eigenvalues --    1.82575   1.83285   1.84532   1.85718   1.85916
 Alpha virt. eigenvalues --    1.86168   1.87162   1.88313   1.89562   1.90184
 Alpha virt. eigenvalues --    1.91447   1.92121   1.92379   1.93482   1.94196
 Alpha virt. eigenvalues --    1.94370   1.95539   1.95863   1.96874   1.97481
 Alpha virt. eigenvalues --    1.98455   1.99567   2.00613   2.01674   2.02040
 Alpha virt. eigenvalues --    2.02618   2.03480   2.04807   2.05371   2.06691
 Alpha virt. eigenvalues --    2.07563   2.07668   2.09431   2.09830   2.11207
 Alpha virt. eigenvalues --    2.12551   2.13413   2.13543   2.14763   2.15058
 Alpha virt. eigenvalues --    2.15221   2.16872   2.18045   2.19092   2.19644
 Alpha virt. eigenvalues --    2.20921   2.22203   2.24074   2.24615   2.26247
 Alpha virt. eigenvalues --    2.27981   2.29384   2.32439   2.33508   2.33777
 Alpha virt. eigenvalues --    2.35174   2.36696   2.37033   2.37727   2.38082
 Alpha virt. eigenvalues --    2.39850   2.41250   2.41717   2.42699   2.44544
 Alpha virt. eigenvalues --    2.44884   2.46383   2.46899   2.48062   2.49053
 Alpha virt. eigenvalues --    2.49720   2.50669   2.52375   2.53212   2.54445
 Alpha virt. eigenvalues --    2.55966   2.56716   2.57443   2.58732   2.59518
 Alpha virt. eigenvalues --    2.60234   2.61079   2.61711   2.62067   2.63000
 Alpha virt. eigenvalues --    2.64848   2.65460   2.65883   2.66778   2.68334
 Alpha virt. eigenvalues --    2.69574   2.70267   2.71569   2.72858   2.74201
 Alpha virt. eigenvalues --    2.75980   2.77579   2.77763   2.78375   2.79989
 Alpha virt. eigenvalues --    2.80750   2.81655   2.83440   2.83956   2.84894
 Alpha virt. eigenvalues --    2.86590   2.87273   2.88194   2.89153   2.89452
 Alpha virt. eigenvalues --    2.89731   2.91514   2.92734   2.93577   2.94785
 Alpha virt. eigenvalues --    2.96200   2.96803   2.97389   2.97852   2.99539
 Alpha virt. eigenvalues --    3.00311   3.02180   3.03356   3.04969   3.05779
 Alpha virt. eigenvalues --    3.05931   3.08437   3.10514   3.11187   3.12912
 Alpha virt. eigenvalues --    3.16979   3.17718   3.21385   3.26482   3.29578
 Alpha virt. eigenvalues --    3.31396   3.36040   3.37307   3.38509   3.39111
 Alpha virt. eigenvalues --    3.40550   3.43435   3.45482   3.45734   3.48614
 Alpha virt. eigenvalues --    3.48763   3.50516   3.51872   3.52557   3.53416
 Alpha virt. eigenvalues --    3.55899   3.57210   3.60950   3.61519   3.62543
 Alpha virt. eigenvalues --    3.65782   3.68327   3.76865   4.28892   4.31333
 Alpha virt. eigenvalues --    4.32545   4.35637   4.36257   4.39410   4.44955
 Alpha virt. eigenvalues --    4.47125   4.49754   4.50803   4.51722   4.52417
 Alpha virt. eigenvalues --    4.55766   4.58750   4.59608   4.63391   4.69099
 Alpha virt. eigenvalues --    4.73424   4.78628   4.82697   4.84676   4.89216
 Alpha virt. eigenvalues --    4.90922
          Condensed to atoms (all electrons):
              1          2          3          4          5          6
     1  O    8.264372   0.278157  -0.137916  -0.021569   0.030917   0.125823
     2  C    0.278157   9.455214  -1.001978   0.042946  -0.091243  -2.733370
     3  C   -0.137916  -1.001978   9.381450   0.288660   0.036587  -0.847294
     4  O   -0.021569   0.042946   0.288660   8.208281   0.192043  -0.209373
     5  H    0.030917  -0.091243   0.036587   0.192043   0.431678   0.024611
     6  C    0.125823  -2.733370  -0.847294  -0.209373   0.024611  12.180575
     7  O   -0.001398  -0.000308  -0.136957   0.013757  -0.000901   0.413146
     8  H    0.000020  -0.006012   0.035158  -0.000554   0.000008   0.040751
     9  C   -0.046099   0.229629  -0.416159   0.003716  -0.003093   0.148912
    10  O    0.006443   0.068369   0.002174   0.000103  -0.000055  -0.000816
    11  H    0.000446  -0.016322   0.000387   0.000001   0.000000   0.000265
    12  C   -0.159971  -2.183063  -0.219281   0.002011   0.026097   0.620384
    13  O    0.003912   0.021309  -0.051037  -0.000081  -0.000256  -0.074419
    14  C   -0.003159   1.225093  -0.459773   0.010718   0.005320  -2.877592
    15  O    0.000474  -0.018883  -0.001493  -0.000493   0.000083   0.076161
    16  C    0.004640   0.028826  -0.224778  -0.001805   0.001143  -0.070855
    17  C   -0.000197   0.031742  -0.066870   0.001589   0.000025  -0.232162
    18  O    0.000017   0.007277  -0.003179  -0.000007   0.000000  -0.003605
    19  H   -0.000034  -0.003141   0.009154  -0.000013   0.000000   0.020199
    20  C    0.000038   0.016996  -0.015769   0.000052   0.000002  -0.001991
    21  O    0.000000  -0.000008  -0.000040   0.000000   0.000000   0.000006
    22  H    0.000000   0.000001   0.000000   0.000000   0.000000  -0.000056
    23  C    0.000102   0.003997  -0.027700   0.000042  -0.000018  -0.184019
    24  O    0.000001   0.002690  -0.011402  -0.000087  -0.000001   0.006767
    25  H    0.000000  -0.000013   0.000395  -0.000001   0.000000  -0.001779
    26  C   -0.000072   0.008566  -0.043074   0.000430   0.000055  -0.119159
    27  O    0.000000  -0.000279   0.001411   0.000002   0.000000   0.003039
    28  C    0.000005  -0.001119  -0.000769   0.000013   0.000000   0.010442
    29  O    0.000000  -0.000005   0.000047   0.000000   0.000000  -0.000190
    30  H    0.000000   0.000000   0.000000   0.000000   0.000000  -0.000002
    31  H    0.000000  -0.000001   0.000013   0.000000   0.000000   0.000102
    32  H    0.000000   0.000053   0.000001   0.000000   0.000000   0.000462
    33  H    0.000000  -0.000565   0.000393   0.000000   0.000000   0.001989
    34  H   -0.000002  -0.000368   0.002442   0.000006   0.000000  -0.004612
    35  H    0.000000  -0.000040   0.000626   0.000000   0.000000   0.000863
    36  H    0.000000   0.000005  -0.000087   0.000000   0.000000  -0.000410
    37  H    0.000000  -0.000106   0.001303   0.000003   0.000000  -0.001131
    38  H    0.000003   0.028581  -0.055005   0.000103   0.000002  -0.154408
    39  H   -0.000835   0.070314  -0.204534   0.005544  -0.000088   0.281545
    40  H   -0.009489   0.148677   0.256589  -0.051594  -0.001500  -0.359202
    41  H    0.237693   0.084543  -0.031610   0.002634  -0.003664   0.002374
    42  H   -0.051754   0.477925  -0.146472   0.002847  -0.000902  -0.029685
    43  H    0.004886   0.072043  -0.092510   0.000421  -0.000010  -0.013973
    44  H    0.000731   0.003633  -0.004589   0.000012   0.000000   0.002818
    45  H   -0.001535  -0.009258  -0.010556   0.000014   0.000000   0.010381
              7          8          9         10         11         12
     1  O   -0.001398   0.000020  -0.046099   0.006443   0.000446  -0.159971
     2  C   -0.000308  -0.006012   0.229629   0.068369  -0.016322  -2.183063
     3  C   -0.136957   0.035158  -0.416159   0.002174   0.000387  -0.219281
     4  O    0.013757  -0.000554   0.003716   0.000103   0.000001   0.002011
     5  H   -0.000901   0.000008  -0.003093  -0.000055   0.000000   0.026097
     6  C    0.413146   0.040751   0.148912  -0.000816   0.000265   0.620384
     7  O    8.160736   0.220119   0.002068   0.000016   0.000000   0.032622
     8  H    0.220119   0.358191  -0.000302   0.000000   0.000000  -0.005917
     9  C    0.002068  -0.000302   7.584197   0.219942   0.030937  -2.501618
    10  O    0.000016   0.000000   0.219942   8.300695   0.221367  -0.179685
    11  H    0.000000   0.000000   0.030937   0.221367   0.419586  -0.000235
    12  C    0.032622  -0.005917  -2.501618  -0.179685  -0.000235  12.220824
    13  O    0.008433   0.000007   0.102876  -0.000491  -0.000403  -0.336695
    14  C   -0.153982  -0.076205  -0.227388  -0.000444  -0.002804  -0.937881
    15  O   -0.005529   0.017726  -0.019684  -0.000174   0.000000   0.011349
    16  C    0.015319   0.020817  -0.148935  -0.002145  -0.000403  -0.078817
    17  C    0.003517   0.000481  -0.015519   0.000073   0.000031  -0.114169
    18  O    0.000044  -0.000020   0.008443  -0.000096  -0.000012  -0.035226
    19  H   -0.000085  -0.000006  -0.008220   0.000032  -0.000003   0.015576
    20  C    0.002168   0.000687  -0.002644   0.000203   0.000025  -0.020901
    21  O   -0.000002   0.000000   0.000150   0.000000   0.000000  -0.000298
    22  H    0.000000   0.000000  -0.000010   0.000000   0.000000   0.000028
    23  C    0.025809   0.006042  -0.000136  -0.000014   0.000000   0.001560
    24  O   -0.007537   0.005516   0.000359   0.000000   0.000000   0.001393
    25  H    0.000384  -0.001369  -0.000005   0.000000   0.000000  -0.000089
    26  C   -0.040947  -0.019538  -0.003102  -0.000033  -0.000003   0.018626
    27  O    0.000164   0.000035  -0.000124   0.000000   0.000000  -0.000175
    28  C    0.000327   0.000037  -0.002765  -0.000004  -0.000001  -0.000454
    29  O   -0.000003   0.000000   0.000001   0.000000   0.000000   0.000054
    30  H    0.000000   0.000000   0.000000   0.000000   0.000000   0.000001
    31  H    0.000001   0.000000   0.000001   0.000000   0.000000   0.000006
    32  H    0.000002   0.000000  -0.000079   0.000000   0.000000   0.000456
    33  H    0.000020   0.000001   0.000878   0.000000   0.000000   0.001301
    34  H   -0.000464   0.000048   0.000088   0.000001   0.000000   0.002813
    35  H    0.000059   0.000009   0.000072   0.000000   0.000000   0.000248
    36  H   -0.000356   0.000172   0.000000   0.000000   0.000000   0.000001
    37  H    0.001118   0.000404  -0.000015   0.000000   0.000000   0.000226
    38  H    0.003892  -0.000203   0.009245   0.000113   0.000000  -0.007608
    39  H   -0.046504  -0.008603   0.013767   0.000022   0.000000   0.012207
    40  H    0.005881  -0.000140   0.017960   0.000076   0.000001  -0.000620
    41  H    0.000004   0.000000   0.005115  -0.000573  -0.000001  -0.046167
    42  H    0.000222   0.000003   0.038458   0.000339   0.000005  -0.164078
    43  H    0.000154   0.000002   0.081140   0.008881   0.000070   0.109737
    44  H   -0.000010   0.000000   0.393678  -0.032492  -0.015135  -0.023300
    45  H    0.000003   0.000000   0.674736  -0.066821   0.003569  -0.309943
             13         14         15         16         17         18
     1  O    0.003912  -0.003159   0.000474   0.004640  -0.000197   0.000017
     2  C    0.021309   1.225093  -0.018883   0.028826   0.031742   0.007277
     3  C   -0.051037  -0.459773  -0.001493  -0.224778  -0.066870  -0.003179
     4  O   -0.000081   0.010718  -0.000493  -0.001805   0.001589  -0.000007
     5  H   -0.000256   0.005320   0.000083   0.001143   0.000025   0.000000
     6  C   -0.074419  -2.877592   0.076161  -0.070855  -0.232162  -0.003605
     7  O    0.008433  -0.153982  -0.005529   0.015319   0.003517   0.000044
     8  H    0.000007  -0.076205   0.017726   0.020817   0.000481  -0.000020
     9  C    0.102876  -0.227388  -0.019684  -0.148935  -0.015519   0.008443
    10  O   -0.000491  -0.000444  -0.000174  -0.002145   0.000073  -0.000096
    11  H   -0.000403  -0.002804   0.000000  -0.000403   0.000031  -0.000012
    12  C   -0.336695  -0.937881   0.011349  -0.078817  -0.114169  -0.035226
    13  O    8.570585   0.177377  -0.026148   0.058482  -0.012127   0.028382
    14  C    0.177377  10.747161  -0.040011  -0.511090  -0.263290   0.003611
    15  O   -0.026148  -0.040011   8.386965  -0.010888   0.029977  -0.010764
    16  C    0.058482  -0.511090  -0.010888  15.276738  -2.659245  -0.118612
    17  C   -0.012127  -0.263290   0.029977  -2.659245   9.466821   0.379409
    18  O    0.028382   0.003611  -0.010764  -0.118612   0.379409   8.263040
    19  H    0.004642   0.017364   0.025754  -0.081497   0.001690   0.177851
    20  C    0.001626  -0.518837   0.070986  -1.482413  -0.589453  -0.124490
    21  O    0.000168  -0.000283  -0.000491   0.076422  -0.094539   0.015293
    22  H    0.000000  -0.001636   0.000043  -0.040586  -0.006118  -0.000954
    23  C    0.024250  -0.010152  -0.006071   0.196067  -0.387086   0.007467
    24  O   -0.002010   0.043783  -0.004508  -0.047797   0.011014   0.000138
    25  H    0.000013  -0.003970   0.000644  -0.007248  -0.000855   0.000000
    26  C   -0.041575  -1.268826  -0.000762  -4.854028   0.356653   0.035883
    27  O    0.000608  -0.029852   0.016043  -0.153311  -0.050490   0.000245
    28  C    0.005077  -0.115909   0.009603   0.412724   0.106163  -0.002867
    29  O    0.000001   0.000875   0.000320  -0.039031   0.026189  -0.000361
    30  H    0.000000   0.000341  -0.000001   0.004101   0.005584  -0.000009
    31  H    0.000011   0.004532   0.000245   0.124940   0.000818  -0.000671
    32  H    0.000320   0.003868  -0.001508   0.133295  -0.239607   0.004140
    33  H    0.000174   0.086021  -0.014983   0.138147   0.272056  -0.054307
    34  H    0.001021   0.025995  -0.064067   0.343746  -0.041937  -0.002240
    35  H   -0.000220   0.038671   0.007022   0.064770  -0.025136  -0.000197
    36  H   -0.000002   0.005297   0.000207   0.030309  -0.002382   0.000042
    37  H    0.000184   0.002017   0.005272  -0.021731   0.002703  -0.000034
    38  H   -0.066473   0.410984  -0.067366   0.043782   0.030617   0.000294
    39  H    0.016941   0.053819  -0.014199   0.023666   0.010245   0.000268
    40  H    0.006870   0.170649  -0.001235   0.007029   0.003163   0.000110
    41  H   -0.000350  -0.000357  -0.000014   0.000179  -0.000045   0.000000
    42  H    0.014569   0.077644  -0.000736  -0.000481   0.001745   0.000093
    43  H   -0.036637   0.095318  -0.001118   0.002588   0.006901   0.000788
    44  H   -0.002527  -0.002795  -0.000110   0.005606  -0.000669  -0.001175
    45  H    0.006756   0.001349  -0.000458  -0.004291   0.001714   0.000317
             19         20         21         22         23         24
     1  O   -0.000034   0.000038   0.000000   0.000000   0.000102   0.000001
     2  C   -0.003141   0.016996  -0.000008   0.000001   0.003997   0.002690
     3  C    0.009154  -0.015769  -0.000040   0.000000  -0.027700  -0.011402
     4  O   -0.000013   0.000052   0.000000   0.000000   0.000042  -0.000087
     5  H    0.000000   0.000002   0.000000   0.000000  -0.000018  -0.000001
     6  C    0.020199  -0.001991   0.000006  -0.000056  -0.184019   0.006767
     7  O   -0.000085   0.002168  -0.000002   0.000000   0.025809  -0.007537
     8  H   -0.000006   0.000687   0.000000   0.000000   0.006042   0.005516
     9  C   -0.008220  -0.002644   0.000150  -0.000010  -0.000136   0.000359
    10  O    0.000032   0.000203   0.000000   0.000000  -0.000014   0.000000
    11  H   -0.000003   0.000025   0.000000   0.000000   0.000000   0.000000
    12  C    0.015576  -0.020901  -0.000298   0.000028   0.001560   0.001393
    13  O    0.004642   0.001626   0.000168   0.000000   0.024250  -0.002010
    14  C    0.017364  -0.518837  -0.000283  -0.001636  -0.010152   0.043783
    15  O    0.025754   0.070986  -0.000491   0.000043  -0.006071  -0.004508
    16  C   -0.081497  -1.482413   0.076422  -0.040586   0.196067  -0.047797
    17  C    0.001690  -0.589453  -0.094539  -0.006118  -0.387086   0.011014
    18  O    0.177851  -0.124490   0.015293  -0.000954   0.007467   0.000138
    19  H    0.360731   0.018170  -0.000700   0.000010  -0.005689   0.000017
    20  C    0.018170   8.754398   0.055201   0.053138   0.151107  -0.003525
    21  O   -0.000700   0.055201   8.299232   0.176175   0.003260  -0.000004
    22  H    0.000010   0.053138   0.176175   0.456709  -0.000379   0.000000
    23  C   -0.005689   0.151107   0.003260  -0.000379   6.623182  -0.051141
    24  O    0.000017  -0.003525  -0.000004   0.000000  -0.051141   8.438277
    25  H    0.000000   0.000722   0.000000   0.000000   0.028350   0.201321
    26  C    0.013453   0.741731   0.006852   0.009157  -1.178720   0.099419
    27  O    0.000328  -0.145355   0.007484   0.001833  -0.067253   0.002388
    28  C   -0.002600  -1.184491  -0.005037   0.007082  -0.118809   0.008966
    29  O    0.000018  -0.136322  -0.011098   0.017770  -0.000519   0.000048
    30  H    0.000000  -0.010948   0.000349  -0.002385  -0.000275  -0.000001
    31  H    0.000006  -0.182421   0.006283  -0.002580  -0.003737   0.000012
    32  H    0.000006   0.377532  -0.039410  -0.005702   0.011420  -0.000007
    33  H   -0.001945  -0.129259   0.000222  -0.000089   0.022684  -0.000048
    34  H   -0.001212   0.023979  -0.000519   0.000009   0.007108  -0.000247
    35  H    0.000016  -0.022312  -0.000025   0.000008   0.012018   0.006017
    36  H    0.000000  -0.001804  -0.000005   0.000000   0.435366  -0.041878
    37  H    0.000002  -0.002795   0.000000   0.000000   0.536902  -0.076028
    38  H   -0.001801   0.014367   0.000013   0.000000   0.008082   0.000213
    39  H   -0.000100   0.001028   0.000000   0.000000   0.007368   0.000515
    40  H   -0.000008   0.000161   0.000000   0.000000   0.000667   0.000026
    41  H    0.000000   0.000001   0.000000   0.000000   0.000003   0.000000
    42  H   -0.000030   0.000065   0.000000   0.000000   0.000101   0.000003
    43  H    0.000037   0.000934   0.000000   0.000000   0.000145   0.000002
    44  H    0.000799  -0.001320  -0.000004   0.000000   0.000025   0.000000
    45  H   -0.000036   0.000226   0.000000   0.000000  -0.000015   0.000000
             25         26         27         28         29         30
     1  O    0.000000  -0.000072   0.000000   0.000005   0.000000   0.000000
     2  C   -0.000013   0.008566  -0.000279  -0.001119  -0.000005   0.000000
     3  C    0.000395  -0.043074   0.001411  -0.000769   0.000047   0.000000
     4  O   -0.000001   0.000430   0.000002   0.000013   0.000000   0.000000
     5  H    0.000000   0.000055   0.000000   0.000000   0.000000   0.000000
     6  C   -0.001779  -0.119159   0.003039   0.010442  -0.000190  -0.000002
     7  O    0.000384  -0.040947   0.000164   0.000327  -0.000003   0.000000
     8  H   -0.001369  -0.019538   0.000035   0.000037   0.000000   0.000000
     9  C   -0.000005  -0.003102  -0.000124  -0.002765   0.000001   0.000000
    10  O    0.000000  -0.000033   0.000000  -0.000004   0.000000   0.000000
    11  H    0.000000  -0.000003   0.000000  -0.000001   0.000000   0.000000
    12  C   -0.000089   0.018626  -0.000175  -0.000454   0.000054   0.000001
    13  O    0.000013  -0.041575   0.000608   0.005077   0.000001   0.000000
    14  C   -0.003970  -1.268826  -0.029852  -0.115909   0.000875   0.000341
    15  O    0.000644  -0.000762   0.016043   0.009603   0.000320  -0.000001
    16  C   -0.007248  -4.854028  -0.153311   0.412724  -0.039031   0.004101
    17  C   -0.000855   0.356653  -0.050490   0.106163   0.026189   0.005584
    18  O    0.000000   0.035883   0.000245  -0.002867  -0.000361  -0.000009
    19  H    0.000000   0.013453   0.000328  -0.002600   0.000018   0.000000
    20  C    0.000722   0.741731  -0.145355  -1.184491  -0.136322  -0.010948
    21  O    0.000000   0.006852   0.007484  -0.005037  -0.011098   0.000349
    22  H    0.000000   0.009157   0.001833   0.007082   0.017770  -0.002385
    23  C    0.028350  -1.178720  -0.067253  -0.118809  -0.000519  -0.000275
    24  O    0.201321   0.099419   0.002388   0.008966   0.000048  -0.000001
    25  H    0.419919   0.006600  -0.000222  -0.001863   0.000002   0.000000
    26  C    0.006600  12.649827   0.261264  -0.492020  -0.049836   0.006503
    27  O   -0.000222   0.261264   8.402374   0.201595  -0.037611  -0.000802
    28  C   -0.001863  -0.492020   0.201595   6.209596   0.394863  -0.000124
    29  O    0.000002  -0.049836  -0.037611   0.394863   8.187264   0.238234
    30  H    0.000000   0.006503  -0.000802  -0.000124   0.238234   0.405195
    31  H    0.000000  -0.094137  -0.066840   0.487302  -0.053270  -0.009378
    32  H    0.000000  -0.001084   0.004798  -0.003621  -0.004182   0.000059
    33  H    0.000000  -0.084637   0.001004  -0.018027  -0.000380   0.000010
    34  H   -0.000012  -0.064328   0.000925  -0.000338  -0.000596   0.000001
    35  H   -0.000091   0.160004  -0.035042   0.034948  -0.000253  -0.000008
    36  H   -0.012034  -0.085357  -0.006681   0.000769  -0.000197  -0.000001
    37  H   -0.001231  -0.185969   0.012456   0.010942   0.000017  -0.000001
    38  H    0.000002   0.016938   0.000086  -0.001200  -0.000002   0.000000
    39  H   -0.000001  -0.006512   0.000002  -0.000096   0.000000   0.000000
    40  H    0.000000  -0.000097   0.000000  -0.000027   0.000000   0.000000
    41  H    0.000000  -0.000008   0.000000   0.000000   0.000000   0.000000
    42  H    0.000000  -0.000045   0.000000  -0.000006   0.000000   0.000000
    43  H    0.000000   0.000202   0.000000  -0.000056   0.000000   0.000000
    44  H    0.000000   0.000136   0.000000   0.000097   0.000000   0.000000
    45  H    0.000000  -0.000224   0.000000  -0.000004   0.000000   0.000000
             31         32         33         34         35         36
     1  O    0.000000   0.000000   0.000000  -0.000002   0.000000   0.000000
     2  C   -0.000001   0.000053  -0.000565  -0.000368  -0.000040   0.000005
     3  C    0.000013   0.000001   0.000393   0.002442   0.000626  -0.000087
     4  O    0.000000   0.000000   0.000000   0.000006   0.000000   0.000000
     5  H    0.000000   0.000000   0.000000   0.000000   0.000000   0.000000
     6  C    0.000102   0.000462   0.001989  -0.004612   0.000863  -0.000410
     7  O    0.000001   0.000002   0.000020  -0.000464   0.000059  -0.000356
     8  H    0.000000   0.000000   0.000001   0.000048   0.000009   0.000172
     9  C    0.000001  -0.000079   0.000878   0.000088   0.000072   0.000000
    10  O    0.000000   0.000000   0.000000   0.000001   0.000000   0.000000
    11  H    0.000000   0.000000   0.000000   0.000000   0.000000   0.000000
    12  C    0.000006   0.000456   0.001301   0.002813   0.000248   0.000001
    13  O    0.000011   0.000320   0.000174   0.001021  -0.000220  -0.000002
    14  C    0.004532   0.003868   0.086021   0.025995   0.038671   0.005297
    15  O    0.000245  -0.001508  -0.014983  -0.064067   0.007022   0.000207
    16  C    0.124940   0.133295   0.138147   0.343746   0.064770   0.030309
    17  C    0.000818  -0.239607   0.272056  -0.041937  -0.025136  -0.002382
    18  O   -0.000671   0.004140  -0.054307  -0.002240  -0.000197   0.000042
    19  H    0.000006   0.000006  -0.001945  -0.001212   0.000016   0.000000
    20  C   -0.182421   0.377532  -0.129259   0.023979  -0.022312  -0.001804
    21  O    0.006283  -0.039410   0.000222  -0.000519  -0.000025  -0.000005
    22  H   -0.002580  -0.005702  -0.000089   0.000009   0.000008   0.000000
    23  C   -0.003737   0.011420   0.022684   0.007108   0.012018   0.435366
    24  O    0.000012  -0.000007  -0.000048  -0.000247   0.006017  -0.041878
    25  H    0.000000   0.000000   0.000000  -0.000012  -0.000091  -0.012034
    26  C   -0.094137  -0.001084  -0.084637  -0.064328   0.160004  -0.085357
    27  O   -0.066840   0.004798   0.001004   0.000925  -0.035042  -0.006681
    28  C    0.487302  -0.003621  -0.018027  -0.000338   0.034948   0.000769
    29  O   -0.053270  -0.004182  -0.000380  -0.000596  -0.000253  -0.000197
    30  H   -0.009378   0.000059   0.000010   0.000001  -0.000008  -0.000001
    31  H    0.648884   0.005684   0.002892   0.000006   0.007778  -0.000025
    32  H    0.005684   0.591937   0.006655   0.002277   0.000003   0.000001
    33  H    0.002892   0.006655   0.623859   0.006812   0.003519   0.000002
    34  H    0.000006   0.002277   0.006812   0.606852   0.005448   0.000069
    35  H    0.007778   0.000003   0.003519   0.005448   0.601118  -0.005812
    36  H   -0.000025   0.000001   0.000002   0.000069  -0.005812   0.590811
    37  H   -0.000001   0.000001   0.000010   0.004517   0.006207  -0.045308
    38  H    0.000000  -0.000019  -0.000047   0.010725  -0.000011   0.000001
    39  H    0.000000   0.000000  -0.000004   0.000014  -0.000003   0.000000
    40  H    0.000000   0.000000   0.000000  -0.000002   0.000000   0.000000
    41  H    0.000000   0.000000   0.000000   0.000000   0.000000   0.000000
    42  H    0.000000   0.000000   0.000000   0.000000   0.000000   0.000000
    43  H    0.000000   0.000000   0.000000   0.000001   0.000000   0.000000
    44  H    0.000000   0.000000  -0.000001   0.000000   0.000000   0.000000
    45  H    0.000000   0.000000   0.000000   0.000000   0.000000   0.000000
             37         38         39         40         41         42
     1  O    0.000000   0.000003  -0.000835  -0.009489   0.237693  -0.051754
     2  C   -0.000106   0.028581   0.070314   0.148677   0.084543   0.477925
     3  C    0.001303  -0.055005  -0.204534   0.256589  -0.031610  -0.146472
     4  O    0.000003   0.000103   0.005544  -0.051594   0.002634   0.002847
     5  H    0.000000   0.000002  -0.000088  -0.001500  -0.003664  -0.000902
     6  C   -0.001131  -0.154408   0.281545  -0.359202   0.002374  -0.029685
     7  O    0.001118   0.003892  -0.046504   0.005881   0.000004   0.000222
     8  H    0.000404  -0.000203  -0.008603  -0.000140   0.000000   0.000003
     9  C   -0.000015   0.009245   0.013767   0.017960   0.005115   0.038458
    10  O    0.000000   0.000113   0.000022   0.000076  -0.000573   0.000339
    11  H    0.000000   0.000000   0.000000   0.000001  -0.000001   0.000005
    12  C    0.000226  -0.007608   0.012207  -0.000620  -0.046167  -0.164078
    13  O    0.000184  -0.066473   0.016941   0.006870  -0.000350   0.014569
    14  C    0.002017   0.410984   0.053819   0.170649  -0.000357   0.077644
    15  O    0.005272  -0.067366  -0.014199  -0.001235  -0.000014  -0.000736
    16  C   -0.021731   0.043782   0.023666   0.007029   0.000179  -0.000481
    17  C    0.002703   0.030617   0.010245   0.003163  -0.000045   0.001745
    18  O   -0.000034   0.000294   0.000268   0.000110   0.000000   0.000093
    19  H    0.000002  -0.001801  -0.000100  -0.000008   0.000000  -0.000030
    20  C   -0.002795   0.014367   0.001028   0.000161   0.000001   0.000065
    21  O    0.000000   0.000013   0.000000   0.000000   0.000000   0.000000
    22  H    0.000000   0.000000   0.000000   0.000000   0.000000   0.000000
    23  C    0.536902   0.008082   0.007368   0.000667   0.000003   0.000101
    24  O   -0.076028   0.000213   0.000515   0.000026   0.000000   0.000003
    25  H   -0.001231   0.000002  -0.000001   0.000000   0.000000   0.000000
    26  C   -0.185969   0.016938  -0.006512  -0.000097  -0.000008  -0.000045
    27  O    0.012456   0.000086   0.000002   0.000000   0.000000   0.000000
    28  C    0.010942  -0.001200  -0.000096  -0.000027   0.000000  -0.000006
    29  O    0.000017  -0.000002   0.000000   0.000000   0.000000   0.000000
    30  H   -0.000001   0.000000   0.000000   0.000000   0.000000   0.000000
    31  H   -0.000001   0.000000   0.000000   0.000000   0.000000   0.000000
    32  H    0.000001  -0.000019   0.000000   0.000000   0.000000   0.000000
    33  H    0.000010  -0.000047  -0.000004   0.000000   0.000000   0.000000
    34  H    0.004517   0.010725   0.000014  -0.000002   0.000000   0.000000
    35  H    0.006207  -0.000011  -0.000003   0.000000   0.000000   0.000000
    36  H   -0.045308   0.000001   0.000000   0.000000   0.000000   0.000000
    37  H    0.603372  -0.000016  -0.000011   0.000000   0.000000   0.000000
    38  H   -0.000016   0.632730   0.006681   0.004731   0.000003   0.000105
    39  H   -0.000011   0.006681   0.624162   0.009142   0.000020   0.004866
    40  H    0.000000   0.004731   0.009142   0.650973   0.000210   0.007974
    41  H    0.000000   0.000003   0.000020   0.000210   0.388116  -0.011736
    42  H    0.000000   0.000105   0.004866   0.007974  -0.011736   0.631996
    43  H    0.000000   0.005467   0.000078   0.003980   0.000096   0.007139
    44  H    0.000000  -0.000026   0.000002   0.000003  -0.000024  -0.000026
    45  H    0.000000  -0.000004  -0.000011   0.000004   0.000242   0.005139
             43         44         45
     1  O    0.004886   0.000731  -0.001535
     2  C    0.072043   0.003633  -0.009258
     3  C   -0.092510  -0.004589  -0.010556
     4  O    0.000421   0.000012   0.000014
     5  H   -0.000010   0.000000   0.000000
     6  C   -0.013973   0.002818   0.010381
     7  O    0.000154  -0.000010   0.000003
     8  H    0.000002   0.000000   0.000000
     9  C    0.081140   0.393678   0.674736
    10  O    0.008881  -0.032492  -0.066821
    11  H    0.000070  -0.015135   0.003569
    12  C    0.109737  -0.023300  -0.309943
    13  O   -0.036637  -0.002527   0.006756
    14  C    0.095318  -0.002795   0.001349
    15  O   -0.001118  -0.000110  -0.000458
    16  C    0.002588   0.005606  -0.004291
    17  C    0.006901  -0.000669   0.001714
    18  O    0.000788  -0.001175   0.000317
    19  H    0.000037   0.000799  -0.000036
    20  C    0.000934  -0.001320   0.000226
    21  O    0.000000  -0.000004   0.000000
    22  H    0.000000   0.000000   0.000000
    23  C    0.000145   0.000025  -0.000015
    24  O    0.000002   0.000000   0.000000
    25  H    0.000000   0.000000   0.000000
    26  C    0.000202   0.000136  -0.000224
    27  O    0.000000   0.000000   0.000000
    28  C   -0.000056   0.000097  -0.000004
    29  O    0.000000   0.000000   0.000000
    30  H    0.000000   0.000000   0.000000
    31  H    0.000000   0.000000   0.000000
    32  H    0.000000   0.000000   0.000000
    33  H    0.000000  -0.000001   0.000000
    34  H    0.000001   0.000000   0.000000
    35  H    0.000000   0.000000   0.000000
    36  H    0.000000   0.000000   0.000000
    37  H    0.000000   0.000000   0.000000
    38  H    0.005467  -0.000026  -0.000004
    39  H    0.000078   0.000002  -0.000011
    40  H    0.003980   0.000003   0.000004
    41  H    0.000096  -0.000024   0.000242
    42  H    0.007139  -0.000026   0.005139
    43  H    0.608795  -0.007362   0.006649
    44  H   -0.007362   0.577034  -0.041515
    45  H    0.006649  -0.041515   0.590455
 Mulliken atomic charges:
              1
     1  O   -0.524652
     2  C   -0.240506
     3  C    0.194043
     4  O   -0.490372
     5  H    0.353159
     6  C   -0.051508
     7  O   -0.515001
     8  H    0.412632
     9  C   -0.170474
    10  O   -0.545006
    11  H    0.358634
    12  C    0.248669
    13  O   -0.403143
    14  C    0.298428
    15  O   -0.347179
    16  C   -0.453352
    17  C    0.050976
    18  O   -0.574322
    19  H    0.441266
    20  C    0.291508
    21  O   -0.494645
    22  H    0.338532
    23  C   -0.071395
    24  O   -0.582665
    25  H    0.372432
    26  C    0.241794
    27  O   -0.324047
    28  C    0.051656
    29  O   -0.531845
    30  H    0.363554
    31  H    0.123544
    32  H    0.152249
    33  H    0.135642
    34  H    0.136039
    35  H    0.139724
    36  H    0.139286
    37  H    0.146725
    38  H    0.126429
    39  H    0.139287
    40  H    0.129037
    41  H    0.373317
    42  H    0.134711
    43  H    0.135215
    44  H    0.148508
    45  H    0.143119
 Sum of Mulliken atomic charges =   0.00000
 Mulliken charges with hydrogens summed into heavy atoms:
              1
     1  O   -0.151335
     2  C   -0.105795
     3  C    0.323080
     4  O   -0.137213
     6  C    0.087779
     7  O   -0.102370
     9  C    0.121152
    10  O   -0.186372
    12  C    0.383884
    13  O   -0.403143
    14  C    0.424858
    15  O   -0.347179
    16  C   -0.317314
    17  C    0.186618
    18  O   -0.133057
    20  C    0.443756
    21  O   -0.156113
    23  C    0.214616
    24  O   -0.210233
    26  C    0.381518
    27  O   -0.324047
    28  C    0.175201
    29  O   -0.168291
 Sum of Mulliken charges with hydrogens summed into heavy atoms =   0.00000
 APT atomic charges:
              1
     1  O   -0.637225
     2  C    0.409257
     3  C    0.414805
     4  O   -0.619586
     5  H    0.269736
     6  C    0.381525
     7  O   -0.667072
     8  H    0.373059
     9  C    0.500256
    10  O   -0.630668
    11  H    0.256194
    12  C    0.456495
    13  O   -0.930163
    14  C    0.918378
    15  O   -0.884747
    16  C    0.502479
    17  C    0.380200
    18  O   -0.770197
    19  H    0.470559
    20  C    0.372472
    21  O   -0.601028
    22  H    0.244349
    23  C    0.449062
    24  O   -0.640725
    25  H    0.255238
    26  C    0.455528
    27  O   -0.856175
    28  C    0.960358
    29  O   -0.682753
    30  H    0.272754
    31  H   -0.080698
    32  H   -0.037304
    33  H   -0.057287
    34  H   -0.038679
    35  H   -0.048444
    36  H   -0.041766
    37  H   -0.030002
    38  H   -0.066554
    39  H   -0.045919
    40  H   -0.063373
    41  H    0.266937
    42  H   -0.058219
    43  H   -0.056089
    44  H   -0.020618
    45  H   -0.044352
[...]
 21,0.00133190,0.00063563,0.00119430,-0.00009217,-0.00023432,-0.0001140
 7,0.00012184,0.00001222,0.00018362,0.00001071,0.00001496,-0.00002385,-
 0.00003620,-0.00001123,-0.00001246,0.00004099,-0.00002735,0.00007218,-
 0.00003228,0.00005731,-0.00008748,-0.00000535,0.00000913,-0.00000312,0
 .00001320,-0.00000770,0.00000984,-0.00000360,-0.00000036,-0.00000173,-
 0.00002230,-0.00001256,0.00000835,0.00003823,0.00001784,0.00000840,-0.
 00001181,-0.00000340,0.00000118,-0.00002200,-0.00001149,-0.00000836,0.
 00001294,0.00000251,0.00001444,-0.00000988,0.00000030,-0.00001173,0.00
 000262,0.00000072,0.00000738,-0.00000165,-0.00000029,-0.00000127,0.000
 00383,0.00000073,0.00000251,0.00000488,0.00000050,-0.00000327,0.000011
 28,0.00000304,0.00001139,0.00000978,-0.00000191,-0.00000717,0.00000651
 ,-0.00000086,0.00000738,0.00000152,0.00000272,0.00000013,0.00000760,0.
 00000019,-0.00000322,0.00001481,0.00006289,-0.00017558,0.00088996,0.00
 021651,0.00062925,0.00018820,0.00224770,0.00095397,0.00113961,0.000004
 90,-0.00052671,0.37080256,-0.01067403,-0.00054385,-0.00479852,-0.01516
 476,-0.04536774,0.00490937,0.03447334,-0.00145095,-0.00931484,-0.00248
 485,0.00354624,-0.00040522,0.00050477,-0.00014821,0.00068902,0.0013796
 9,0.00136185,0.00166679,-0.00054425,-0.00017075,0.00002305,-0.00006268
 ,-0.00002841,0.00002916,-0.00178959,0.00177972,-0.00099297,0.00038806,
 -0.00002609,0.00010188,-0.00001616,-0.00000304,-0.00000706,-0.02857857
 ,-0.00453090,0.00844369,0.00144778,0.00116007,-0.00091954,0.00020663,-
 0.00065317,-0.00000796,0.00000948,0.00012579,-0.00004767,-0.00003315,0
 .00001406,-0.00000103,0.00000415,-0.00001403,-0.00002827,0.00002623,-0
 .00000334,0.00001579,-0.00002390,0.00001385,-0.00002298,-0.00000670,0.
 00000361,0.00000173,0.00000468,0.00000219,0.00000120,-0.00000157,-0.00
 000065,-0.00000094,0.00000456,-0.00000560,0.00000766,-0.00001565,-0.00
 000201,-0.00002770,0.00000630,0.00000286,0.00000041,-0.00000042,-0.000
 00296,0.00000286,0.00000060,0.00000794,-0.00000762,0.00000095,-0.00000
 965,0.00000486,0.00000119,0.00000208,-0.00000192,-0.00000017,-0.000000
 10,0.00000050,0.00000020,0.00000135,0.00000038,0.00000190,-0.00000094,
 -0.00000201,0.00000431,0.00000654,0.00000616,0.00000203,-0.00000588,0.
 00000622,-0.00000055,0.00000168,-0.00000026,-0.00000077,0.00000148,-0.
 00000236,-0.00000232,-0.00000041,0.00000302,-0.00010915,-0.00011323,0.
 00002878,-0.00078458,-0.00014276,-0.00029968,0.00191238,-0.00551171,-0
 .00200243,-0.00115999,0.00140492,-0.00007486,0.02071983,0.05238144,-0.
 04290762,-0.00841963,-0.01256852,0.06657901,0.00437994,-0.05520043,0.0
 1407218,0.00064615,-0.00197783,-0.00159656,0.00003870,0.00113652,-0.00
 042972,-0.00034759,-0.00003546,0.00133294,0.00036537,0.00084290,-0.000
 42065,-0.00003103,-0.00001840,0.00002796,0.00000449,-0.00001717,0.0000
 0956,-0.00150785,0.00076144,-0.00005426,0.00003843,0.00013903,-0.00001
 760,-0.00002500,0.00000116,0.02589958,0.00484649,-0.00455496,-0.001262
 53,-0.00064924,0.00207469,0.00036941,-0.00006444,-0.00016202,-0.000104
 84,0.00001345,-0.00018672,-0.00000618,-0.00003780,0.00001909,0.0000211
 9,0.00000510,0.00003020,-0.00004837,-0.00000808,-0.00000637,0.00004415
 ,0.00002172,-0.00002118,0.00000803,-0.00000866,0.00000870,-0.00001227,
 0.00001219,-0.00001414,0.00000322,-0.00000162,0.00000222,0.00001713,0.
 00000973,-0.00000540,-0.00002619,-0.00001311,-0.00001139,0.00000808,0.
 00000318,0.00000148,0.00001360,0.00001254,0.00001386,-0.00000738,0.000
 00293,-0.00002688,0.00000459,-0.00000580,0.00002458,0.00000191,0.00000
 024,-0.00001628,0.00000115,0.00000009,0.00000321,-0.00000309,-0.000000
 48,-0.00000291,-0.00000438,-0.00000003,0.00000389,-0.00001153,-0.00000
 501,-0.00001460,-0.00000985,0.00000279,0.00000905,-0.00000525,0.000000
 07,-0.00000662,-0.00000216,-0.00000353,-0.00000144,-0.00000564,0.00000
 114,0.00000312,-0.00016764,0.00001192,0.00015105,-0.00050255,-0.000247
 89,-0.00020404,0.00038186,-0.00256895,-0.00068805,-0.00316036,0.000602
 35,0.00337517,-0.05749036,-0.00039666,0.07034377,0.00161618,0.00066247
 ,0.00063101,-0.00881696,-0.00251600,0.00180032,-0.00024095,0.00069204,
 0.00012282,0.00043052,0.00012055,-0.00001847,-0.00011917,-0.00000130,-
 0.00001938,0.00008425,0.00011189,-0.00014148,0.00005935,-0.00022052,-0
 .00000750,0.00000392,0.00003779,0.00002217,-0.01815197,-0.00023958,0.0
 0188155,0.00258154,-0.00016059,0.00041397,-0.00018022,0.00011367,0.000
 21069,-0.34579114,-0.03890678,0.03549629,-0.00940119,-0.00492572,-0.01
 339228,0.00028149,0.00180240,0.00102183,0.00032748,-0.00015555,-0.0004
 9509,-0.00021209,-0.00009110,0.00023896,0.00004076,0.00010028,0.000015
 29,0.00021570,0.00012301,-0.00046801,-0.00034150,-0.00041354,0.0008328
 8,-0.00005367,-0.00004859,0.00001901,0.00001950,0.00003801,-0.00002862
 ,-0.00000720,-0.00000794,-0.00000328,-0.00002301,0.00001009,0.00001118
 ,0.00000574,-0.00002124,-0.00002223,0.00000024,0.00000538,-0.00000426,
 0.00001551,0.00002755,0.00004018,0.00002608,0.00002285,-0.00010370,-0.
 00000361,-0.00002033,0.00006379,0.00002433,0.00000257,-0.00005882,0.00
 000053,-0.00000065,0.00000785,0.00000123,0.00000366,-0.00000027,0.0000
 1189,0.00000160,-0.00001092,0.00000979,0.00000364,0.00002594,0.0000357
 2,-0.00001222,-0.00001628,0.00000508,-0.00000098,0.00000395,-0.0000009
 1,-0.00000855,-0.00000633,0.00000295,0.00000315,0.00000661,0.00015425,
 -0.00137783,-0.00089277,0.00005816,0.00013051,0.00010989,0.00078608,-0
 .00063618,-0.00023242,0.00021414,0.00011138,-0.00013744,0.00070693,-0.
 00105867,0.00036116,0.37507995,0.00174099,0.00080813,-0.00162856,-0.02
 842471,-0.00601191,0.00709369,-0.00185044,0.00152892,0.00023585,0.0008
 7703,-0.00013620,-0.00012072,-0.00018855,0.00008429,-0.00009907,0.0000
 1801,-0.00029207,0.00002368,0.00007927,-0.00012845,-0.00006167,0.00000
 016,-0.00000112,0.00000415,0.03537294,0.00081329,-0.00320235,-0.002525
 76,0.00234472,0.00107302,0.00018985,-0.00004969,-0.00001557,-0.0379631
 8,-0.05201948,0.00736755,-0.01241119,-0.00143089,-0.00808737,-0.003004
 88,0.00146885,0.00096590,0.00046226,-0.00017659,-0.00025219,-0.0000203
 3,-0.00001904,-0.00002229,0.00001374,0.00011672,0.00009513,-0.00004024
 ,-0.00001432,-0.00029190,0.00009738,-0.00009605,0.00046669,-0.00000387
 ,-0.00002588,-0.00000267,-0.00000856,-0.00000042,-0.00001055,0.0000032
 5,0.00000037,0.00000149,-0.00001375,0.00000066,-0.00000581,0.00000339,
 -0.00000215,-0.00000307,-0.00000222,-0.00000033,-0.00000052,0.00002186
 ,-0.00000422,0.00000202,0.00000146,-0.00001105,-0.00000375,-0.00000153
 ,0.00002662,0.00000554,0.00000309,-0.00000699,-0.00001497,0.00000123,0
 .00000025,0.00000182,-0.00000060,-0.00000265,-0.00000140,-0.00000220,0
 .00000424,0.00000285,-0.00001255,-0.00002551,-0.00001777,0.00001135,0.
 00000677,-0.00003468,0.00000118,0.00000192,0.00000478,0.00000260,-0.00
 000231,-0.00000014,0.00000350,-0.00000130,-0.00000108,0.00053455,0.000
 19711,-0.00001797,0.00019738,0.00012682,0.00003073,0.00081882,-0.00016
 327,-0.00001504,0.00011228,0.00016097,-0.00041753,-0.00049398,-0.00327
 660,0.00319094,0.04405180,0.06053534,-0.00085118,-0.00108798,0.0024291
 8,0.02570129,0.00742495,-0.00260887,0.00076172,-0.00137391,-0.00000952
 ,-0.00074918,0.00026790,0.00000789,0.00027322,-0.00007020,0.00013024,0
 .00028534,-0.00017549,-0.00052983,0.00002839,-0.00024204,0.00028499,-0
 .00000151,0.00007949,-0.00001569,0.00694980,0.00147634,0.00132351,-0.0
 0064725,0.00075407,0.00027345,0.00009131,-0.00003678,-0.00001808,0.039
 97155,0.00589059,-0.04379918,-0.04272847,-0.01265302,-0.01578815,-0.00
 358936,0.00389137,0.00298040,0.00060266,-0.00035180,-0.00098030,-0.000
 12491,-0.00018523,0.00032921,0.00003090,0.00001841,-0.00002123,0.00026
 878,0.00013809,-0.00018041,-0.00063122,-0.00044226,0.00078770,-0.00002
 339,-0.00003953,0.00003015,0.00000378,0.00004122,-0.00002729,-0.000004
 00,-0.00000450,-0.00000137,0.00000120,0.00003371,-0.00000276,-0.000011
 07,-0.00003580,0.00000914,0.00000531,0.00000462,-0.00000763,0.00003712
 ,0.00005092,0.00003733,0.00000999,0.00001928,-0.00011447,0.00000824,-0
 .00003512,0.00005699,0.00001324,0.00000626,-0.00004513,0.00000193,-0.0
 0000049,0.00000600,-0.00000301,0.00000308,-0.00000185,0.00000634,0.000
 00041,-0.00001133,0.00001691,0.00001566,0.00003131,0.00002643,0.000001
 74,-0.00006588,-0.00000093,-0.00000169,-0.00000130,-0.00000223,-0.0000
 1000,-0.00000259,-0.00000228,0.00000279,0.00000536,0.00108378,0.000012
 64,-0.00000266,-0.00001038,0.00003859,-0.00015472,-0.00050185,0.000327
 29,0.00031345,0.00001947,-0.00010348,0.00047689,0.00043591,0.00364945,
 -0.00334375,-0.02638285,-0.00559296,0.05743775,0.00008275,-0.00026808,
 0.00007060,-0.00126315,0.00197184,0.00207979,0.00065773,0.00017091,-0.
 00075267,-0.00010775,0.00044737,-0.00003463,0.00000166,-0.00001673,0.0
 0006777,-0.00004726,-0.00002967,-0.00007987,0.00001837,-0.00002899,0.0
 0003405,-0.00000105,0.00001079,0.00000456,-0.05799926,-0.02973696,0.04
 946963,0.00202674,0.00263948,-0.01934638,0.00218655,0.00119138,-0.0004
 3580,0.00195642,0.01341589,-0.01447800,0.00047175,-0.00203860,-0.00093
 797,-0.00015527,0.00013156,-0.00003893,-0.00007939,-0.00005089,-0.0001
 5742,0.00001931,-0.00005456,0.00007354,-0.00007091,-0.00003993,-0.0000
 3660,-0.00029931,0.00017812,0.00006459,0.00053840,-0.00020157,0.000069
 47,0.00003516,0.00000380,0.00001827,-0.00002726,0.00001739,-0.00000202
 ,0.00000358,0.00000311,0.00000227,0.00000395,-0.00000064,0.00000917,-0
 .00000346,0.00000045,-0.00000419,0.00000227,-0.00000121,0.00000011,0.0
 0000558,0.00001876,0.00000052,-0.00000938,0.00001836,-0.00002193,0.000
 00760,-0.00002847,0.00000322,-0.00000753,0.00000900,0.00000881,0.00000
 134,-0.00000180,-0.00000179,-0.00000419,-0.00000097,-0.00000247,-0.000
 01013,0.00000422,0.00000476,-0.00000766,-0.00003251,-0.00003359,-0.000
 00759,0.00001073,-0.00000225,-0.00000400,-0.00000256,-0.00000490,-0.00
 000033,0.00000155,-0.00000098,-0.00000203,0.00000205,-0.00000046,-0.00
 000647,0.00002971,0.00000786,0.00001809,0.00000410,0.00001174,-0.00002
 669,-0.00010336,-0.00001410,-0.00015251,0.00006372,-0.00011204,0.00026
 770,0.00030630,-0.00011863,0.00084866,-0.00066726,-0.00071281,0.054534
 23,0.00001256,0.00052537,0.00015052,0.00297640,-0.00394438,-0.00400803
 ,-0.00061571,0.00017752,0.00166726,0.00024428,-0.00101126,0.00008934,-
 0.00009021,0.00010254,-0.00018986,0.00000667,0.00017524,0.00052290,-0.
 00002452,0.00005797,-0.00030793,0.00002035,-0.00003510,0.00006524,-0.0
 2670398,-0.13324284,0.14645750,-0.00139170,0.00422438,-0.02975642,0.00
 056323,0.00376733,-0.00220764,-0.00579848,-0.01799892,0.02531687,0.000
 12748,0.00146749,0.00079621,-0.00000146,-0.00017910,-0.00022086,-0.000
 00476,0.00009585,-0.00020843,0.00000570,-0.00004323,0.00011523,-0.0001
 4142,-0.00032642,-0.00037480,0.00004711,0.00044741,0.00066659,-0.00000
 921,-0.00092399,-0.00090356,0.00002404,0.00011823,-0.00000743,0.000013
 43,-0.00002604,0.00004758,-0.00000467,0.00000805,-0.00000563,-0.000021
 47,-0.00005322,0.00007286,0.00000879,0.00004910,-0.00007682,0.00000191
 ,-0.00000665,0.00000814,-0.00000827,0.00000910,-0.00004709,0.00000181,
 0.00005316,-0.00001074,0.00000956,-0.00010155,-0.00004627,-0.00001983,
 0.00002620,0.00007510,-0.00000321,-0.00000025,-0.00001169,0.00000197,0
 .00000781,0.00000433,0.00000274,-0.00000731,-0.00000847,0.00005646,0.0
 0005325,0.00005063,0.00000356,-0.00001008,-0.00000875,-0.00000261,-0.0
 0000041,0.00000144,0.00000121,0.00001951,-0.00000573,0.00000151,0.0000
 0271,-0.00000125,-0.00004146,0.00005775,0.00004104,-0.00001008,-0.0000
 0805,-0.00001589,0.00012385,-0.00003807,-0.00008262,0.00001858,-0.0001
 4396,-0.00012316,0.00006420,0.00033161,-0.00023488,0.00004000,0.001281
 46,-0.00002232,0.03028104,0.14498205,0.00002233,0.00031258,0.00004799,
 -0.00014658,-0.00139723,-0.00020532,-0.00000578,-0.00008694,0.00019534
 ,0.00002507,-0.00012845,0.00007976,-0.00000541,-0.00003786,-0.00003293
 ,0.00009193,-0.00005145,-0.00015701,-0.00001245,-0.00009090,0.00003055
 ,0.00000884,0.00001681,0.00001264,0.04481943,0.14067328,-0.26404941,-0
 .00263057,0.00025144,-0.03435865,-0.00003709,0.00043318,0.00089913,0.0
 0048949,-0.00065101,0.00190322,0.00044564,-0.00269734,0.00050364,-0.00
 019435,-0.00013934,0.00068010,-0.00003624,0.00003167,-0.00014399,0.000
 00513,-0.00000858,0.00012992,-0.00004720,-0.00001829,-0.00014228,0.000
 01348,-0.00001532,0.00005183,0.00002382,-0.00028983,-0.00007670,0.0000
 0343,0.00001671,-0.00000437,0.00000174,-0.00000741,0.00000217,0.,0.000
 00333,0.00000209,0.00000189,0.00000322,0.00001010,-0.00000347,-0.00000
 356,-0.00000800,0.00000201,0.00000181,-0.00000082,-0.00000708,0.000019
 18,-0.00000752,-0.00000062,-0.00000187,-0.00001691,-0.00000178,-0.0000
 1232,0.00000800,0.00000179,-0.00000014,-0.00000189,-0.00000079,0.00000
 181,0.00000177,0.00000053,0.00000133,-0.00000018,-0.00000071,-0.000000
 93,-0.00000075,0.00001155,0.00001306,0.00001550,-0.00000027,-0.0000009
 8,-0.00000404,-0.00000036,-0.00000097,-0.00000083,-0.00000159,0.000001
 10,-0.00000188,-0.00000096,0.00000144,0.00000110,0.00000394,0.00000800
 ,-0.00000359,-0.00001237,0.00000712,0.00000711,0.00000586,-0.00000078,
 -0.00000572,-0.00002622,-0.00019327,0.00000868,0.00001088,-0.00003696,
 -0.00001085,-0.00026463,0.00013756,0.00048421,-0.04356326,-0.13935081,
 0.29585987,0.00026409,0.00002730,-0.00011803,0.00060485,-0.00130146,0.
 00054676,0.00038146,0.00002118,-0.00006640,0.00006424,0.00015703,-0.00
 002300,-0.00004712,-0.00001579,0.00001774,-0.00015561,-0.00002107,0.00
 002740,0.00006731,0.00002776,-0.00000760,-0.00002213,-0.00000523,0.000
 00284,-0.34712423,-0.03016685,0.05051651,-0.00693780,-0.01199093,-0.00
 971638,-0.00164591,0.00132310,-0.00113855,-0.01955099,0.00040047,0.003
 29923,0.00149446,0.00013117,0.00056156,0.00028535,0.00003574,0.0000761
 3,0.00011366,0.00012968,0.00020834,-0.00000175,0.00004348,-0.00002857,
 -0.00004106,0.00000087,-0.00001206,0.00016306,-0.00003630,0.00006314,-
 0.00022230,0.00005965,-0.00009019,-0.00001186,0.00000670,-0.00000181,0
 .00002377,-0.00000474,0.00000690,-0.00000577,-0.00000314,-0.00000231,-
 0.00001406,-0.00000896,0.00000476,0.00002181,0.00000900,-0.00000073,-0
 .00000703,-0.00000048,-0.00000071,-0.00002681,-0.00001427,-0.00000134,
 0.00001518,-0.00000007,0.00001380,-0.00001425,0.00000532,-0.00000228,0
 .00000722,-0.00000083,-0.00000202,-0.00000224,-0.00000004,0.00000076,0
 .00000503,0.00000175,0.00000319,0.00000901,-0.00000096,-0.00000685,0.0
 0001778,0.00001627,0.00003106,0.00001195,-0.00000799,0.00000061,0.0000
 0729,0.00000121,0.00000803,0.00000046,0.00000210,-0.00000010,0.0000054
 9,-0.00000101,-0.00000079,0.00005507,-0.00019750,-0.00015813,0.0000687
 7,0.00004371,0.00000274,0.00012924,-0.00024747,-0.00005600,-0.00021682
 ,0.00011337,-0.00018434,0.00040122,0.00110715,-0.00078107,-0.00030436,
 0.00301643,0.00034328,-0.00339528,0.00023461,0.00101099,0.37552963,-0.
 00014450,0.00018078,0.00043187,0.00107398,0.00294805,-0.00119473,0.000
 03931,-0.00008107,-0.00017685,-0.00015525,-0.00007654,0.00011595,0.000
 03003,-0.00004489,-0.00000371,0.00003187,0.00007997,0.00000829,-0.0000
 2790,0.00000353,0.00002494,0.00000566,0.00000936,-0.00000356,-0.030704
 37,-0.04634846,0.01151281,-0.02277419,-0.00979493,-0.00929695,-0.00298
 023,-0.00011418,-0.00139059,0.03603331,-0.00168447,-0.00528323,-0.0008
 7099,0.00181324,0.00184000,-0.00000807,0.00005706,0.00001587,-0.000111
 23,-0.00008508,-0.00010496,-0.00001092,-0.00001773,0.00006217,-0.00000
 576,-0.00000928,-0.00002406,0.00005927,0.00005852,0.00003572,-0.000061
 73,-0.00012485,-0.00001880,-0.00000588,0.00000296,0.00000328,0.0000083
 2,0.00000760,-0.00000210,-0.00000278,-0.00000246,-0.00000111,0.0000044
 8,0.00000749,-0.00000007,-0.00000413,-0.00000580,0.00000391,0.00000135
 ,0.00000152,-0.00000165,0.00000057,0.00001286,0.00000739,0.00000292,0.
 00000228,-0.00002180,-0.00000195,-0.00001124,0.00001438,0.00000517,0.0
 0000159,-0.00000930,-0.00000108,0.00000072,0.00000202,0.00000069,0.000
 00191,0.00000015,0.00000250,-0.00000309,-0.00000201,0.00000602,0.00001
 305,0.00001185,0.00000137,0.00000089,0.00000486,-0.00000025,-0.0000006
 2,-0.00000112,-0.00000149,-0.00000166,-0.00000091,-0.00000129,0.000000
 71,0.00000145,-0.00019093,0.00012079,0.00009246,-0.00004416,-0.0000375
 3,-0.00001995,-0.00027557,0.00011357,0.00009061,0.00000435,-0.00020521
 ,0.00014920,-0.00101722,-0.00013628,0.00036732,0.00260759,-0.00560895,
 -0.00168424,-0.01762688,0.00005971,0.00328794,0.03711002,0.05889615,0.
 00014280,0.00007427,0.00002583,-0.00096978,-0.00058528,0.00004866,-0.0
 0000522,0.00013282,0.00010610,0.00003818,-0.00011699,-0.00000811,-0.00
 002210,0.00003590,-0.00002437,0.00004504,0.00002377,0.00010163,-0.0000
 2219,-0.00000429,-0.00006504,0.00001452,-0.00000602,0.00001502,0.05150
 611,0.01317652,-0.05230924,-0.03239363,-0.01636259,-0.00358579,-0.0034
 2470,-0.00034205,-0.00177115,0.00123865,0.00127935,0.00288543,-0.00014
 669,0.00031615,0.00074574,0.00008125,-0.00005141,0.00002775,-0.0000741
 6,0.00004856,-0.00000476,0.00002092,-0.00000430,-0.00004174,0.00003157
 ,0.00001123,0.00005260,-0.00019610,-0.00004623,-0.00011609,0.00033376,
 0.00011489,0.00005748,0.00000788,-0.00001304,0.00000254,-0.00002048,0.
 00000643,-0.00000813,0.00000348,0.00000071,0.00000264,0.00000306,-0.00
 000595,0.00000003,-0.00001205,0.00000387,-0.00001345,0.00000353,0.0000
 0020,0.00000368,0.00001317,-0.00000896,0.00000962,-0.00001080,0.000004
 29,-0.00000068,0.00000822,0.00000329,0.00000626,-0.00000334,-0.0000003
 1,-0.00000462,0.00000188,-0.00000097,0.00000004,-0.00000349,-0.0000021
 7,-0.00000311,-0.00000776,0.00000295,0.00000752,-0.00002205,-0.0000281
 8,-0.00004286,-0.00001267,0.00000560,0.00000461,-0.00000449,-0.0000009
 4,-0.00000572,0.00000026,-0.00000100,-0.00000125,-0.00000240,0.0000015
 1,0.00000067,-0.00009914,0.00002912,-0.00000848,-0.00001633,-0.0000157
 6,0.00000530,0.00002914,0.00000938,-0.00003566,-0.00011487,0.00004442,
 -0.00010518,0.00014495,-0.00019251,0.00015030,-0.00063032,-0.00078178,
 0.00029883,0.02889292,0.00208825,-0.00170102,-0.04434650,0.00115726,0.
 05529817\\0.00898819,-0.01218410,-0.00493628,-0.02074276,0.01316787,0.
 01228309,0.03400296,-0.00888572,0.00216646,-0.01544678,0.01972511,0.01
 301661,0.00219775,-0.01264665,-0.02436276,-0.03552614,-0.01820508,0.00
 289905,0.00603472,0.01153031,-0.00900345,0.01001056,0.00941883,0.01760
 839,-0.00278453,0.01243387,0.01663262,0.01233069,0.01593956,-0.0023533
 5,-0.00882769,-0.03230993,0.00585297,0.02158942,-0.00274498,-0.0114984
 8,-0.01161079,-0.01490481,-0.00272138,-0.01174062,-0.00689342,-0.01859
 767,-0.00091527,0.00705605,0.01536918,-0.00058089,-0.01050319,0.006919
 09,-0.01339349,0.00300901,0.03509137,0.01171880,0.00315125,-0.00688880
 ,-0.00245629,0.01206014,-0.02128551,-0.00220333,0.01786140,-0.00535839
 ,0.00829877,0.00034216,-0.02577068,-0.00648541,0.00265237,0.02728194,0
 .00581518,-0.01228815,0.00071961,-0.00850469,-0.01552670,0.00146476,-0
 .00182685,0.03192444,0.00668685,0.01330048,0.01054312,0.00737200,0.010
 43467,-0.01691391,-0.03212120,0.00373471,-0.01628586,0.01075906,0.0012
 0722,0.00266430,0.03104955,-0.00436593,-0.00464213,-0.00246076,-0.0207
 4643,-0.00088393,-0.00499986,0.02061801,0.00245695,0.00147773,-0.02364
 018,0.00107200,-0.00480351,0.01996202,-0.00435692,0.00066920,-0.020274
 34,0.00092898,-0.00388324,-0.00019553,-0.00392717,-0.01844579,0.020017
 96,0.00085732,0.00257364,0.02089761,0.00410144,-0.00642739,-0.02440280
 ,0.00254044,0.00097174,0.02612620,0.00296664,-0.00124288,-0.00239585,0
 .00460186,0.00153709,-0.02266431,-0.00271743,0.00239314,0.02347502,0.0
 0302497,0.00074923,0.00156888,0.00193783,-0.01780668,-0.02059893,-0.00
 114809,0.00142370\\\@


 NO SCIENCE HAS EVER MADE MORE RAPID PROGRESS IN A
 SHORTER TIME THAN CHEMISTRY.
   -- MARTIN HEINRICH KLOPROTH, 1791
 (FIRST PROFESSOR OF CHEMISTRY AT THE UNIVERSITY OF BERLIN)
 Job cpu time:  0 days 12 hours 58 minutes 12.9 seconds.
 File lengths (MBytes):  RWF=   1326 Int=      0 D2E=      0 Chk=     19 Scr=      1
 Normal termination of Gaussian 09 at Thu Jan 21 17:46:41 2016.
Gaussian '09 finished on node008 at Thu Jan 21 17:46:41 EST 2016.
