Gaussian '09 started on node001 at Mon Mar 21 22:37:37 EDT 2016.
 Entering Gaussian System, Link 0=/usr/local/gaussian/g09/g09
 Initial command:
 /usr/local/gaussian/g09/l1.exe /home/srmcgrat/thesis/gaussian/cellobiose/300K/8972ps/1/2dp/gaussian30574/Gau-30610.inp -scrdir=/home/srmcgrat/thesis/gaussian/cellobiose/300K/8972ps/1/2dp/gaussian30574/
 Entering Link 1 = /usr/local/gaussian/g09/l1.exe PID=     30612.
  
 Copyright (c) 1988,1990,1992,1993,1995,1998,2003,2009,2010,
            Gaussian, Inc.  All Rights Reserved.
  
 This is part of the Gaussian(R) 09 program.  It is based on
 the Gaussian(R) 03 system (copyright 2003, Gaussian, Inc.),
 the Gaussian(R) 98 system (copyright 1998, Gaussian, Inc.),
 the Gaussian(R) 94 system (copyright 1995, Gaussian, Inc.),
 the Gaussian 92(TM) system (copyright 1992, Gaussian, Inc.),
 the Gaussian 90(TM) system (copyright 1990, Gaussian, Inc.),
 the Gaussian 88(TM) system (copyright 1988, Gaussian, Inc.),
 the Gaussian 86(TM) system (copyright 1986, Carnegie Mellon
 University), and the Gaussian 82(TM) system (copyright 1983,
 Carnegie Mellon University). Gaussian is a federally registered
 trademark of Gaussian, Inc.
  
 This software contains proprietary and confidential information,
 including trade secrets, belonging to Gaussian, Inc.
  
 This software is provided under written license and may be
 used, copied, transmitted, or stored only in accord with that
 written license.
  
 The following legend is applicable only to US Government
 contracts under FAR:
  
                    RESTRICTED RIGHTS LEGEND
  
 Use, reproduction and disclosure by the US Government is
 subject to restrictions as set forth in subparagraphs (a)
 and (c) of the Commercial Computer Software - Restricted
 Rights clause in FAR 52.227-19.
  
 Gaussian, Inc.
 340 Quinnipiac St., Bldg. 40, Wallingford CT 06492
  
  
 ---------------------------------------------------------------
 Warning -- This program may not be used in any manner that
 competes with the business of Gaussian, Inc. or will provide
 assistance to any competitor of Gaussian, Inc.  The licensee
 of this program is prohibited from giving any competitor of
 Gaussian, Inc. access to this program.  By using this program,
 the user acknowledges that Gaussian, Inc. is engaged in the
 business of creating and licensing software in the field of
 computational chemistry and represents and warrants to the
 licensee that it is not a competitor of Gaussian, Inc. and that
 it will not use this program in any manner prohibited above.
 ---------------------------------------------------------------
  

 Cite this work as:
 Gaussian 09, Revision B.01,
 M. J. Frisch, G. W. Trucks, H. B. Schlegel, G. E. Scuseria, 
 M. A. Robb, J. R. Cheeseman, G. Scalmani, V. Barone, B. Mennucci, 
 G. A. Petersson, H. Nakatsuji, M. Caricato, X. Li, H. P. Hratchian, 
 A. F. Izmaylov, J. Bloino, G. Zheng, J. L. Sonnenberg, M. Hada, 
 M. Ehara, K. Toyota, R. Fukuda, J. Hasegawa, M. Ishida, T. Nakajima, 
 Y. Honda, O. Kitao, H. Nakai, T. Vreven, J. A. Montgomery, Jr., 
 J. E. Peralta, F. Ogliaro, M. Bearpark, J. J. Heyd, E. Brothers, 
 K. N. Kudin, V. N. Staroverov, T. Keith, R. Kobayashi, J. Normand, 
 K. Raghavachari, A. Rendell, J. C. Burant, S. S. Iyengar, J. Tomasi, 
 M. Cossi, N. Rega, J. M. Millam, M. Klene, J. E. Knox, J. B. Cross, 
 V. Bakken, C. Adamo, J. Jaramillo, R. Gomperts, R. E. Stratmann, 
 O. Yazyev, A. J. Austin, R. Cammi, C. Pomelli, J. W. Ochterski, 
 R. L. Martin, K. Morokuma, V. G. Zakrzewski, G. A. Voth, 
 P. Salvador, J. J. Dannenberg, S. Dapprich, A. D. Daniels, 
 O. Farkas, J. B. Foresman, J. V. Ortiz, J. Cioslowski, 
 and D. J. Fox, Gaussian, Inc., Wallingford CT, 2010.
 
 ******************************************
 Gaussian 09:  EM64L-G09RevB.01 12-Aug-2010
                21-Mar-2016 
 ******************************************
 -------------------------------------------------
 # freq=raman b3lyp/6-31+g(2d,p) geom=connectivity
 -------------------------------------------------
 1/10=4,30=1,38=1,57=2/1,3;
 2/12=2,17=6,18=5,40=1/2;
 3/5=1,6=6,7=112,11=2,16=1,25=1,30=1,71=2,74=-5/1,2,3;
 4//1;
 5/5=2,38=5,98=1/2;
 8/6=4,10=90,11=11/1;
 10/13=10,15=4/2;
 11/6=3,8=1,9=11,15=111,16=1/1,2,10;
 10/6=1/2;
 6/7=2,8=2,9=2,10=2,18=1,28=1/1;
 7/8=1,10=1,25=1/1,2,3,16;
 1/10=4,30=1/3;
 99//99;
 -----------------
 300 8972/8972.com
 -----------------
 Symbolic Z-matrix:
 Charge =  0 Multiplicity = 1
 O                     7.613     7.4       12.208 
 C                     8.05      7.878     13.489 
 C                     7.497     9.232     13.9 
 O                     7.683     10.216    12.872 
 H                     7.473     9.905     11.945 
 C                     8.007     9.726     15.244 
 O                     7.474     10.883    15.904 
 H                     7.905     11.056    16.79 
 C                     8.334     5.549     14.414 
 O                     7.766     4.746     13.368 
 H                     8.067     3.794     13.322 
 C                     7.718     6.923     14.624 
 O                     8.371     7.331     15.835 
 C                     7.798     8.586     16.228 
 O                     8.517     8.887     17.433 
 C                     8.062     8.472     18.729 
 C                     8.556     7.136     19.26 
 O                     8.106     6.023     18.474 
 H                     8.365     6.312     17.552 
 C                     8.214     6.81      20.705 
 O                     9.099     5.766     21.134 
 H                     8.583     5.345     21.881 
 C                     7.516     10.851    19.428 
 O                     7.958     11.583    18.276 
 H                     7.988     12.55     18.529 
 C                     8.261     9.569     19.763 
 O                     7.764     9.196     21.056 
 C                     8.417     8.033     21.585 
 O                     7.747     7.732     22.818 
 H                     8.37771   7.19711   11.66426 
 H                     8.24902   5.00498   15.33145 
 H                     9.37403   5.68217   14.20067 
 H                     6.66025   6.8492    14.76758 
 H                     9.11541   7.9676    13.4468 
 H                     6.44015   9.10446   14.00817 
 H                     9.06138   9.87809   15.14379 
 H                     6.7562    8.46634   16.44066 
 H                     8.39803   7.56468   23.50339 
 H                     9.45763   8.2185    21.75108 
 H                     7.19928   6.47732   20.77258 
 H                     9.62362   7.15491   19.19128 
 H                     7.00239   8.36015   18.63096 
 H                     9.30597   9.78519   19.84173 
 H                     7.58425   11.5008   20.27535 
 H                     6.48529   10.6029   19.28316 
 

 GradGradGradGradGradGradGradGradGradGradGradGradGradGradGradGradGradGrad
 Berny optimization.
 Initialization pass.
 Trust Radius=3.00D-01 FncErr=1.00D-07 GrdErr=1.00D-07
 Number of steps in this run=      2 maximum allowed number of steps=      2.
 GradGradGradGradGradGradGradGradGradGradGradGradGradGradGradGradGradGrad

                          Input orientation:                          
 ---------------------------------------------------------------------
 Center     Atomic      Atomic             Coordinates (Angstroms)
 Number     Number       Type             X           Y           Z
 ---------------------------------------------------------------------
      1          8           0        7.613000    7.400000   12.208000
      2          6           0        8.050000    7.878000   13.489000
      3          6           0        7.497000    9.232000   13.900000
      4          8           0        7.683000   10.216000   12.872000
      5          1           0        7.473000    9.905000   11.945000
      6          6           0        8.007000    9.726000   15.244000
      7          8           0        7.474000   10.883000   15.904000
      8          1           0        7.905000   11.056000   16.790000
      9          6           0        8.334000    5.549000   14.414000
     10          8           0        7.766000    4.746000   13.368000
     11          1           0        8.067000    3.794000   13.322000
     12          6           0        7.718000    6.923000   14.624000
     13          8           0        8.371000    7.331000   15.835000
     14          6           0        7.798000    8.586000   16.228000
     15          8           0        8.517000    8.887000   17.433000
     16          6           0        8.062000    8.472000   18.729000
     17          6           0        8.556000    7.136000   19.260000
     18          8           0        8.106000    6.023000   18.474000
     19          1           0        8.365000    6.312000   17.552000
     20          6           0        8.214000    6.810000   20.705000
     21          8           0        9.099000    5.766000   21.134000
     22          1           0        8.583000    5.345000   21.881000
     23          6           0        7.516000   10.851000   19.428000
     24          8           0        7.958000   11.583000   18.276000
     25          1           0        7.988000   12.550000   18.529000
     26          6           0        8.261000    9.569000   19.763000
     27          8           0        7.764000    9.196000   21.056000
     28          6           0        8.417000    8.033000   21.585000
     29          8           0        7.747000    7.732000   22.818000
     30          1           0        8.377711    7.197106   11.664262
     31          1           0        8.249019    5.004978   15.331452
     32          1           0        9.374027    5.682175   14.200674
     33          1           0        6.660248    6.849197   14.767578
     34          1           0        9.115406    7.967604   13.446801
     35          1           0        6.440150    9.104457   14.008168
     36          1           0        9.061385    9.878089   15.143793
     37          1           0        6.756195    8.466337   16.440659
     38          1           0        8.398030    7.564682   23.503394
     39          1           0        9.457627    8.218504   21.751083
     40          1           0        7.199280    6.477320   20.772583
     41          1           0        9.623623    7.154912   19.191276
     42          1           0        7.002389    8.360146   18.630955
     43          1           0        9.305969    9.785195   19.841734
     44          1           0        7.584250   11.500801   20.275349
     45          1           0        6.485288   10.602899   19.283157
 ---------------------------------------------------------------------
                    Distance matrix (angstroms):
                    1          2          3          4          5
     1  O    0.000000
     2  C    1.435414   0.000000
     3  C    2.496506   1.519225   0.000000
     4  O    2.894072   2.445735   1.435143   0.000000
     5  H    2.522656   2.612584   2.067735   1.000075   0.000000
     6  C    3.844842   2.548917   1.520024   2.443657   3.346729
     7  O    5.080455   3.897952   2.596603   3.111526   4.078010
     8  H    5.869099   4.584464   3.441735   4.013179   4.998545
     9  C    2.968582   2.522008   3.811726   4.958070   5.080553
    10  O    2.900470   3.147177   4.525437   5.493069   5.359670
    11  H    3.801361   4.087448   5.498257   6.449189   6.292320
    12  C    2.464875   1.520024   2.429917   3.730225   4.016141
    13  O    3.706002   2.430219   2.849895   4.192367   4.750156
    14  C    4.195381   2.840227   2.434646   3.732675   4.493270
    15  O    5.507178   4.097720   3.693442   4.823331   5.678416
    16  C    6.623762   5.273574   4.920982   6.122877   6.958668
    17  C    7.119666   5.840466   5.851863   7.145283   7.896168
    18  O    6.434433   5.319247   5.620502   7.010177   7.622234
    19  H    5.505232   4.365724   4.755726   6.132597   6.718911
    20  C    8.538636   7.296450   7.258664   8.557960   9.320177
    21  O    9.195196   8.000436   8.179873   9.490427  10.208473
    22  H    9.936340   8.782132   8.943407  10.280988  10.988621
    23  C    8.002950   6.663003   5.760235   6.588797   7.542682
    24  O    7.378153   6.053995   4.988897   5.580997   6.567531
    25  H    8.161995   6.872629   5.716454   6.127171   7.114092
    26  C    7.886856   6.501314   5.922165   6.945399   7.864793
    27  O    9.029702   7.686248   7.161070   8.247716   9.143177
    28  C    9.432668   8.105796   7.832192   9.012248   9.865349
    29  O   10.616039   9.335061   9.046724  10.251696  11.091399
    30  H    0.960000   1.975014   3.148804   3.324902   2.868798
    31  H    3.987055   3.418844   4.525738   5.789994   6.006703
    32  H    3.165895   2.661048   4.026772   5.018020   5.151138
    33  H    2.786137   2.150490   2.670317   3.996824   4.238566
    34  H    2.028306   1.070000   2.103171   2.727172   2.950662
    35  H    2.742509   2.089342   1.070000   2.017692   2.442194
    36  H    4.105804   2.785964   2.100417   2.678651   3.571549
    37  H    4.448212   3.276028   2.754992   4.081129   4.774360
    38  H   11.323838  10.025337   9.788615  10.980314  11.829169
    39  H    9.754129   8.388049   8.155411   9.272400  10.146047
    40  H    8.624070   7.465669   7.410081   8.753909   9.473655
    41  H    7.271094   5.959454   6.069137   7.284883   8.043424
    42  H    6.522966   5.269693   4.835981   6.088759   6.878230
    43  H    8.174912   6.750709   6.235591   7.169157   8.107560
    44  H    9.049835   7.706889   6.767581   7.514655   8.482551
    45  H    7.847811   6.591332   5.646353   6.533540   7.437149
                    6          7          8          9         10
     6  C    0.000000
     7  O    1.434691   0.000000
     8  H    2.041916   1.000343   0.000000
     9  C    4.271201   5.604575   6.013025   0.000000
    10  O    5.327087   6.646753   7.179520   1.435810   0.000000
    11  H    6.235889   7.567846   8.049218   2.084173   0.999510
    12  C    2.885261   4.168877   4.669927   1.520339   2.513796
    13  O    2.493552   3.664161   3.873604   2.279503   3.624133
    14  C    1.520374   2.342256   2.535388   3.577885   4.788134
    15  O    2.399113   2.722078   2.343620   4.504453   5.851163
    16  C    3.704155   3.760225   3.234413   5.218921   6.535366
    17  C    4.810172   5.145238   4.678793   5.104074   6.407173
    18  O    4.914764   5.533889   5.311059   4.093930   5.274236
    19  H    4.136475   4.940023   4.826777   3.229578   4.507440
    20  C    6.194225   6.339285   5.783703   6.417258   7.634944
    21  O    7.180958   7.495146   6.948386   6.766884   7.945316
    22  H    7.973375   8.223372   7.680722   7.473935   8.573066
    23  C    4.360340   3.524396   2.674395   7.343060   8.605645
    24  O    3.555823   2.520048   1.577572   7.173951   8.418426
    25  H    4.332039   3.151779   2.294133   8.128157   9.358826
    26  C    4.528855   4.151849   3.343147   6.691601   8.025109
    27  O    5.841172   5.428920   4.655989   7.598794   8.883009
    28  C    6.575913   6.425380   5.691458   7.589492   8.873965
    29  O    7.836397   7.603073   6.885545   8.702716   9.910553
    30  H    4.398551   5.690157   6.433328   3.206123   3.047103
    31  H    4.728030   5.956476   6.233825   1.070000   2.038510
    32  H    4.394294   5.793100   6.143342   1.070000   2.038510
    33  H    3.211964   4.269100   4.830816   2.148715   2.757706
    34  H    2.747808   4.151094   4.709592   2.719506   3.493685
    35  H    2.090124   2.797542   3.700392   4.048783   4.600417
    36  H    1.070000   2.026710   2.331244   4.450022   5.582992
    37  H    2.140854   2.577500   2.854496   3.886858   4.929690
    38  H    8.546449   8.343611   7.583010   9.310432  10.539005
    39  H    6.835129   6.724782   5.922362   7.888066   9.230166
    40  H    6.463092   6.571802   6.109281   6.525408   7.625385
    41  H    4.980457   5.415321   4.892676   5.202350   6.569944
    42  H    3.787647   3.744796   3.386953   5.240081   6.429919
    43  H    4.778073   4.479624   3.590368   6.953443   8.347109
    44  H    5.351926   4.416166   3.528227   8.386983   9.662911
    45  H    4.404469   3.531955   2.904602   7.257294   8.422148
                   11         12         13         14         15
    11  H    0.000000
    12  C    3.407000   0.000000
    13  O    4.349477   1.435059   0.000000
    14  C    5.610745   2.311879   1.434504   0.000000
    15  O    6.560600   3.519400   2.235186   1.435126   0.000000
    16  C    7.149780   4.400996   3.126115   2.517478   1.434875
    17  C    6.831393   4.715942   3.435531   3.445299   2.530899
    18  O    5.613650   3.972788   2.957264   3.421746   3.074914
    19  H    4.931737   3.060247   1.996619   2.691754   2.582226
    20  C    7.976625   6.102241   4.900305   4.834331   3.887380
    21  O    8.122878   6.754695   5.573025   5.806362   4.876143
    22  H    8.713687   7.476788   6.367359   6.563285   5.686372
    23  C    9.348159   6.208736   5.102066   3.930617   2.973100
    24  O    9.231604   5.925395   4.920219   3.633444   2.879504
    25  H   10.187572   6.854564   5.885770   4.587374   3.859874
    26  C    8.653019   5.805643   4.522160   3.698227   2.441221
    27  O    9.438653   6.821970   5.577232   4.866502   3.713303
    28  C    9.293481   7.083518   5.792877   5.420924   4.240097
    29  O   10.285148   8.233891   7.022284   6.645300   5.561039
    30  H    3.798127   3.044733   4.172892   4.805496   6.012776
    31  H    2.353188   2.112174   2.383027   3.718997   4.422489
    32  H    2.458779   2.112174   2.528974   3.876353   4.631774
    33  H    3.660994   1.070000   2.073209   2.538463   3.834663
    34  H    4.305078   2.104695   2.581260   3.138956   4.134388
    35  H    5.596286   2.602096   3.195410   2.653339   4.011243
    36  H    6.428365   3.287464   2.728014   2.107402   2.553250
    37  H    5.768446   2.570448   2.064802   1.070000   2.064493
    38  H   10.862246   8.928484   7.672001   7.371193   6.213884
    39  H    9.620786   7.449829   6.080169   5.778742   4.469620
    40  H    7.966451   6.186500   5.146011   5.045615   4.323859
    41  H    6.940260   4.954310   3.586734   3.763232   2.704862
    42  H    7.082944   4.316617   3.278659   2.541299   2.001679
    43  H    8.940715   6.159428   4.790737   4.095255   2.689094
    44  H   10.391193   7.274057   6.141899   4.992273   3.972522
    45  H    9.186856   6.063743   5.113807   3.889097   3.239636
                   16         17         18         19         20
    16  C    0.000000
    17  C    1.520162   0.000000
    18  O    2.462633   1.434944   0.000000
    19  H    2.478455   1.905970   1.000343   0.000000
    20  C    2.586489   1.520285   2.368205   3.195655   0.000000
    21  O    3.765877   2.384035   2.850912   3.696971   1.434295
    22  H    4.470422   3.174595   3.506403   4.441042   1.914514
    23  C    2.538968   3.861483   4.956592   4.984245   4.295069
    24  O    3.145528   4.593655   5.565493   5.336035   5.361633
    25  H    4.083572   5.492575   6.528298   6.325291   6.142772
    26  C    1.520581   2.501904   3.776197   3.937942   2.915760
    27  O    2.455180   2.845431   4.105072   4.577846   2.453303
    28  C    2.911268   2.495908   3.716873   4.385161   1.520309
    29  O    4.167343   3.697169   4.681869   5.488996   2.352221
    30  H    7.185788   7.598076   6.915554   5.953909   9.050502
    31  H    4.857834   4.479842   3.306423   2.579262   5.668717
    32  H    5.478163   5.327246   4.470500   3.556150   6.702530
    33  H    4.504582   4.884463   4.063294   3.308740   6.137480
    34  H    5.409779   5.898965   5.483896   4.489632   7.405001
    35  H    5.031566   5.994446   5.675746   4.905264   7.297852
    36  H    3.978639   4.971683   5.183122   4.359060   6.407672
    37  H    2.634704   3.599691   3.453454   2.909381   4.801380
    38  H    4.871445   4.267917   5.268478   6.081890   2.904207
    39  H    3.338416   2.861860   4.169701   4.739292   2.150531
    40  H    2.983164   2.135991   2.512376   3.429051   1.070000
    41  H    2.094537   1.070000   2.024572   2.232008   2.096989
    42  H    1.070000   2.075558   2.589372   2.686216   2.858779
    43  H    2.123704   2.814090   4.179083   4.265136   3.284724
    44  H    3.434105   4.585490   5.789939   5.911841   4.752347
    45  H    2.708107   4.038288   4.925131   4.994200   4.404108
                   21         22         23         24         25
    21  O    0.000000
    22  H    1.000753   0.000000
    23  C    5.592276   6.121416   0.000000
    24  O    6.580846   7.231825   1.434675   0.000000
    25  H    7.351395   7.968811   1.979289   0.999999   0.000000
    26  C    4.128522   4.736220   1.520123   2.521740   3.237846
    27  O    3.681468   4.022634   2.334719   3.669306   4.205380
    28  C    2.409941   2.709339   3.661362   4.874696   5.470509
    29  O    2.920431   2.697153   4.612334   5.958564   6.454977
    30  H    9.604387  10.385286   8.623753   7.945269   8.713781
    31  H    5.913644   6.566867   7.176001   7.212866   8.198768
    32  H    6.939285   7.728312   7.582477   7.309798   8.235442
    33  H    6.903054   7.520662   6.202118   6.033413   6.957756
    34  H    7.996272   8.848572   6.829848   6.142625   6.935283
    35  H    8.306158   8.983697   5.795037   5.163472   5.891140
    36  H    7.265898   8.134354   4.657167   3.732948   4.444198
    37  H    5.899831   6.532784   3.897195   3.811352   4.749191
    38  H    3.056246   2.755606   5.309115   6.608037   7.054510
    39  H    2.554248   3.006473   4.012065   5.064081   5.594951
    40  H    2.060470   2.103668   4.586642   5.733807   6.521747
    41  H    2.445094   3.404893   4.261359   4.818713   5.676341
    42  H    4.170205   4.706615   2.665226   3.380233   4.305427
    43  H    4.226904   4.939294   2.123936   2.738731   3.332335
    44  H    5.993304   6.439682   1.070000   2.035643   2.076913
    45  H    5.801095   6.228538   1.070000   2.035643   2.572566
                   26         27         28         29         30
    26  C    0.000000
    27  O    1.434569   0.000000
    28  C    2.388162   1.434859   0.000000
    29  O    3.601637   2.290901   1.435197   0.000000
    30  H    8.439731   9.621692   9.955968  11.184354   0.000000
    31  H    6.361530   7.111284   6.950108   7.983550   4.274374
    32  H    6.876460   7.869857   7.808364   9.005959   3.117860
    33  H    5.908805   6.802205   7.138964   8.171270   3.563887
    34  H    6.571823   7.825291   8.168374   9.473512   2.077331
    35  H    6.053874   7.171673   7.903439   9.011362   3.589711
    36  H    4.698216   6.091194   6.731177   8.076309   4.445471
    37  H    3.810283   4.780110   5.423126   6.495493   5.201368
    38  H    4.245776   3.008809   1.974820   0.960000  11.844854
    39  H    2.684814   2.075334   1.070000   2.073944  10.195755
    40  H    3.421256   2.791138   2.136118   2.461290   9.212400
    41  H    2.830447   3.331881   2.820797   4.124060   7.629549
    42  H    2.080133   2.675733   3.291585   4.298878   7.195762
    43  H    1.070000   2.049210   2.626677   3.937532   8.627335
    44  H    2.110059   2.440048   3.799251   4.549222   9.659306
    45  H    2.110059   2.599508   3.954033   4.725367   8.557351
                   31         32         33         34         35
    31  H    0.000000
    32  H    1.732887   0.000000
    33  H    2.498658   3.007976   0.000000
    34  H    3.616585   2.420412   3.003845   0.000000
    35  H    4.672132   4.511841   2.389842   2.960501   0.000000
    36  H    4.943922   4.311950   3.883449   2.555906   2.959565
    37  H    3.929359   4.429688   2.328850   3.844190   2.534580
    38  H    8.564748   9.541331   8.935674  10.090195   9.816492
    39  H    7.280051   7.965465   7.646546   8.315117   8.357201
    40  H    5.733730   6.967910   6.040607   7.717485   7.296262
    41  H    4.627093   5.209353   5.333306   5.823895   6.387475
    42  H    4.868056   5.694172   4.162416   5.611987   4.715960
    43  H    6.656595   6.975741   6.431716   6.650949   6.535045
    44  H    8.190223   8.600081   7.268200   7.839451   6.806540
    45  H    7.075552   7.641333   5.874635   6.922814   5.483875
                   36         37         38         39         40
    36  H    0.000000
    37  H    2.998134   0.000000
    38  H    8.699128   7.306903   0.000000
    39  H    6.824039   5.963200   2.149610   0.000000
    40  H    6.834907   4.787283   3.174379   3.014849   0.000000
    41  H    4.910593   4.184241   4.501594   2.776940   2.972727
    42  H    4.324803   2.206646   5.130422   3.972839   2.858386
    43  H    4.705221   4.450623   4.377532   2.474497   4.030714
    44  H    5.581039   4.959687   5.155148   4.057192   5.062687
    45  H    4.929093   3.566243   5.540735   4.539911   4.443937
                   41         42         43         44         45
    41  H    0.000000
    42  H    2.938949   0.000000
    43  H    2.728074   2.967024   0.000000
    44  H    4.921485   3.592535   2.468936   0.000000
    45  H    4.663282   2.392217   2.989463   1.731586   0.000000
 Stoichiometry    C12H22O11
 Framework group  C1[X(C12H22O11)]
 Deg. of freedom   129
 Full point group                 C1      NOp   1
 Largest Abelian subgroup         C1      NOp   1
 Largest concise Abelian subgroup C1      NOp   1
                         Standard orientation:                         
 ---------------------------------------------------------------------
 Center     Atomic      Atomic             Coordinates (Angstroms)
 Number     Number       Type             X           Y           Z
 ---------------------------------------------------------------------
      1          8           0        5.075653   -0.533936   -0.223205
      2          6           0        3.754394   -0.157045    0.192297
      3          6           0        3.310117    1.231072   -0.236417
      4          8           0        4.282096    2.229558    0.106977
      5          1           0        5.231430    1.980085   -0.084536
      6          6           0        1.921689    1.613507    0.249877
      7          8           0        1.236913    2.793855   -0.193066
      8          1           0        0.323887    2.884131    0.205580
      9          6           0        2.923050   -2.538059    0.179618
     10          8           0        4.030995   -3.233098   -0.412772
     11          1           0        4.105248   -4.209330   -0.211581
     12          6           0        2.681511   -1.115301   -0.298765
     13          8           0        1.422659   -0.828363    0.327615
     14          6           0        1.001811    0.464271   -0.130410
     15          8           0       -0.249448    0.638063    0.550572
     16          6           0       -1.501399    0.223051   -0.014449
     17          6           0       -1.994935   -1.178365    0.307027
     18          8           0       -1.138156   -2.204394   -0.214759
     19          1           0       -0.244033   -1.908396    0.122309
     20          6           0       -3.405136   -1.523035   -0.144416
     21          8           0       -3.829334   -2.672312    0.601521
     22          1           0       -4.530245   -3.064865    0.004753
     23          6           0       -2.279823    2.617197   -0.343815
     24          8           0       -1.185275    3.342782    0.233926
     25          1           0       -1.483002    4.290116    0.351889
     26          6           0       -2.592571    1.250270    0.243103
     27          8           0       -3.841369    0.881613   -0.359044
     28          6           0       -4.348558   -0.364943    0.138630
     29          8           0       -5.532256   -0.641101   -0.624511
     30          1           0        5.589812   -0.795979    0.543981
     31          1           0        2.036474   -3.105912   -0.011238
     32          1           0        3.078785   -2.508980    1.237825
     33          1           0        2.593548   -1.080716   -1.364582
     34          1           0        3.740114   -0.180792    1.261938
     35          1           0        3.259876    1.213584   -1.305094
     36          1           0        1.962997    1.655328    1.318261
     37          1           0        0.846216    0.448833   -1.188924
     38          1           0       -6.240510   -0.904548   -0.032419
     39          1           0       -4.573784   -0.299055    1.182580
     40          1           0       -3.407657   -1.747219   -1.190664
     41          1           0       -1.979655   -1.271521    1.372855
     42          1           0       -1.346464    0.229659   -1.073152
     43          1           0       -2.732247    1.349658    1.299281
     44          1           0       -3.158075    3.221640   -0.253137
     45          1           0       -2.073440    2.487214   -1.385645
 ---------------------------------------------------------------------
 Rotational constants (GHZ):      0.4083270      0.1461118      0.1101338
 Standard basis: 6-31+G(2d,p) (6D, 7F)
 There are   685 symmetry adapted basis functions of A   symmetry.
 Integral buffers will be    131072 words long.
 Raffenetti 2 integral format.
 Two-electron integral symmetry is turned on.
   685 basis functions,  1028 primitive gaussians,   685 cartesian basis functions
    91 alpha electrons       91 beta electrons
       nuclear repulsion energy      2287.1531903487 Hartrees.
 NAtoms=   45 NActive=   45 NUniq=   45 SFac= 1.00D+00 NAtFMM=   50 NAOKFM=F Big=F
 One-electron integrals computed using PRISM.
 NBasis=   685 RedAO= T  NBF=   685
 NBsUse=   685 1.00D-06 NBFU=   685
 Harris functional with IExCor=  402 diagonalized for initial guess.
 ExpMin= 4.38D-02 ExpMax= 5.48D+03 ExpMxC= 8.25D+02 IAcc=2 IRadAn=         0 AccDes= 0.00D+00
 HarFok:  IExCor=  402 AccDes= 0.00D+00 IRadAn=         0 IDoV= 1
 ScaDFX=  1.000000  1.000000  1.000000  1.000000
 FoFCou: FMM=F IPFlag=           0 FMFlag=      100000 FMFlg1=           0
         NFxFlg=           0 DoJE=T BraDBF=F KetDBF=T FulRan=T
         Omega=  0.000000  0.000000  1.000000  0.000000  0.000000 ICntrl=     500 IOpCl=  0
         NMat0=    1 NMatS0=    1 NMatT0=    0 NMatD0=    1 NMtDS0=    0 NMtDT0=    0
         I1Cent=           4 NGrid=           0.
 Petite list used in FoFCou.
 Initial guess orbital symmetries:
       Occupied  (A) (A) (A) (A) (A) (A) (A) (A) (A) (A) (A) (A)
                 (A) (A) (A) (A) (A) (A) (A) (A) (A) (A) (A) (A)
                 (A) (A) (A) (A) (A) (A) (A) (A) (A) (A) (A) (A)
                 (A) (A) (A) (A) (A) (A) (A) (A) (A) (A) (A) (A)
                 (A) (A) (A) (A) (A) (A) (A) (A) (A) (A) (A) (A)
                 (A) (A) (A) (A) (A) (A) (A) (A) (A) (A) (A) (A)
                 (A) (A) (A) (A) (A) (A) (A) (A) (A) (A) (A) (A)
                 (A) (A) (A) (A) (A) (A) (A)
       Virtual   (A) (A) (A) (A) (A) (A) (A) (A) (A) (A) (A) (A)
                 (A) (A) (A) (A) (A) (A) (A) (A) (A) (A) (A) (A)
                 (A) (A) (A) (A) (A) (A) (A) (A) (A) (A) (A) (A)
                 (A) (A) (A) (A) (A) (A) (A) (A) (A) (A) (A) (A)
                 (A) (A) (A) (A) (A) (A) (A) (A) (A) (A) (A) (A)
                 (A) (A) (A) (A) (A) (A) (A) (A) (A) (A) (A) (A)
                 (A) (A) (A) (A) (A) (A) (A) (A) (A) (A) (A) (A)
                 (A) (A) (A) (A) (A) (A) (A) (A) (A) (A) (A) (A)
                 (A) (A) (A) (A) (A) (A) (A) (A) (A) (A) (A) (A)
                 (A) (A) (A) (A) (A) (A) (A) (A) (A) (A) (A) (A)
                 (A) (A) (A) (A) (A) (A) (A) (A) (A) (A) (A) (A)
                 (A) (A) (A) (A) (A) (A) (A) (A) (A) (A) (A) (A)
                 (A) (A) (A) (A) (A) (A) (A) (A) (A) (A) (A) (A)
                 (A) (A) (A) (A) (A) (A) (A) (A) (A) (A) (A) (A)
                 (A) (A) (A) (A) (A) (A) (A) (A) (A) (A) (A) (A)
                 (A) (A) (A) (A) (A) (A) (A) (A) (A) (A) (A) (A)
                 (A) (A) (A) (A) (A) (A) (A) (A) (A) (A) (A) (A)
                 (A) (A) (A) (A) (A) (A) (A) (A) (A) (A) (A) (A)
                 (A) (A) (A) (A) (A) (A) (A) (A) (A) (A) (A) (A)
                 (A) (A) (A) (A) (A) (A) (A) (A) (A) (A) (A) (A)
                 (A) (A) (A) (A) (A) (A) (A) (A) (A) (A) (A) (A)
                 (A) (A) (A) (A) (A) (A) (A) (A) (A) (A) (A) (A)
                 (A) (A) (A) (A) (A) (A) (A) (A) (A) (A) (A) (A)
                 (A) (A) (A) (A) (A) (A) (A) (A) (A) (A) (A) (A)
                 (A) (A) (A) (A) (A) (A) (A) (A) (A) (A) (A) (A)
                 (A) (A) (A) (A) (A) (A) (A) (A) (A) (A) (A) (A)
                 (A) (A) (A) (A) (A) (A) (A) (A) (A) (A) (A) (A)
                 (A) (A) (A) (A) (A) (A) (A) (A) (A) (A) (A) (A)
                 (A) (A) (A) (A) (A) (A) (A) (A) (A) (A) (A) (A)
                 (A) (A) (A) (A) (A) (A) (A) (A) (A) (A) (A) (A)
                 (A) (A) (A) (A) (A) (A) (A) (A) (A) (A) (A) (A)
                 (A) (A) (A) (A) (A) (A) (A) (A) (A) (A) (A) (A)
                 (A) (A) (A) (A) (A) (A) (A) (A) (A) (A) (A) (A)
                 (A) (A) (A) (A) (A) (A) (A) (A) (A) (A) (A) (A)
                 (A) (A) (A) (A) (A) (A) (A) (A) (A) (A) (A) (A)
                 (A) (A) (A) (A) (A) (A) (A) (A) (A) (A) (A) (A)
                 (A) (A) (A) (A) (A) (A) (A) (A) (A) (A) (A) (A)
                 (A) (A) (A) (A) (A) (A) (A) (A) (A) (A) (A) (A)
                 (A) (A) (A) (A) (A) (A) (A) (A) (A) (A) (A) (A)
                 (A) (A) (A) (A) (A) (A) (A) (A) (A) (A) (A) (A)
                 (A) (A) (A) (A) (A) (A) (A) (A) (A) (A) (A) (A)
                 (A) (A) (A) (A) (A) (A) (A) (A) (A) (A) (A) (A)
                 (A) (A) (A) (A) (A) (A) (A) (A) (A) (A) (A) (A)
                 (A) (A) (A) (A) (A) (A) (A) (A) (A) (A) (A) (A)
                 (A) (A) (A) (A) (A) (A) (A) (A) (A) (A) (A) (A)
                 (A) (A) (A) (A) (A) (A) (A) (A) (A) (A) (A) (A)
                 (A) (A) (A) (A) (A) (A) (A) (A) (A) (A) (A) (A)
                 (A) (A) (A) (A) (A) (A) (A) (A) (A) (A) (A) (A)
                 (A) (A) (A) (A) (A) (A) (A) (A) (A) (A) (A) (A)
                 (A) (A) (A) (A) (A) (A)
 The electronic state of the initial guess is 1-A.
 Requested convergence on RMS density matrix=1.00D-08 within 128 cycles.
 Requested convergence on MAX density matrix=1.00D-06.
 Requested convergence on             energy=1.00D-06.
 No special actions if energy rises.
 SCF Done:  E(RB3LYP) =  -1297.98624303     A.U. after   13 cycles
             Convg  =    0.4189D-08             -V/T =  2.0064
 Range of M.O.s used for correlation:     1   685
 NBasis=   685 NAE=    91 NBE=    91 NFC=     0 NFV=     0
 NROrb=    685 NOA=    91 NOB=    91 NVA=   594 NVB=   594

 **** Warning!!: The largest alpha MO coefficient is  0.72440376D+02

          Differentiating once with respect to electric field.
                with respect to dipole field.
          Electric field/nuclear overlap derivatives assumed to be zero.
          There are     3 degrees of freedom in the 1st order CPHF.  IDoFFX=0.
      3 vectors produced by pass  0 Test12= 1.80D-12 3.33D-08 XBig12= 1.23D+02 1.29D+00.
 AX will form     3 AO Fock derivatives at one time.
      3 vectors produced by pass  1 Test12= 1.80D-12 3.33D-08 XBig12= 2.47D+01 4.07D-01.
      3 vectors produced by pass  2 Test12= 1.80D-12 3.33D-08 XBig12= 1.06D+01 2.13D-01.
      3 vectors produced by pass  3 Test12= 1.80D-12 3.33D-08 XBig12= 1.07D+00 1.06D-01.
      3 vectors produced by pass  4 Test12= 1.80D-12 3.33D-08 XBig12= 2.85D-01 4.86D-02.
      3 vectors produced by pass  5 Test12= 1.80D-12 3.33D-08 XBig12= 6.01D-02 2.58D-02.
      3 vectors produced by pass  6 Test12= 1.80D-12 3.33D-08 XBig12= 1.92D-02 1.80D-02.
      3 vectors produced by pass  7 Test12= 1.80D-12 3.33D-08 XBig12= 2.74D-03 8.48D-03.
      3 vectors produced by pass  8 Test12= 1.80D-12 3.33D-08 XBig12= 4.52D-04 2.12D-03.
      3 vectors produced by pass  9 Test12= 1.80D-12 3.33D-08 XBig12= 1.54D-04 1.14D-03.
      3 vectors produced by pass 10 Test12= 1.80D-12 3.33D-08 XBig12= 3.27D-05 4.25D-04.
      3 vectors produced by pass 11 Test12= 1.80D-12 3.33D-08 XBig12= 7.35D-06 2.25D-04.
      3 vectors produced by pass 12 Test12= 1.80D-12 3.33D-08 XBig12= 1.09D-06 1.11D-04.
      3 vectors produced by pass 13 Test12= 1.80D-12 3.33D-08 XBig12= 3.53D-07 4.44D-05.
      3 vectors produced by pass 14 Test12= 1.80D-12 3.33D-08 XBig12= 6.04D-08 3.26D-05.
      3 vectors produced by pass 15 Test12= 1.80D-12 3.33D-08 XBig12= 9.40D-09 9.87D-06.
      3 vectors produced by pass 16 Test12= 1.80D-12 3.33D-08 XBig12= 1.53D-09 3.42D-06.
      3 vectors produced by pass 17 Test12= 1.80D-12 3.33D-08 XBig12= 1.56D-10 1.20D-06.
      3 vectors produced by pass 18 Test12= 1.80D-12 3.33D-08 XBig12= 2.52D-11 2.63D-07.
      3 vectors produced by pass 19 Test12= 1.80D-12 3.33D-08 XBig12= 7.96D-12 1.79D-07.
      3 vectors produced by pass 20 Test12= 1.80D-12 3.33D-08 XBig12= 2.83D-12 2.51D-07.
      2 vectors produced by pass 21 Test12= 1.80D-12 3.33D-08 XBig12= 7.98D-13 4.72D-08.
      1 vectors produced by pass 22 Test12= 1.80D-12 3.33D-08 XBig12= 3.18D-13 4.49D-08.
 Inverted reduced A of dimension    66 with in-core refinement.
 End of Minotr Frequency-dependent properties file   721 does not exist.
 End of Minotr Frequency-dependent properties file   722 does not exist.
 Symmetrizing basis deriv contribution to polar:
 IMax=3 JMax=2 DiffMx= 0.00D+00
 G2DrvN: will do    16 centers at a time, making    3 passes doing MaxLOS=2.
 Calling FoFCou, ICntrl=  3107 FMM=F I1Cent=   0 AccDes= 0.00D+00.
 Calling FoFCou, ICntrl=  3107 FMM=F I1Cent=   0 AccDes= 0.00D+00.
 Calling FoFCou, ICntrl=  3107 FMM=F I1Cent=   0 AccDes= 0.00D+00.
 FoFDir/FoFCou used for L=0 through L=2.
 End of G2Drv Frequency-dependent properties file   721 does not exist.
 End of G2Drv Frequency-dependent properties file   722 does not exist.
          IDoAtm=111111111111111111111111111111111111111111111
          Differentiating once with respect to electric field.
                with respect to dipole field.
          Differentiating once with respect to nuclear coordinates.
          There are   138 degrees of freedom in the 1st order CPHF.  IDoFFX=5.
 Will reuse    3 saved solutions.
    135 vectors produced by pass  0 Test12= 5.41D-14 1.00D-09 XBig12= 1.47D-01 7.29D-02.
 AX will form    45 AO Fock derivatives at one time.
    135 vectors produced by pass  1 Test12= 5.41D-14 1.00D-09 XBig12= 1.68D-02 9.99D-03.
    132 vectors produced by pass  2 Test12= 5.41D-14 1.00D-09 XBig12= 1.23D-04 1.21D-03.
    132 vectors produced by pass  3 Test12= 5.41D-14 1.00D-09 XBig12= 4.11D-07 6.37D-05.
    132 vectors produced by pass  4 Test12= 5.41D-14 1.00D-09 XBig12= 1.05D-09 2.19D-06.
    132 vectors produced by pass  5 Test12= 5.41D-14 1.00D-09 XBig12= 2.71D-12 1.05D-07.
     79 vectors produced by pass  6 Test12= 5.41D-14 1.00D-09 XBig12= 1.09D-13 2.17D-08.
 Inverted reduced A of dimension   877 with in-core refinement.
 Isotropic polarizability for W=    0.000000      192.14 Bohr**3.
 End of Minotr Frequency-dependent properties file   721 does not exist.
 End of Minotr Frequency-dependent properties file   722 does not exist.

 **********************************************************************

            Population analysis using the SCF density.

 **********************************************************************

 Orbital symmetries:
       Occupied  (A) (A) (A) (A) (A) (A) (A) (A) (A) (A) (A) (A)
                 (A) (A) (A) (A) (A) (A) (A) (A) (A) (A) (A) (A)
                 (A) (A) (A) (A) (A) (A) (A) (A) (A) (A) (A) (A)
                 (A) (A) (A) (A) (A) (A) (A) (A) (A) (A) (A) (A)
                 (A) (A) (A) (A) (A) (A) (A) (A) (A) (A) (A) (A)
                 (A) (A) (A) (A) (A) (A) (A) (A) (A) (A) (A) (A)
                 (A) (A) (A) (A) (A) (A) (A) (A) (A) (A) (A) (A)
                 (A) (A) (A) (A) (A) (A) (A)
       Virtual   (A) (A) (A) (A) (A) (A) (A) (A) (A) (A) (A) (A)
                 (A) (A) (A) (A) (A) (A) (A) (A) (A) (A) (A) (A)
                 (A) (A) (A) (A) (A) (A) (A) (A) (A) (A) (A) (A)
                 (A) (A) (A) (A) (A) (A) (A) (A) (A) (A) (A) (A)
                 (A) (A) (A) (A) (A) (A) (A) (A) (A) (A) (A) (A)
                 (A) (A) (A) (A) (A) (A) (A) (A) (A) (A) (A) (A)
                 (A) (A) (A) (A) (A) (A) (A) (A) (A) (A) (A) (A)
                 (A) (A) (A) (A) (A) (A) (A) (A) (A) (A) (A) (A)
                 (A) (A) (A) (A) (A) (A) (A) (A) (A) (A) (A) (A)
                 (A) (A) (A) (A) (A) (A) (A) (A) (A) (A) (A) (A)
                 (A) (A) (A) (A) (A) (A) (A) (A) (A) (A) (A) (A)
                 (A) (A) (A) (A) (A) (A) (A) (A) (A) (A) (A) (A)
                 (A) (A) (A) (A) (A) (A) (A) (A) (A) (A) (A) (A)
                 (A) (A) (A) (A) (A) (A) (A) (A) (A) (A) (A) (A)
                 (A) (A) (A) (A) (A) (A) (A) (A) (A) (A) (A) (A)
                 (A) (A) (A) (A) (A) (A) (A) (A) (A) (A) (A) (A)
                 (A) (A) (A) (A) (A) (A) (A) (A) (A) (A) (A) (A)
                 (A) (A) (A) (A) (A) (A) (A) (A) (A) (A) (A) (A)
                 (A) (A) (A) (A) (A) (A) (A) (A) (A) (A) (A) (A)
                 (A) (A) (A) (A) (A) (A) (A) (A) (A) (A) (A) (A)
                 (A) (A) (A) (A) (A) (A) (A) (A) (A) (A) (A) (A)
                 (A) (A) (A) (A) (A) (A) (A) (A) (A) (A) (A) (A)
                 (A) (A) (A) (A) (A) (A) (A) (A) (A) (A) (A) (A)
                 (A) (A) (A) (A) (A) (A) (A) (A) (A) (A) (A) (A)
                 (A) (A) (A) (A) (A) (A) (A) (A) (A) (A) (A) (A)
                 (A) (A) (A) (A) (A) (A) (A) (A) (A) (A) (A) (A)
                 (A) (A) (A) (A) (A) (A) (A) (A) (A) (A) (A) (A)
                 (A) (A) (A) (A) (A) (A) (A) (A) (A) (A) (A) (A)
                 (A) (A) (A) (A) (A) (A) (A) (A) (A) (A) (A) (A)
                 (A) (A) (A) (A) (A) (A) (A) (A) (A) (A) (A) (A)
                 (A) (A) (A) (A) (A) (A) (A) (A) (A) (A) (A) (A)
                 (A) (A) (A) (A) (A) (A) (A) (A) (A) (A) (A) (A)
                 (A) (A) (A) (A) (A) (A) (A) (A) (A) (A) (A) (A)
                 (A) (A) (A) (A) (A) (A) (A) (A) (A) (A) (A) (A)
                 (A) (A) (A) (A) (A) (A) (A) (A) (A) (A) (A) (A)
                 (A) (A) (A) (A) (A) (A) (A) (A) (A) (A) (A) (A)
                 (A) (A) (A) (A) (A) (A) (A) (A) (A) (A) (A) (A)
                 (A) (A) (A) (A) (A) (A) (A) (A) (A) (A) (A) (A)
                 (A) (A) (A) (A) (A) (A) (A) (A) (A) (A) (A) (A)
                 (A) (A) (A) (A) (A) (A) (A) (A) (A) (A) (A) (A)
                 (A) (A) (A) (A) (A) (A) (A) (A) (A) (A) (A) (A)
                 (A) (A) (A) (A) (A) (A) (A) (A) (A) (A) (A) (A)
                 (A) (A) (A) (A) (A) (A) (A) (A) (A) (A) (A) (A)
                 (A) (A) (A) (A) (A) (A) (A) (A) (A) (A) (A) (A)
                 (A) (A) (A) (A) (A) (A) (A) (A) (A) (A) (A) (A)
                 (A) (A) (A) (A) (A) (A) (A) (A) (A) (A) (A) (A)
                 (A) (A) (A) (A) (A) (A) (A) (A) (A) (A) (A) (A)
                 (A) (A) (A) (A) (A) (A) (A) (A) (A) (A) (A) (A)
                 (A) (A) (A) (A) (A) (A) (A) (A) (A) (A) (A) (A)
                 (A) (A) (A) (A) (A) (A)
 The electronic state is 1-A.
 Alpha  occ. eigenvalues --  -19.18994 -19.18454 -19.18088 -19.17625 -19.17339
 Alpha  occ. eigenvalues --  -19.16885 -19.16746 -19.15354 -19.14616 -19.14478
 Alpha  occ. eigenvalues --  -19.12470 -10.30274 -10.30017 -10.26053 -10.25395
 Alpha  occ. eigenvalues --  -10.25339 -10.25208 -10.25154 -10.24599 -10.24502
 Alpha  occ. eigenvalues --  -10.24272 -10.23963 -10.23796  -1.09861  -1.08947
 Alpha  occ. eigenvalues --   -1.05963  -1.04855  -1.04081  -1.03728  -1.02842
 Alpha  occ. eigenvalues --   -1.01638  -1.01289  -1.01116  -0.99338  -0.81915
 Alpha  occ. eigenvalues --   -0.80668  -0.79118  -0.78099  -0.71810  -0.69709
 Alpha  occ. eigenvalues --   -0.67390  -0.64627  -0.63363  -0.62258  -0.61096
 Alpha  occ. eigenvalues --   -0.60225  -0.56577  -0.56042  -0.55017  -0.54726
 Alpha  occ. eigenvalues --   -0.54113  -0.53164  -0.52808  -0.52316  -0.50930
 Alpha  occ. eigenvalues --   -0.50535  -0.49657  -0.49424  -0.48419  -0.46425
 Alpha  occ. eigenvalues --   -0.45738  -0.44920  -0.44657  -0.43181  -0.42958
 Alpha  occ. eigenvalues --   -0.42573  -0.41577  -0.41266  -0.40006  -0.39584
 Alpha  occ. eigenvalues --   -0.38853  -0.38409  -0.37720  -0.36032  -0.35530
 Alpha  occ. eigenvalues --   -0.34995  -0.34735  -0.33791  -0.33457  -0.32771
 Alpha  occ. eigenvalues --   -0.32202  -0.31744  -0.31197  -0.30552  -0.29955
 Alpha  occ. eigenvalues --   -0.29375  -0.28371  -0.28143  -0.26830  -0.26494
 Alpha  occ. eigenvalues --   -0.26192
 Alpha virt. eigenvalues --   -0.01959  -0.01766  -0.01508   0.00079   0.00332
 Alpha virt. eigenvalues --    0.01049   0.02075   0.02218   0.02665   0.03453
 Alpha virt. eigenvalues --    0.03768   0.04358   0.04944   0.05502   0.05606
 Alpha virt. eigenvalues --    0.06356   0.06459   0.07292   0.07763   0.08234
 Alpha virt. eigenvalues --    0.08398   0.08795   0.09045   0.09908   0.10033
 Alpha virt. eigenvalues --    0.10459   0.11082   0.11615   0.12172   0.12217
 Alpha virt. eigenvalues --    0.12891   0.12994   0.13081   0.13441   0.13707
 Alpha virt. eigenvalues --    0.13897   0.14166   0.14657   0.14794   0.15434
 Alpha virt. eigenvalues --    0.15576   0.16262   0.16744   0.17005   0.17298
 Alpha virt. eigenvalues --    0.17374   0.17768   0.17943   0.18350   0.18480
 Alpha virt. eigenvalues --    0.19020   0.19243   0.19328   0.19759   0.19968
 Alpha virt. eigenvalues --    0.20815   0.21175   0.21302   0.21543   0.21855
 Alpha virt. eigenvalues --    0.21996   0.22249   0.22653   0.22785   0.23409
 Alpha virt. eigenvalues --    0.23884   0.24129   0.24403   0.24598   0.24884
 Alpha virt. eigenvalues --    0.25075   0.25233   0.25988   0.26036   0.26101
 Alpha virt. eigenvalues --    0.26303   0.26673   0.26794   0.26966   0.27445
 Alpha virt. eigenvalues --    0.27956   0.28288   0.28381   0.28515   0.28712
 Alpha virt. eigenvalues --    0.28898   0.29209   0.29763   0.30134   0.30848
 Alpha virt. eigenvalues --    0.31206   0.31336   0.31658   0.32243   0.32750
 Alpha virt. eigenvalues --    0.32793   0.32887   0.33350   0.33529   0.33960
 Alpha virt. eigenvalues --    0.34143   0.34476   0.35081   0.35202   0.35686
 Alpha virt. eigenvalues --    0.36044   0.36247   0.37168   0.37463   0.37717
 Alpha virt. eigenvalues --    0.37976   0.38244   0.38395   0.39016   0.39252
 Alpha virt. eigenvalues --    0.39904   0.40071   0.40825   0.40952   0.41444
 Alpha virt. eigenvalues --    0.42324   0.42627   0.43082   0.43560   0.44117
 Alpha virt. eigenvalues --    0.44183   0.44630   0.45542   0.45775   0.46669
 Alpha virt. eigenvalues --    0.47235   0.47261   0.48495   0.48619   0.49574
 Alpha virt. eigenvalues --    0.49792   0.51003   0.54133   0.57397   0.59033
 Alpha virt. eigenvalues --    0.60306   0.60611   0.60855   0.62143   0.62809
 Alpha virt. eigenvalues --    0.63976   0.64505   0.64943   0.66099   0.66128
 Alpha virt. eigenvalues --    0.67410   0.67901   0.69200   0.69709   0.70920
 Alpha virt. eigenvalues --    0.71101   0.72364   0.72694   0.73258   0.74187
 Alpha virt. eigenvalues --    0.74863   0.75723   0.76286   0.77235   0.77709
 Alpha virt. eigenvalues --    0.78376   0.78726   0.80216   0.80749   0.81498
 Alpha virt. eigenvalues --    0.82392   0.83028   0.83309   0.84759   0.85381
 Alpha virt. eigenvalues --    0.86913   0.87925   0.88144   0.89033   0.89542
 Alpha virt. eigenvalues --    0.90293   0.90703   0.91010   0.91689   0.92510
 Alpha virt. eigenvalues --    0.92757   0.93159   0.93493   0.93802   0.94166
 Alpha virt. eigenvalues --    0.94826   0.95243   0.95680   0.95891   0.96851
 Alpha virt. eigenvalues --    0.97252   0.97578   0.98366   0.98504   0.98899
 Alpha virt. eigenvalues --    0.99321   1.00173   1.00839   1.02070   1.02650
 Alpha virt. eigenvalues --    1.03621   1.03942   1.04764   1.05902   1.06996
 Alpha virt. eigenvalues --    1.07029   1.07502   1.07728   1.08459   1.09411
 Alpha virt. eigenvalues --    1.09633   1.09711   1.10087   1.10953   1.11104
 Alpha virt. eigenvalues --    1.11447   1.12359   1.13521   1.13986   1.14995
 Alpha virt. eigenvalues --    1.15365   1.15880   1.16272   1.16328   1.17173
 Alpha virt. eigenvalues --    1.17330   1.18453   1.18664   1.19673   1.19767
 Alpha virt. eigenvalues --    1.20482   1.21209   1.21568   1.22390   1.22706
 Alpha virt. eigenvalues --    1.23047   1.24280   1.24416   1.25180   1.25952
 Alpha virt. eigenvalues --    1.26671   1.26908   1.26980   1.27733   1.28556
 Alpha virt. eigenvalues --    1.28908   1.29105   1.29948   1.30702   1.31323
 Alpha virt. eigenvalues --    1.32469   1.32861   1.33649   1.34274   1.35243
 Alpha virt. eigenvalues --    1.35717   1.36402   1.36774   1.37319   1.38408
 Alpha virt. eigenvalues --    1.38750   1.39358   1.40009   1.40409   1.40739
 Alpha virt. eigenvalues --    1.41658   1.42657   1.42875   1.43243   1.44561
 Alpha virt. eigenvalues --    1.45040   1.46284   1.46405   1.47360   1.47534
 Alpha virt. eigenvalues --    1.48666   1.48976   1.49909   1.50725   1.51553
 Alpha virt. eigenvalues --    1.52481   1.54768   1.55815   1.56094   1.57097
 Alpha virt. eigenvalues --    1.57282   1.58383   1.58831   1.60793   1.62284
 Alpha virt. eigenvalues --    1.62793   1.63558   1.63838   1.64185   1.65267
 Alpha virt. eigenvalues --    1.66066   1.67335   1.67744   1.67974   1.69263
 Alpha virt. eigenvalues --    1.70341   1.70594   1.72162   1.72826   1.74156
 Alpha virt. eigenvalues --    1.75040   1.76333   1.76959   1.77249   1.78745
 Alpha virt. eigenvalues --    1.79104   1.80508   1.81324   1.82830   1.84042
 Alpha virt. eigenvalues --    1.85345   1.85522   1.86985   1.88077   1.88985
 Alpha virt. eigenvalues --    1.89510   1.90451   1.91296   1.92507   1.93903
 Alpha virt. eigenvalues --    1.95682   1.96318   1.97197   1.98645   1.99039
 Alpha virt. eigenvalues --    2.00918   2.01874   2.04121   2.04495   2.04902
 Alpha virt. eigenvalues --    2.05460   2.06900   2.08932   2.10027   2.10949
 Alpha virt. eigenvalues --    2.11488   2.13752   2.14370   2.15498   2.19033
 Alpha virt. eigenvalues --    2.20018   2.21353   2.21590   2.24831   2.25743
 Alpha virt. eigenvalues --    2.25895   2.26809   2.28863   2.29822   2.32111
 Alpha virt. eigenvalues --    2.33263   2.33576   2.35191   2.36783   2.37150
 Alpha virt. eigenvalues --    2.38095   2.39730   2.41409   2.44481   2.49576
 Alpha virt. eigenvalues --    2.51628   2.54315   2.56431   2.56670   2.58481
 Alpha virt. eigenvalues --    2.62312   2.63714   2.65109   2.66780   2.67144
 Alpha virt. eigenvalues --    2.68350   2.70764   2.70954   2.72278   2.73048
 Alpha virt. eigenvalues --    2.74006   2.74505   2.76557   2.77576   2.79079
 Alpha virt. eigenvalues --    2.81620   2.82371   2.84027   2.84415   2.85797
 Alpha virt. eigenvalues --    2.86770   2.90089   2.90836   2.91581   2.92811
 Alpha virt. eigenvalues --    2.93441   2.95729   2.96221   2.96809   2.97365
 Alpha virt. eigenvalues --    2.98392   2.98884   3.00121   3.01320   3.01535
 Alpha virt. eigenvalues --    3.02422   3.02827   3.03593   3.03936   3.05833
 Alpha virt. eigenvalues --    3.06549   3.06705   3.07820   3.08808   3.08972
 Alpha virt. eigenvalues --    3.09637   3.10251   3.11710   3.13789   3.14440
 Alpha virt. eigenvalues --    3.15072   3.18561   3.19690   3.21364   3.23554
 Alpha virt. eigenvalues --    3.24546   3.28199   3.36704   3.75180   3.78686
 Alpha virt. eigenvalues --    3.95111   4.06313   4.08027   4.10528   4.10892
 Alpha virt. eigenvalues --    4.11082   4.13461   4.14717   4.15746   4.16909
 Alpha virt. eigenvalues --    4.18984   4.20461   4.20929   4.21538   4.22241
 Alpha virt. eigenvalues --    4.23873   4.24434   4.25490   4.25640   4.26138
 Alpha virt. eigenvalues --    4.27316   4.28093   4.28721   4.29445   4.30626
 Alpha virt. eigenvalues --    4.31310   4.31695   4.31926   4.32822   4.33324
 Alpha virt. eigenvalues --    4.34140   4.34348   4.34432   4.34938   4.35660
 Alpha virt. eigenvalues --    4.35840   4.36656   4.37178   4.38465   4.39463
 Alpha virt. eigenvalues --    4.40342   4.41078   4.42898   4.43192   4.44861
 Alpha virt. eigenvalues --    4.45781   4.46791   4.48113   4.49625   4.50595
 Alpha virt. eigenvalues --    4.52362   4.53296   4.53624   4.54190   4.54889
 Alpha virt. eigenvalues --    4.56830   4.57295   4.58380   4.59289   4.60732
 Alpha virt. eigenvalues --    4.62005   4.63360   4.63487   4.64075   4.64259
 Alpha virt. eigenvalues --    4.64950   4.66088   4.66510   4.66720   4.67114
 Alpha virt. eigenvalues --    4.68119   4.68632   4.69616   4.70089   4.70849
 Alpha virt. eigenvalues --    4.71609   4.72442   4.73112   4.74076   4.74377
 Alpha virt. eigenvalues --    4.74696   4.75443   4.76216   4.76710   4.77954
 Alpha virt. eigenvalues --    4.78116   4.78726   4.79493   4.80290   4.81179
 Alpha virt. eigenvalues --    4.81914   4.82850   4.83298   4.84600   4.86741
 Alpha virt. eigenvalues --    4.88556   4.88907   4.90100   4.90645   4.91367
 Alpha virt. eigenvalues --    4.93820   4.94822   4.95294   4.97737   4.98838
 Alpha virt. eigenvalues --    4.99982   5.01036   5.03309   5.03503   5.03851
 Alpha virt. eigenvalues --    5.06746   5.09717   5.10516   5.13264   5.13654
 Alpha virt. eigenvalues --    5.22645   5.23959   5.28929   5.32231   5.42600
 Alpha virt. eigenvalues --    5.48207   5.83397   6.03373   6.18886   6.51713
 Alpha virt. eigenvalues --    6.76248   6.77385   6.78995   6.79822   6.83401
 Alpha virt. eigenvalues --    6.87011   6.87970   6.93580   6.98623   7.00811
 Alpha virt. eigenvalues --    7.05039  11.86418  11.93766  12.07958  12.20230
 Alpha virt. eigenvalues --   12.25996  12.38505  12.64656  12.79808  12.88099
 Alpha virt. eigenvalues --   12.93749  13.15617  13.20241  13.25462  13.26065
 Alpha virt. eigenvalues --   13.28745  13.32919  13.37140  13.42782  13.50940
 Alpha virt. eigenvalues --   13.53542  13.59772  13.65461  13.83297
          Condensed to atoms (all electrons):
              1          2          3          4          5          6
     1  O    8.193170   0.288937  -0.071721  -0.006485   0.013971   0.001943
     2  C    0.288937   6.502707  -0.301447   0.019013  -0.064439  -0.847472
     3  C   -0.071721  -0.301447   6.298592   0.143873   0.035572   0.356998
     4  O   -0.006485   0.019013   0.143873   8.243025   0.232450  -0.053777
     5  H    0.013971  -0.064439   0.035572   0.232450   0.423690   0.004972
     6  C    0.001943  -0.847472   0.356998  -0.053777   0.004972   7.522106
     7  O   -0.000020   0.010393  -0.116193   0.007873  -0.000530   0.283568
     8  H    0.000004  -0.002643   0.018506  -0.000081   0.000009   0.030331
     9  C   -0.024408   0.161963  -0.310713   0.007998  -0.001962   0.126451
    10  O   -0.037941   0.003942   0.010936  -0.000126  -0.000006  -0.008684
    11  H    0.001350  -0.011983  -0.001784   0.000001   0.000000   0.000578
    12  C   -0.108193  -0.475119  -0.134939   0.034572   0.002693   0.211089
    13  O    0.001105  -0.050136  -0.015985  -0.001666  -0.000018   0.032080
    14  C    0.025281   0.293710  -0.016622  -0.032776   0.012117  -1.579135
    15  O    0.000001   0.002647  -0.019015   0.000407  -0.000007  -0.005512
    16  C    0.001295   0.041698  -0.014069  -0.003520   0.000546  -0.185460
    17  C    0.000142  -0.034404  -0.008961   0.000270   0.000015   0.097622
    18  O    0.000022   0.003515  -0.000076  -0.000005   0.000000  -0.006147
    19  H   -0.000032  -0.002568   0.002871   0.000003   0.000000   0.002565
    20  C    0.000020   0.005368  -0.012057  -0.000021   0.000001   0.043749
    21  O    0.000000   0.000031  -0.000059   0.000000   0.000000  -0.000022
    22  H    0.000000  -0.000001   0.000002   0.000000   0.000000  -0.000017
    23  C    0.000051   0.006650   0.004241  -0.000007   0.000008  -0.076822
    24  O   -0.000003   0.001390  -0.010003  -0.000100  -0.000003   0.009854
    25  H    0.000000   0.000052   0.001099   0.000002   0.000000  -0.000724
    26  C   -0.000132  -0.003288  -0.031214  -0.000140  -0.000003  -0.054941
    27  O    0.000000  -0.000088   0.000108   0.000000   0.000000   0.003271
    28  C    0.000002  -0.000903   0.000906   0.000001   0.000000  -0.003250
    29  O    0.000000   0.000002   0.000020   0.000000   0.000000  -0.000232
    30  H    0.261086   0.021656  -0.011289  -0.000349  -0.001163  -0.002063
    31  H   -0.001161  -0.023313   0.001338   0.000013   0.000000  -0.006253
    32  H    0.004946   0.031335  -0.006151  -0.000020   0.000000   0.011853
    33  H    0.006302   0.068187  -0.048330   0.000264   0.000013  -0.015849
    34  H   -0.017821   0.334134  -0.057321   0.003437  -0.000107  -0.000012
    35  H    0.000281   0.006369   0.247428  -0.021320  -0.002445  -0.156517
    36  H   -0.000189   0.032350  -0.142413   0.003073  -0.000180   0.386130
    37  H   -0.000024  -0.020578  -0.035985   0.000159   0.000003   0.039264
    38  H    0.000000   0.000000   0.000000   0.000000   0.000000   0.000003
    39  H    0.000000   0.000007  -0.000001   0.000000   0.000000  -0.000117
    40  H    0.000000   0.000085  -0.000049   0.000000   0.000000   0.000003
    41  H    0.000000  -0.000199   0.000631   0.000000   0.000000   0.004995
    42  H   -0.000001  -0.003090   0.003759   0.000006   0.000000   0.010416
    43  H    0.000000  -0.000095   0.000685   0.000000   0.000000  -0.003111
    44  H    0.000000  -0.000013   0.000051   0.000000   0.000000   0.001781
    45  H    0.000000   0.000023   0.000196   0.000000   0.000000  -0.006073
              7          8          9         10         11         12
     1  O   -0.000020   0.000004  -0.024408  -0.037941   0.001350  -0.108193
     2  C    0.010393  -0.002643   0.161963   0.003942  -0.011983  -0.475119
     3  C   -0.116193   0.018506  -0.310713   0.010936  -0.001784  -0.134939
     4  O    0.007873  -0.000081   0.007998  -0.000126   0.000001   0.034572
     5  H   -0.000530   0.000009  -0.001962  -0.000006   0.000000   0.002693
     6  C    0.283568   0.030331   0.126451  -0.008684   0.000578   0.211089
     7  O    8.238681   0.253930  -0.000026  -0.000001   0.000000   0.007212
     8  H    0.253930   0.341594  -0.000292   0.000000   0.000000  -0.001889
     9  C   -0.000026  -0.000292   6.166616   0.049249  -0.012214  -0.550630
    10  O   -0.000001   0.000000   0.049249   8.304745   0.227830   0.062643
    11  H    0.000000   0.000000  -0.012214   0.227830   0.437915   0.030369
    12  C    0.007212  -0.001889  -0.550630   0.062643   0.030369   7.984972
    13  O    0.000689  -0.000549  -0.066435  -0.002971  -0.000510   0.010421
    14  C   -0.028366  -0.087238  -0.422991   0.020911  -0.002582  -0.834454
    15  O   -0.004745   0.008990   0.000204   0.000034  -0.000001  -0.022852
    16  C    0.009898   0.033117  -0.023743  -0.000043  -0.000344  -0.077569
    17  C   -0.004164   0.002626   0.001053   0.000382   0.000145  -0.145672
    18  O   -0.000037  -0.000018  -0.002279  -0.000170   0.000002  -0.002579
    19  H   -0.000051  -0.000002  -0.004000  -0.000019  -0.000002  -0.000889
    20  C    0.000242   0.000807   0.002186  -0.000054   0.000011  -0.005304
    21  O    0.000000   0.000000   0.000176   0.000000   0.000000  -0.000160
    22  H    0.000000   0.000000   0.000003   0.000000   0.000000  -0.000002
    23  C    0.039723   0.018353   0.000117  -0.000009   0.000000  -0.018766
    24  O   -0.049884  -0.018993   0.000238   0.000000   0.000000   0.004721
    25  H    0.003695  -0.000742  -0.000016   0.000000   0.000000  -0.000411
    26  C   -0.047703  -0.031938   0.004817  -0.000077  -0.000004   0.048114
    27  O    0.000045  -0.000021   0.000072   0.000000   0.000000   0.000198
    28  C    0.000598  -0.000094   0.000798   0.000008   0.000000   0.000267
    29  O   -0.000002   0.000000  -0.000012   0.000000   0.000000   0.000045
    30  H   -0.000012   0.000000  -0.003227   0.002356  -0.000035  -0.009414
    31  H   -0.000010   0.000000   0.427758  -0.029309  -0.006604  -0.025893
    32  H    0.000005   0.000000   0.545920  -0.050089  -0.002315  -0.240899
    33  H    0.000312   0.000000   0.049467   0.001561  -0.000203   0.034531
    34  H    0.000831  -0.000002  -0.039284  -0.000483  -0.000014  -0.050090
    35  H    0.005983  -0.000092   0.015537  -0.000226   0.000000   0.062721
    36  H   -0.035001  -0.004993   0.017490   0.000015   0.000000   0.056015
    37  H   -0.002756   0.000453   0.022593   0.000113   0.000000   0.073242
    38  H    0.000000   0.000000   0.000000   0.000000   0.000000  -0.000001
    39  H    0.000001   0.000000  -0.000002   0.000000   0.000000   0.000046
    40  H    0.000002   0.000000  -0.000084   0.000000   0.000000   0.000433
    41  H   -0.000022   0.000001  -0.000400   0.000000   0.000000  -0.000477
    42  H   -0.001675   0.000112  -0.000294   0.000001   0.000000   0.002395
    43  H   -0.000246   0.000015   0.000058   0.000000   0.000000   0.000716
    44  H   -0.000268   0.000227   0.000000   0.000000   0.000000   0.000067
    45  H    0.000993  -0.000078  -0.000002   0.000000   0.000000  -0.000052
             13         14         15         16         17         18
     1  O    0.001105   0.025281   0.000001   0.001295   0.000142   0.000022
     2  C   -0.050136   0.293710   0.002647   0.041698  -0.034404   0.003515
     3  C   -0.015985  -0.016622  -0.019015  -0.014069  -0.008961  -0.000076
     4  O   -0.001666  -0.032776   0.000407  -0.003520   0.000270  -0.000005
     5  H   -0.000018   0.012117  -0.000007   0.000546   0.000015   0.000000
     6  C    0.032080  -1.579135  -0.005512  -0.185460   0.097622  -0.006147
     7  O    0.000689  -0.028366  -0.004745   0.009898  -0.004164  -0.000037
     8  H   -0.000549  -0.087238   0.008990   0.033117   0.002626  -0.000018
     9  C   -0.066435  -0.422991   0.000204  -0.023743   0.001053  -0.002279
    10  O   -0.002971   0.020911   0.000034  -0.000043   0.000382  -0.000170
    11  H   -0.000510  -0.002582  -0.000001  -0.000344   0.000145   0.000002
    12  C    0.010421  -0.834454  -0.022852  -0.077569  -0.145672  -0.002579
    13  O    8.189070   0.253363  -0.011892  -0.035818   0.017908  -0.019939
    14  C    0.253363   8.405847   0.186679  -0.553310  -0.004292  -0.003015
    15  O   -0.011892   0.186679   8.114909   0.223804  -0.065521  -0.002632
    16  C   -0.035818  -0.553310   0.223804   9.470186  -1.274899  -0.056473
    17  C    0.017908  -0.004292  -0.065521  -1.274899   7.714832   0.200738
    18  O   -0.019939  -0.003015  -0.002632  -0.056473   0.200738   8.216396
    19  H    0.027225   0.007162   0.005970  -0.065903   0.063519   0.231035
    20  C   -0.012415  -0.199233  -0.000021  -0.820922  -0.522321  -0.014418
    21  O    0.000036  -0.002786   0.000150   0.017443  -0.014739  -0.005356
    22  H   -0.000003   0.000479   0.000001  -0.003281   0.009899  -0.000646
    23  C    0.001631  -0.014799  -0.008993   0.230224  -0.178099   0.007297
    24  O    0.000110   0.063979  -0.015992   0.066826   0.001296   0.000046
    25  H   -0.000025  -0.009401   0.002596  -0.012975  -0.002026  -0.000001
    26  C   -0.009954  -0.333417  -0.044014  -2.062947  -0.381616   0.037460
    27  O    0.000020   0.012709   0.000421   0.080698  -0.016702  -0.001393
    28  C    0.000022   0.061412   0.002590   0.455111   0.171954  -0.011070
    29  O    0.000013  -0.000195   0.000012   0.009061   0.014399   0.000584
    30  H   -0.000532  -0.000106  -0.000004   0.000142  -0.000044   0.000000
    31  H   -0.004204  -0.007963  -0.000326   0.005649   0.000054   0.000151
    32  H   -0.005173   0.014455  -0.000245  -0.002115   0.002073  -0.000085
    33  H   -0.021327   0.170548   0.000262   0.001152   0.009263   0.000030
    34  H    0.005189   0.079541   0.000427  -0.004933   0.001952   0.000028
    35  H    0.004095   0.061407   0.000766  -0.006481   0.001193   0.000034
    36  H    0.007342  -0.043622  -0.007037  -0.027451   0.000289   0.000056
    37  H   -0.047049   0.237103  -0.024947  -0.005643   0.013857  -0.001757
    38  H    0.000000  -0.000052  -0.000001  -0.003537   0.005829  -0.000044
    39  H    0.000016   0.000657   0.000294   0.050534  -0.029539   0.000316
    40  H    0.000099  -0.008887  -0.000083   0.050009  -0.105485   0.002879
    41  H    0.000083   0.002114  -0.006424  -0.104079   0.360226  -0.033892
    42  H   -0.002737  -0.013193  -0.044156   0.196204   0.042077  -0.004835
    43  H   -0.000202   0.035626  -0.000898   0.022314  -0.066512  -0.000248
    44  H    0.000031   0.004289   0.000882   0.020960   0.007481   0.000007
    45  H   -0.000013   0.004369   0.000094   0.060175  -0.009386   0.000027
             19         20         21         22         23         24
     1  O   -0.000032   0.000020   0.000000   0.000000   0.000051  -0.000003
     2  C   -0.002568   0.005368   0.000031  -0.000001   0.006650   0.001390
     3  C    0.002871  -0.012057  -0.000059   0.000002   0.004241  -0.010003
     4  O    0.000003  -0.000021   0.000000   0.000000  -0.000007  -0.000100
     5  H    0.000000   0.000001   0.000000   0.000000   0.000008  -0.000003
     6  C    0.002565   0.043749  -0.000022  -0.000017  -0.076822   0.009854
     7  O   -0.000051   0.000242   0.000000   0.000000   0.039723  -0.049884
     8  H   -0.000002   0.000807   0.000000   0.000000   0.018353  -0.018993
     9  C   -0.004000   0.002186   0.000176   0.000003   0.000117   0.000238
    10  O   -0.000019  -0.000054   0.000000   0.000000  -0.000009   0.000000
    11  H   -0.000002   0.000011   0.000000   0.000000   0.000000   0.000000
    12  C   -0.000889  -0.005304  -0.000160  -0.000002  -0.018766   0.004721
    13  O    0.027225  -0.012415   0.000036  -0.000003   0.001631   0.000110
    14  C    0.007162  -0.199233  -0.002786   0.000479  -0.014799   0.063979
    15  O    0.005970  -0.000021   0.000150   0.000001  -0.008993  -0.015992
    16  C   -0.065903  -0.820922   0.017443  -0.003281   0.230224   0.066826
    17  C    0.063519  -0.522321  -0.014739   0.009899  -0.178099   0.001296
    18  O    0.231035  -0.014418  -0.005356  -0.000646   0.007297   0.000046
    19  H    0.387639  -0.008361  -0.000544   0.000026  -0.002416  -0.000015
    20  C   -0.008361   6.923001   0.092967   0.000112   0.069436  -0.007476
    21  O   -0.000544   0.092967   8.194112   0.245431  -0.002448   0.000016
    22  H    0.000026   0.000112   0.245431   0.433921   0.000083   0.000000
    23  C   -0.002416   0.069436  -0.002448   0.000083   6.289965   0.018337
    24  O   -0.000015  -0.007476   0.000016   0.000000   0.018337   8.360021
    25  H    0.000000   0.000947   0.000000   0.000000   0.009705   0.236290
    26  C   -0.010482   0.595609  -0.007042   0.000590  -1.098152  -0.053245
    27  O    0.000125  -0.078415   0.002955  -0.000805  -0.059731   0.003705
    28  C    0.004543  -0.220798   0.001183  -0.014201  -0.054737   0.007188
    29  O    0.000026  -0.077161   0.020372   0.005604   0.007332   0.000031
    30  H    0.000000   0.000000   0.000000   0.000000   0.000001   0.000000
    31  H    0.001284  -0.000750  -0.000002   0.000000   0.000031   0.000000
    32  H    0.000033   0.000094   0.000000   0.000000   0.000006   0.000000
    33  H   -0.000204   0.000313   0.000000   0.000000   0.000279   0.000004
    34  H   -0.000008   0.000040   0.000000   0.000000   0.000051   0.000012
    35  H   -0.000002   0.000058   0.000000   0.000000   0.000450   0.000091
    36  H   -0.000007   0.000524   0.000000   0.000000   0.002539   0.000361
    37  H   -0.000272   0.009647   0.000000   0.000000   0.003267  -0.000359
    38  H    0.000000  -0.030235  -0.003235  -0.000531  -0.000723  -0.000001
    39  H    0.000006  -0.095617   0.001469   0.000084  -0.002776   0.000054
    40  H   -0.000098   0.361138  -0.018876  -0.010383   0.004266   0.000011
    41  H   -0.005423  -0.000506  -0.004433   0.000020   0.007666   0.000009
    42  H    0.000004   0.034267  -0.000395   0.000012  -0.003859  -0.000072
    43  H    0.000020  -0.012915   0.000123   0.000001   0.064964   0.004169
    44  H    0.000000  -0.001411  -0.000008   0.000000   0.384717  -0.010220
    45  H    0.000001  -0.000855   0.000004   0.000000   0.612005  -0.055460
             25         26         27         28         29         30
     1  O    0.000000  -0.000132   0.000000   0.000002   0.000000   0.261086
     2  C    0.000052  -0.003288  -0.000088  -0.000903   0.000002   0.021656
     3  C    0.001099  -0.031214   0.000108   0.000906   0.000020  -0.011289
     4  O    0.000002  -0.000140   0.000000   0.000001   0.000000  -0.000349
     5  H    0.000000  -0.000003   0.000000   0.000000   0.000000  -0.001163
     6  C   -0.000724  -0.054941   0.003271  -0.003250  -0.000232  -0.002063
     7  O    0.003695  -0.047703   0.000045   0.000598  -0.000002  -0.000012
     8  H   -0.000742  -0.031938  -0.000021  -0.000094   0.000000   0.000000
     9  C   -0.000016   0.004817   0.000072   0.000798  -0.000012  -0.003227
    10  O    0.000000  -0.000077   0.000000   0.000008   0.000000   0.002356
    11  H    0.000000  -0.000004   0.000000   0.000000   0.000000  -0.000035
    12  C   -0.000411   0.048114   0.000198   0.000267   0.000045  -0.009414
    13  O   -0.000025  -0.009954   0.000020   0.000022   0.000013  -0.000532
    14  C   -0.009401  -0.333417   0.012709   0.061412  -0.000195  -0.000106
    15  O    0.002596  -0.044014   0.000421   0.002590   0.000012  -0.000004
    16  C   -0.012975  -2.062947   0.080698   0.455111   0.009061   0.000142
    17  C   -0.002026  -0.381616  -0.016702   0.171954   0.014399  -0.000044
    18  O   -0.000001   0.037460  -0.001393  -0.011070   0.000584   0.000000
    19  H    0.000000  -0.010482   0.000125   0.004543   0.000026   0.000000
    20  C    0.000947   0.595609  -0.078415  -0.220798  -0.077161   0.000000
    21  O    0.000000  -0.007042   0.002955   0.001183   0.020372   0.000000
    22  H    0.000000   0.000590  -0.000805  -0.014201   0.005604   0.000000
    23  C    0.009705  -1.098152  -0.059731  -0.054737   0.007332   0.000001
    24  O    0.236290  -0.053245   0.003705   0.007188   0.000031   0.000000
    25  H    0.416099   0.009669  -0.000786  -0.001182  -0.000003   0.000000
    26  C    0.009669  10.333253   0.061954  -0.659879  -0.029989  -0.000001
    27  O   -0.000786   0.061954   8.144042   0.178976  -0.019917   0.000000
    28  C   -0.001182  -0.659879   0.178976   5.209420   0.233688   0.000000
    29  O   -0.000003  -0.029989  -0.019917   0.233688   8.151798   0.000000
    30  H    0.000000  -0.000001   0.000000   0.000000   0.000000   0.417183
    31  H    0.000000   0.000459   0.000000   0.000018   0.000000   0.000038
    32  H    0.000000  -0.000223   0.000000   0.000009   0.000000  -0.000558
    33  H    0.000000  -0.001634   0.000000   0.000033   0.000000  -0.000208
    34  H    0.000000  -0.000366   0.000000  -0.000001   0.000000  -0.013663
    35  H    0.000000  -0.000112   0.000000  -0.000007   0.000000  -0.000147
    36  H    0.000005  -0.003962  -0.000003  -0.000007   0.000000   0.000018
    37  H    0.000004   0.000832   0.000160  -0.000363  -0.000002   0.000003
    38  H    0.000000   0.001944   0.003732   0.018435   0.261780   0.000000
    39  H    0.000000  -0.016218  -0.041778   0.433683  -0.024011   0.000000
    40  H    0.000000   0.026652   0.001951  -0.026716  -0.003522   0.000000
    41  H    0.000000   0.049554   0.000271  -0.024672  -0.000135   0.000000
    42  H   -0.000039   0.013146   0.003583   0.002231  -0.000476   0.000000
    43  H   -0.000286   0.184443  -0.026962   0.043677  -0.000682   0.000000
    44  H   -0.015519  -0.060560  -0.003994  -0.000441  -0.000073   0.000000
    45  H    0.002383  -0.304312   0.001890   0.005198  -0.000088   0.000000
             31         32         33         34         35         36
     1  O   -0.001161   0.004946   0.006302  -0.017821   0.000281  -0.000189
     2  C   -0.023313   0.031335   0.068187   0.334134   0.006369   0.032350
     3  C    0.001338  -0.006151  -0.048330  -0.057321   0.247428  -0.142413
     4  O    0.000013  -0.000020   0.000264   0.003437  -0.021320   0.003073
     5  H    0.000000   0.000000   0.000013  -0.000107  -0.002445  -0.000180
     6  C   -0.006253   0.011853  -0.015849  -0.000012  -0.156517   0.386130
     7  O   -0.000010   0.000005   0.000312   0.000831   0.005983  -0.035001
     8  H    0.000000   0.000000   0.000000  -0.000002  -0.000092  -0.004993
     9  C    0.427758   0.545920   0.049467  -0.039284   0.015537   0.017490
    10  O   -0.029309  -0.050089   0.001561  -0.000483  -0.000226   0.000015
    11  H   -0.006604  -0.002315  -0.000203  -0.000014   0.000000   0.000000
    12  C   -0.025893  -0.240899   0.034531  -0.050090   0.062721   0.056015
    13  O   -0.004204  -0.005173  -0.021327   0.005189   0.004095   0.007342
    14  C   -0.007963   0.014455   0.170548   0.079541   0.061407  -0.043622
    15  O   -0.000326  -0.000245   0.000262   0.000427   0.000766  -0.007037
    16  C    0.005649  -0.002115   0.001152  -0.004933  -0.006481  -0.027451
    17  C    0.000054   0.002073   0.009263   0.001952   0.001193   0.000289
    18  O    0.000151  -0.000085   0.000030   0.000028   0.000034   0.000056
    19  H    0.001284   0.000033  -0.000204  -0.000008  -0.000002  -0.000007
    20  C   -0.000750   0.000094   0.000313   0.000040   0.000058   0.000524
    21  O   -0.000002   0.000000   0.000000   0.000000   0.000000   0.000000
    22  H    0.000000   0.000000   0.000000   0.000000   0.000000   0.000000
    23  C    0.000031   0.000006   0.000279   0.000051   0.000450   0.002539
    24  O    0.000000   0.000000   0.000004   0.000012   0.000091   0.000361
    25  H    0.000000   0.000000   0.000000   0.000000   0.000000   0.000005
    26  C    0.000459  -0.000223  -0.001634  -0.000366  -0.000112  -0.003962
    27  O    0.000000   0.000000   0.000000   0.000000   0.000000  -0.000003
    28  C    0.000018   0.000009   0.000033  -0.000001  -0.000007  -0.000007
    29  O    0.000000   0.000000   0.000000   0.000000   0.000000   0.000000
    30  H    0.000038  -0.000558  -0.000208  -0.013663  -0.000147   0.000018
    31  H    0.580495  -0.049628  -0.004143   0.000116   0.000006   0.000002
    32  H   -0.049628   0.602178   0.005903   0.003332  -0.000004  -0.000028
    33  H   -0.004143   0.005903   0.611902   0.006203   0.002946  -0.000078
    34  H    0.000116   0.003332   0.006203   0.625261   0.007179   0.003098
    35  H    0.000006  -0.000004   0.002946   0.007179   0.647715   0.007577
    36  H    0.000002  -0.000028  -0.000078   0.003098   0.007577   0.616989
    37  H   -0.000026  -0.000027   0.002940  -0.000022   0.002443   0.005208
    38  H    0.000000   0.000000   0.000000   0.000000   0.000000   0.000000
    39  H    0.000000   0.000000   0.000000   0.000000   0.000000   0.000000
    40  H    0.000000   0.000000   0.000000   0.000000   0.000000   0.000000
    41  H   -0.000002   0.000000  -0.000001   0.000000   0.000000  -0.000003
    42  H   -0.000001   0.000000  -0.000013   0.000000  -0.000001  -0.000007
    43  H    0.000000   0.000000   0.000000   0.000000   0.000000  -0.000001
    44  H    0.000000   0.000000   0.000000   0.000000   0.000000   0.000000
    45  H    0.000000   0.000000   0.000000   0.000000   0.000000   0.000001
             37         38         39         40         41         42
     1  O   -0.000024   0.000000   0.000000   0.000000   0.000000  -0.000001
     2  C   -0.020578   0.000000   0.000007   0.000085  -0.000199  -0.003090
     3  C   -0.035985   0.000000  -0.000001  -0.000049   0.000631   0.003759
     4  O    0.000159   0.000000   0.000000   0.000000   0.000000   0.000006
     5  H    0.000003   0.000000   0.000000   0.000000   0.000000   0.000000
     6  C    0.039264   0.000003  -0.000117   0.000003   0.004995   0.010416
     7  O   -0.002756   0.000000   0.000001   0.000002  -0.000022  -0.001675
     8  H    0.000453   0.000000   0.000000   0.000000   0.000001   0.000112
     9  C    0.022593   0.000000  -0.000002  -0.000084  -0.000400  -0.000294
    10  O    0.000113   0.000000   0.000000   0.000000   0.000000   0.000001
    11  H    0.000000   0.000000   0.000000   0.000000   0.000000   0.000000
    12  C    0.073242  -0.000001   0.000046   0.000433  -0.000477   0.002395
    13  O   -0.047049   0.000000   0.000016   0.000099   0.000083  -0.002737
    14  C    0.237103  -0.000052   0.000657  -0.008887   0.002114  -0.013193
    15  O   -0.024947  -0.000001   0.000294  -0.000083  -0.006424  -0.044156
    16  C   -0.005643  -0.003537   0.050534   0.050009  -0.104079   0.196204
    17  C    0.013857   0.005829  -0.029539  -0.105485   0.360226   0.042077
    18  O   -0.001757  -0.000044   0.000316   0.002879  -0.033892  -0.004835
    19  H   -0.000272   0.000000   0.000006  -0.000098  -0.005423   0.000004
    20  C    0.009647  -0.030235  -0.095617   0.361138  -0.000506   0.034267
    21  O    0.000000  -0.003235   0.001469  -0.018876  -0.004433  -0.000395
    22  H    0.000000  -0.000531   0.000084  -0.010383   0.000020   0.000012
    23  C    0.003267  -0.000723  -0.002776   0.004266   0.007666  -0.003859
    24  O   -0.000359  -0.000001   0.000054   0.000011   0.000009  -0.000072
    25  H    0.000004   0.000000   0.000000   0.000000   0.000000  -0.000039
    26  C    0.000832   0.001944  -0.016218   0.026652   0.049554   0.013146
    27  O    0.000160   0.003732  -0.041778   0.001951   0.000271   0.003583
    28  C   -0.000363   0.018435   0.433683  -0.026716  -0.024672   0.002231
    29  O   -0.000002   0.261780  -0.024011  -0.003522  -0.000135  -0.000476
    30  H    0.000003   0.000000   0.000000   0.000000   0.000000   0.000000
    31  H   -0.000026   0.000000   0.000000   0.000000  -0.000002  -0.000001
    32  H   -0.000027   0.000000   0.000000   0.000000   0.000000   0.000000
    33  H    0.002940   0.000000   0.000000   0.000000  -0.000001  -0.000013
    34  H   -0.000022   0.000000   0.000000   0.000000   0.000000   0.000000
    35  H    0.002443   0.000000   0.000000   0.000000   0.000000  -0.000001
    36  H    0.005208   0.000000   0.000000   0.000000  -0.000003  -0.000007
    37  H    0.591956   0.000000   0.000000  -0.000001  -0.000014   0.007405
    38  H    0.000000   0.419032  -0.008629   0.000121   0.000014   0.000002
    39  H    0.000000  -0.008629   0.588086   0.004824   0.001061  -0.000028
    40  H   -0.000001   0.000121   0.004824   0.572243   0.005685   0.000758
    41  H   -0.000014   0.000014   0.001061   0.005685   0.615522   0.007044
    42  H    0.007405   0.000002  -0.000028   0.000758   0.007044   0.631254
    43  H    0.000002   0.000013   0.003784  -0.000030   0.001808   0.006826
    44  H    0.000000   0.000000  -0.000037   0.000000   0.000006   0.000159
    45  H    0.000044   0.000000  -0.000009  -0.000014  -0.000004   0.004402
             43         44         45
     1  O    0.000000   0.000000   0.000000
     2  C   -0.000095  -0.000013   0.000023
     3  C    0.000685   0.000051   0.000196
     4  O    0.000000   0.000000   0.000000
     5  H    0.000000   0.000000   0.000000
     6  C   -0.003111   0.001781  -0.006073
     7  O   -0.000246  -0.000268   0.000993
     8  H    0.000015   0.000227  -0.000078
     9  C    0.000058   0.000000  -0.000002
    10  O    0.000000   0.000000   0.000000
    11  H    0.000000   0.000000   0.000000
    12  C    0.000716   0.000067  -0.000052
    13  O   -0.000202   0.000031  -0.000013
    14  C    0.035626   0.004289   0.004369
    15  O   -0.000898   0.000882   0.000094
    16  C    0.022314   0.020960   0.060175
    17  C   -0.066512   0.007481  -0.009386
    18  O   -0.000248   0.000007   0.000027
    19  H    0.000020   0.000000   0.000001
    20  C   -0.012915  -0.001411  -0.000855
    21  O    0.000123  -0.000008   0.000004
    22  H    0.000001   0.000000   0.000000
    23  C    0.064964   0.384717   0.612005
    24  O    0.004169  -0.010220  -0.055460
[...]
 898,0.00003292,0.00006594,0.00001836,-0.00001111,-0.00000318,0.0000112
 8,-0.00014040,0.00006967,0.00000169,0.00014495,0.00026125,0.00021494,0
 .00102461,-0.00040253,-0.00434476,-0.01694021,-0.00650289,0.01350972,-
 0.33968365,-0.02772717,-0.03435417,-0.01772545,0.00061114,-0.00559804,
 0.00324361,-0.00138705,0.00113000,-0.00065849,0.00018834,0.00022991,-0
 .00071065,0.00001594,0.00091513,0.00041917,0.00023342,-0.00022213,-0.0
 0003538,0.00008072,-0.00014759,0.00055492,0.00128929,0.00064965,0.0001
 3986,0.00005723,-0.00014002,0.00005926,-0.00002072,-0.00003013,-0.0077
 7941,-0.00207247,-0.00184194,0.00171275,0.00074599,-0.00051371,-0.0002
 5229,0.00009857,-0.00007201,0.00008602,-0.00003152,-0.00012393,0.00000
 078,-0.00000596,-0.00000555,-0.00001186,0.00001669,-0.00000395,0.00001
 475,0.00000758,-0.00001623,0.00003680,0.00000677,0.00004512,0.00001243
 ,0.00000398,-0.00001156,0.00001749,0.00000592,0.00002931,0.00000768,0.
 00018463,-0.00032290,0.00100848,0.00059796,0.00162568,0.00000558,-0.00
 000455,0.00000393,0.00007949,-0.00001181,0.00011427,0.00036696,0.00022
 852,-0.00054778,0.00005675,0.00216836,-0.00129813,0.37218852,0.0000071
 8,-0.00001254,0.00004470,-0.00000426,0.00003368,-0.00003827,0.00002586
 ,-0.00000161,-0.00001999,0.00000835,-0.00003351,0.00002689,-0.00000629
 ,0.00000500,-0.00000363,-0.00005004,0.00015682,0.00004785,0.00018021,-
 0.00009570,-0.00026374,-0.00017953,0.00002062,0.00019780,0.00001647,-0
 .00003055,-0.00002236,-0.00000665,0.00003522,0.00003726,0.00000587,-0.
 00000273,-0.00000336,-0.00003469,0.00000301,-0.00006975,0.00020134,-0.
 00003631,0.00021702,-0.00040015,0.00069675,-0.00136861,-0.01296322,-0.
 00090229,0.00702999,-0.02609134,-0.04327679,-0.00452894,0.03530356,-0.
 00261769,0.00612093,-0.00193643,0.00409646,0.00025670,0.00055596,-0.00
 026148,-0.00030165,0.00029283,0.00101040,-0.00084582,-0.00034130,-0.00
 031860,0.00005559,-0.00010177,-0.00007147,0.00014025,-0.00257930,0.001
 02624,0.00055205,0.00040816,-0.00004238,-0.00030913,-0.00000534,-0.000
 04269,0.00000139,-0.02886237,-0.00741223,-0.00717266,0.00139117,0.0013
 1818,0.00179953,0.00017424,-0.00041304,-0.00006413,-0.00002090,0.00011
 915,0.00010033,0.00000316,-0.00000131,-0.00000662,0.00001045,-0.000013
 41,0.00000132,-0.00000804,-0.00000350,0.00000917,-0.00000711,0.0000187
 7,0.00000502,0.00000095,-0.00000498,0.00000098,0.00000207,0.00000746,0
 .00001509,0.00005699,0.00000687,-0.00006528,0.00046376,0.00008888,0.00
 032948,-0.00001529,-0.00000702,-0.00000541,-0.00002601,-0.00013369,0.0
 0002743,-0.00027327,-0.00018292,0.00034801,0.00192974,-0.00523675,0.00
 190572,0.03252553,0.05558059,-0.00000472,-0.00001468,-0.00003703,-0.00
 000005,0.00000424,0.00003042,-0.00007198,0.00000629,0.00000125,-0.0000
 0917,0.00000307,-0.00000080,0.00000068,-0.00000349,0.00000304,-0.00001
 977,0.00029410,-0.00012457,-0.00018284,0.00001921,-0.00003622,0.000182
 66,-0.00022584,-0.00010060,-0.00004855,0.00003369,-0.00002652,0.000006
 20,-0.00004003,-0.00000784,-0.00000052,-0.00000171,-0.00000815,0.00000
 171,-0.00010508,-0.00010744,-0.00073877,-0.00042639,-0.00031745,0.0068
 3765,0.00121086,0.00423831,0.04096405,0.01206665,-0.02102193,-0.040623
 38,-0.00607811,-0.04298621,-0.01385437,-0.00012253,0.00050591,0.001775
 05,-0.00034311,0.00042379,0.00004372,0.00009427,-0.00010277,-0.0003341
 2,-0.00063693,0.00040633,0.00020809,0.00004854,0.00005791,0.00004423,-
 0.00000610,-0.00002837,-0.00071900,0.00142082,0.00077216,0.00017444,-0
 .00000255,0.00005545,-0.00002482,0.00000871,0.00002951,-0.02400207,-0.
 00627147,-0.00399735,0.00098145,0.00058074,0.00220057,-0.00042216,0.00
 029545,-0.00017374,0.00005830,0.00000127,-0.00016744,-0.00000174,0.000
 00510,0.00000372,-0.00000350,-0.00001039,0.00000104,-0.00000069,0.0000
 0865,0.00000234,-0.00002647,-0.00003308,-0.00006528,-0.00000591,0.0000
 0657,0.00000830,-0.00004443,-0.00001968,-0.00006325,-0.00027225,-0.000
 12591,0.00007630,-0.00153596,-0.00025778,0.00005141,0.00001413,-0.0000
 1323,0.00000327,0.00018357,-0.00002768,0.00011436,0.00012584,0.0001783
 8,-0.00015239,-0.00044644,0.00235332,-0.00038385,0.03117610,-0.0008149
 3,0.06379280,0.00000690,0.00000348,-0.00001550,-0.00001228,-0.00000248
 ,0.00001361,0.00000078,0.00000048,0.00001811,0.00001473,0.00001505,-0.
 00003002,-0.00000573,0.00000074,0.00000140,-0.00008761,-0.00006410,-0.
 00002587,0.00010683,0.00006942,-0.00002353,-0.00016161,-0.00002955,-0.
 00005853,-0.00001771,0.00000229,0.00001041,0.00001226,-0.00000505,-0.0
 0001343,-0.00000611,-0.00000152,0.00000373,-0.00000727,-0.00000538,0.0
 0002599,0.00003373,-0.00001535,-0.00008229,0.00024458,0.00009082,-0.00
 013066,0.00074422,0.00024847,-0.00108733,-0.00636789,-0.00180941,-0.00
 138963,-0.00013364,0.00040424,-0.00001644,0.00033503,-0.00003763,-0.00
 007489,-0.00010467,0.00002298,0.00002287,0.00002276,0.00004897,0.00004
 729,0.00014991,-0.00026384,0.00002313,-0.00000031,0.00003477,0.0000050
 5,-0.01866938,-0.00323361,-0.00215565,0.00242329,0.00008238,-0.0004694
 6,-0.00016293,0.00002991,-0.00015234,-0.33467134,-0.05790375,-0.034335
 61,-0.01079293,-0.00541862,0.01219523,0.00023609,0.00222986,-0.0012110
 4,0.00044629,0.00005884,0.00022356,-0.00000485,-0.00000202,0.00000249,
 -0.00000298,0.00000472,-0.00000181,0.00000748,-0.00000003,-0.00000705,
 0.00000661,0.00000015,0.00000143,0.00000718,-0.00000160,-0.00000527,0.
 00001322,0.00000490,0.00000601,0.00001964,-0.00000336,-0.00003153,0.00
 005220,0.00001808,0.00018315,-0.00003247,-0.00015238,0.00004260,0.0005
 4298,-0.00138998,0.00095676,0.00001665,0.00012281,-0.00007079,0.000519
 68,-0.00052926,0.00010100,0.00071885,-0.00072754,-0.00025390,0.3645465
 2,0.00000045,-0.00000193,-0.00002760,-0.00000469,-0.00000168,0.0000216
 6,0.00000907,0.00001331,0.00003886,-0.00000555,0.00001735,-0.00003915,
 0.00000053,0.00000009,-0.00000014,0.00005132,-0.00013674,-0.00007772,-
 0.00003681,0.00008848,0.00007878,0.00002250,-0.00006103,-0.00009049,-0
 .00000604,0.00001850,0.00001359,0.00000292,-0.00001765,-0.00001621,-0.
 00000263,0.00000088,0.00000099,0.00000523,0.00002396,0.00005376,0.0000
 6598,-0.00000823,-0.00005606,0.00012218,0.00020576,-0.00004493,0.00113
 935,0.00074633,0.00093532,-0.02803606,-0.00631747,-0.00557734,-0.00131
 098,0.00160125,0.00003361,0.00083413,-0.00027976,0.00013889,-0.0001578
 9,0.00011656,0.00000350,0.00003075,-0.00027626,0.00005196,0.00016018,-
 0.00015230,0.00005482,0.00001559,0.00000671,0.00000614,0.03201768,0.00
 461542,0.00350567,-0.00233150,0.00195355,-0.00107457,0.00013247,0.0000
 9828,-0.00008826,-0.05776097,-0.05856680,-0.00892753,-0.01097615,-0.00
 179235,0.00702310,-0.00336803,0.00112044,-0.00086511,0.00049831,0.0000
 7356,0.00003915,-0.00000348,0.00000109,0.00000340,-0.00000342,0.000004
 02,-0.00000123,0.00000394,-0.00000045,-0.00000561,0.00000417,0.0000002
 2,0.00000095,0.00000188,0.00000090,-0.00000290,0.00000147,-0.00000452,
 -0.00000204,-0.00001066,0.00002773,-0.00001213,0.00014529,-0.00000920,
 0.00013583,0.00003340,-0.00008054,0.00008828,0.00063112,0.00006859,-0.
 00000177,0.00008119,0.00011688,-0.00002096,0.00065849,-0.00043306,0.00
 003199,-0.00042276,-0.00331145,-0.00306501,0.06529350,0.06403395,0.000
 00446,-0.00000437,-0.00002761,-0.00001071,0.00000464,0.00001706,0.0000
 0130,-0.00001779,0.00003675,0.00001152,0.00001677,-0.00003314,-0.00000
 388,-0.00000042,0.00000368,0.00003695,-0.00001264,-0.00000173,0.000086
 77,0.00004226,-0.00005712,-0.00014323,-0.00001940,-0.00002096,-0.00000
 058,0.00001422,0.00002864,0.00000387,-0.00001323,-0.00001947,-0.000003
 35,0.00000255,0.00000334,-0.00001878,0.00004599,0.00006389,0.00013339,
 0.00002797,0.00000908,-0.00024550,0.00026179,-0.00006004,0.00111343,0.
 00071157,0.00226863,-0.02521979,-0.00713231,-0.00141110,-0.00055938,0.
 00134974,-0.00000039,0.00058750,-0.00042604,0.00004745,-0.00016546,0.0
 0009332,0.00007811,-0.00034728,0.00003883,-0.00062110,-0.00012081,0.00
 033079,0.00029123,0.00001980,-0.00007248,0.00001326,-0.00845486,-0.002
 38261,0.00059005,0.00067201,-0.00056504,0.00049844,-0.00005429,0.00000
 714,-0.00000368,-0.03779650,-0.00773031,-0.04412432,0.04012327,0.01413
 495,-0.01405946,0.00482262,-0.00329679,0.00281035,-0.00047480,-0.00007
 912,-0.00036691,-0.00000478,0.00000028,0.00000424,-0.00000309,0.000006
 99,-0.00000244,0.00000544,-0.00000190,-0.00000735,0.00000831,0.0000027
 6,0.00000466,0.00000566,-0.00000091,-0.00000534,0.00001193,0.00000306,
 0.00000677,0.00001272,0.00001577,-0.00005844,0.00024803,0.00003311,0.0
 0007843,-0.00013420,0.00016679,-0.00003865,-0.00130516,-0.00013620,0.0
 0003867,-0.00001730,-0.00006346,-0.00009240,0.00044911,-0.00033933,0.0
 0013079,-0.00032179,-0.00358357,-0.00307281,0.02720625,0.00664438,0.05
 674444,-0.00000439,0.00000880,0.00000667,0.00001929,-0.00001107,0.0000
 1441,-0.00004884,0.00004086,0.00001468,0.00000384,0.00000671,-0.000005
 45,0.00000001,-0.00000057,0.00000082,0.00015295,-0.00008835,0.00010044
 ,0.00025705,0.00051796,0.00051607,-0.00035827,-0.00076373,-0.00095892,
 0.00000445,0.00000523,-0.00000809,0.00000047,-0.00000004,0.00000277,0.
 00000045,0.00000010,-0.00000090,-0.00001464,-0.00000204,0.00001634,0.0
 0006480,-0.00002027,-0.00000941,-0.00027109,0.00005139,0.00005588,0.00
 018719,-0.00023166,-0.00009950,-0.00189912,0.00227043,-0.00213806,0.00
 083220,0.00021322,0.00085104,-0.00009753,0.00061096,0.00001218,0.00001
 866,-0.00001585,-0.00009903,0.00002346,-0.00003137,0.00014173,0.000015
 66,-0.00006558,-0.00005218,-0.00000170,0.00001839,-0.00000145,-0.05023
 403,-0.01883373,-0.02447307,0.00012340,0.00493450,0.01773340,0.0020635
 2,0.00117795,0.00013131,0.00108461,0.01642561,0.01504218,0.00057051,-0
 .00230460,0.00104101,-0.00028102,0.00013234,-0.00000007,-0.00003374,-0
 .00009101,0.00011133,0.00000216,0.00000158,0.00000094,-0.00000138,-0.0
 0000160,-0.00000013,0.00000020,-0.00000208,0.00000044,0.00000271,0.000
 00360,0.00000079,0.00000008,-0.00000023,-0.00000112,0.00000822,0.00000
 059,0.00000047,-0.00000050,0.00000554,-0.00001389,0.00006262,0.0000449
 2,0.00002605,-0.00000278,-0.00000932,-0.00000903,-0.00000634,0.0000365
 5,0.00000143,0.00000227,0.00001203,-0.00002172,-0.00002743,-0.00012147
 ,0.00001742,0.00043265,0.00027461,0.00007196,0.00072525,-0.00082435,0.
 00061893,0.04715935,-0.00001148,0.00003645,-0.00003636,0.00002211,-0.0
 0005874,0.00007003,-0.00006953,0.00013565,0.00005418,-0.00000907,0.000
 04463,-0.00005877,0.00000372,-0.00000207,-0.00000023,0.00029514,-0.000
 46863,-0.00003233,0.00035224,0.00100645,0.00131499,-0.00049332,-0.0013
 0616,-0.00209454,0.00000017,0.00003016,0.00004341,-0.00000830,-0.00004
 125,-0.00005730,-0.00000305,0.00000544,0.00000779,0.00004435,0.0000109
 8,0.00010720,-0.00002931,0.00002921,-0.00029223,0.00021662,0.00009527,
 0.00065307,-0.00025369,0.00024964,-0.00025838,0.00330855,-0.00434975,0
 .00367277,-0.00048439,0.00022882,-0.00173628,0.00011293,-0.00117107,-0
 .00009832,-0.00008288,0.00008198,0.00027473,-0.00009036,0.00015772,-0.
 00060527,-0.00001028,0.00011174,0.00026150,0.00000527,-0.00004052,0.00
 000103,-0.01526807,-0.16872107,-0.16027318,-0.00277579,0.00678337,0.02
 894378,0.00012064,0.00452860,0.00225900,-0.00314905,-0.01943772,-0.022
 44236,-0.00011181,0.00201634,-0.00064978,0.00012482,-0.00015138,0.0002
 7725,0.00000057,0.00013121,0.00020158,-0.00000082,0.00000145,0.0000087
 5,0.00000043,0.00002088,-0.00000737,0.00000189,-0.00000208,-0.00000370
 ,-0.00000366,-0.00000202,-0.00000793,-0.00000148,-0.00000022,-0.000001
 85,0.00000870,-0.00000629,-0.00000766,-0.00004416,0.00002456,0.0000064
 5,0.00000507,-0.00001738,-0.00000693,-0.00000554,-0.00006347,-0.000001
 78,-0.00005398,0.00003024,-0.00003406,-0.00000188,-0.00002318,0.000042
 93,0.00016508,-0.00009805,0.00012585,0.00022175,0.00042365,0.00029330,
 0.00011968,0.00120410,0.00012038,0.01738364,0.18174389,0.00000820,-0.0
 0006792,-0.00007714,-0.00004483,0.00009603,-0.00000160,0.00010433,-0.0
 0017073,0.00006361,0.00000145,0.00000450,-0.00006543,0.00000050,-0.000
 00271,0.00001226,-0.00041444,0.00049170,0.00011221,-0.00035163,-0.0010
 9987,-0.00167216,0.00051460,0.00168843,0.00281841,-0.00000015,0.000035
 67,0.00001547,-0.00000879,-0.00003877,-0.00001502,0.00000231,0.0000049
 9,-0.00000125,0.00003305,0.00004005,0.00002041,0.00004683,-0.00020794,
 0.00005077,-0.00008169,0.00019160,-0.00013917,0.00002509,-0.00027459,0
 .00015716,-0.00018303,0.00151522,-0.00062974,0.00004139,0.00019231,0.0
 0030326,-0.00002254,0.00020059,0.00008449,0.00000113,0.00003311,-0.000
 09132,-0.00003889,0.00004914,-0.00004566,-0.00000183,0.00003589,0.0000
 2206,-0.00000055,-0.00001058,0.00000135,-0.02039266,-0.15207543,-0.230
 28885,0.00403019,-0.00511331,-0.03601298,0.00051741,-0.00097774,-0.000
 41630,-0.00030084,0.00313408,0.00428321,-0.00061758,0.00138400,0.00072
 184,0.00014611,0.00011064,0.00041970,0.00003296,-0.00003103,-0.0000203
 7,-0.00000985,0.00000253,0.00000932,-0.00000048,-0.00001049,0.00000142
 ,-0.00000117,-0.00000140,-0.00000247,-0.00000226,0.00000282,-0.0000013
 1,0.00000215,-0.00000189,-0.00000076,-0.00000699,0.00000724,0.00000500
 ,0.00006187,-0.00003716,-0.00001228,0.00000622,0.00000778,0.00000589,-
 0.00000494,0.00000517,0.00001247,0.00000386,-0.00000352,-0.00000023,0.
 00001241,0.00001104,0.00000249,-0.00001726,-0.00000463,-0.00000402,0.0
 0003093,0.00008211,-0.00003933,0.00038800,-0.00027340,0.00040709,0.017
 20768,0.15552437,0.26222196,0.00000172,0.00001693,-0.00000429,0.000008
 25,-0.00002124,0.00002051,-0.00004691,0.00002925,0.00002710,0.00001563
 ,0.00002379,-0.00002201,-0.00000398,-0.00000033,0.00000109,0.00006790,
 -0.00018912,0.00005479,0.00035594,0.00059649,0.00047828,-0.00038986,-0
 .00070043,-0.00107561,-0.00000349,0.00000513,0.00000284,0.00000782,-0.
 00000250,-0.00000879,-0.00000416,-0.00000016,0.00000219,-0.00001327,0.
 00000602,0.00004446,0.00010088,-0.00000211,-0.00006415,-0.00036860,0.0
 0010974,0.00018427,0.00040538,-0.00003106,0.00009427,0.00038093,-0.001
 96759,-0.00052502,0.00054088,0.00004834,-0.00007835,0.00004524,0.00011
 627,0.00000122,-0.00003290,0.00001645,0.00000111,-0.00007127,-0.000034
 98,-0.00005912,0.00004001,0.00000597,0.00004064,-0.00000936,-0.0000079
 5,-0.00000334,-0.33222366,-0.06447749,-0.05214973,-0.00577573,-0.01004
 393,0.00932238,-0.00143036,0.00084222,0.00076795,-0.02275728,-0.002483
 97,-0.00486368,0.00142678,-0.00004923,-0.00016209,0.00034124,0.0001185
 5,-0.00010883,0.00004311,0.00016602,-0.00013754,-0.00000164,-0.0000012
 2,0.00000215,-0.00000261,0.00000455,-0.00000156,0.00000470,-0.00000199
 ,-0.00000311,0.00000567,0.00000343,0.00000018,0.00000493,-0.00000180,-
 0.00000372,0.00001849,0.00000383,0.00000559,0.00000179,0.00000974,-0.0
 0003215,0.00011334,0.00005554,0.00004337,0.00000884,0.00000633,-0.0000
 0513,0.00014245,-0.00020964,0.00016315,0.00002030,0.00004347,-0.000010
 77,0.00015405,-0.00028595,0.00007381,0.00096866,0.00080237,0.00079773,
 -0.00071194,0.00329890,-0.00077773,-0.00053522,0.00044854,-0.00071623,
 0.35915727,-0.00000011,0.00003180,0.00004720,0.00001799,-0.00003966,-0
 .00001257,-0.00005516,0.00005973,-0.00003994,0.00001265,-0.00000733,0.
 00004401,-0.00000467,0.00000250,-0.00000516,0.00010355,-0.00019871,-0.
 00004729,0.00024431,0.00035047,0.00060633,-0.00028381,-0.00048937,-0.0
 0122573,-0.00000188,-0.00002532,-0.00001313,0.00000706,0.00002790,0.00
 001571,-0.00000131,-0.00000354,0.00000061,-0.00002178,-0.00002673,-0.0
 0003681,-0.00003699,0.00012003,0.00001286,0.00010329,-0.00018551,-0.00
 015158,-0.00036900,0.00015831,-0.00031805,0.00191461,0.00256777,0.0011
 6244,0.00008378,-0.00000417,0.00018568,-0.00016756,-0.00001146,-0.0001
 0930,0.00003200,-0.00005178,0.00003271,0.00002116,0.00008353,0.0000343
 2,-0.00002649,-0.00000413,-0.00004720,-0.00000301,0.00001432,0.0000022
 0,-0.06538623,-0.05953627,-0.01764140,-0.01985057,-0.00948959,0.010581
 68,-0.00221483,-0.00015914,0.00080368,0.03260808,0.00182243,0.00562847
 ,-0.00096226,0.00150174,-0.00170910,0.00015246,0.00011026,-0.00009295,
 -0.00012173,-0.00010274,0.00006266,0.00000457,-0.00000285,-0.00000589,
 0.00000118,0.00000284,0.,0.00000080,0.00000146,0.00000232,0.00000164,-
 0.00000186,0.00000078,0.00000150,-0.00000168,0.00000043,0.00000846,0.0
 0000317,0.00000143,-0.00001348,-0.00000649,-0.00000856,0.00000052,-0.0
 0000780,-0.00004815,0.00000796,0.00001329,-0.00002330,-0.00022008,0.00
 000747,-0.00003964,-0.00001277,-0.00003350,0.00001178,-0.00023077,0.00
 005198,-0.00004764,-0.00100923,-0.00018112,-0.00028750,0.00268987,-0.0
 0470649,0.00180185,-0.02075858,-0.00317139,-0.00444792,0.07373486,0.07
 151763,0.00000112,0.00000792,0.00003979,0.00000303,-0.00001249,-0.0000
 2723,0.00000609,0.00001479,-0.00005884,-0.00000999,-0.00002609,0.00005
 145,0.00000074,0.00000164,-0.00000549,-0.00002876,-0.00002479,-0.00003
 493,-0.00046712,-0.00017830,0.00005799,0.00064626,0.00047248,0.0009694
 8,-0.00000269,-0.00002602,-0.00001592,0.00000510,0.00002777,0.00002215
 ,-0.00000006,-0.00000353,-0.00000098,-0.00001773,-0.00001789,-0.000056
 66,-0.00005629,0.00009053,0.00009173,0.00016086,-0.00009662,-0.0001917
 0,-0.00005933,-0.00009357,0.00014182,0.00102668,-0.00025848,-0.0000378
 8,0.00003972,-0.00006343,0.00004064,-0.00001467,0.00011690,-0.00001627
 ,0.00001515,-0.00002969,-0.00001221,-0.00003077,-0.00003227,0.00008425
 ,0.00001896,0.00000545,-0.00004265,-0.00000786,0.00000336,-0.00000200,
 -0.05625932,-0.01947785,-0.05256776,0.03474322,0.01962685,-0.00675788,
 0.00243306,0.00058083,-0.00141841,-0.00560442,-0.00148367,0.00161358,0
 .00034272,-0.00026982,0.00089646,-0.00012438,-0.00003391,0.00003439,0.
 00008573,0.00000205,-0.00004719,0.00000407,-0.00000060,-0.00000696,0.0
 0000043,-0.00000236,0.00000150,-0.00000056,0.00000277,0.00000186,0.000
 00053,-0.00000438,0.00000301,-0.00000216,0.00000257,0.00000206,-0.0000
 1218,-0.00000670,-0.00000411,-0.00003301,0.00004253,0.00004102,-0.0000
 3300,-0.00008028,-0.00004114,-0.00000561,-0.00001371,0.00001429,0.0001
 3256,-0.00000861,-0.00001051,0.00000880,0.00002585,-0.00000256,0.00000
 191,-0.00004191,-0.00001151,0.00009116,0.00013522,0.00024316,0.0001645
 3,0.00136554,-0.00009058,-0.02584636,-0.00555773,-0.00221447,0.0486838
 8,0.00531967,0.05932524\\0.01375391,-0.01625326,-0.01220584,-0.0094973
 0,0.00022851,-0.00758340,0.02620106,-0.02802289,0.03826488,-0.00715058
 ,-0.00404399,0.01622117,-0.00275914,0.00249041,-0.03597672,-0.01690122
 ,-0.00124493,-0.02945533,0.01121592,0.00738882,0.03014479,0.00651680,0
 .00935429,0.01851099,0.00368158,0.02955188,0.01279100,0.00763388,0.012
 88435,0.01193247,0.00269562,-0.03532193,-0.01361531,-0.02184094,0.0332
 6346,0.01415147,0.01968388,-0.01747828,0.01581971,-0.03920983,0.012549
 07,-0.04073317,-0.01110787,-0.00512957,-0.00084813,0.03129767,0.004595
 61,0.00200661,-0.00556099,0.02099329,0.01287230,-0.00794732,-0.0233519
 0,0.02705610,0.01033505,0.01661963,-0.01680247,-0.02257371,-0.01490181
 ,0.01618352,0.02807684,0.00816858,-0.02762654,-0.02274193,-0.00705930,
 0.02204132,0.00161632,-0.00453777,0.00308394,-0.01327368,-0.03199285,-
 0.02399536,0.00026018,0.03246275,0.01256330,-0.00335649,-0.00852057,0.
 00499602,-0.00505949,0.01341742,0.00291623,0.03892524,0.00585339,-0.01
 250116,-0.00643434,-0.00788321,0.00887568,-0.00116785,0.00140209,-0.00
 210302,0.00066964,0.00607303,-0.01786442,-0.01996814,-0.00483298,0.000
 70867,0.01908103,0.00158083,-0.00290385,-0.01991112,-0.00082647,-0.001
 67346,0.02451307,0.00269434,-0.00122042,-0.02130612,-0.00044495,0.0027
 4043,0.01968946,0.00353822,-0.00432014,-0.00261514,-0.00355857,-0.0022
 3395,-0.01832024,-0.00520489,-0.00231919,0.01694600,0.00172384,-0.0009
 3154,-0.02371412,-0.00049024,-0.00150454,0.02337649,0.00248980,-0.0003
 2036,-0.02176436,-0.00503360,-0.00159374,-0.00059462,-0.00697681,-0.01
 515915,0.01860692,0.00378717,0.00161062\\\@


 RESEARCH IS WHAT I AM DOING WHEN I DON'T KNOW WHAT I AM DOING.
     -- WERNER VON BRAUN
 Job cpu time:  1 days  7 hours 29 minutes 21.9 seconds.
 File lengths (MBytes):  RWF=   1769 Int=      0 D2E=      0 Chk=     28 Scr=      1
 Normal termination of Gaussian 09 at Wed Mar 23 06:07:32 2016.
Gaussian '09 finished on node001 at Wed Mar 23 06:07:33 EDT 2016.
