Gaussian '09 started on node030 at Tue Mar  1 03:18:17 EST 2016.
 Entering Gaussian System, Link 0=/usr/local/gaussian/g09/g09
 Initial command:
 /usr/local/gaussian/g09/l1.exe /home/srmcgrat/thesis/gaussian/cellobiose/400/6000/2/gdp/gaussian14543/Gau-14579.inp -scrdir=/home/srmcgrat/thesis/gaussian/cellobiose/400/6000/2/gdp/gaussian14543/
 Entering Link 1 = /usr/local/gaussian/g09/l1.exe PID=     14581.
  
 Copyright (c) 1988,1990,1992,1993,1995,1998,2003,2009,2010,
            Gaussian, Inc.  All Rights Reserved.
  
 This is part of the Gaussian(R) 09 program.  It is based on
 the Gaussian(R) 03 system (copyright 2003, Gaussian, Inc.),
 the Gaussian(R) 98 system (copyright 1998, Gaussian, Inc.),
 the Gaussian(R) 94 system (copyright 1995, Gaussian, Inc.),
 the Gaussian 92(TM) system (copyright 1992, Gaussian, Inc.),
 the Gaussian 90(TM) system (copyright 1990, Gaussian, Inc.),
 the Gaussian 88(TM) system (copyright 1988, Gaussian, Inc.),
 the Gaussian 86(TM) system (copyright 1986, Carnegie Mellon
 University), and the Gaussian 82(TM) system (copyright 1983,
 Carnegie Mellon University). Gaussian is a federally registered
 trademark of Gaussian, Inc.
  
 This software contains proprietary and confidential information,
 including trade secrets, belonging to Gaussian, Inc.
  
 This software is provided under written license and may be
 used, copied, transmitted, or stored only in accord with that
 written license.
  
 The following legend is applicable only to US Government
 contracts under FAR:
  
                    RESTRICTED RIGHTS LEGEND
  
 Use, reproduction and disclosure by the US Government is
 subject to restrictions as set forth in subparagraphs (a)
 and (c) of the Commercial Computer Software - Restricted
 Rights clause in FAR 52.227-19.
  
 Gaussian, Inc.
 340 Quinnipiac St., Bldg. 40, Wallingford CT 06492
  
  
 ---------------------------------------------------------------
 Warning -- This program may not be used in any manner that
 competes with the business of Gaussian, Inc. or will provide
 assistance to any competitor of Gaussian, Inc.  The licensee
 of this program is prohibited from giving any competitor of
 Gaussian, Inc. access to this program.  By using this program,
 the user acknowledges that Gaussian, Inc. is engaged in the
 business of creating and licensing software in the field of
 computational chemistry and represents and warrants to the
 licensee that it is not a competitor of Gaussian, Inc. and that
 it will not use this program in any manner prohibited above.
 ---------------------------------------------------------------
  

 Cite this work as:
 Gaussian 09, Revision B.01,
 M. J. Frisch, G. W. Trucks, H. B. Schlegel, G. E. Scuseria, 
 M. A. Robb, J. R. Cheeseman, G. Scalmani, V. Barone, B. Mennucci, 
 G. A. Petersson, H. Nakatsuji, M. Caricato, X. Li, H. P. Hratchian, 
 A. F. Izmaylov, J. Bloino, G. Zheng, J. L. Sonnenberg, M. Hada, 
 M. Ehara, K. Toyota, R. Fukuda, J. Hasegawa, M. Ishida, T. Nakajima, 
 Y. Honda, O. Kitao, H. Nakai, T. Vreven, J. A. Montgomery, Jr., 
 J. E. Peralta, F. Ogliaro, M. Bearpark, J. J. Heyd, E. Brothers, 
 K. N. Kudin, V. N. Staroverov, T. Keith, R. Kobayashi, J. Normand, 
 K. Raghavachari, A. Rendell, J. C. Burant, S. S. Iyengar, J. Tomasi, 
 M. Cossi, N. Rega, J. M. Millam, M. Klene, J. E. Knox, J. B. Cross, 
 V. Bakken, C. Adamo, J. Jaramillo, R. Gomperts, R. E. Stratmann, 
 O. Yazyev, A. J. Austin, R. Cammi, C. Pomelli, J. W. Ochterski, 
 R. L. Martin, K. Morokuma, V. G. Zakrzewski, G. A. Voth, 
 P. Salvador, J. J. Dannenberg, S. Dapprich, A. D. Daniels, 
 O. Farkas, J. B. Foresman, J. V. Ortiz, J. Cioslowski, 
 and D. J. Fox, Gaussian, Inc., Wallingford CT, 2010.
 
 ******************************************
 Gaussian 09:  EM64L-G09RevB.01 12-Aug-2010
                 1-Mar-2016 
 ******************************************
 ------------------------------------------------
 # freq=raman b3lyp/6-31+g(d,p) geom=connectivity
 ------------------------------------------------
 1/10=4,30=1,38=1,57=2/1,3;
 2/12=2,17=6,18=5,40=1/2;
 3/5=1,6=6,7=111,11=2,16=1,25=1,30=1,71=2,74=-5/1,2,3;
 4//1;
 5/5=2,38=5,98=1/2;
 8/6=4,10=90,11=11/1;
 10/13=10,15=4/2;
 11/6=3,8=1,9=11,15=111,16=1/1,2,10;
 10/6=1/2;
 6/7=2,8=2,9=2,10=2,18=1,28=1/1;
 7/8=1,10=1,25=1/1,2,3,16;
 1/10=4,30=1/3;
 99//99;
 ------------
 400 6000.com
 ------------
 Symbolic Z-matrix:
 Charge =  0 Multiplicity = 1
 O                     8.856     7.281     22.717 
 C                     9.512     7.614     23.949 
 C                     9.299     9.066     24.345 
 O                     9.41      10.021    23.28 
 H                     9.228     9.476     22.462 
 C                     10.042    9.277     25.654 
 O                     9.785     10.616    26.102 
 H                     10.107    10.69     27.046 
 C                     9.076     5.25      24.902 
 O                     8.604     4.501     23.772 
 H                     8.663     3.523     23.973 
 C                     9.057     6.754     25.118 
 O                     9.851     6.907     26.303 
 C                     9.594     8.263     26.694 
 O                     10.201    8.214     27.994 
 C                     9.346     7.999     29.126 
 C                     9.771     6.627     29.624 
 O                     9.628     5.667     28.568 
 H                     9.912     6.15      27.739 
 C                     9.329     6.301     31.042 
 O                     10.153    5.285     31.634 
 H                     9.706     5.058     32.499 
 C                     9.738     10.42     29.741 
 O                     10.369    11.084    28.637 
 H                     10.048    12.022    28.763 
 C                     9.783     8.974     30.207 
 O                     8.965     8.788     31.371 
 C                     9.413     7.539     31.918 
 O                     8.506     7.57      33.03 
 H                     9.00527   7.59285   33.84964 
 H                     10.05759   10.97805   30.59618 
 H                     8.69543   10.61424   29.59881 
 H                     10.79374   8.74337   30.47178 
 H                     8.3041    8.06054   28.8903 
 H                     10.83248   6.7168    29.72452 
 H                     8.31565   5.95814   31.02016 
 H                     10.41513   7.64965   32.27633 
 H                     9.51469   7.09877   22.04281 
 H                     8.54425   4.84698   25.73849 
 H                     10.10427   4.97219   25.00388 
 H                     8.05324   7.03758   25.35665 
 H                     10.56212   7.45903   23.81431 
 H                     8.2666    9.11734   24.62143 
 H                     11.09182   9.16115   25.48269 
 H                     8.53844   8.37711   26.82693 
 

 GradGradGradGradGradGradGradGradGradGradGradGradGradGradGradGradGradGrad
 Berny optimization.
 Initialization pass.
 Trust Radius=3.00D-01 FncErr=1.00D-07 GrdErr=1.00D-07
 Number of steps in this run=      2 maximum allowed number of steps=      2.
 GradGradGradGradGradGradGradGradGradGradGradGradGradGradGradGradGradGrad

                          Input orientation:                          
 ---------------------------------------------------------------------
 Center     Atomic      Atomic             Coordinates (Angstroms)
 Number     Number       Type             X           Y           Z
 ---------------------------------------------------------------------
      1          8           0        8.856000    7.281000   22.717000
      2          6           0        9.512000    7.614000   23.949000
      3          6           0        9.299000    9.066000   24.345000
      4          8           0        9.410000   10.021000   23.280000
      5          1           0        9.228000    9.476000   22.462000
      6          6           0       10.042000    9.277000   25.654000
      7          8           0        9.785000   10.616000   26.102000
      8          1           0       10.107000   10.690000   27.046000
      9          6           0        9.076000    5.250000   24.902000
     10          8           0        8.604000    4.501000   23.772000
     11          1           0        8.663000    3.523000   23.973000
     12          6           0        9.057000    6.754000   25.118000
     13          8           0        9.851000    6.907000   26.303000
     14          6           0        9.594000    8.263000   26.694000
     15          8           0       10.201000    8.214000   27.994000
     16          6           0        9.346000    7.999000   29.126000
     17          6           0        9.771000    6.627000   29.624000
     18          8           0        9.628000    5.667000   28.568000
     19          1           0        9.912000    6.150000   27.739000
     20          6           0        9.329000    6.301000   31.042000
     21          8           0       10.153000    5.285000   31.634000
     22          1           0        9.706000    5.058000   32.499000
     23          6           0        9.738000   10.420000   29.741000
     24          8           0       10.369000   11.084000   28.637000
     25          1           0       10.048000   12.022000   28.763000
     26          6           0        9.783000    8.974000   30.207000
     27          8           0        8.965000    8.788000   31.371000
     28          6           0        9.413000    7.539000   31.918000
     29          8           0        8.506000    7.570000   33.030000
     30          1           0        9.005273    7.592850   33.849637
     31          1           0       10.057595   10.978051   30.596183
     32          1           0        8.695429   10.614239   29.598812
     33          1           0       10.793743    8.743372   30.471781
     34          1           0        8.304098    8.060536   28.890303
     35          1           0       10.832476    6.716802   29.724515
     36          1           0        8.315653    5.958142   31.020161
     37          1           0       10.415125    7.649652   32.276330
     38          1           0        9.514686    7.098773   22.042814
     39          1           0        8.544250    4.846979   25.738490
     40          1           0       10.104272    4.972190   25.003877
     41          1           0        8.053243    7.037583   25.356645
     42          1           0       10.562116    7.459028   23.814314
     43          1           0        8.266599    9.117339   24.621428
     44          1           0       11.091824    9.161150   25.482686
     45          1           0        8.538439    8.377107   26.826929
 ---------------------------------------------------------------------
                    Distance matrix (angstroms):
                    1          2          3          4          5
     1  O    0.000000
     2  C    1.434939   0.000000
     3  C    2.456188   1.520029   0.000000
     4  O    2.851576   2.500323   1.434772   0.000000
     5  H    2.240856   2.399764   1.928427   0.999636   0.000000
     6  C    3.743872   2.439978   1.519885   2.566873   3.300161
     7  O    4.841848   3.704314   2.392853   2.908322   3.854796
     8  H    5.650356   4.405362   3.253558   3.887946   4.822810
     9  C    2.991252   2.585885   3.862879   5.050236   4.882190
    10  O    2.984113   3.247547   4.653018   5.600187   5.182287
    11  H    3.967033   4.178236   5.591755   6.577405   6.167703
    12  C    2.466360   1.520916   2.449783   3.765122   3.806949
    13  O    3.740227   2.481146   2.966437   4.362340   4.662743
    14  C    4.162391   2.821870   2.499927   3.844453   4.417595
    15  O    5.525056   4.146896   3.854181   5.110061   5.756943
    16  C    6.467682   5.193949   4.898843   6.186137   6.826738
    17  C    6.997970   5.766010   5.834325   7.203880   7.726959
    18  O    6.118430   5.013923   5.430946   6.853305   7.207754
    19  H    5.254977   4.082572   4.516421   5.926156   6.275098
    20  C    8.395818   7.215823   7.245408   8.607764   9.149165
    21  O    9.229253   8.055703   8.255592   9.631774  10.126485
    22  H   10.067361   8.925989   9.094912  10.474204  10.976729
    23  C    7.743889   6.439874   5.580578   6.481613   7.357654
    24  O    7.197109   5.895141   4.861943   5.545007   6.482142
    25  H    7.775092   6.549226   5.368208   5.871485   6.845226
    26  C    7.734706   6.409805   5.882666   7.015602   7.781070
    27  O    8.784910   7.534160   7.039426   8.196499   8.939396
    28  C    9.221454   7.969968   7.726257   8.987512   9.654125
    29  O   10.322984   9.136659   8.848508  10.093915  10.762748
    30  H   11.138004   9.913618   9.622607  10.852508  11.544442
    31  H    8.785986   7.469910   6.580934   7.406879   8.313201
    32  H    7.648242   6.448922   5.510343   6.386699   7.246606
    33  H    8.125886   6.742776   6.314729   7.434299   8.194199
    34  H    6.246754   5.106358   4.760312   6.044993   6.646820
    35  H    7.302743   5.992095   6.067081   7.380579   7.932947
    36  H    8.425225   7.360328   7.428562   8.809909   9.297840
    37  H    9.692656   8.376237   8.133743   9.357752  10.053154
    38  H    0.960000   1.974591   3.035879   3.175059   2.430867
    39  H    3.892435   3.434417   4.506839   5.793461   5.712332
    40  H    3.481177   2.905634   4.223963   5.379986   5.245312
    41  H    2.769729   2.107533   2.586467   3.879951   3.962941
    42  H    2.036326   1.070000   2.111741   2.859469   2.770703
    43  H    2.710421   2.064755   1.070000   1.980757   2.390828
    44  H    4.022796   2.691042   2.125465   2.901672   3.563357
    45  H    4.265421   3.132512   2.685703   4.005335   4.553643
                    6          7          8          9         10
     6  C    0.000000
     7  O    1.435156   0.000000
     8  H    1.984555   1.000148   0.000000
     9  C    4.208965   5.544063   5.937449   0.000000
    10  O    5.331036   6.649578   7.161132   1.435509   0.000000
    11  H    6.151091   7.490138   7.930596   2.004031   1.000183
    12  C    2.760987   4.051331   4.506859   1.519550   2.663256
    13  O    2.464667   3.715029   3.863764   2.304143   3.708073
    14  C    1.520033   2.433835   2.505474   3.543693   4.865268
    15  O    2.575044   3.085826   2.652945   4.428474   5.844832
    16  C    3.764636   4.023181   3.485255   5.046987   6.438314
    17  C    4.780883   5.321353   4.823583   4.967538   6.334640
    18  O    4.657778   5.531583   5.270337   3.730704   5.040808
    19  H    3.760619   4.758262   4.596724   3.091515   4.490785
    20  C    6.196409   6.575010   5.986370   6.234437   7.524528
    21  O    7.190882   7.691424   7.089844   6.817696   8.051404
    22  H    8.047787   8.474622   7.849550   7.625495   8.813920
    23  C    4.254696   3.644578   2.733512   7.112177   8.482304
    24  O    3.502923   2.643162   1.659868   7.046817   8.373729
    25  H    4.147402   3.021080   2.173889   7.855704   9.141152
    26  C    4.570416   4.421221   3.611309   6.520050   7.925086
    27  O    5.838077   5.637051   4.860802   7.374125   8.732324
    28  C    6.531002   6.590309   5.843528   7.387648   8.731623
    29  O    7.725187   7.675359   6.935839   8.471817   9.753919
    30  H    8.430873   8.353041   7.556164   9.249549  10.548901
    31  H    5.226757   4.516976   3.562192   8.136204   9.520221
    32  H    4.377557   3.662630   2.918068   7.140024   8.445815
    33  H    4.905191   4.859968   3.999619   6.795348   8.226771
    34  H    3.869592   4.061785   3.683204   4.939788   6.241575
    35  H    4.873250   5.424350   4.846346   5.337918   6.731146
    36  H    6.541466   6.931301   6.433767   6.205763   7.398800
    37  H    6.829549   6.878854   6.057641   7.869710   9.247585
    38  H    4.250105   5.377820   6.187052   3.432980   3.250824
    39  H    4.677123   5.912123   6.188106   1.070000   1.997588
    40  H    4.354070   5.758507   6.071542   1.070000   1.997588
    41  H    3.009745   4.044701   4.517963   2.109073   3.041166
    42  H    2.638179   3.975411   4.592396   2.876005   3.547666
    43  H    2.060035   2.596848   3.426205   3.961081   4.705949
    44  H    1.070000   2.051324   2.398169   4.438224   5.552721
    45  H    2.108617   2.663096   2.803186   3.711216   4.935696
                   11         12         13         14         15
    11  H    0.000000
    12  C    3.450452   0.000000
    13  O    4.276880   1.434598   0.000000
    14  C    5.544204   2.247048   1.434457   0.000000
    15  O    6.367053   3.422238   2.165694   1.435566   0.000000
    16  C    6.859626   4.206853   3.068683   2.458826   1.434808
    17  C    6.541887   4.563985   3.333743   3.360465   2.315247
    18  O    5.161588   3.661982   2.591824   3.201913   2.673016
    19  H    4.758559   2.822319   1.624459   2.378638   2.099677
    20  C    7.624408   5.947518   4.806021   4.777528   3.702736
    21  O    8.000979   6.768858   5.580470   5.795219   4.672360
    22  H    8.725638   7.601104   6.467630   6.631937   5.522715
    23  C    9.055057   5.939314   4.916684   3.735986   2.851809
    24  O    9.046107   5.731806   4.812817   3.511967   2.945942
    25  H    9.853696   6.482278   5.679228   4.314737   3.887883
    26  C    8.356468   5.599410   4.417955   3.589208   2.376908
    27  O    9.085254   6.576141   5.477936   4.748220   3.641607
    28  C    8.933856   6.854412   5.667406   5.277036   4.058860
    29  O    9.921296   7.973030   6.892106   6.465979   5.352481
    30  H   10.687786   8.771991   7.624786   7.211022   6.008666
    31  H   10.069222   6.989584   5.920098   4.776343   3.798934
    32  H    9.051877   5.925357   5.093264   3.843655   3.256273
    33  H    8.603866   5.969661   4.651856   3.992715   2.602111
    34  H    6.700591   4.062532   3.227644   2.555110   2.103604
    35  H    6.927260   4.936971   3.564581   3.620577   2.373826
    36  H    7.464117   6.001541   5.050666   5.065788   4.219132
    37  H    9.436339   7.340871   6.045696   5.675637   4.324661
    38  H    4.151763   3.128116   4.277741   4.795336   6.093551
    39  H    2.209973   2.069939   2.503987   3.699212   4.378239
    40  H    2.289132   2.069939   2.344218   3.734478   4.411295
    41  H    3.826039   1.070000   2.035822   2.379937   3.598952
    42  H    4.373115   2.112353   2.646503   3.142644   4.262647
    43  H    5.645726   2.541002   3.197438   2.605272   3.991512
    44  H    6.321951   3.172991   2.700694   2.125425   2.827960
    45  H    5.632298   2.413260   2.039248   1.070000   2.037834
                   16         17         18         19         20
    16  C    0.000000
    17  C    1.520202   0.000000
    18  O    2.414355   1.434289   0.000000
    19  H    2.379690   1.949522   1.000593   0.000000
    20  C    2.560185   1.520646   2.571387   3.357454   0.000000
    21  O    3.782474   2.446832   3.133992   3.997165   1.435861
    22  H    4.489567   3.275914   3.978659   4.887995   1.951929
    23  C    2.528464   3.794948   4.896840   4.719235   4.338899
    24  O    3.286773   4.603979   5.467882   5.035833   5.453688
    25  H    4.099890   5.470290   6.371848   5.962169   6.200052
    26  C    1.519919   2.418355   3.694130   3.752685   2.836947
    27  O    2.409918   2.893366   4.247001   4.587731   2.534937
    28  C    2.830433   2.494463   3.843580   4.431971   1.518906
    29  O    4.016324   3.753706   4.978929   5.655786   2.497966
    30  H    4.753293   4.401728   5.656180   6.343804   3.107491
    31  H    3.397433   4.467541   5.701346   5.612020   4.754410
    32  H    2.736105   4.129838   5.138817   4.986820   4.592193
    33  H    2.112150   2.498753   3.800974   3.869256   2.904445
    34  H    1.070000   2.178334   2.754199   2.749727   2.962464
    35  H    2.052283   1.070000   1.972403   2.260711   2.041837
    36  H    2.968933   2.124776   2.796446   3.653923   1.070000
    37  H    3.345094   2.914716   4.278106   4.805149   2.126523
    38  H    7.142155   7.600174   6.681382   5.788312   9.036385
    39  H    4.696090   4.446411   3.138961   2.751480   5.554928
    40  H    5.169957   4.918842   3.662317   2.984142   6.231028
    41  H    4.099217   4.618396   3.830295   3.149349   5.873106
    42  H    5.475811   5.922042   5.165410   4.188002   7.423008
    43  H    4.765182   5.787118   5.416058   4.607787   7.091136
    44  H    4.203835   5.031597   4.885798   3.943344   6.495689
    45  H    2.465937   3.522171   3.400463   2.771019   4.764665
                   21         22         23         24         25
    21  O    0.000000
    22  H    0.999781   0.000000
    23  C    5.488524   6.029812   0.000000
    24  O    6.531238   7.187996   1.434529   0.000000
    25  H    7.323990   7.910244   1.902364   0.999380   0.000000
    26  C    3.972650   4.538089   1.519900   2.694512   3.383144
    27  O    3.708304   3.966657   2.432664   3.836351   4.293403
    28  C    2.389304   2.564911   3.625619   4.924015   5.518563
    29  O    3.143668   2.834097   4.523035   5.925995   6.356521
    30  H    3.398896   2.956467   5.040889   6.420239   6.824846
    31  H    5.787659   6.228269   1.070000   1.986604   2.109616
    32  H    5.887894   6.348554   1.070000   1.986604   2.123634
    33  H    3.704273   4.344510   2.111804   3.004225   3.771666
    34  H    4.318555   4.899311   2.889088   3.670057   4.330196
    35  H    2.481507   3.423206   3.861584   4.524370   5.448398
    36  H    2.050795   2.220424   4.854637   6.014159   6.698222
    37  H    2.464321   2.696127   3.815918   5.004158   5.621005
    38  H    9.782027  10.655195   8.387042   7.752108   8.347663
    39  H    6.126743   6.862848   6.964458   7.115581   7.930312
    40  H    6.637677   7.506188   7.228632   7.115046   7.989618
    41  H    6.847314   7.593654   5.788067   5.700610   6.358201
    42  H    8.126577   9.051057   6.676236   6.036225   6.750890
    43  H    8.211059   8.978098   5.483791   4.940917   5.363120
    44  H    7.331070   8.245302   4.642282   3.764243   4.475991
    45  H    5.939349   6.674733   3.755551   3.735583   4.394586
                   26         27         28         29         30
    26  C    0.000000
    27  O    1.434788   0.000000
    28  C    2.263547   1.435240   0.000000
    29  O    3.401658   2.108669   1.435324   0.000000
    30  H    3.972561   2.752026   1.974933   0.960000   0.000000
    31  H    2.059875   2.567183   3.740291   4.466064   4.811645
    32  H    2.059875   2.558997   3.917989   4.590896   5.224395
    33  H    1.070000   2.038354   2.334205   3.626989   3.991520
    34  H    2.180656   2.668305   3.266284   4.173546   5.030444
    35  H    2.535574   3.238556   2.739032   4.131183   4.595950
    36  H    3.451049   2.924523   2.123534   2.583364   3.339727
    37  H    2.536850   2.053856   1.070000   2.054050   2.113339
    38  H    8.381074   9.495825   9.885516  11.043448  11.828130
    39  H    6.207607   6.887223   6.796178   7.783471   8.575724
    40  H    6.571924   7.509900   7.407528   8.586137   9.291024
    41  H    5.501610   6.329907   6.719504   7.705117   8.564204
    42  H    6.615783   7.837120   8.185144   9.442923  10.156247
    43  H    5.789527   6.793596   7.552837   8.553108   9.382406
    44  H    4.905832   6.271751   6.845662   8.135121   8.764652
    45  H    3.651040   4.582507   5.233190   6.255442   7.081766
                   31         32         33         34         35
    31  H    0.000000
    32  H    1.727022   0.000000
    33  H    2.356094   2.943661   0.000000
    34  H    3.807450   2.678903   3.027486   0.000000
    35  H    4.417974   4.446661   2.160300   2.982320   0.000000
    36  H    5.330441   4.883001   3.768177   2.992740   2.930642
    37  H    3.745526   4.349165   2.143822   4.011290   2.748845
    38  H    9.407639   8.373935   8.682637   7.019873   7.803269
    39  H    7.967273   6.941630   6.530401   4.507609   4.961916
    40  H    8.206487   7.411544   6.677961   5.280418   5.085113
    41  H    6.855470   5.585772   6.048527   3.687289   5.187035
    42  H    7.657141   6.848379   6.784177   5.588033   5.962757
    43  H    6.509040   5.215261   6.383803   4.397900   6.195789
    44  H    5.524366   4.979625   5.015423   4.538130   4.902572
    45  H    4.824937   3.565493   4.301801   2.100629   4.051571
                   36         37         38         39         40
    36  H    0.000000
    37  H    2.974382   0.000000
    38  H    9.128607  10.287814   0.000000
    39  H    5.402128   7.355168   4.435126   0.000000
    40  H    6.353498   7.755902   3.692947   1.728874   0.000000
    41  H    5.771435   7.337245   3.622297   2.277200   2.932067
    42  H    7.695679   8.465439   2.089284   3.820606   2.794466
    43  H    7.136296   8.085035   3.504509   4.422770   4.550337
    44  H    6.973522   6.992578   4.309696   5.016735   4.330346
    45  H    4.846052   5.809227   5.047272   3.694121   4.167591
                   41         42         43         44         45
    41  H    0.000000
    42  H    2.975037   0.000000
    43  H    2.216180   2.944627   0.000000
    44  H    3.709231   2.441572   2.953909   0.000000
    45  H    2.047309   3.743526   2.342237   2.990232   0.000000
 Stoichiometry    C12H22O11
 Framework group  C1[X(C12H22O11)]
 Deg. of freedom   129
 Full point group                 C1      NOp   1
 Largest Abelian subgroup         C1      NOp   1
 Largest concise Abelian subgroup C1      NOp   1
                         Standard orientation:                         
 ---------------------------------------------------------------------
 Center     Atomic      Atomic             Coordinates (Angstroms)
 Number     Number       Type             X           Y           Z
 ---------------------------------------------------------------------
      1          8           0       -4.932615   -0.560643    0.449818
      2          6           0       -3.682225   -0.169297   -0.135351
      3          6           0       -3.282658    1.247218    0.244544
      4          8           0       -4.338456    2.218207    0.212217
      5          1           0       -5.164240    1.664033    0.313430
      6          6           0       -1.953845    1.526079   -0.438495
      7          8           0       -1.504128    2.825008   -0.025928
      8          1           0       -0.551781    2.925120   -0.314560
      9          6           0       -2.755534   -2.575236    0.063397
     10          8           0       -3.901886   -3.360964    0.422833
     11          1           0       -3.705602   -4.328490    0.262420
     12          6           0       -2.530634   -1.084271    0.251748
     13          8           0       -1.324842   -0.856387   -0.491358
     14          6           0       -0.931999    0.459955   -0.078340
     15          8           0        0.382716    0.465639   -0.654832
     16          6           0        1.491181    0.148554    0.199238
     17          6           0        1.991213   -1.173418   -0.360557
     18          8           0        0.925894   -2.133707   -0.349259
     19          1           0        0.107456   -1.615173   -0.599196
     20          6           0        3.395408   -1.558426    0.078042
     21          8           0        4.001816   -2.483911   -0.837077
     22          1           0        4.853697   -2.766062   -0.396336
     23          6           0        2.131187    2.592196    0.089086
     24          8           0        1.047827    3.330933   -0.492696
     25          1           0        1.171501    4.227201   -0.068233
     26          6           0        2.589079    1.155557   -0.101960
     27          8           0        3.730659    0.871040    0.719296
     28          6           0        4.281033   -0.326606    0.151277
     29          8           0        5.369728   -0.404650    1.083376
     30          1           0        6.201951   -0.334946    0.609936
     31          1           0        2.997731    3.173998   -0.146516
     32          1           0        1.963697    2.672971    1.142805
     33          1           0        2.878080    1.034037   -1.125000
     34          1           0        1.229396    0.098338    1.235504
     35          1           0        2.119313   -0.969418   -1.403089
     36          1           0        3.345593   -2.009433    1.047068
     37          1           0        4.665478   -0.110675   -0.823646
     38          1           0       -5.590926   -0.663927   -0.241238
     39          1           0       -1.935420   -3.041329    0.568442
     40          1           0       -2.629231   -2.740274   -0.986227
     41          1           0       -2.315871   -0.913899    1.286035
     42          1           0       -3.791074   -0.207717   -1.199106
     43          1           0       -3.032316    1.183277    1.282879
     44          1           0       -2.099071    1.526845   -1.498594
     45          1           0       -0.825302    0.457178    0.986323
 ---------------------------------------------------------------------
 Rotational constants (GHZ):      0.4045684      0.1493324      0.1133200
 Standard basis: 6-31+G(d,p) (6D, 7F)
 There are   547 symmetry adapted basis functions of A   symmetry.
 Integral buffers will be    131072 words long.
 Raffenetti 2 integral format.
 Two-electron integral symmetry is turned on.
   547 basis functions,   890 primitive gaussians,   547 cartesian basis functions
    91 alpha electrons       91 beta electrons
       nuclear repulsion energy      2300.5891283319 Hartrees.
 NAtoms=   45 NActive=   45 NUniq=   45 SFac= 1.00D+00 NAtFMM=   50 NAOKFM=F Big=F
 One-electron integrals computed using PRISM.
 NBasis=   547 RedAO= T  NBF=   547
 NBsUse=   547 1.00D-06 NBFU=   547
 Harris functional with IExCor=  402 diagonalized for initial guess.
 ExpMin= 4.38D-02 ExpMax= 5.48D+03 ExpMxC= 8.25D+02 IAcc=2 IRadAn=         0 AccDes= 0.00D+00
 HarFok:  IExCor=  402 AccDes= 0.00D+00 IRadAn=         0 IDoV= 1
 ScaDFX=  1.000000  1.000000  1.000000  1.000000
 FoFCou: FMM=F IPFlag=           0 FMFlag=      100000 FMFlg1=           0
         NFxFlg=           0 DoJE=T BraDBF=F KetDBF=T FulRan=T
         Omega=  0.000000  0.000000  1.000000  0.000000  0.000000 ICntrl=     500 IOpCl=  0
         NMat0=    1 NMatS0=    1 NMatT0=    0 NMatD0=    1 NMtDS0=    0 NMtDT0=    0
         I1Cent=           4 NGrid=           0.
 Petite list used in FoFCou.
 Initial guess orbital symmetries:
       Occupied  (A) (A) (A) (A) (A) (A) (A) (A) (A) (A) (A) (A)
                 (A) (A) (A) (A) (A) (A) (A) (A) (A) (A) (A) (A)
                 (A) (A) (A) (A) (A) (A) (A) (A) (A) (A) (A) (A)
                 (A) (A) (A) (A) (A) (A) (A) (A) (A) (A) (A) (A)
                 (A) (A) (A) (A) (A) (A) (A) (A) (A) (A) (A) (A)
                 (A) (A) (A) (A) (A) (A) (A) (A) (A) (A) (A) (A)
                 (A) (A) (A) (A) (A) (A) (A) (A) (A) (A) (A) (A)
                 (A) (A) (A) (A) (A) (A) (A)
       Virtual   (A) (A) (A) (A) (A) (A) (A) (A) (A) (A) (A) (A)
                 (A) (A) (A) (A) (A) (A) (A) (A) (A) (A) (A) (A)
                 (A) (A) (A) (A) (A) (A) (A) (A) (A) (A) (A) (A)
                 (A) (A) (A) (A) (A) (A) (A) (A) (A) (A) (A) (A)
                 (A) (A) (A) (A) (A) (A) (A) (A) (A) (A) (A) (A)
                 (A) (A) (A) (A) (A) (A) (A) (A) (A) (A) (A) (A)
                 (A) (A) (A) (A) (A) (A) (A) (A) (A) (A) (A) (A)
                 (A) (A) (A) (A) (A) (A) (A) (A) (A) (A) (A) (A)
                 (A) (A) (A) (A) (A) (A) (A) (A) (A) (A) (A) (A)
                 (A) (A) (A) (A) (A) (A) (A) (A) (A) (A) (A) (A)
                 (A) (A) (A) (A) (A) (A) (A) (A) (A) (A) (A) (A)
                 (A) (A) (A) (A) (A) (A) (A) (A) (A) (A) (A) (A)
                 (A) (A) (A) (A) (A) (A) (A) (A) (A) (A) (A) (A)
                 (A) (A) (A) (A) (A) (A) (A) (A) (A) (A) (A) (A)
                 (A) (A) (A) (A) (A) (A) (A) (A) (A) (A) (A) (A)
                 (A) (A) (A) (A) (A) (A) (A) (A) (A) (A) (A) (A)
                 (A) (A) (A) (A) (A) (A) (A) (A) (A) (A) (A) (A)
                 (A) (A) (A) (A) (A) (A) (A) (A) (A) (A) (A) (A)
                 (A) (A) (A) (A) (A) (A) (A) (A) (A) (A) (A) (A)
                 (A) (A) (A) (A) (A) (A) (A) (A) (A) (A) (A) (A)
                 (A) (A) (A) (A) (A) (A) (A) (A) (A) (A) (A) (A)
                 (A) (A) (A) (A) (A) (A) (A) (A) (A) (A) (A) (A)
                 (A) (A) (A) (A) (A) (A) (A) (A) (A) (A) (A) (A)
                 (A) (A) (A) (A) (A) (A) (A) (A) (A) (A) (A) (A)
                 (A) (A) (A) (A) (A) (A) (A) (A) (A) (A) (A) (A)
                 (A) (A) (A) (A) (A) (A) (A) (A) (A) (A) (A) (A)
                 (A) (A) (A) (A) (A) (A) (A) (A) (A) (A) (A) (A)
                 (A) (A) (A) (A) (A) (A) (A) (A) (A) (A) (A) (A)
                 (A) (A) (A) (A) (A) (A) (A) (A) (A) (A) (A) (A)
                 (A) (A) (A) (A) (A) (A) (A) (A) (A) (A) (A) (A)
                 (A) (A) (A) (A) (A) (A) (A) (A) (A) (A) (A) (A)
                 (A) (A) (A) (A) (A) (A) (A) (A) (A) (A) (A) (A)
                 (A) (A) (A) (A) (A) (A) (A) (A) (A) (A) (A) (A)
                 (A) (A) (A) (A) (A) (A) (A) (A) (A) (A) (A) (A)
                 (A) (A) (A) (A) (A) (A) (A) (A) (A) (A) (A) (A)
                 (A) (A) (A) (A) (A) (A) (A) (A) (A) (A) (A) (A)
                 (A) (A) (A) (A) (A) (A) (A) (A) (A) (A) (A) (A)
                 (A) (A) (A) (A) (A) (A) (A) (A) (A) (A) (A) (A)
 The electronic state of the initial guess is 1-A.
 Requested convergence on RMS density matrix=1.00D-08 within 128 cycles.
 Requested convergence on MAX density matrix=1.00D-06.
 Requested convergence on             energy=1.00D-06.
 No special actions if energy rises.
 SCF Done:  E(RB3LYP) =  -1297.87691550     A.U. after   13 cycles
             Convg  =    0.6816D-08             -V/T =  2.0084
 Range of M.O.s used for correlation:     1   547
 NBasis=   547 NAE=    91 NBE=    91 NFC=     0 NFV=     0
 NROrb=    547 NOA=    91 NOB=    91 NVA=   456 NVB=   456

 **** Warning!!: The largest alpha MO coefficient is  0.74142370D+02

          Differentiating once with respect to electric field.
                with respect to dipole field.
          Electric field/nuclear overlap derivatives assumed to be zero.
          There are     3 degrees of freedom in the 1st order CPHF.  IDoFFX=0.
      3 vectors produced by pass  0 Test12= 1.38D-12 3.33D-08 XBig12= 1.21D+02 1.06D+00.
 AX will form     3 AO Fock derivatives at one time.
      3 vectors produced by pass  1 Test12= 1.38D-12 3.33D-08 XBig12= 2.46D+01 4.06D-01.
      3 vectors produced by pass  2 Test12= 1.38D-12 3.33D-08 XBig12= 1.04D+01 2.20D-01.
      3 vectors produced by pass  3 Test12= 1.38D-12 3.33D-08 XBig12= 9.88D-01 1.22D-01.
      3 vectors produced by pass  4 Test12= 1.38D-12 3.33D-08 XBig12= 3.49D-01 5.07D-02.
      3 vectors produced by pass  5 Test12= 1.38D-12 3.33D-08 XBig12= 5.57D-02 2.80D-02.
      3 vectors produced by pass  6 Test12= 1.38D-12 3.33D-08 XBig12= 1.78D-02 1.80D-02.
      3 vectors produced by pass  7 Test12= 1.38D-12 3.33D-08 XBig12= 2.47D-03 9.68D-03.
      3 vectors produced by pass  8 Test12= 1.38D-12 3.33D-08 XBig12= 5.03D-04 3.55D-03.
      3 vectors produced by pass  9 Test12= 1.38D-12 3.33D-08 XBig12= 1.19D-04 1.93D-03.
      3 vectors produced by pass 10 Test12= 1.38D-12 3.33D-08 XBig12= 3.17D-05 7.19D-04.
      3 vectors produced by pass 11 Test12= 1.38D-12 3.33D-08 XBig12= 6.87D-06 4.21D-04.
      3 vectors produced by pass 12 Test12= 1.38D-12 3.33D-08 XBig12= 8.86D-07 1.31D-04.
      3 vectors produced by pass 13 Test12= 1.38D-12 3.33D-08 XBig12= 3.43D-07 5.77D-05.
      3 vectors produced by pass 14 Test12= 1.38D-12 3.33D-08 XBig12= 2.93D-08 1.50D-05.
      3 vectors produced by pass 15 Test12= 1.38D-12 3.33D-08 XBig12= 5.72D-09 8.38D-06.
      3 vectors produced by pass 16 Test12= 1.38D-12 3.33D-08 XBig12= 8.96D-10 3.15D-06.
      3 vectors produced by pass 17 Test12= 1.38D-12 3.33D-08 XBig12= 6.02D-11 7.40D-07.
      3 vectors produced by pass 18 Test12= 1.38D-12 3.33D-08 XBig12= 2.28D-11 4.27D-07.
      3 vectors produced by pass 19 Test12= 1.38D-12 3.33D-08 XBig12= 8.55D-12 2.49D-07.
      3 vectors produced by pass 20 Test12= 1.38D-12 3.33D-08 XBig12= 2.49D-12 1.49D-07.
      2 vectors produced by pass 21 Test12= 1.38D-12 3.33D-08 XBig12= 7.40D-13 4.96D-08.
 Inverted reduced A of dimension    65 with in-core refinement.
 End of Minotr Frequency-dependent properties file   721 does not exist.
 End of Minotr Frequency-dependent properties file   722 does not exist.
 Symmetrizing basis deriv contribution to polar:
 IMax=3 JMax=2 DiffMx= 0.00D+00
 G2DrvN: will do    23 centers at a time, making    2 passes doing MaxLOS=2.
 Calling FoFCou, ICntrl=  3107 FMM=F I1Cent=   0 AccDes= 0.00D+00.
 Calling FoFCou, ICntrl=  3107 FMM=F I1Cent=   0 AccDes= 0.00D+00.
 FoFDir/FoFCou used for L=0 through L=2.
 End of G2Drv Frequency-dependent properties file   721 does not exist.
 End of G2Drv Frequency-dependent properties file   722 does not exist.
          IDoAtm=111111111111111111111111111111111111111111111
          Differentiating once with respect to electric field.
                with respect to dipole field.
          Differentiating once with respect to nuclear coordinates.
          There are   138 degrees of freedom in the 1st order CPHF.  IDoFFX=5.
 Will reuse    3 saved solutions.
    135 vectors produced by pass  0 Test12= 4.15D-14 1.00D-09 XBig12= 2.47D-01 1.29D-01.
 AX will form    68 AO Fock derivatives at one time.
    135 vectors produced by pass  1 Test12= 4.15D-14 1.00D-09 XBig12= 4.93D-02 2.08D-02.
    132 vectors produced by pass  2 Test12= 4.15D-14 1.00D-09 XBig12= 2.75D-04 2.08D-03.
    132 vectors produced by pass  3 Test12= 4.15D-14 1.00D-09 XBig12= 9.41D-07 8.27D-05.
    132 vectors produced by pass  4 Test12= 4.15D-14 1.00D-09 XBig12= 1.63D-09 2.66D-06.
    131 vectors produced by pass  5 Test12= 4.15D-14 1.00D-09 XBig12= 4.40D-12 1.36D-07.
     78 vectors produced by pass  6 Test12= 4.15D-14 1.00D-09 XBig12= 1.68D-13 2.75D-08.
 Inverted reduced A of dimension   875 with in-core refinement.
 Isotropic polarizability for W=    0.000000      187.07 Bohr**3.
 End of Minotr Frequency-dependent properties file   721 does not exist.
 End of Minotr Frequency-dependent properties file   722 does not exist.

 **********************************************************************

            Population analysis using the SCF density.

 **********************************************************************

 Orbital symmetries:
       Occupied  (A) (A) (A) (A) (A) (A) (A) (A) (A) (A) (A) (A)
                 (A) (A) (A) (A) (A) (A) (A) (A) (A) (A) (A) (A)
                 (A) (A) (A) (A) (A) (A) (A) (A) (A) (A) (A) (A)
                 (A) (A) (A) (A) (A) (A) (A) (A) (A) (A) (A) (A)
                 (A) (A) (A) (A) (A) (A) (A) (A) (A) (A) (A) (A)
                 (A) (A) (A) (A) (A) (A) (A) (A) (A) (A) (A) (A)
                 (A) (A) (A) (A) (A) (A) (A) (A) (A) (A) (A) (A)
                 (A) (A) (A) (A) (A) (A) (A)
       Virtual   (A) (A) (A) (A) (A) (A) (A) (A) (A) (A) (A) (A)
                 (A) (A) (A) (A) (A) (A) (A) (A) (A) (A) (A) (A)
                 (A) (A) (A) (A) (A) (A) (A) (A) (A) (A) (A) (A)
                 (A) (A) (A) (A) (A) (A) (A) (A) (A) (A) (A) (A)
                 (A) (A) (A) (A) (A) (A) (A) (A) (A) (A) (A) (A)
                 (A) (A) (A) (A) (A) (A) (A) (A) (A) (A) (A) (A)
                 (A) (A) (A) (A) (A) (A) (A) (A) (A) (A) (A) (A)
                 (A) (A) (A) (A) (A) (A) (A) (A) (A) (A) (A) (A)
                 (A) (A) (A) (A) (A) (A) (A) (A) (A) (A) (A) (A)
                 (A) (A) (A) (A) (A) (A) (A) (A) (A) (A) (A) (A)
                 (A) (A) (A) (A) (A) (A) (A) (A) (A) (A) (A) (A)
                 (A) (A) (A) (A) (A) (A) (A) (A) (A) (A) (A) (A)
                 (A) (A) (A) (A) (A) (A) (A) (A) (A) (A) (A) (A)
                 (A) (A) (A) (A) (A) (A) (A) (A) (A) (A) (A) (A)
                 (A) (A) (A) (A) (A) (A) (A) (A) (A) (A) (A) (A)
                 (A) (A) (A) (A) (A) (A) (A) (A) (A) (A) (A) (A)
                 (A) (A) (A) (A) (A) (A) (A) (A) (A) (A) (A) (A)
                 (A) (A) (A) (A) (A) (A) (A) (A) (A) (A) (A) (A)
                 (A) (A) (A) (A) (A) (A) (A) (A) (A) (A) (A) (A)
                 (A) (A) (A) (A) (A) (A) (A) (A) (A) (A) (A) (A)
                 (A) (A) (A) (A) (A) (A) (A) (A) (A) (A) (A) (A)
                 (A) (A) (A) (A) (A) (A) (A) (A) (A) (A) (A) (A)
                 (A) (A) (A) (A) (A) (A) (A) (A) (A) (A) (A) (A)
                 (A) (A) (A) (A) (A) (A) (A) (A) (A) (A) (A) (A)
                 (A) (A) (A) (A) (A) (A) (A) (A) (A) (A) (A) (A)
                 (A) (A) (A) (A) (A) (A) (A) (A) (A) (A) (A) (A)
                 (A) (A) (A) (A) (A) (A) (A) (A) (A) (A) (A) (A)
                 (A) (A) (A) (A) (A) (A) (A) (A) (A) (A) (A) (A)
                 (A) (A) (A) (A) (A) (A) (A) (A) (A) (A) (A) (A)
                 (A) (A) (A) (A) (A) (A) (A) (A) (A) (A) (A) (A)
                 (A) (A) (A) (A) (A) (A) (A) (A) (A) (A) (A) (A)
                 (A) (A) (A) (A) (A) (A) (A) (A) (A) (A) (A) (A)
                 (A) (A) (A) (A) (A) (A) (A) (A) (A) (A) (A) (A)
                 (A) (A) (A) (A) (A) (A) (A) (A) (A) (A) (A) (A)
                 (A) (A) (A) (A) (A) (A) (A) (A) (A) (A) (A) (A)
                 (A) (A) (A) (A) (A) (A) (A) (A) (A) (A) (A) (A)
                 (A) (A) (A) (A) (A) (A) (A) (A) (A) (A) (A) (A)
                 (A) (A) (A) (A) (A) (A) (A) (A) (A) (A) (A) (A)
 The electronic state is 1-A.
 Alpha  occ. eigenvalues --  -19.20856 -19.20433 -19.19464 -19.19403 -19.18565
 Alpha  occ. eigenvalues --  -19.18558 -19.18367 -19.16540 -19.16450 -19.14505
 Alpha  occ. eigenvalues --  -19.13808 -10.31968 -10.31505 -10.26781 -10.26652
 Alpha  occ. eigenvalues --  -10.26345 -10.26342 -10.26240 -10.25875 -10.25661
 Alpha  occ. eigenvalues --  -10.24865 -10.24563 -10.24126  -1.12102  -1.10402
 Alpha  occ. eigenvalues --   -1.06623  -1.06024  -1.05020  -1.04469  -1.02828
 Alpha  occ. eigenvalues --   -1.02506  -1.02059  -1.00818  -1.00248  -0.82897
 Alpha  occ. eigenvalues --   -0.81896  -0.79602  -0.78778  -0.72474  -0.70357
 Alpha  occ. eigenvalues --   -0.67891  -0.65675  -0.63897  -0.62538  -0.62156
 Alpha  occ. eigenvalues --   -0.61378  -0.57165  -0.56546  -0.55183  -0.54756
 Alpha  occ. eigenvalues --   -0.54175  -0.53932  -0.53469  -0.52498  -0.52007
 Alpha  occ. eigenvalues --   -0.51105  -0.50287  -0.49758  -0.49300  -0.47962
 Alpha  occ. eigenvalues --   -0.46735  -0.45842  -0.44393  -0.44150  -0.43338
 Alpha  occ. eigenvalues --   -0.43177  -0.42671  -0.41410  -0.40711  -0.40375
 Alpha  occ. eigenvalues --   -0.40131  -0.38401  -0.37405  -0.36621  -0.36171
 Alpha  occ. eigenvalues --   -0.36006  -0.35420  -0.35132  -0.34038  -0.33505
 Alpha  occ. eigenvalues --   -0.32701  -0.32137  -0.31945  -0.30961  -0.30500
 Alpha  occ. eigenvalues --   -0.29636  -0.28669  -0.28026  -0.27578  -0.27402
 Alpha  occ. eigenvalues --   -0.26120
 Alpha virt. eigenvalues --   -0.02512  -0.02314  -0.02255  -0.00472  -0.00110
 Alpha virt. eigenvalues --    0.00364   0.01916   0.02143   0.02585   0.03269
 Alpha virt. eigenvalues --    0.04056   0.04255   0.04594   0.04862   0.05855
 Alpha virt. eigenvalues --    0.06142   0.06397   0.06826   0.07840   0.07897
 Alpha virt. eigenvalues --    0.08225   0.08430   0.08684   0.09351   0.09563
 Alpha virt. eigenvalues --    0.10577   0.10899   0.11119   0.11699   0.11998
 Alpha virt. eigenvalues --    0.12157   0.12800   0.12981   0.13431   0.13542
 Alpha virt. eigenvalues --    0.13827   0.13882   0.14682   0.15144   0.15318
 Alpha virt. eigenvalues --    0.15642   0.16162   0.16418   0.16614   0.16840
 Alpha virt. eigenvalues --    0.17212   0.17462   0.17578   0.17853   0.17900
 Alpha virt. eigenvalues --    0.18571   0.18806   0.19273   0.19391   0.19897
 Alpha virt. eigenvalues --    0.20354   0.20797   0.21129   0.21305   0.21557
 Alpha virt. eigenvalues --    0.21807   0.22155   0.22750   0.23044   0.23112
 Alpha virt. eigenvalues --    0.23408   0.23798   0.23906   0.23976   0.24258
 Alpha virt. eigenvalues --    0.24809   0.25238   0.25644   0.25749   0.26030
 Alpha virt. eigenvalues --    0.26631   0.26714   0.27001   0.27199   0.27623
 Alpha virt. eigenvalues --    0.27676   0.27931   0.28395   0.28624   0.28969
 Alpha virt. eigenvalues --    0.29231   0.29694   0.30199   0.30707   0.31139
 Alpha virt. eigenvalues --    0.31491   0.31540   0.31764   0.32212   0.32407
 Alpha virt. eigenvalues --    0.32817   0.33185   0.33324   0.33626   0.34001
 Alpha virt. eigenvalues --    0.34321   0.34623   0.35081   0.35178   0.35406
 Alpha virt. eigenvalues --    0.35833   0.36711   0.37083   0.37386   0.37714
 Alpha virt. eigenvalues --    0.37942   0.38249   0.38663   0.38858   0.39192
 Alpha virt. eigenvalues --    0.39804   0.40176   0.40609   0.40982   0.41369
 Alpha virt. eigenvalues --    0.42415   0.42618   0.43203   0.43468   0.43733
 Alpha virt. eigenvalues --    0.44721   0.45369   0.45525   0.46036   0.46891
 Alpha virt. eigenvalues --    0.47437   0.48256   0.49285   0.49881   0.50523
 Alpha virt. eigenvalues --    0.51836   0.53298   0.55201   0.63027   0.63127
 Alpha virt. eigenvalues --    0.65473   0.65631   0.67998   0.68627   0.69750
 Alpha virt. eigenvalues --    0.70171   0.71072   0.72035   0.73802   0.74786
 Alpha virt. eigenvalues --    0.74888   0.75417   0.76943   0.77869   0.78337
 Alpha virt. eigenvalues --    0.79491   0.80136   0.80735   0.81772   0.83282
 Alpha virt. eigenvalues --    0.84513   0.86310   0.87367   0.88764   0.89756
 Alpha virt. eigenvalues --    0.90922   0.90974   0.93188   0.93842   0.94994
 Alpha virt. eigenvalues --    0.96732   0.97374   0.97989   0.98484   1.00438
 Alpha virt. eigenvalues --    1.00912   1.01771   1.01972   1.03168   1.03954
 Alpha virt. eigenvalues --    1.04977   1.05979   1.06231   1.06696   1.07109
 Alpha virt. eigenvalues --    1.07383   1.07895   1.08551   1.08991   1.10542
 Alpha virt. eigenvalues --    1.11948   1.12389   1.13034   1.14067   1.14696
 Alpha virt. eigenvalues --    1.16837   1.18569   1.19755   1.20831   1.20950
 Alpha virt. eigenvalues --    1.21688   1.22501   1.22854   1.23678   1.24330
 Alpha virt. eigenvalues --    1.26110   1.26749   1.26877   1.27657   1.28721
 Alpha virt. eigenvalues --    1.29638   1.30115   1.30368   1.31009   1.32008
 Alpha virt. eigenvalues --    1.32398   1.32680   1.32935   1.33780   1.34802
 Alpha virt. eigenvalues --    1.35457   1.36001   1.36553   1.37108   1.38081
 Alpha virt. eigenvalues --    1.39896   1.40821   1.41039   1.41892   1.43291
 Alpha virt. eigenvalues --    1.43993   1.44354   1.45430   1.46170   1.47129
 Alpha virt. eigenvalues --    1.48782   1.49313   1.50139   1.50837   1.51772
 Alpha virt. eigenvalues --    1.52765   1.54770   1.54904   1.56097   1.57519
 Alpha virt. eigenvalues --    1.58737   1.58788   1.59755   1.60348   1.60806
 Alpha virt. eigenvalues --    1.62248   1.62471   1.63818   1.64247   1.64360
 Alpha virt. eigenvalues --    1.65723   1.66237   1.67155   1.67912   1.69267
 Alpha virt. eigenvalues --    1.70475   1.70759   1.71977   1.72486   1.72799
 Alpha virt. eigenvalues --    1.73252   1.74501   1.74721   1.75349   1.75758
 Alpha virt. eigenvalues --    1.77075   1.77569   1.80563   1.80949   1.81815
 Alpha virt. eigenvalues --    1.83063   1.83425   1.85443   1.86542   1.88159
 Alpha virt. eigenvalues --    1.88313   1.88971   1.89409   1.90103   1.90213
 Alpha virt. eigenvalues --    1.90606   1.91917   1.92848   1.94075   1.94954
 Alpha virt. eigenvalues --    1.96252   1.96617   1.98112   1.98841   1.99514
 Alpha virt. eigenvalues --    1.99825   2.00974   2.01175   2.02081   2.03139
 Alpha virt. eigenvalues --    2.03199   2.04077   2.05641   2.06150   2.07762
 Alpha virt. eigenvalues --    2.08364   2.08944   2.09799   2.10560   2.11922
 Alpha virt. eigenvalues --    2.13142   2.13504   2.14546   2.14818   2.17611
 Alpha virt. eigenvalues --    2.17910   2.18689   2.19645   2.21429   2.21760
 Alpha virt. eigenvalues --    2.22407   2.24037   2.26154   2.27425   2.28574
 Alpha virt. eigenvalues --    2.30973   2.31228   2.31691   2.32819   2.34337
 Alpha virt. eigenvalues --    2.35195   2.35748   2.37931   2.38491   2.39268
 Alpha virt. eigenvalues --    2.40417   2.41522   2.42302   2.45263   2.45670
 Alpha virt. eigenvalues --    2.46908   2.47460   2.47998   2.48541   2.49452
 Alpha virt. eigenvalues --    2.51555   2.52472   2.54275   2.54593   2.56400
 Alpha virt. eigenvalues --    2.57397   2.58809   2.59194   2.60057   2.60984
 Alpha virt. eigenvalues --    2.62156   2.62378   2.62752   2.64075   2.65170
 Alpha virt. eigenvalues --    2.65599   2.66695   2.67045   2.69430   2.70336
 Alpha virt. eigenvalues --    2.71620   2.72531   2.73246   2.74555   2.76041
 Alpha virt. eigenvalues --    2.76990   2.78454   2.80135   2.80439   2.80921
 Alpha virt. eigenvalues --    2.81671   2.82922   2.83915   2.84548   2.85244
 Alpha virt. eigenvalues --    2.86610   2.87101   2.87896   2.88586   2.90429
 Alpha virt. eigenvalues --    2.91285   2.92278   2.93591   2.94478   2.94759
 Alpha virt. eigenvalues --    2.95261   2.96248   2.97369   2.98440   2.99269
 Alpha virt. eigenvalues --    3.01874   3.03244   3.03997   3.05595   3.06495
 Alpha virt. eigenvalues --    3.07492   3.09046   3.10806   3.12585   3.15472
 Alpha virt. eigenvalues --    3.17711   3.18327   3.22861   3.28048   3.29215
 Alpha virt. eigenvalues --    3.32599   3.38257   3.38985   3.39958   3.40686
 Alpha virt. eigenvalues --    3.43427   3.45210   3.46549   3.46732   3.48460
 Alpha virt. eigenvalues --    3.49779   3.51598   3.53528   3.53699   3.54747
 Alpha virt. eigenvalues --    3.55679   3.57904   3.60380   3.61582   3.64954
 Alpha virt. eigenvalues --    3.65596   3.71911   3.76081   4.30653   4.32943
 Alpha virt. eigenvalues --    4.35742   4.37368   4.41921   4.43602   4.45138
 Alpha virt. eigenvalues --    4.46088   4.50273   4.51240   4.53962   4.55568
 Alpha virt. eigenvalues --    4.58031   4.61015   4.63020   4.66718   4.73134
 Alpha virt. eigenvalues --    4.77001   4.81295   4.87885   4.89104   4.93654
 Alpha virt. eigenvalues --    4.96007
          Condensed to atoms (all electrons):
              1          2          3          4          5          6
     1  O    8.259487   0.239442  -0.086856  -0.021040   0.040718   0.109186
     2  C    0.239442  10.397021  -0.526118   0.030143  -0.133346  -3.731588
     3  C   -0.086856  -0.526118   8.254387   0.319570   0.036509   0.244906
     4  O   -0.021040   0.030143   0.319570   8.215711   0.189776  -0.204708
     5  H    0.040718  -0.133346   0.036509   0.189776   0.431699   0.036537
     6  C    0.109186  -3.731588   0.244906  -0.204708   0.036537  16.494677
     7  O   -0.002242   0.076862  -0.191321   0.018437  -0.001373   0.210309
     8  H    0.000028  -0.010684   0.015967  -0.000771   0.000005   0.110769
     9  C   -0.050666  -0.130267  -0.280491   0.007134  -0.004318   0.248994
    10  O   -0.011193  -0.032506   0.005882  -0.000063   0.000042  -0.001344
    11  H    0.000536   0.000560  -0.001007  -0.000001   0.000000  -0.000754
    12  C   -0.165361  -2.403573  -1.096850  -0.007854   0.038954   0.968438
    13  O    0.001954   0.063798  -0.003936   0.001366  -0.000175  -0.255905
    14  C    0.019919   1.683415  -0.454072  -0.019723   0.014416  -6.161673
    15  O    0.000399  -0.051553  -0.013641  -0.000346   0.000061   0.359516
    16  C   -0.000390   0.068956  -0.029054   0.000907   0.000580  -1.280211
    17  C   -0.000646  -0.005412  -0.012509   0.000628   0.000108   0.164042
    18  O   -0.000020   0.008918   0.001477  -0.000019   0.000000  -0.020745
    19  H    0.000003  -0.004923   0.001697   0.000003   0.000000   0.006617
    20  C   -0.000038   0.008014  -0.016764   0.000108   0.000003  -0.163705
    21  O    0.000000  -0.000013  -0.000107   0.000000   0.000000  -0.000388
    22  H    0.000000   0.000000  -0.000001   0.000000   0.000000  -0.000024
    23  C   -0.000098   0.021241   0.001931   0.000068  -0.000063  -0.415548
    24  O    0.000007   0.008874   0.009275  -0.000164  -0.000002  -0.056943
    25  H    0.000000  -0.000394   0.000694   0.000005   0.000000  -0.003713
    26  C    0.000150  -0.068975  -0.092620   0.000252   0.000084  -0.134563
    27  O    0.000000  -0.000138   0.000363   0.000000   0.000000   0.003309
    28  C    0.000008  -0.002000   0.000812   0.000005   0.000001   0.070710
    29  O    0.000000   0.000016   0.000019   0.000000   0.000000   0.000152
    30  H    0.000000   0.000000   0.000000   0.000000   0.000000   0.000001
    31  H    0.000000   0.000003   0.000222   0.000000   0.000000  -0.000234
    32  H    0.000000  -0.000017  -0.000023   0.000003   0.000000   0.004284
    33  H    0.000000   0.000256   0.000051   0.000000   0.000000   0.005691
    34  H   -0.000003  -0.000015  -0.002457   0.000007   0.000000   0.007727
    35  H    0.000000   0.000554  -0.000560   0.000000   0.000000  -0.007051
    36  H    0.000000   0.000045  -0.000027   0.000000   0.000000  -0.000449
    37  H    0.000000   0.000005  -0.000004   0.000000   0.000000   0.000296
    38  H    0.239609   0.063081  -0.046446   0.003531  -0.004122   0.002171
    39  H    0.000313   0.005735  -0.013173   0.000029   0.000000  -0.004526
    40  H    0.002017  -0.034685   0.006014   0.000018   0.000000   0.017512
    41  H    0.006295   0.005745  -0.004571   0.000249  -0.000010  -0.064174
    42  H   -0.042390   0.417073  -0.073023   0.000806   0.000119  -0.052513
    43  H   -0.007441   0.107883   0.302542  -0.054108  -0.000004  -0.443086
    44  H   -0.001327   0.112352  -0.179821   0.006209  -0.000073   0.079752
    45  H   -0.000313   0.018064  -0.015530  -0.000073  -0.000003  -0.209845
              7          8          9         10         11         12
     1  O   -0.002242   0.000028  -0.050666  -0.011193   0.000536  -0.165361
     2  C    0.076862  -0.010684  -0.130267  -0.032506   0.000560  -2.403573
     3  C   -0.191321   0.015967  -0.280491   0.005882  -0.001007  -1.096850
     4  O    0.018437  -0.000771   0.007134  -0.000063  -0.000001  -0.007854
     5  H   -0.001373   0.000005  -0.004318   0.000042   0.000000   0.038954
     6  C    0.210309   0.110769   0.248994  -0.001344  -0.000754   0.968438
     7  O    8.242242   0.194219   0.001264   0.000017   0.000000   0.025934
     8  H    0.194219   0.356756   0.000841   0.000000   0.000000   0.005181
     9  C    0.001264   0.000841   7.563415   0.134431  -0.036610  -1.910355
    10  O    0.000017   0.000000   0.134431   8.341213   0.199144   0.010390
    11  H    0.000000   0.000000  -0.036610   0.199144   0.440133   0.059555
    12  C    0.025934   0.005181  -1.910355   0.010390   0.059555  12.272118
    13  O    0.011363   0.000938  -0.000282  -0.004786  -0.000356  -0.155409
    14  C    0.002589  -0.112874  -0.620378   0.017029  -0.005568  -1.790454
    15  O   -0.011511   0.019689  -0.006802   0.000116   0.000012   0.079140
    16  C   -0.025753   0.000256   0.004292  -0.003100   0.000127  -0.166779
    17  C    0.007929   0.004600  -0.039007  -0.000059  -0.000064  -0.015656
    18  O   -0.000081  -0.000029   0.009351   0.000056   0.000035  -0.030188
    19  H   -0.000047  -0.000012  -0.011364  -0.000005  -0.000004   0.024473
    20  C    0.003237   0.000008   0.021858  -0.000059   0.000019   0.042652
    21  O   -0.000001   0.000000   0.000020   0.000000   0.000000   0.000035
    22  H    0.000000   0.000000   0.000004   0.000000   0.000000   0.000021
    23  C   -0.011548   0.012021   0.008775  -0.000011  -0.000001  -0.000183
    24  O   -0.020073  -0.014561  -0.000422  -0.000001   0.000000  -0.014143
    25  H    0.002767  -0.002519  -0.000014   0.000000   0.000000  -0.000386
    26  C    0.016492  -0.026879   0.018082  -0.000167   0.000012   0.170284
    27  O    0.000018   0.000043   0.000047   0.000000   0.000000   0.001094
    28  C   -0.000291   0.000312  -0.004443  -0.000012  -0.000001  -0.012296
    29  O   -0.000004   0.000000   0.000000   0.000000   0.000000   0.000101
    30  H    0.000000   0.000000   0.000000   0.000000   0.000000  -0.000001
    31  H   -0.000803   0.000339  -0.000006   0.000000   0.000000  -0.000177
    32  H    0.000937   0.000764   0.000004   0.000000   0.000000   0.001319
    33  H    0.000071  -0.000013  -0.000016   0.000000   0.000000   0.000823
    34  H    0.000031  -0.000004  -0.000298   0.000004   0.000000   0.019635
    35  H   -0.000014   0.000004  -0.000447   0.000000   0.000000   0.004709
    36  H    0.000000   0.000000  -0.000147   0.000000   0.000000   0.000969
    37  H    0.000001   0.000000  -0.000013   0.000000   0.000000   0.000018
    38  H    0.000023   0.000000   0.004138  -0.000107  -0.000001  -0.006599
    39  H   -0.000007   0.000000   0.480679  -0.055451  -0.008285  -0.098747
    40  H   -0.000009   0.000000   0.625124  -0.062556  -0.005482  -0.266548
    41  H    0.000132   0.000011   0.009052   0.004233  -0.000117   0.174184
    42  H    0.000264   0.000002   0.002844  -0.000379   0.000003  -0.116479
    43  H    0.010711  -0.000229   0.031967  -0.000065   0.000000   0.004634
    44  H   -0.032668  -0.006197   0.016909   0.000021   0.000000   0.022363
    45  H    0.010246  -0.001414   0.008846   0.000133   0.000001   0.031420
             13         14         15         16         17         18
     1  O    0.001954   0.019919   0.000399  -0.000390  -0.000646  -0.000020
     2  C    0.063798   1.683415  -0.051553   0.068956  -0.005412   0.008918
     3  C   -0.003936  -0.454072  -0.013641  -0.029054  -0.012509   0.001477
     4  O    0.001366  -0.019723  -0.000346   0.000907   0.000628  -0.000019
     5  H   -0.000175   0.014416   0.000061   0.000580   0.000108   0.000000
     6  C   -0.255905  -6.161673   0.359516  -1.280211   0.164042  -0.020745
     7  O    0.011363   0.002589  -0.011511  -0.025753   0.007929  -0.000081
     8  H    0.000938  -0.112874   0.019689   0.000256   0.004600  -0.000029
     9  C   -0.000282  -0.620378  -0.006802   0.004292  -0.039007   0.009351
    10  O   -0.004786   0.017029   0.000116  -0.003100  -0.000059   0.000056
    11  H   -0.000356  -0.005568   0.000012   0.000127  -0.000064   0.000035
    12  C   -0.155409  -1.790454   0.079140  -0.166779  -0.015656  -0.030188
    13  O    8.509166   0.371823  -0.084967   0.018827  -0.055724   0.045405
    14  C    0.371823  12.766095   0.009657  -0.528722   0.328103  -0.047501
    15  O   -0.084967   0.009657   8.409115  -0.195929   0.056100   0.002722
    16  C    0.018827  -0.528722  -0.195929  11.271974  -1.618795  -0.203475
    17  C   -0.055724   0.328103   0.056100  -1.618795  10.538519   0.500913
    18  O    0.045405  -0.047501   0.002722  -0.203475   0.500913   8.263420
    19  H   -0.006444  -0.023737   0.034002  -0.049472  -0.020198   0.177886
    20  C    0.000040  -0.471595   0.019621  -0.358181  -3.290174  -0.150448
    21  O   -0.000039  -0.002712  -0.000541   0.054234  -0.030612   0.007147
    22  H   -0.000002  -0.000143   0.000079  -0.017432   0.004525  -0.000481
    23  C    0.036314   0.332616  -0.142401   0.059785  -0.744349   0.013655
    24  O   -0.002913   0.063426  -0.029758  -0.021152  -0.020952   0.000121
    25  H   -0.000001  -0.007699   0.001322   0.008632  -0.001467  -0.000002
    26  C   -0.004461  -0.481068   0.010524  -1.912954  -1.387107   0.066067
    27  O    0.000150   0.010423   0.005414  -0.128016  -0.016327  -0.002088
    28  C   -0.004491  -0.094815   0.044304   0.414678   1.503601  -0.017709
    29  O    0.000027   0.005590  -0.000023   0.021283   0.014591   0.000103
    30  H    0.000000   0.000072  -0.000007  -0.005178  -0.001169  -0.000009
    31  H   -0.000021  -0.000105   0.000052   0.008626  -0.011710   0.000057
    32  H    0.000295   0.010322   0.003275  -0.010339   0.023064   0.000000
    33  H   -0.000346   0.051306   0.004861  -0.072419   0.100943  -0.000487
    34  H    0.002927   0.031389  -0.059248   0.260918   0.042255  -0.002209
    35  H    0.004951   0.044796  -0.019185  -0.059149   0.400041  -0.063552
    36  H    0.000324   0.002836  -0.000951   0.064411  -0.106848  -0.000785
    37  H    0.000007   0.006097  -0.000016   0.089806   0.044496  -0.001128
    38  H   -0.000342  -0.003583  -0.000006   0.000136  -0.000055   0.000001
    39  H    0.005785  -0.000436   0.000181   0.011917   0.000545  -0.002113
    40  H    0.002647   0.007694  -0.000376  -0.003909  -0.000519   0.000579
    41  H   -0.049878   0.134815  -0.001356   0.007788   0.002756   0.000736
    42  H    0.010900   0.081649  -0.000557   0.001022   0.001219   0.000086
    43  H    0.010602   0.207495  -0.001436   0.013853   0.002318   0.000105
    44  H    0.017533   0.152315  -0.010717   0.018288   0.003615   0.000187
    45  H   -0.064511   0.386330  -0.065147   0.048382   0.028060   0.000502
             19         20         21         22         23         24
     1  O    0.000003  -0.000038   0.000000   0.000000  -0.000098   0.000007
     2  C   -0.004923   0.008014  -0.000013   0.000000   0.021241   0.008874
     3  C    0.001697  -0.016764  -0.000107  -0.000001   0.001931   0.009275
     4  O    0.000003   0.000108   0.000000   0.000000   0.000068  -0.000164
     5  H    0.000000   0.000003   0.000000   0.000000  -0.000063  -0.000002
     6  C    0.006617  -0.163705  -0.000388  -0.000024  -0.415548  -0.056943
     7  O   -0.000047   0.003237  -0.000001   0.000000  -0.011548  -0.020073
     8  H   -0.000012   0.000008   0.000000   0.000000   0.012021  -0.014561
     9  C   -0.011364   0.021858   0.000020   0.000004   0.008775  -0.000422
    10  O   -0.000005  -0.000059   0.000000   0.000000  -0.000011  -0.000001
    11  H   -0.000004   0.000019   0.000000   0.000000  -0.000001   0.000000
    12  C    0.024473   0.042652   0.000035   0.000021  -0.000183  -0.014143
    13  O   -0.006444   0.000040  -0.000039  -0.000002   0.036314  -0.002913
    14  C   -0.023737  -0.471595  -0.002712  -0.000143   0.332616   0.063426
    15  O    0.034002   0.019621  -0.000541   0.000079  -0.142401  -0.029758
    16  C   -0.049472  -0.358181   0.054234  -0.017432   0.059785  -0.021152
    17  C   -0.020198  -3.290174  -0.030612   0.004525  -0.744349  -0.020952
    18  O    0.177886  -0.150448   0.007147  -0.000481   0.013655   0.000121
    19  H    0.352891   0.062021  -0.000202   0.000012  -0.002202   0.000057
    20  C    0.062021   9.959840   0.120438   0.001608   0.425223   0.002678
    21  O   -0.000202   0.120438   8.241073   0.195638  -0.000924   0.000019
    22  H    0.000012   0.001608   0.195638   0.440960  -0.001586   0.000000
    23  C   -0.002202   0.425223  -0.000924  -0.001586   7.494486  -0.002715
    24  O    0.000057   0.002678   0.000019   0.000000  -0.002715   8.477133
    25  H    0.000000   0.001020   0.000000   0.000000  -0.007859   0.214599
    26  C    0.007257   1.544367  -0.000345  -0.010702  -1.186557   0.105998
    27  O    0.000142  -0.118853   0.004613   0.000485  -0.094273  -0.000799
    28  C   -0.001038  -2.086030  -0.050159   0.042920  -0.677790   0.004084
    29  O    0.000009  -0.163869  -0.008458   0.009593  -0.005213   0.000181
    30  H    0.000000  -0.001819  -0.000758  -0.000910   0.003947   0.000000
    31  H    0.000000   0.000341   0.000006   0.000000   0.575100  -0.057318
    32  H    0.000002  -0.008757  -0.000010   0.000000   0.507405  -0.083404
    33  H    0.000072  -0.083543  -0.001046   0.000028  -0.025034   0.001997
    34  H   -0.000357   0.008279  -0.000640   0.000007   0.005113  -0.000426
    35  H   -0.006435  -0.057725  -0.006473  -0.000063   0.058007  -0.000249
    36  H   -0.000045   0.418805  -0.040410  -0.009819   0.013904  -0.000010
    37  H    0.000008  -0.158711  -0.001172  -0.001314  -0.007949  -0.000051
    38  H    0.000000   0.000001   0.000000   0.000000   0.000004   0.000000
    39  H    0.000399  -0.000890  -0.000001   0.000000  -0.000025   0.000000
    40  H   -0.000353   0.000433   0.000001   0.000000   0.000088   0.000000
    41  H    0.000484   0.001838   0.000001   0.000000   0.001530   0.000017
    42  H    0.000000   0.000155   0.000000   0.000000   0.000298   0.000008
    43  H    0.000003   0.000501   0.000000   0.000000   0.001596   0.000127
    44  H   -0.000016   0.001437   0.000000   0.000000   0.007298   0.000913
    45  H    0.000303   0.013503   0.000000   0.000000   0.004314   0.000954
             25         26         27         28         29         30
     1  O    0.000000   0.000150   0.000000   0.000008   0.000000   0.000000
     2  C   -0.000394  -0.068975  -0.000138  -0.002000   0.000016   0.000000
     3  C    0.000694  -0.092620   0.000363   0.000812   0.000019   0.000000
     4  O    0.000005   0.000252   0.000000   0.000005   0.000000   0.000000
     5  H    0.000000   0.000084   0.000000   0.000001   0.000000   0.000000
     6  C   -0.003713  -0.134563   0.003309   0.070710   0.000152   0.000001
     7  O    0.002767   0.016492   0.000018  -0.000291  -0.000004   0.000000
     8  H   -0.002519  -0.026879   0.000043   0.000312   0.000000   0.000000
     9  C   -0.000014   0.018082   0.000047  -0.004443   0.000000   0.000000
    10  O    0.000000  -0.000167   0.000000  -0.000012   0.000000   0.000000
    11  H    0.000000   0.000012   0.000000  -0.000001   0.000000   0.000000
    12  C   -0.000386   0.170284   0.001094  -0.012296   0.000101  -0.000001
    13  O   -0.000001  -0.004461   0.000150  -0.004491   0.000027   0.000000
    14  C   -0.007699  -0.481068   0.010423  -0.094815   0.005590   0.000072
    15  O    0.001322   0.010524   0.005414   0.044304  -0.000023  -0.000007
    16  C    0.008632  -1.912954  -0.128016   0.414678   0.021283  -0.005178
    17  C   -0.001467  -1.387107  -0.016327   1.503601   0.014591  -0.001169
    18  O   -0.000002   0.066067  -0.002088  -0.017709   0.000103  -0.000009
    19  H    0.000000   0.007257   0.000142  -0.001038   0.000009   0.000000
    20  C    0.001020   1.544367  -0.118853  -2.086030  -0.163869  -0.001819
    21  O    0.000000  -0.000345   0.004613  -0.050159  -0.008458  -0.000758
    22  H    0.000000  -0.010702   0.000485   0.042920   0.009593  -0.000910
    23  C   -0.007859  -1.186557  -0.094273  -0.677790  -0.005213   0.003947
    24  O    0.214599   0.105998  -0.000799   0.004084   0.000181   0.000000
    25  H    0.413781   0.025980  -0.000263  -0.003019   0.000003   0.000000
    26  C    0.025980  10.811262   0.361494  -1.579183  -0.155289   0.019580
    27  O   -0.000263   0.361494   8.389798   0.074898  -0.115472  -0.000626
    28  C   -0.003019  -1.579183   0.074898   7.527969   0.557401  -0.008295
    29  O    0.000003  -0.155289  -0.115472   0.557401   8.191553   0.235509
    30  H    0.000000   0.019580  -0.000626  -0.008295   0.235509   0.410832
    31  H   -0.008048  -0.176122  -0.000191  -0.006228  -0.000074  -0.000004
    32  H   -0.005489  -0.189836   0.006612   0.015485  -0.000120   0.000000
    33  H   -0.000137   0.222868  -0.043373   0.061069   0.000404   0.000019
    34  H   -0.000005  -0.066696   0.003107  -0.003945  -0.000271   0.000001
    35  H    0.000000   0.008388   0.000773  -0.093850  -0.000097   0.000013
    36  H    0.000000   0.013575   0.001875  -0.111702  -0.005674   0.000222
    37  H    0.000000  -0.117120  -0.053641   0.476609  -0.052399  -0.007899
    38  H    0.000000  -0.000015   0.000000   0.000000   0.000000   0.000000
    39  H    0.000000   0.000152   0.000001   0.000245   0.000000   0.000000
    40  H    0.000000   0.000107   0.000000  -0.000067   0.000000   0.000000
    41  H    0.000000  -0.002849  -0.000003  -0.000172   0.000000   0.000000
    42  H    0.000000  -0.000153   0.000000  -0.000018   0.000000   0.000000
    43  H    0.000000  -0.000211   0.000001  -0.000077   0.000000   0.000000
    44  H   -0.000021  -0.002988   0.000003  -0.000309   0.000000   0.000000
    45  H    0.000013  -0.002008   0.000228  -0.001500  -0.000006   0.000000
             31         32         33         34         35         36
     1  O    0.000000   0.000000   0.000000  -0.000003   0.000000   0.000000
     2  C    0.000003  -0.000017   0.000256  -0.000015   0.000554   0.000045
     3  C    0.000222  -0.000023   0.000051  -0.002457  -0.000560  -0.000027
     4  O    0.000000   0.000003   0.000000   0.000007   0.000000   0.000000
     5  H    0.000000   0.000000   0.000000   0.000000   0.000000   0.000000
     6  C   -0.000234   0.004284   0.005691   0.007727  -0.007051  -0.000449
     7  O   -0.000803   0.000937   0.000071   0.000031  -0.000014   0.000000
     8  H    0.000339   0.000764  -0.000013  -0.000004   0.000004   0.000000
     9  C   -0.000006   0.000004  -0.000016  -0.000298  -0.000447  -0.000147
    10  O    0.000000   0.000000   0.000000   0.000004   0.000000   0.000000
    11  H    0.000000   0.000000   0.000000   0.000000   0.000000   0.000000
    12  C   -0.000177   0.001319   0.000823   0.019635   0.004709   0.000969
    13  O   -0.000021   0.000295  -0.000346   0.002927   0.004951   0.000324
    14  C   -0.000105   0.010322   0.051306   0.031389   0.044796   0.002836
    15  O    0.000052   0.003275   0.004861  -0.059248  -0.019185  -0.000951
    16  C    0.008626  -0.010339  -0.072419   0.260918  -0.059149   0.064411
    17  C   -0.011710   0.023064   0.100943   0.042255   0.400041  -0.106848
    18  O    0.000057   0.000000  -0.000487  -0.002209  -0.063552  -0.000785
    19  H    0.000000   0.000002   0.000072  -0.000357  -0.006435  -0.000045
    20  C    0.000341  -0.008757  -0.083543   0.008279  -0.057725   0.418805
    21  O    0.000006  -0.000010  -0.001046  -0.000640  -0.006473  -0.040410
    22  H    0.000000   0.000000   0.000028   0.000007  -0.000063  -0.009819
    23  C    0.575100   0.507405  -0.025034   0.005113   0.058007   0.013904
    24  O   -0.057318  -0.083404   0.001997  -0.000426  -0.000249  -0.000010
    25  H   -0.008048  -0.005489  -0.000137  -0.000005   0.000000   0.000000
    26  C   -0.176122  -0.189836   0.222868  -0.066696   0.008388   0.013575
    27  O   -0.000191   0.006612  -0.043373   0.003107   0.000773   0.001875
    28  C   -0.006228   0.015485   0.061069  -0.003945  -0.093850  -0.111702
    29  O   -0.000074  -0.000120   0.000404  -0.000271  -0.000097  -0.005674
    30  H   -0.000004   0.000000   0.000019   0.000001   0.000013   0.000222
    31  H    0.593845  -0.046395  -0.010025  -0.000013   0.000010   0.000002
    32  H   -0.046395   0.614728   0.007733   0.003576  -0.000006  -0.000001
    33  H   -0.010025   0.007733   0.627723   0.005455   0.004820   0.000130
    34  H   -0.000013   0.003576   0.005455   0.583352   0.006149   0.001452
    35  H    0.000010  -0.000006   0.004820   0.006149   0.631276   0.007682
    36  H    0.000002  -0.000001   0.000130   0.001452   0.007682   0.587738
    37  H   -0.000010  -0.000009   0.008793  -0.000007   0.002620   0.005712
    38  H    0.000000   0.000000   0.000000   0.000000   0.000000   0.000000
    39  H    0.000000   0.000000   0.000000  -0.000001  -0.000001   0.000000
    40  H    0.000000   0.000000   0.000000   0.000000   0.000001   0.000000
    41  H    0.000000   0.000000   0.000000  -0.000113  -0.000002   0.000000
    42  H    0.000000   0.000000   0.000000   0.000000   0.000000   0.000000
    43  H    0.000000   0.000000   0.000000  -0.000005   0.000000   0.000000
    44  H    0.000000  -0.000004  -0.000002   0.000004  -0.000003   0.000000
    45  H    0.000003   0.000054  -0.000016   0.011340  -0.000037  -0.000007
             37         38         39         40         41         42
     1  O    0.000000   0.239609   0.000313   0.002017   0.006295  -0.042390
     2  C    0.000005   0.063081   0.005735  -0.034685   0.005745   0.417073
     3  C   -0.000004  -0.046446  -0.013173   0.006014  -0.004571  -0.073023
     4  O    0.000000   0.003531   0.000029   0.000018   0.000249   0.000806
     5  H    0.000000  -0.004122   0.000000   0.000000  -0.000010   0.000119
     6  C    0.000296   0.002171  -0.004526   0.017512  -0.064174  -0.052513
     7  O    0.000001   0.000023  -0.000007  -0.000009   0.000132   0.000264
     8  H    0.000000   0.000000   0.000000   0.000000   0.000011   0.000002
     9  C   -0.000013   0.004138   0.480679   0.625124   0.009052   0.002844
    10  O    0.000000  -0.000107  -0.055451  -0.062556   0.004233  -0.000379
    11  H    0.000000  -0.000001  -0.008285  -0.005482  -0.000117   0.000003
    12  C    0.000018  -0.006599  -0.098747  -0.266548   0.174184  -0.116479
    13  O    0.000007  -0.000342   0.005785   0.002647  -0.049878   0.010900
    14  C    0.006097  -0.003583  -0.000436   0.007694   0.134815   0.081649
    15  O   -0.000016  -0.000006   0.000181  -0.000376  -0.001356  -0.000557
    16  C    0.089806   0.000136   0.011917  -0.003909   0.007788   0.001022
    17  C    0.044496  -0.000055   0.000545  -0.000519   0.002756   0.001219
    18  O   -0.001128   0.000001  -0.002113   0.000579   0.000736   0.000086
    19  H    0.000008   0.000000   0.000399  -0.000353   0.000484   0.000000
    20  C   -0.158711   0.000001  -0.000890   0.000433   0.001838   0.000155
    21  O   -0.001172   0.000000  -0.000001   0.000001   0.000001   0.000000
    22  H   -0.001314   0.000000   0.000000   0.000000   0.000000   0.000000
    23  C   -0.007949   0.000004  -0.000025   0.000088   0.001530   0.000298
    24  O   -0.000051   0.000000   0.000000   0.000000   0.000017   0.000008
    25  H    0.000000   0.000000   0.000000   0.000000   0.000000   0.000000
    26  C   -0.117120  -0.000015   0.000152   0.000107  -0.002849  -0.000153
    27  O   -0.053641   0.000000   0.000001   0.000000  -0.000003   0.000000
    28  C    0.476609   0.000000   0.000245  -0.000067  -0.000172  -0.000018
    29  O   -0.052399   0.000000   0.000000   0.000000   0.000000   0.000000
    30  H   -0.007899   0.000000   0.000000   0.000000   0.000000   0.000000
    31  H   -0.000010   0.000000   0.000000   0.000000   0.000000   0.000000
    32  H   -0.000009   0.000000   0.000000   0.000000   0.000000   0.000000
    33  H    0.008793   0.000000   0.000000   0.000000   0.000000   0.000000
    34  H   -0.000007   0.000000  -0.000001   0.000000  -0.000113   0.000000
    35  H    0.002620   0.000000  -0.000001   0.000001  -0.000002   0.000000
    36  H    0.005712   0.000000   0.000000   0.000000   0.000000   0.000000
    37  H    0.627265   0.000000   0.000000   0.000000   0.000000   0.000000
    38  H    0.000000   0.389104  -0.000011  -0.000059  -0.000197  -0.012592
    39  H    0.000000  -0.000011   0.591112  -0.049843  -0.012941  -0.000077
    40  H    0.000000  -0.000059  -0.049843   0.615794   0.007871   0.003209
    41  H    0.000000  -0.000197  -0.012941   0.007871   0.625379   0.006827
    42  H    0.000000  -0.012592  -0.000077   0.003209   0.006827   0.622704
    43  H    0.000000   0.000046  -0.000001  -0.000001   0.006673   0.007882
    44  H    0.000000   0.000029   0.000002  -0.000017   0.000131   0.004909
    45  H    0.000000   0.000005   0.000103  -0.000040   0.008912   0.000172
             43         44         45
     1  O   -0.007441  -0.001327  -0.000313
     2  C    0.107883   0.112352   0.018064
     3  C    0.302542  -0.179821  -0.015530
     4  O   -0.054108   0.006209  -0.000073
     5  H   -0.000004  -0.000073  -0.000003
     6  C   -0.443086   0.079752  -0.209845
     7  O    0.010711  -0.032668   0.010246
     8  H   -0.000229  -0.006197  -0.001414
     9  C    0.031967   0.016909   0.008846
    10  O   -0.000065   0.000021   0.000133
    11  H    0.000000   0.000000   0.000001
    12  C    0.004634   0.022363   0.031420
    13  O    0.010602   0.017533  -0.064511
    14  C    0.207495   0.152315   0.386330
    15  O   -0.001436  -0.010717  -0.065147
    16  C    0.013853   0.018288   0.048382
    17  C    0.002318   0.003615   0.028060
    18  O    0.000105   0.000187   0.000502
    19  H    0.000003  -0.000016   0.000303
    20  C    0.000501   0.001437   0.013503
    21  O    0.000000   0.000000   0.000000
    22  H    0.000000   0.000000   0.000000
    23  C    0.001596   0.007298   0.004314
    24  O    0.000127   0.000913   0.000954
    25  H    0.000000  -0.000021   0.000013
    26  C   -0.000211  -0.002988  -0.002008
    27  O    0.000001   0.000003   0.000228
    28  C   -0.000077  -0.000309  -0.001500
    29  O    0.000000   0.000000  -0.000006
    30  H    0.000000   0.000000   0.000000
    31  H    0.000000   0.000000   0.000003
    32  H    0.000000  -0.000004   0.000054
    33  H    0.000000  -0.000002  -0.000016
    34  H   -0.000005   0.000004   0.011340
    35  H    0.000000  -0.000003  -0.000037
    36  H    0.000000   0.000000  -0.000007
    37  H    0.000000   0.000000   0.000000
    38  H    0.000046   0.000029   0.000005
    39  H   -0.000001   0.000002   0.000103
    40  H   -0.000001  -0.000017  -0.000040
    41  H    0.006673   0.000131   0.008912
    42  H    0.007882   0.004909   0.000172
    43  H    0.657806   0.008507   0.007472
    44  H    0.008507   0.636210   0.007083
    45  H    0.007472   0.007083   0.663543
 Mulliken atomic charges:
              1
     1  O   -0.530044
     2  C   -0.201849
     3  C   -0.061334
     4  O   -0.486095
     5  H    0.353877
     6  C    0.068095
     7  O   -0.538350
     8  H    0.453432
     9  C   -0.101727
    10  O   -0.540846
    11  H    0.358112
    12  C    0.299596
    13  O   -0.422152
    14  C    0.084642
    15  O   -0.363693
    16  C    0.240730
    17  C   -0.393611
    18  O   -0.556462
    19  H    0.458511
    20  C    0.473110
    21  O   -0.478216
    22  H    0.346598
    23  C   -0.258389
    24  O   -0.564411
    25  H    0.372218
    26  C    0.195892
    27  O   -0.290826
    28  C   -0.035669
    29  O   -0.529568
    30  H    0.356479
    31  H    0.138877
    32  H    0.144546
    33  H    0.131344
    34  H    0.143982
    35  H    0.140102
    36  H    0.157193
    37  H    0.139711
    38  H    0.372257
    39  H    0.149332
    40  H    0.135356
    41  H    0.130726
    42  H    0.136027
    43  H    0.123943
    44  H    0.138090
    45  H    0.110463
 Sum of Mulliken atomic charges =   0.00000
 Mulliken charges with hydrogens summed into heavy atoms:
              1
     1  O   -0.157787
     2  C   -0.065822
     3  C    0.062609
     4  O   -0.132218
     6  C    0.206184
     7  O   -0.084918
     9  C    0.182960
    10  O   -0.182734
    12  C    0.430322
    13  O   -0.422152
    14  C    0.195105
    15  O   -0.363693
    16  C    0.384712
    17  C   -0.253509
    18  O   -0.097951
    20  C    0.630304
    21  O   -0.131618
    23  C    0.025035
    24  O   -0.192193
    26  C    0.327236
    27  O   -0.290826
    28  C    0.104042
    29  O   -0.173089
 Sum of Mulliken charges with hydrogens summed into heavy atoms =   0.00000
 APT atomic charges:
              1
     1  O   -0.633991
     2  C    0.401058
     3  C    0.417146
     4  O   -0.620938
     5  H    0.276005
     6  C    0.351177
     7  O   -0.741848
     8  H    0.493127
     9  C    0.474834
    10  O   -0.631372
    11  H    0.256352
    12  C    0.426277
    13  O   -0.838153
    14  C    0.901434
    15  O   -0.865930
    16  C    0.407786
    17  C    0.395513
    18  O   -0.770543
    19  H    0.479267
    20  C    0.372678
    21  O   -0.592556
    22  H    0.249602
    23  C    0.418700
    24  O   -0.663601
    25  H    0.266967
    26  C    0.430939
    27  O   -0.719817
    28  C    0.876603
    29  O   -0.657656
    30  H    0.257122
    31  H   -0.054996
    32  H   -0.039772
    33  H   -0.044240
    34  H   -0.025442
    35  H   -0.045703
    36  H   -0.036883
    37  H   -0.071132
    38  H    0.266463
    39  H   -0.044996
    40  H   -0.050750
    41  H   -0.047537
    42  H   -0.051574
    43  H   -0.061419
    44  H   -0.054967
    45  H   -0.053239
 Sum of APT charges=   0.00000
 APT Atomic charges with hydrogens summed into heavy atoms:
              1
     1  O   -0.367527
     2  C    0.349485
     3  C    0.355728
[...]
 ,-0.00004716,0.00001706,-0.01294552,0.00256386,0.00307283,0.00249191,0
 .00050143,-0.00037869,-0.00011091,-0.00009909,0.00004598,0.00010866,-0
 .00000963,0.00014717,-0.00002039,0.00001941,-0.00002181,-0.00001529,0.
 00002641,0.00001560,0.00003600,-0.00002336,-0.00004105,-0.00001298,0.0
 0002744,0.00002050,-0.00001153,0.00000206,-0.00000659,0.00001197,-0.00
 001025,0.00000670,-0.00000182,0.00000080,-0.00000146,-0.00001971,-0.00
 000598,0.00000936,0.00001878,0.00000793,0.00000602,-0.00001035,-0.0000
 0157,-0.00000254,-0.00001143,-0.00001228,-0.00000468,0.00001381,-0.000
 00496,0.00001080,-0.00001159,0.00001200,-0.00000787,0.00000411,-0.0000
 0322,0.00000181,-0.00000119,0.00000072,-0.00000078,0.00000160,0.000001
 38,0.00000075,0.00000802,-0.00000156,-0.00000236,0.00000602,-0.0000003
 2,0.00000694,0.00001122,-0.00000398,-0.00000288,0.00000485,0.00000043,
 0.00000702,0.00000388,0.00000150,-0.00000217,0.00000335,0.00000008,0.0
 0000215,0.00117087,-0.00018210,-0.00039210,0.00023167,-0.00007056,-0.0
 0001884,0.00025953,-0.00077789,0.00015476,0.00006903,-0.00106899,0.001
 33347,0.37020596,-0.01169197,0.00230492,-0.00412926,0.04830036,-0.0524
 2957,-0.00462020,0.03665088,-0.00746928,-0.00933703,-0.00234693,0.0026
 1267,0.00041021,0.00039139,-0.00002498,0.00051119,0.00207141,0.0006246
 2,0.00118393,-0.00076097,0.00003462,0.00019915,-0.00008906,0.00007614,
 0.00003538,-0.00048645,0.00131658,-0.00067625,0.00015309,-0.00011556,-
 0.00003015,-0.00004679,-0.00004413,-0.00001299,-0.02339835,0.00362289,
 0.00602069,0.00105788,0.00072323,-0.00222275,0.00001340,-0.00017425,-0
 .00011431,0.00000243,0.00004428,-0.00002789,-0.00003833,0.00001607,0.0
 0000239,0.00001485,0.00002079,0.00000542,0.00002601,0.00001172,-0.0000
 8606,0.00000310,-0.00003699,0.00009983,-0.00000841,-0.00000421,-0.0000
 0310,0.00000294,0.00000132,-0.00000158,-0.00000110,-0.00000032,-0.0000
 0019,0.00000832,-0.00000105,0.00000243,-0.00000861,-0.00000916,-0.0000
 2127,0.00000901,0.00000334,0.00000274,0.00000658,-0.00000581,0.0000067
 2,-0.00000184,0.00000168,-0.00000370,0.00000135,0.00000101,0.00000525,
 0.00000169,-0.00000075,-0.00000534,0.00000028,0.00000013,0.00000102,-0
 .00000140,-0.00000034,-0.00000235,-0.00000421,0.00000014,0.00000303,-0
 .00000029,0.00000300,-0.00000047,0.00000373,-0.00000930,0.00000186,0.0
 0000020,-0.00000012,-0.00000092,0.00000064,0.00000053,-0.00000001,-0.0
 0000061,0.00000020,-0.00000031,-0.00055182,0.00151094,0.00059073,0.000
 36002,0.00013987,-0.00002990,0.00052032,-0.00018491,-0.00001157,-0.001
 26847,-0.00200950,0.00329222,-0.04853963,0.05575343,-0.04179298,-0.000
 21742,-0.01426868,0.05145043,-0.00503107,-0.04957594,0.00879895,-0.001
 13264,-0.00100419,-0.00054285,-0.00059339,0.00136362,-0.00045244,-0.00
 054717,-0.00018138,0.00138323,-0.00090977,0.00007894,-0.00040640,0.000
 15876,-0.00007815,0.00006316,0.00001903,-0.00000291,-0.00043393,-0.000
 93120,0.00067024,-0.00002586,0.00017412,0.00013732,0.00002903,-0.00002
 132,0.00007136,0.02717371,-0.00374281,-0.00512153,-0.00096397,-0.00033
 376,0.00231472,0.00048336,-0.00027618,-0.00026697,-0.00008798,0.000051
 03,-0.00018008,0.00002200,-0.00004805,0.00002325,0.00001095,-0.0000073
 5,0.00001941,-0.00007141,-0.00000311,0.00002928,0.00005501,0.00002574,
 -0.00005829,0.00001014,-0.00001023,0.00001341,-0.00001364,0.00001439,-
 0.00001663,0.00000293,-0.00000181,0.00000306,0.00001505,0.00001002,-0.
 00000332,-0.00001914,-0.00001601,-0.00001092,0.00000687,0.00000531,0.0
 0000420,0.00001011,0.00001688,0.00001502,-0.00000835,0.00000457,-0.000
 02594,0.00000596,-0.00001057,0.00002549,0.00000431,0.00000119,-0.00001
 648,0.00000015,-0.00000035,0.00000318,-0.00000319,-0.00000426,-0.00000
 152,-0.00000500,0.00000280,0.00000356,-0.00000578,-0.00000087,-0.00000
 637,-0.00001221,0.00000570,0.00000777,-0.00000764,-0.00000524,-0.00001
 139,-0.00000355,-0.00000058,0.00000295,-0.00000231,-0.00000022,-0.0000
 0281,-0.00322576,0.00073571,0.00331446,-0.00025042,-0.00011582,0.00006
 347,-0.00040325,0.00045517,0.00001969,0.00127265,0.00259748,-0.0038767
 2,-0.04137259,0.01170955,0.06670853,0.00132802,0.00059539,0.00055244,-
 0.00867905,0.00294333,0.00111119,-0.33103633,0.02239086,0.06682179,0.0
 0208357,-0.00751915,0.01180166,-0.00091903,-0.00091773,-0.00020225,-0.
 02626787,0.00462067,-0.00058154,0.00298715,0.00018311,0.00106304,0.000
 24532,0.00006988,0.00007120,0.00076365,0.00005400,-0.00014591,0.000021
 25,-0.00009381,-0.00007879,-0.00001092,0.00001437,-0.00000811,-0.00055
 427,-0.00161565,0.00113716,0.00095783,0.00001079,-0.00009478,-0.001905
 94,-0.00146215,0.00223029,0.00091636,-0.00013872,-0.00009403,-0.000119
 41,0.00011374,-0.00011915,0.00001301,-0.00000033,-0.00006020,0.0000460
 2,-0.00001672,0.00003753,-0.00001807,0.00001340,-0.00000760,-0.0000213
 8,0.00002532,-0.00001567,0.00002128,-0.00001300,0.00001514,-0.00000418
 ,0.00000188,-0.00000474,-0.00008520,-0.00001709,0.00003633,0.00006043,
 0.00003151,0.00001218,-0.00003848,-0.00001576,-0.00000459,-0.00000272,
 -0.00001489,-0.00002366,0.00002371,-0.00000694,0.00002088,-0.00001181,
 0.00000848,-0.00002745,-0.00000143,0.00000023,0.00001785,-0.00000079,-
 0.00000013,-0.00000447,0.00001378,0.00000419,0.00000070,0.00003080,-0.
 00000487,-0.00002110,0.00001071,-0.00000473,0.00001789,0.00003740,0.00
 001036,-0.00004117,0.00001226,-0.00000290,0.00001405,0.00000597,0.0000
 0203,-0.00000270,0.00000516,-0.00000004,0.00000454,0.00022118,-0.00025
 300,-0.00016314,-0.00002833,0.00014326,-0.00002495,0.00003245,-0.00034
 948,0.00004133,0.00138325,0.00015664,-0.00100216,0.00070715,0.00080958
 ,0.00003903,0.35757384,-0.00196744,0.00231347,0.00135257,0.03577056,-0
 .01090693,-0.00719464,0.02068225,-0.03883137,-0.01251448,-0.02550272,-
 0.00840389,0.02610738,-0.00155104,-0.00073954,0.00026598,-0.01036668,0
 .00265690,-0.00052904,0.00024740,0.00099748,0.00112111,0.00002795,0.00
 004695,-0.00003567,-0.00007787,0.00000222,0.00001270,-0.00005982,0.000
 05689,0.00001847,0.00001584,0.00001440,0.00000890,0.00339430,0.0004411
 8,-0.00169779,-0.00054131,-0.00003904,0.00024857,0.00070144,-0.0005070
 1,0.00121469,0.00008813,-0.00010844,-0.00021045,-0.00001918,0.00000052
 ,0.00003822,0.00001020,-0.00000612,-0.00001562,-0.00002509,0.00000814,
 0.00000082,0.00001707,-0.00001223,-0.00000255,-0.00000370,-0.00000208,
 0.00000915,-0.00000058,0.00000131,-0.00001090,-0.00000162,0.00000199,0
 .00000036,-0.00000934,0.00002870,-0.00001750,0.00003815,-0.00001474,0.
 00010942,-0.00002787,-0.00000444,-0.00002353,-0.00000068,0.00004222,0.
 00001008,0.00000509,-0.00002004,-0.00001516,-0.00000124,0.00000760,0.0
 0000739,0.00000159,-0.00000211,-0.00000567,-0.00000001,0.00000025,0.00
 000057,-0.00000053,-0.00000785,0.00000785,0.00000732,0.00000215,-0.000
 00587,0.00000087,-0.00000706,0.00000082,0.00000092,0.00000940,-0.00000
 922,-0.00000244,-0.00000098,-0.00000029,0.00000006,0.00000026,-0.00000
 028,-0.00000027,-0.00000160,0.00000002,0.00007104,0.00026269,0.0004642
 0,-0.00007814,-0.00003128,-0.00000558,-0.00019817,0.00015585,0.0000107
 7,-0.00100497,-0.00063284,0.00089306,0.00099471,-0.00612814,-0.0018241
 5,-0.01999064,0.05927663,-0.00058844,0.00093752,0.00139849,0.01503237,
 -0.00514615,-0.00186864,0.06968565,-0.01321769,-0.05345658,0.02839327,
 0.01885227,-0.02547233,0.00195013,0.00086191,-0.00071323,-0.03286638,0
 .00197149,0.00098617,0.00167996,0.00143072,0.00208734,0.00004797,0.000
 32294,-0.00006901,-0.00030343,-0.00002930,-0.00001944,-0.00003210,0.00
 003614,0.00003629,0.00000837,0.00000170,-0.00000613,-0.00048429,0.0020
 0045,-0.00064887,0.00004354,0.00023888,-0.00040949,-0.00270670,0.00018
 028,0.00090789,0.00039971,-0.00008592,0.00012515,0.00008638,-0.0000087
 2,-0.00000015,-0.00000236,0.00000125,0.00001516,0.00001608,0.00000444,
 -0.00002381,-0.00003328,-0.00000644,0.00002809,-0.00000120,-0.00000565
 ,-0.00000014,-0.00000187,0.00000624,-0.00000446,0.00000167,-0.00000176
 ,0.00000060,0.00000111,0.00001879,0.00000515,0.00003552,-0.00002117,0.
 00013219,-0.00000639,0.00000148,-0.00002153,-0.00000625,0.00001588,0.0
 0000688,0.00000336,-0.00000622,-0.00000868,-0.00000268,-0.00000193,0.0
 0000555,0.00000212,-0.00000143,-0.00000583,-0.00000055,0.00000048,0.00
 000170,-0.00000290,-0.00000487,0.00000760,0.00000567,0.00000216,-0.000
 00557,0.00000146,-0.00000325,0.00000574,0.00001765,0.00000595,-0.00003
 292,-0.00000278,-0.00000295,0.00000769,-0.00000076,0.00000047,0.000000
 86,-0.00000038,0.00000003,0.00000037,-0.00004260,0.00046464,0.00012311
 ,-0.00002944,-0.00006857,-0.00000056,-0.00002608,0.00015577,-0.0000604
 3,-0.00064414,0.00055876,0.00032824,0.00043473,-0.00231248,-0.00039278
 ,-0.07788057,-0.00628367,0.08212866,0.00078051,-0.00010573,-0.00005534
 ,-0.00100221,0.00177940,0.00077883,-0.01970531,-0.00093928,0.00199745,
 0.00209915,0.00071986,-0.00071840,-0.00011509,0.00010689,0.00007250,-0
 .34677201,0.01985274,0.04607595,0.00047930,0.01074664,0.00476437,-0.00
 009070,0.00034127,-0.00109096,-0.00000761,0.00000157,0.00002339,0.0000
 5399,0.00000398,-0.00001192,-0.00002105,-0.00000134,0.00000516,-0.0001
 9581,-0.00016916,0.00011755,0.00171881,-0.00096293,-0.00082559,-0.0120
 9703,0.00154795,0.00160462,0.00097924,-0.00027274,0.00035062,0.0001589
 6,-0.00000851,0.00010122,-0.00001824,0.00008936,0.00007527,0.00007116,
 -0.00005360,-0.00009631,-0.00008429,-0.00001081,0.00007319,-0.00000688
 ,0.00001339,-0.00001506,0.00001995,-0.00003961,0.00001417,-0.00000078,
 0.00000537,0.00000014,0.00000815,0.00013056,-0.00009697,0.00013039,-0.
 00007038,0.00057332,-0.00004811,-0.00004794,-0.00009171,-0.00002134,0.
 00005052,-0.00003984,0.00002823,-0.00008449,0.00004456,-0.00002847,0.0
 0007230,-0.00004869,-0.00000496,-0.00001893,0.00002535,-0.00000086,0.0
 0000239,-0.00000335,-0.00000700,-0.00001663,0.00005343,0.00001121,-0.0
 0001496,-0.00002105,0.00001551,-0.00001035,0.00003034,0.00007201,0.000
 04439,-0.00017692,0.00000173,-0.00001834,0.00002563,0.00000466,0.00000
 174,-0.00000164,0.00000518,-0.00000355,0.00000561,-0.00007564,-0.00010
 769,-0.00015106,0.00001142,-0.00000685,-0.00000958,0.00003460,-0.00008
 944,0.00000351,0.00021664,0.00024319,-0.00009278,0.00105155,-0.0009806
 1,-0.00040003,-0.00104070,-0.00088743,-0.00268097,0.37327202,0.0000645
 6,-0.00006572,0.00007173,-0.00103863,0.00020209,-0.00024849,-0.0046353
 4,0.00198449,0.00066962,0.00022605,0.00035203,-0.00065062,-0.00003161,
 0.00002165,0.00004117,0.02252378,-0.03892758,-0.00023272,0.03679971,-0
 .02314494,-0.01398612,0.00139210,0.00052020,0.00200847,0.00001330,0.00
 005359,0.00000648,0.00000390,-0.00002664,-0.00000145,-0.00000291,0.000
 00214,-0.00000087,-0.00033471,0.00004346,-0.00017174,0.00108778,0.0022
 4006,-0.00031184,-0.02570995,0.00141673,0.00486236,0.00134196,0.000533
 62,-0.00060129,-0.00008920,0.00009005,-0.00002569,0.00006342,0.0000349
 2,-0.00004437,0.00007168,-0.00002766,0.00001485,-0.00007815,0.00005872
 ,0.00003969,-0.00000434,0.00000887,-0.00002350,0.00000424,0.00000652,0
 .00002271,-0.00000199,-0.00000606,-0.00000128,-0.00016259,-0.00024475,
 0.00026292,-0.00038507,0.00004136,-0.00108838,0.00013595,0.00008735,0.
 00017610,0.00008223,-0.00022547,-0.00001406,-0.00002221,0.00012153,0.0
 0000406,0.00002293,-0.00007516,0.00000745,0.00000127,0.00002421,-0.000
 00397,0.00000120,-0.00000280,-0.00000027,0.00003511,0.00004922,-0.0000
 9072,0.00000922,-0.00000634,0.00003536,0.00000004,0.00004478,0.0000163
 9,0.00016696,-0.00000946,-0.00006225,0.00001501,-0.00001942,0.00002146
 ,0.00000286,0.00000279,-0.00000242,-0.00000148,0.00000540,-0.00000047,
 0.00002478,0.00004076,-0.00000643,-0.00000376,0.00000250,0.00001771,0.
 00001088,-0.00006966,-0.00000992,0.00029227,0.00004073,-0.00001075,-0.
 00014460,0.00001828,-0.00028012,-0.00043827,-0.00005874,-0.00103976,-0
 .02999511,0.05783047,0.00054415,0.00004041,-0.00023625,-0.00140313,0.0
 0192996,0.00100726,-0.03306814,-0.00060523,0.00399769,0.00273408,0.000
 39640,0.00165842,-0.00002264,-0.00016343,0.00025239,0.04547753,0.00093
 679,-0.05304200,0.01160512,-0.01019455,-0.00072452,0.00120366,-0.00006
 176,0.00052755,-0.00004685,0.00002650,0.00003665,0.00000764,0.00000270
 ,0.00001668,0.00000752,-0.00000140,0.00000307,-0.00025970,-0.00009671,
 -0.00036371,-0.00182279,-0.00066850,0.00095209,0.02919857,0.00089029,-
 0.00423890,-0.00135082,-0.00078576,0.00193053,0.00021927,-0.00016581,-
 0.00025223,-0.00007041,-0.00006577,0.00005654,-0.00009621,0.00005217,0
 .00001300,0.00011330,-0.00004025,0.00003008,0.00001620,-0.00004463,0.0
 0001682,-0.00001933,0.00001809,-0.00000779,0.00000283,-0.00000255,0.00
 000169,0.00004522,-0.00001340,0.00001559,-0.00025023,-0.00002869,-0.00
 036835,0.00004151,0.00002161,0.00010214,-0.00002425,0.00001834,0.00001
 122,-0.00002976,0.00003421,-0.00000681,0.00001630,-0.00001781,0.000024
 33,0.00000299,0.00000393,-0.00001751,0.00000129,-0.00000101,0.00000227
 ,-0.00000466,0.00000160,-0.00001787,-0.00003596,0.00000526,0.00003784,
 -0.00002225,-0.00000281,-0.00005539,-0.00027533,-0.00002574,0.00008435
 ,-0.00002494,0.00003831,-0.00003525,-0.00000578,-0.00000276,0.00000421
 ,-0.00000346,0.00000128,-0.00000531,0.00004292,-0.00010533,-0.00007078
 ,0.00000019,-0.00002867,0.00000865,0.00001512,-0.00000901,0.00000957,0
 .00011435,-0.00003044,-0.00023257,0.00044048,-0.00050258,-0.00003294,-
 0.00363870,-0.00152075,-0.00482809,-0.05099439,0.00771414,0.05659462,0
 .00007204,0.00001540,0.00019234,0.00015196,0.00024952,-0.00013745,-0.0
 0063871,0.00007767,-0.00119395,0.00034851,0.00000949,-0.00027322,0.000
 07870,0.00000892,0.00000913,-0.01378195,0.00219545,0.00478767,0.002316
 74,-0.00030942,-0.00172514,-0.00054958,-0.00014303,0.00006803,0.001060
 73,-0.00035890,-0.00005605,0.00002253,0.00008809,0.00000242,-0.0000038
 5,0.00001134,0.00001441,0.00048447,-0.00199536,-0.00171631,-0.00418582
 ,0.00982279,0.00208518,-0.34694487,0.02287192,0.04507927,-0.01835803,0
 .00196811,-0.01075805,0.00044000,-0.00105700,0.00418782,0.00039160,0.0
 0023989,0.00013783,0.00041493,0.00005089,-0.00052795,-0.00043568,-0.00
 038519,0.00063892,0.00002902,0.00007138,0.00000023,0.00001600,0.000001
 56,-0.00002730,-0.00001032,-0.00000260,-0.00000176,-0.00033452,0.00015
 765,-0.00002420,0.00015816,-0.00003230,0.00003583,-0.00003659,-0.00005
 587,-0.00004200,0.00062491,-0.00000055,-0.00000331,0.00002887,-0.00017
 359,-0.00028351,-0.00002054,0.00002089,0.00004487,0.00002517,-0.000002
 85,-0.00003764,0.00000007,0.00000344,0.00000396,0.00007686,-0.00001836
 ,0.00000607,0.00012798,-0.00006854,-0.00003166,0.00009000,0.00012210,0
 .00031498,0.00168013,0.00021236,-0.00095503,0.00004308,-0.00033122,0.0
 0026573,0.00001807,0.00002064,-0.00003785,0.00000116,0.00000091,0.0000
 0085,0.00000379,0.00000601,0.00001334,-0.00007064,0.00003016,-0.000010
 24,-0.00002415,-0.00049376,-0.00008246,0.00152544,-0.00051215,0.000314
 90,-0.00002048,-0.00018364,-0.00032635,0.00124435,0.00024391,0.0004998
 2,0.00011972,-0.00131327,0.00161954,0.37382074,0.00005109,0.00027950,-
 0.00021755,-0.00076546,-0.00036479,-0.00004013,-0.00163259,0.00025017,
 -0.00092600,0.00053688,-0.00010420,0.00002260,0.00004169,-0.00005565,-
 0.00003337,-0.02358641,0.00334767,0.00793240,0.00169037,0.00303651,-0.
 00081965,-0.00040226,-0.00002909,-0.00024538,0.00051876,-0.00012257,0.
 00020375,-0.00035460,-0.00015470,-0.00024316,0.00004672,0.00005083,-0.
 00000644,0.00606334,-0.00113853,0.00338246,0.03510741,-0.02291965,-0.0
 1530479,0.01763777,-0.04388698,-0.00025068,-0.00268797,0.00521559,0.00
 032453,0.00072607,-0.00021633,0.00085103,-0.00002988,-0.00018828,-0.00
 001463,-0.00043411,0.00011916,0.00058446,0.00051042,0.00013183,-0.0014
 9009,0.00005862,0.00002558,0.00007999,-0.00002648,0.00004215,-0.000046
 89,-0.00000172,-0.00000407,0.00000289,-0.00009565,0.00004199,-0.000081
 07,0.00003318,-0.00006300,0.00005551,-0.00004191,-0.00002010,-0.000036
 97,-0.00012072,0.00017319,0.00007740,-0.00000763,-0.00001927,-0.000052
 15,0.00000322,-0.00002425,0.00007875,0.00001557,0.00000072,-0.00003863
 ,-0.00000193,0.00000067,0.00000674,0.00002450,-0.00002721,0.00001348,0
 .00000993,-0.00001900,-0.00003886,-0.00002305,-0.00004541,-0.00001586,
 0.00012456,0.00006353,0.00041859,0.00002629,0.00002538,-0.00000505,-0.
 00000431,-0.00000933,-0.00000353,-0.00000083,-0.00000011,-0.00000452,-
 0.00002186,0.00000942,-0.00001287,-0.00004649,-0.00003887,0.00002572,-
 0.00044018,0.00000203,-0.00011021,-0.00122015,0.00001143,-0.00079459,-
 0.00005318,-0.00019401,0.00007806,0.00067295,0.00013927,0.00017725,-0.
 00083708,-0.00296812,0.00305335,-0.03106290,0.05964691,-0.00005740,-0.
 00004249,-0.00016580,-0.00028008,0.00032761,-0.00017094,0.00256782,-0.
 00001135,0.00084457,-0.00071445,-0.00017195,0.00028996,0.00002668,-0.0
 0002156,-0.00000439,0.02544508,0.00098583,-0.00333423,-0.00212210,-0.0
 0023171,0.00103383,0.00006431,0.00025192,-0.00034321,0.00018512,-0.000
 14975,-0.00008273,-0.00011340,-0.00010718,-0.00011872,0.00002817,0.000
 01617,-0.00001328,0.00408371,-0.00292220,0.00108581,0.00708895,-0.0078
 7464,-0.00161203,0.05004984,-0.00018863,-0.04836550,-0.03751856,0.0051
 6067,-0.01714230,-0.00760045,-0.00089460,0.00221162,0.00000494,0.00027
 323,-0.00048624,0.00014341,0.00003708,0.00035065,-0.00022981,-0.000142
 78,-0.00058095,0.00011200,0.00006633,0.00005824,0.00000386,0.00003480,
 -0.00002196,-0.00000549,-0.00000609,-0.00000310,-0.00015577,0.00018182
 ,0.00008905,0.00006993,-0.00013245,0.00009655,-0.00000486,-0.00003142,
 -0.00004305,-0.00017529,-0.00001836,-0.00018947,0.00018666,-0.00000785
 ,-0.00015850,-0.00001956,-0.00004467,0.00006423,0.00002683,0.00001279,
 -0.00004698,-0.00000013,0.00000183,0.00000553,0.00002417,-0.00001752,0
 .00001092,0.00001823,-0.00007966,-0.00002482,0.00020194,0.00001541,0.0
 0007280,0.00147018,0.00020817,-0.00056306,0.00040934,-0.00005170,0.000
 03905,0.00003031,0.00002771,-0.00007108,0.00000100,-0.00000176,0.00001
 062,-0.00001875,-0.00000383,-0.00000989,-0.00003193,0.00003384,-0.0000
 2180,-0.00023118,-0.00002324,-0.00007990,-0.00062335,-0.00092734,-0.00
 068673,-0.00027577,0.00006889,0.00024299,-0.00079878,0.00001971,-0.000
 29026,0.00080638,0.00291682,-0.00285897,-0.04207176,0.00346413,0.07098
 345\\0.00909371,-0.01022630,-0.01142560,-0.01345916,-0.00421331,0.0102
 3827,0.02705456,0.00642792,0.00683165,-0.01871330,0.02373360,0.0079454
 8,-0.00210572,-0.01633197,-0.02038008,-0.01503604,-0.04216159,-0.00535
 604,-0.00135159,0.01550189,-0.01069641,0.00447220,-0.00123103,0.014803
 81,-0.00950861,0.03868818,-0.00680956,0.00928955,0.00283555,0.01540226
 ,-0.00006275,-0.03402291,-0.00003437,0.01497109,0.03622045,0.03213883,
 0.01074399,-0.02608009,0.04806488,-0.01126117,0.02990591,-0.03990961,0
 .00145237,-0.04030041,0.02318232,-0.02932514,0.00971354,-0.01387704,-0
 .01862213,0.01419502,0.01902082,0.01401425,-0.00019686,-0.01409289,0.0
 0707779,0.01813170,-0.01776926,0.01154839,0.00992611,0.00886181,0.0151
 6001,-0.00042026,-0.02010293,-0.01394646,-0.00260258,0.02487470,0.0287
 8316,-0.02439822,-0.02708922,-0.00819283,-0.00874223,0.00019323,-0.013
 72269,0.02584808,0.00892557,-0.00216721,-0.01028352,0.03623462,-0.0257
 5401,-0.00039416,0.04084105,0.04291552,-0.03935930,-0.03731304,-0.0063
 3723,0.03688425,-0.00098181,-0.00225000,-0.00079426,-0.00473245,-0.001
 06640,-0.00865625,-0.01923880,0.02260167,-0.00351782,-0.00347671,-0.01
 984244,0.00490042,-0.00226492,0.01641564,-0.00413250,0.00526489,-0.023
 48284,-0.00628907,-0.00442259,0.02024002,0.00484952,-0.00147668,-0.020
 11259,-0.00055596,-0.00397841,-0.00265681,0.00566760,0.00070540,0.0043
 5337,0.00326719,-0.02025882,-0.02104117,0.00258549,-0.00745440,0.01941
 764,-0.00589604,-0.00358631,-0.02075178,0.00510306,0.00191987,0.023453
 10,-0.00232411,-0.00694731,-0.02234226,0.00291570,0.00171981,0.0200543
 3,-0.00417046,-0.00349401\\\@


 HE THAT RISETH LATE MUST TROT ALL DAY.

                  -- BENJAMIN FRANKLIN
 Job cpu time:  0 days 13 hours 11 minutes 41.0 seconds.
 File lengths (MBytes):  RWF=   1324 Int=      0 D2E=      0 Chk=     19 Scr=      1
 Normal termination of Gaussian 09 at Tue Mar  1 16:30:37 2016.
Gaussian '09 finished on node030 at Tue Mar  1 16:30:37 EST 2016.
