Gaussian '09 started on node001 at Wed Mar 23 06:07:34 EDT 2016.
 Entering Gaussian System, Link 0=/usr/local/gaussian/g09/g09
 Initial command:
 /usr/local/gaussian/g09/l1.exe /home/srmcgrat/thesis/gaussian/cellobiose/320K/5621ps/1/2dp/gaussian28716/Gau-28752.inp -scrdir=/home/srmcgrat/thesis/gaussian/cellobiose/320K/5621ps/1/2dp/gaussian28716/
 Entering Link 1 = /usr/local/gaussian/g09/l1.exe PID=     28754.
  
 Copyright (c) 1988,1990,1992,1993,1995,1998,2003,2009,2010,
            Gaussian, Inc.  All Rights Reserved.
  
 This is part of the Gaussian(R) 09 program.  It is based on
 the Gaussian(R) 03 system (copyright 2003, Gaussian, Inc.),
 the Gaussian(R) 98 system (copyright 1998, Gaussian, Inc.),
 the Gaussian(R) 94 system (copyright 1995, Gaussian, Inc.),
 the Gaussian 92(TM) system (copyright 1992, Gaussian, Inc.),
 the Gaussian 90(TM) system (copyright 1990, Gaussian, Inc.),
 the Gaussian 88(TM) system (copyright 1988, Gaussian, Inc.),
 the Gaussian 86(TM) system (copyright 1986, Carnegie Mellon
 University), and the Gaussian 82(TM) system (copyright 1983,
 Carnegie Mellon University). Gaussian is a federally registered
 trademark of Gaussian, Inc.
  
 This software contains proprietary and confidential information,
 including trade secrets, belonging to Gaussian, Inc.
  
 This software is provided under written license and may be
 used, copied, transmitted, or stored only in accord with that
 written license.
  
 The following legend is applicable only to US Government
 contracts under FAR:
  
                    RESTRICTED RIGHTS LEGEND
  
 Use, reproduction and disclosure by the US Government is
 subject to restrictions as set forth in subparagraphs (a)
 and (c) of the Commercial Computer Software - Restricted
 Rights clause in FAR 52.227-19.
  
 Gaussian, Inc.
 340 Quinnipiac St., Bldg. 40, Wallingford CT 06492
  
  
 ---------------------------------------------------------------
 Warning -- This program may not be used in any manner that
 competes with the business of Gaussian, Inc. or will provide
 assistance to any competitor of Gaussian, Inc.  The licensee
 of this program is prohibited from giving any competitor of
 Gaussian, Inc. access to this program.  By using this program,
 the user acknowledges that Gaussian, Inc. is engaged in the
 business of creating and licensing software in the field of
 computational chemistry and represents and warrants to the
 licensee that it is not a competitor of Gaussian, Inc. and that
 it will not use this program in any manner prohibited above.
 ---------------------------------------------------------------
  

 Cite this work as:
 Gaussian 09, Revision B.01,
 M. J. Frisch, G. W. Trucks, H. B. Schlegel, G. E. Scuseria, 
 M. A. Robb, J. R. Cheeseman, G. Scalmani, V. Barone, B. Mennucci, 
 G. A. Petersson, H. Nakatsuji, M. Caricato, X. Li, H. P. Hratchian, 
 A. F. Izmaylov, J. Bloino, G. Zheng, J. L. Sonnenberg, M. Hada, 
 M. Ehara, K. Toyota, R. Fukuda, J. Hasegawa, M. Ishida, T. Nakajima, 
 Y. Honda, O. Kitao, H. Nakai, T. Vreven, J. A. Montgomery, Jr., 
 J. E. Peralta, F. Ogliaro, M. Bearpark, J. J. Heyd, E. Brothers, 
 K. N. Kudin, V. N. Staroverov, T. Keith, R. Kobayashi, J. Normand, 
 K. Raghavachari, A. Rendell, J. C. Burant, S. S. Iyengar, J. Tomasi, 
 M. Cossi, N. Rega, J. M. Millam, M. Klene, J. E. Knox, J. B. Cross, 
 V. Bakken, C. Adamo, J. Jaramillo, R. Gomperts, R. E. Stratmann, 
 O. Yazyev, A. J. Austin, R. Cammi, C. Pomelli, J. W. Ochterski, 
 R. L. Martin, K. Morokuma, V. G. Zakrzewski, G. A. Voth, 
 P. Salvador, J. J. Dannenberg, S. Dapprich, A. D. Daniels, 
 O. Farkas, J. B. Foresman, J. V. Ortiz, J. Cioslowski, 
 and D. J. Fox, Gaussian, Inc., Wallingford CT, 2010.
 
 ******************************************
 Gaussian 09:  EM64L-G09RevB.01 12-Aug-2010
                23-Mar-2016 
 ******************************************
 -------------------------------------------------
 # freq=raman b3lyp/6-31+g(2d,p) geom=connectivity
 -------------------------------------------------
 1/10=4,30=1,38=1,57=2/1,3;
 2/12=2,17=6,18=5,40=1/2;
 3/5=1,6=6,7=112,11=2,16=1,25=1,30=1,71=2,74=-5/1,2,3;
 4//1;
 5/5=2,38=5,98=1/2;
 8/6=4,10=90,11=11/1;
 10/13=10,15=4/2;
 11/6=3,8=1,9=11,15=111,16=1/1,2,10;
 10/6=1/2;
 6/7=2,8=2,9=2,10=2,18=1,28=1/1;
 7/8=1,10=1,25=1/1,2,3,16;
 1/10=4,30=1/3;
 99//99;
 -----------------
 320 5621/5621.com
 -----------------
 Symbolic Z-matrix:
 Charge =  0 Multiplicity = 1
 O                     7.586     7.705     12.38 
 C                     8.09      8.127     13.656 
 C                     7.513     9.482     14.031 
 O                     7.919     10.461    13.064 
 H                     7.738     10.019    12.186 
 C                     7.903     9.769     15.472 
 O                     7.199     10.905    15.995 
 H                     7.329     11.034    16.979 
 C                     8.654     5.727     14.34 
 O                     8.222     4.996     13.183 
 H                     8.313     4.018     13.374 
 C                     7.903     7.008     14.668 
 O                     8.398     7.407     15.955 
 C                     7.666     8.568     16.373 
 O                     8.215     8.853     17.668 
 C                     7.677     8.423     18.927 
 C                     8.471     7.182     19.298 
 O                     8.205     6.001     18.527 
 H                     8.296     6.314     17.582 
 C                     8.147     6.771     20.725 
 O                     8.692     5.509     21.138 
 H                     8.376     5.342     22.072 
 C                     7.197     10.863    19.696 
 O                     7.308     11.633    18.49 
 H                     7.286     12.591    18.774 
 C                     7.959     9.562     19.893 
 O                     7.685     9.117     21.23 
 C                     8.394     7.945     21.658 
 O                     7.557     7.666     22.789 
 H                     8.10531   7.47727   23.55407 
 H                     9.42012   8.11367   21.91007 
 H                     7.08695   6.62595   20.73789 
 H                     9.51458   7.4089    19.23203 
 H                     6.62975   8.21544   18.85566 
 H                     9.00332   9.78653   19.83077 
 H                     7.47799   11.50941   20.50105 
 H                     6.15926   10.63401   19.82076 
 H                     8.57893   5.07653   15.18626 
 H                     9.68556   5.97674   14.20431 
 H                     6.85939   6.78673   14.75057 
 H                     8.3211    7.51113   11.7938 
 H                     9.14505   8.26452   13.54264 
 H                     6.44637   9.40742   13.99056 
 H                     8.94913   9.99296   15.49062 
 H                     6.62112   8.34962   16.44669 
 

 GradGradGradGradGradGradGradGradGradGradGradGradGradGradGradGradGradGrad
 Berny optimization.
 Initialization pass.
 Trust Radius=3.00D-01 FncErr=1.00D-07 GrdErr=1.00D-07
 Number of steps in this run=      2 maximum allowed number of steps=      2.
 GradGradGradGradGradGradGradGradGradGradGradGradGradGradGradGradGradGrad

                          Input orientation:                          
 ---------------------------------------------------------------------
 Center     Atomic      Atomic             Coordinates (Angstroms)
 Number     Number       Type             X           Y           Z
 ---------------------------------------------------------------------
      1          8           0        7.586000    7.705000   12.380000
      2          6           0        8.090000    8.127000   13.656000
      3          6           0        7.513000    9.482000   14.031000
      4          8           0        7.919000   10.461000   13.064000
      5          1           0        7.738000   10.019000   12.186000
      6          6           0        7.903000    9.769000   15.472000
      7          8           0        7.199000   10.905000   15.995000
      8          1           0        7.329000   11.034000   16.979000
      9          6           0        8.654000    5.727000   14.340000
     10          8           0        8.222000    4.996000   13.183000
     11          1           0        8.313000    4.018000   13.374000
     12          6           0        7.903000    7.008000   14.668000
     13          8           0        8.398000    7.407000   15.955000
     14          6           0        7.666000    8.568000   16.373000
     15          8           0        8.215000    8.853000   17.668000
     16          6           0        7.677000    8.423000   18.927000
     17          6           0        8.471000    7.182000   19.298000
     18          8           0        8.205000    6.001000   18.527000
     19          1           0        8.296000    6.314000   17.582000
     20          6           0        8.147000    6.771000   20.725000
     21          8           0        8.692000    5.509000   21.138000
     22          1           0        8.376000    5.342000   22.072000
     23          6           0        7.197000   10.863000   19.696000
     24          8           0        7.308000   11.633000   18.490000
     25          1           0        7.286000   12.591000   18.774000
     26          6           0        7.959000    9.562000   19.893000
     27          8           0        7.685000    9.117000   21.230000
     28          6           0        8.394000    7.945000   21.658000
     29          8           0        7.557000    7.666000   22.789000
     30          1           0        8.105312    7.477269   23.554072
     31          1           0        9.420116    8.113666   21.910065
     32          1           0        7.086955    6.625954   20.737890
     33          1           0        9.514582    7.408900   19.232027
     34          1           0        6.629752    8.215436   18.855662
     35          1           0        9.003324    9.786534   19.830772
     36          1           0        7.477991   11.509406   20.501049
     37          1           0        6.159262   10.634011   19.820756
     38          1           0        8.578928    5.076534   15.186261
     39          1           0        9.685562    5.976738   14.204312
     40          1           0        6.859390    6.786729   14.750565
     41          1           0        8.321105    7.511130   11.793796
     42          1           0        9.145054    8.264515   13.542640
     43          1           0        6.446368    9.407423   13.990559
     44          1           0        8.949134    9.992957   15.490618
     45          1           0        6.621116    8.349623   16.446685
 ---------------------------------------------------------------------
                    Distance matrix (angstroms):
                    1          2          3          4          5
     1  O    0.000000
     2  C    1.435366   0.000000
     3  C    2.426697   1.519730   0.000000
     4  O    2.859070   2.413972   1.434701   0.000000
     5  H    2.327087   2.421666   1.934688   0.999504   0.000000
     6  C    3.731092   2.455400   1.520181   2.505511   3.299624
     7  O    4.843345   3.739263   2.445572   3.050622   3.947657
     8  H    5.683229   4.480190   3.336655   4.000457   4.916336
     9  C    2.982400   2.558506   3.936672   4.957737   4.888766
    10  O    2.896202   3.169277   4.620171   5.474687   5.143811
    11  H    3.887227   4.124698   5.561200   6.462475   6.144426
    12  C    2.412725   1.520287   2.584288   3.807398   3.905595
    13  O    3.678148   2.428717   2.964899   4.232521   4.632872
    14  C    4.085978   2.785022   2.518684   3.820594   4.431879
    15  O    5.447613   4.079074   3.757155   4.885703   5.624892
    16  C    6.586882   5.295434   5.011905   6.211826   6.927627
    17  C    6.993960   5.733267   5.826582   7.065359   7.691970
    18  O    6.408774   5.315989   5.728022   7.058170   7.521349
    19  H    5.431370   4.329305   4.822750   6.144271   6.569262
    20  C    8.415824   7.198107   7.249904   8.506410   9.145015
    21  O    9.096605   7.949632   8.227042   9.503121  10.069187
    22  H   10.007134   8.869446   9.085266  10.370973  10.955107
    23  C    7.977979   6.690646   5.839456   6.683286   7.576616
    24  O    7.269014   6.022551   4.954948   5.584656   6.521527
    25  H    8.052716   6.838687   5.675690   6.127127   7.086694
    26  C    7.748080   6.401293   5.879486   6.888036   7.723700
    27  O    8.962480   7.649157   7.210299   8.279170   9.089024
    28  C    9.316209   8.009840   7.830048   8.967314   9.718570
    29  O   10.409113   9.160147   8.944404  10.125152  10.862457
    30  H   11.188451   9.919386   9.749804  10.907748  11.654543
    31  H    9.713554   8.360561   8.221259   9.274492  10.050734
    32  H    8.442021   7.308379   7.302115   8.619076   9.223418
    33  H    7.124421   5.799757   5.945986   7.064400   7.721098
    34  H    6.565756   5.401540   5.065735   6.344136   6.997531
    35  H    7.864833   6.458794   5.995929   6.886208   7.752266
    36  H    8.968646   7.659629   6.780349   7.523519   8.451565
    37  H    8.122779   6.929435   6.056485   6.984294   7.820496
    38  H    3.971126   3.447622   4.677496   5.825116   5.842662
    39  H    3.274624   2.733147   4.127581   4.952743   4.920007
    40  H    2.644005   2.123394   2.865217   4.179419   4.218593
    41  H    0.960000   1.974971   3.089085   3.236795   2.604467
    42  H    2.023719   1.070000   2.093887   2.560635   2.626498
    43  H    2.605937   2.110199   1.070000   2.034006   2.301906
    44  H    4.094976   2.754221   2.110460   2.677446   3.519663
    45  H    4.229003   3.161504   2.813054   4.193444   4.710381
                    6          7          8          9         10
     6  C    0.000000
     7  O    1.435145   0.000000
     8  H    2.049573   1.000898   0.000000
     9  C    4.264175   5.627409   6.073236   0.000000
    10  O    5.303094   6.623455   7.187803   1.435143   0.000000
    11  H    6.135447   7.452611   7.949122   1.992515   1.000623
    12  C    2.875680   4.176500   4.677486   1.520706   2.520938
    13  O    2.461170   3.698000   3.917457   2.344389   3.678027
    14  C    1.519990   2.412994   2.561632   3.630498   4.821247
    15  O    2.399753   2.835822   2.452851   4.586958   5.915380
    16  C    3.714810   3.871102   3.276145   5.409576   6.710804
    17  C    4.653329   5.136976   4.638947   5.170327   6.498755
    18  O    4.860252   5.610016   5.338049   4.219911   5.437706
    19  H    4.067379   4.979885   4.855625   3.314106   4.592799
    20  C    6.053226   6.353075   5.733656   6.489623   7.748420
    21  O    7.132579   7.602389   7.048452   6.801601   7.985367
    22  H    7.961285   8.322393   7.709327   7.746569   8.897064
    23  C    4.420119   3.701239   2.725574   7.562280   8.825615
    24  O    3.596783   2.601325   1.625535   7.342687   8.546895
    25  H    4.387206   3.251616   2.376578   8.285305   9.477310
    26  C    4.426198   4.192333   3.324918   6.784251   8.120445
    27  O    5.798896   5.553230   4.676818   7.739713   9.056778
    28  C    6.467971   6.500707   5.706942   7.651160   8.975066
    29  O    7.621077   7.535099   6.719487   8.737776   9.992315
    30  H    8.403145   8.349270   7.515622   9.394872  10.664401
    31  H    6.818391   6.907453   6.100535   7.974271   9.344356
    32  H    6.186620   6.388880   5.798164   6.648063   7.811622
    33  H    4.722824   5.297450   4.795232   5.244170   6.639547
    34  H    3.934957   3.967516   3.457616   5.539052   6.714098
    35  H    4.495544   4.384028   3.534422   6.837428   8.231194
    36  H    5.338631   4.554956   3.557111   8.530987   9.825062
    37  H    4.764509   3.973777   3.099009   7.767958   8.949965
    38  H    4.749502   6.043946   6.345679   1.070000   2.036403
    39  H    4.377878   5.803217   6.231226   1.070000   2.036403
    40  H    3.240915   4.315566   4.819312   2.124197   2.742385
    41  H    4.336125   5.516121   6.346750   3.126835   2.874994
    42  H    2.743830   4.095528   4.772490   2.704792   3.415342
    43  H    2.108834   2.612848   3.515049   4.305957   4.823451
    44  H    1.070000   2.036957   2.433903   4.428252   5.551883
    45  H    2.146595   2.658556   2.826719   3.930508   4.945832
                   11         12         13         14         15
    11  H    0.000000
    12  C    3.283692   0.000000
    13  O    4.260764   1.435477   0.000000
    14  C    5.487724   2.323100   1.434737   0.000000
    15  O    6.467246   3.535728   2.249172   1.435148   0.000000
    16  C    7.116483   4.493593   3.222558   2.558136   1.435070
    17  C    6.717859   4.667955   3.351358   3.335363   2.348335
    18  O    5.522442   3.999642   2.937562   3.394072   2.978571
    19  H    4.793659   3.021172   1.962698   2.634217   2.541747
    20  C    7.851354   6.066544   4.818755   4.732914   3.699270
    21  O    7.914949   6.688081   5.527416   5.754597   4.842599
    22  H    8.798417   7.603848   6.456191   6.587092   5.634559
    23  C    9.384411   6.374970   5.232726   4.065626   3.031371
    24  O    9.228852   6.029290   5.047118   3.742202   3.037554
    25  H   10.183863   6.957716   6.004762   4.700397   4.007358
    26  C    8.564964   5.816071   4.510498   3.669371   2.349222
    27  O    9.386742   6.896031   5.590894   4.887966   3.610878
    28  C    9.168018   7.069593   5.728322   5.371158   4.095925
    29  O   10.125298   8.154957   6.890422   6.480011   5.297790
    30  H   10.753769   8.900754   7.605031   7.276708   6.045702
    31  H    9.532292   7.481420   6.083330   5.826014   4.471470
    32  H    7.907685   6.136404   5.020449   4.812390   3.956822
    33  H    6.874481   4.856775   3.462032   3.596499   2.494097
    34  H    7.106364   4.540438   3.492007   2.713249   2.080875
    35  H    8.685760   5.965331   4.588050   3.902492   2.484054
    36  H   10.373680   7.380227   6.192149   5.072278   3.952953
    37  H    9.485297   6.537544   5.510864   4.292515   3.468778
    38  H    2.115538   2.110932   2.460644   3.798964   4.533561
    39  H    2.531797   2.110932   2.601610   3.936557   4.736304
    40  H    3.416690   1.070000   2.050054   2.540835   3.823425
    41  H    3.833936   2.947711   4.163217   4.745024   6.026454
    42  H    4.330548   2.094747   2.667002   3.207903   4.269649
    43  H    5.736754   2.887548   3.416078   2.805024   4.118132
    44  H    6.370624   3.268190   2.684506   2.110814   2.565043
    45  H    5.573762   2.570389   2.070654   1.070000   2.070136
                   16         17         18         19         20
    16  C    0.000000
    17  C    1.519262   0.000000
    18  O    2.510950   1.435255   0.000000
    19  H    2.576833   1.930985   0.999637   0.000000
    20  C    2.486525   1.519943   2.329693   3.179544   0.000000
    21  O    3.796069   2.496672   2.701213   3.667421   1.435353
    22  H    4.457823   3.330120   3.609785   4.594702   1.977092
    23  C    2.602952   3.915513   5.101144   5.135192   4.325021
    24  O    3.260557   4.670849   5.703105   5.485651   5.416474
    25  H    4.189095   5.562021   6.658353   6.468516   6.198397
    26  C    1.519869   2.506106   3.821936   4.000474   2.918433
    27  O    2.405309   2.845109   4.157651   4.640909   2.443805
    28  C    2.863727   2.481471   3.690260   4.391303   1.519794
    29  O    3.937321   3.640980   4.621339   5.430182   2.325773
    30  H    4.742115   4.281946   5.240301   6.087298   2.916196
    31  H    3.468836   2.931162   4.169532   4.820227   2.197261
    32  H    2.618559   2.073174   2.555118   3.393928   1.070000
    33  H    2.120884   1.070000   2.047987   2.325153   2.122773
    34  H    1.070000   2.157278   2.737362   2.830911   2.807644
    35  H    2.105983   2.711238   4.082574   4.197115   3.259813
    36  H    3.470322   4.599982   5.896435   6.015166   4.790638
    37  H    2.826818   4.187336   5.227202   5.314148   4.437523
    38  H    5.099553   4.620718   3.486402   2.711261   5.808219
    39  H    5.685271   5.373405   4.569276   3.667888   6.746658
    40  H    4.559438   4.840732   4.085278   3.210038   6.111633
    41  H    7.220040   7.512914   6.901450   5.910758   8.963510
    42  H    5.583156   5.894943   5.554372   4.565285   7.403580
    43  H    5.181891   6.100866   5.939343   5.088109   7.429372
    44  H    3.986453   4.756706   5.070411   4.281961   6.198643
    45  H    2.696708   3.593801   3.514602   2.870180   4.808778
                   21         22         23         24         25
    21  O    0.000000
    22  H    1.000050   0.000000
    23  C    5.742796   6.125101   0.000000
    24  O    6.814010   7.317652   1.435151   0.000000
    25  H    7.597372   8.038215   1.960609   0.999452   0.000000
    26  C    4.302804   4.767634   1.520544   2.584812   3.298474
    27  O    3.747022   3.929004   2.374830   3.738982   4.273150
    28  C    2.508645   2.635779   3.714428   4.981663   5.579466
    29  O    2.943922   2.566286   4.462853   5.854954   6.359976
    30  H    3.171071   2.613270   5.212766   6.599290   7.047738
    31  H    2.812565   2.966232   4.171711   5.342621   5.868209
    32  H    1.995957   2.256108   4.364654   5.492939   6.283172
    33  H    2.814071   3.692410   4.185363   4.823135   5.659552
    34  H    4.097161   4.653047   2.835054   3.503351   4.425256
    35  H    4.483644   5.017023   2.107071   2.842750   3.454128
    36  H    6.155030   6.427379   1.070000   2.022002   2.046804
    37  H    5.866483   6.163392   1.070000   2.022002   2.488984
    38  H    5.968502   6.893842   7.465297   7.450987   8.426787
    39  H    7.020112   8.001147   7.760615   7.484199   8.389780
    40  H    6.766858   7.615166   6.417733   6.137668   7.075280
    41  H    9.563485  10.504743   8.656990   7.928136   8.694813
    42  H    8.092442   9.048896   6.957792   6.260817   7.038585
    43  H    8.445500   9.249910   5.935841   5.093188   5.807017
    44  H    7.215602   8.079262   4.638123   3.792012   4.505157
    45  H    5.862263   6.615858   4.148102   3.927787   4.883415
                   26         27         28         29         30
    26  C    0.000000
    27  O    1.435503   0.000000
    28  C    2.432928   1.435078   0.000000
    29  O    3.484715   2.133604   1.434424   0.000000
    30  H    4.215561   2.875185   1.974133   0.960000   0.000000
    31  H    2.881160   2.116553   1.070000   2.108111   2.199198
    32  H    3.177210   2.608666   2.072402   2.347273   3.113305
    33  H    2.737254   3.202635   2.725519   4.068204   4.546514
    34  H    2.157824   2.750245   3.322470   4.078335   4.979681
    35  H    1.070000   2.035704   2.664823   3.916584   4.472370
    36  H    2.096064   2.509547   3.857797   4.473559   5.096333
    37  H    2.096064   2.571996   3.949721   4.424164   5.262107
    38  H    6.531241   7.324702   7.081363   8.096377   8.718263
    39  H    6.942355   7.951339   7.816627   9.004513   9.600354
    40  H    5.946083   6.935047   7.170026   8.116416   8.918010
    41  H    8.362673   9.592987   9.874011  11.022811  11.762305
    42  H    6.589177   7.871085   8.156300   9.400814  10.096018
    43  H    6.095142   7.350378   8.044974   9.037622   9.896381
    44  H    4.532886   5.941872   6.522185   7.785830   8.488817
    45  H    3.890614   4.959921   5.519478   6.447338   7.312919
                   31         32         33         34         35
    31  H    0.000000
    32  H    3.005149   0.000000
    33  H    2.770832   2.962094   0.000000
    34  H    4.138342   2.505648   3.019006   0.000000
    35  H    2.701049   3.805863   2.504600   3.008825   0.000000
    36  H    4.157912   4.904804   4.751028   3.778497   2.396706
    37  H    4.620662   4.215005   4.691068   2.646180   2.967660
    38  H    7.425720   5.953761   4.762731   5.207351   6.628401
    39  H    8.000973   7.061295   5.230511   5.998733   6.829132
    40  H    7.718583   5.993804   5.246012   4.352672   6.277243
    41  H   10.193615   9.072127   7.534064   7.295662   8.380685
    42  H    8.373304   7.661088   5.765219   5.878550   6.471262
    43  H    8.557778   7.326213   6.393826   5.012354   6.386692
    44  H    6.705435   6.506787   4.582054   4.456751   4.345398
    45  H    6.143175   4.647846   4.124952   2.412726   4.380830
                   36         37         38         39         40
    36  H    0.000000
    37  H    1.722834   0.000000
    38  H    8.416702   7.630130   0.000000
    39  H    8.667911   8.103668   1.731829   0.000000
    40  H    7.466887   6.403015   2.464023   2.990272   0.000000
    41  H    9.618384   8.880205   4.183605   3.166495   3.376959
    42  H    7.856708   7.344672   3.631145   2.442107   2.977784
    43  H    6.918746   5.964742   4.973341   4.723099   2.759753
    44  H    5.437674   5.190803   4.939727   4.280996   3.898026
    45  H    5.211173   4.100743   4.016816   4.477684   2.318671
                   41         42         43         44         45
    41  H    0.000000
    42  H    2.074835   0.000000
    43  H    3.454900   2.964755   0.000000
    44  H    4.496708   2.611611   2.976048   0.000000
    45  H    5.024183   3.848504   2.679932   3.005708   0.000000
 Stoichiometry    C12H22O11
 Framework group  C1[X(C12H22O11)]
 Deg. of freedom   129
 Full point group                 C1      NOp   1
 Largest Abelian subgroup         C1      NOp   1
 Largest concise Abelian subgroup C1      NOp   1
                         Standard orientation:                         
 ---------------------------------------------------------------------
 Center     Atomic      Atomic             Coordinates (Angstroms)
 Number     Number       Type             X           Y           Z
 ---------------------------------------------------------------------
      1          8           0        4.972176   -0.386107   -0.418157
      2          6           0        3.688795   -0.081498    0.147903
      3          6           0        3.294432    1.350230   -0.174914
      4          8           0        4.245504    2.253059    0.407089
      5          1           0        5.130534    1.864223    0.153048
      6          6           0        1.848377    1.540433    0.253688
      7          8           0        1.309647    2.777779   -0.234561
      8          1           0        0.323514    2.866600   -0.088107
      9          6           0        3.040248   -2.553776    0.262705
     10          8           0        4.209199   -3.177030   -0.289330
     11          1           0        4.032938   -4.157950   -0.378631
     12          6           0        2.694387   -1.162469   -0.244434
     13          8           0        1.400377   -0.878998    0.308539
     14          6           0        0.966315    0.389554   -0.202180
     15          8           0       -0.334073    0.551001    0.383122
     16          6           0       -1.585195    0.207701   -0.230281
     17          6           0       -1.938954   -1.162305    0.322979
     18          8           0       -1.149456   -2.263834   -0.149552
     19          1           0       -0.209540   -1.958845    0.001490
     20          6           0       -3.358812   -1.528303   -0.077364
     21          8           0       -3.753703   -2.874277    0.227025
     22          1           0       -4.684358   -2.994629   -0.118660
     23          6           0       -2.390269    2.682815   -0.262351
     24          8           0       -1.196396    3.437302   -0.007257
     25          1           0       -1.494924    4.379072    0.143922
     26          6           0       -2.569064    1.262177    0.249388
     27          8           0       -3.898522    0.854970   -0.107531
     28          6           0       -4.310142   -0.432566    0.374415
     29          8           0       -5.434931   -0.571145   -0.504912
     30          1           0       -6.198228   -0.867614   -0.003828
     31          1           0       -4.566983   -0.457060    1.412843
     32          1           0       -3.367181   -1.478282   -1.146162
     33          1           0       -1.878720   -1.128077    1.390734
     34          1           0       -1.508421    0.195156   -1.297449
     35          1           0       -2.512540    1.293889    1.317423
     36          1           0       -3.205691    3.255502    0.127541
     37          1           0       -2.509260    2.644611   -1.325027
     38          1           0        2.204171   -3.192021    0.066444
     39          1           0        3.169867   -2.493890    1.323135
     40          1           0        2.617477   -1.191400   -1.311274
     41          1           0        5.559667   -0.701877    0.272309
     42          1           0        3.797748   -0.136549    1.210917
     43          1           0        3.338326    1.471514   -1.237111
     44          1           0        1.824069    1.570069    1.323001
     45          1           0        0.898242    0.363830   -1.269703
 ---------------------------------------------------------------------
 Rotational constants (GHZ):      0.4011906      0.1471348      0.1098217
 Standard basis: 6-31+G(2d,p) (6D, 7F)
 There are   685 symmetry adapted basis functions of A   symmetry.
 Integral buffers will be    131072 words long.
 Raffenetti 2 integral format.
 Two-electron integral symmetry is turned on.
   685 basis functions,  1028 primitive gaussians,   685 cartesian basis functions
    91 alpha electrons       91 beta electrons
       nuclear repulsion energy      2284.8358426198 Hartrees.
 NAtoms=   45 NActive=   45 NUniq=   45 SFac= 1.00D+00 NAtFMM=   50 NAOKFM=F Big=F
 One-electron integrals computed using PRISM.
 NBasis=   685 RedAO= T  NBF=   685
 NBsUse=   685 1.00D-06 NBFU=   685
 Harris functional with IExCor=  402 diagonalized for initial guess.
 ExpMin= 4.38D-02 ExpMax= 5.48D+03 ExpMxC= 8.25D+02 IAcc=2 IRadAn=         0 AccDes= 0.00D+00
 HarFok:  IExCor=  402 AccDes= 0.00D+00 IRadAn=         0 IDoV= 1
 ScaDFX=  1.000000  1.000000  1.000000  1.000000
 FoFCou: FMM=F IPFlag=           0 FMFlag=      100000 FMFlg1=           0
         NFxFlg=           0 DoJE=T BraDBF=F KetDBF=T FulRan=T
         Omega=  0.000000  0.000000  1.000000  0.000000  0.000000 ICntrl=     500 IOpCl=  0
         NMat0=    1 NMatS0=    1 NMatT0=    0 NMatD0=    1 NMtDS0=    0 NMtDT0=    0
         I1Cent=           4 NGrid=           0.
 Petite list used in FoFCou.
 Initial guess orbital symmetries:
       Occupied  (A) (A) (A) (A) (A) (A) (A) (A) (A) (A) (A) (A)
                 (A) (A) (A) (A) (A) (A) (A) (A) (A) (A) (A) (A)
                 (A) (A) (A) (A) (A) (A) (A) (A) (A) (A) (A) (A)
                 (A) (A) (A) (A) (A) (A) (A) (A) (A) (A) (A) (A)
                 (A) (A) (A) (A) (A) (A) (A) (A) (A) (A) (A) (A)
                 (A) (A) (A) (A) (A) (A) (A) (A) (A) (A) (A) (A)
                 (A) (A) (A) (A) (A) (A) (A) (A) (A) (A) (A) (A)
                 (A) (A) (A) (A) (A) (A) (A)
       Virtual   (A) (A) (A) (A) (A) (A) (A) (A) (A) (A) (A) (A)
                 (A) (A) (A) (A) (A) (A) (A) (A) (A) (A) (A) (A)
                 (A) (A) (A) (A) (A) (A) (A) (A) (A) (A) (A) (A)
                 (A) (A) (A) (A) (A) (A) (A) (A) (A) (A) (A) (A)
                 (A) (A) (A) (A) (A) (A) (A) (A) (A) (A) (A) (A)
                 (A) (A) (A) (A) (A) (A) (A) (A) (A) (A) (A) (A)
                 (A) (A) (A) (A) (A) (A) (A) (A) (A) (A) (A) (A)
                 (A) (A) (A) (A) (A) (A) (A) (A) (A) (A) (A) (A)
                 (A) (A) (A) (A) (A) (A) (A) (A) (A) (A) (A) (A)
                 (A) (A) (A) (A) (A) (A) (A) (A) (A) (A) (A) (A)
                 (A) (A) (A) (A) (A) (A) (A) (A) (A) (A) (A) (A)
                 (A) (A) (A) (A) (A) (A) (A) (A) (A) (A) (A) (A)
                 (A) (A) (A) (A) (A) (A) (A) (A) (A) (A) (A) (A)
                 (A) (A) (A) (A) (A) (A) (A) (A) (A) (A) (A) (A)
                 (A) (A) (A) (A) (A) (A) (A) (A) (A) (A) (A) (A)
                 (A) (A) (A) (A) (A) (A) (A) (A) (A) (A) (A) (A)
                 (A) (A) (A) (A) (A) (A) (A) (A) (A) (A) (A) (A)
                 (A) (A) (A) (A) (A) (A) (A) (A) (A) (A) (A) (A)
                 (A) (A) (A) (A) (A) (A) (A) (A) (A) (A) (A) (A)
                 (A) (A) (A) (A) (A) (A) (A) (A) (A) (A) (A) (A)
                 (A) (A) (A) (A) (A) (A) (A) (A) (A) (A) (A) (A)
                 (A) (A) (A) (A) (A) (A) (A) (A) (A) (A) (A) (A)
                 (A) (A) (A) (A) (A) (A) (A) (A) (A) (A) (A) (A)
                 (A) (A) (A) (A) (A) (A) (A) (A) (A) (A) (A) (A)
                 (A) (A) (A) (A) (A) (A) (A) (A) (A) (A) (A) (A)
                 (A) (A) (A) (A) (A) (A) (A) (A) (A) (A) (A) (A)
                 (A) (A) (A) (A) (A) (A) (A) (A) (A) (A) (A) (A)
                 (A) (A) (A) (A) (A) (A) (A) (A) (A) (A) (A) (A)
                 (A) (A) (A) (A) (A) (A) (A) (A) (A) (A) (A) (A)
                 (A) (A) (A) (A) (A) (A) (A) (A) (A) (A) (A) (A)
                 (A) (A) (A) (A) (A) (A) (A) (A) (A) (A) (A) (A)
                 (A) (A) (A) (A) (A) (A) (A) (A) (A) (A) (A) (A)
                 (A) (A) (A) (A) (A) (A) (A) (A) (A) (A) (A) (A)
                 (A) (A) (A) (A) (A) (A) (A) (A) (A) (A) (A) (A)
                 (A) (A) (A) (A) (A) (A) (A) (A) (A) (A) (A) (A)
                 (A) (A) (A) (A) (A) (A) (A) (A) (A) (A) (A) (A)
                 (A) (A) (A) (A) (A) (A) (A) (A) (A) (A) (A) (A)
                 (A) (A) (A) (A) (A) (A) (A) (A) (A) (A) (A) (A)
                 (A) (A) (A) (A) (A) (A) (A) (A) (A) (A) (A) (A)
                 (A) (A) (A) (A) (A) (A) (A) (A) (A) (A) (A) (A)
                 (A) (A) (A) (A) (A) (A) (A) (A) (A) (A) (A) (A)
                 (A) (A) (A) (A) (A) (A) (A) (A) (A) (A) (A) (A)
                 (A) (A) (A) (A) (A) (A) (A) (A) (A) (A) (A) (A)
                 (A) (A) (A) (A) (A) (A) (A) (A) (A) (A) (A) (A)
                 (A) (A) (A) (A) (A) (A) (A) (A) (A) (A) (A) (A)
                 (A) (A) (A) (A) (A) (A) (A) (A) (A) (A) (A) (A)
                 (A) (A) (A) (A) (A) (A) (A) (A) (A) (A) (A) (A)
                 (A) (A) (A) (A) (A) (A) (A) (A) (A) (A) (A) (A)
                 (A) (A) (A) (A) (A) (A) (A) (A) (A) (A) (A) (A)
                 (A) (A) (A) (A) (A) (A)
 The electronic state of the initial guess is 1-A.
 Requested convergence on RMS density matrix=1.00D-08 within 128 cycles.
 Requested convergence on MAX density matrix=1.00D-06.
 Requested convergence on             energy=1.00D-06.
 No special actions if energy rises.
 SCF Done:  E(RB3LYP) =  -1297.98980718     A.U. after   13 cycles
             Convg  =    0.4299D-08             -V/T =  2.0064
 Range of M.O.s used for correlation:     1   685
 NBasis=   685 NAE=    91 NBE=    91 NFC=     0 NFV=     0
 NROrb=    685 NOA=    91 NOB=    91 NVA=   594 NVB=   594

 **** Warning!!: The largest alpha MO coefficient is  0.71741216D+02

          Differentiating once with respect to electric field.
                with respect to dipole field.
          Electric field/nuclear overlap derivatives assumed to be zero.
          There are     3 degrees of freedom in the 1st order CPHF.  IDoFFX=0.
      3 vectors produced by pass  0 Test12= 1.80D-12 3.33D-08 XBig12= 1.22D+02 1.08D+00.
 AX will form     3 AO Fock derivatives at one time.
      3 vectors produced by pass  1 Test12= 1.80D-12 3.33D-08 XBig12= 2.29D+01 3.47D-01.
      3 vectors produced by pass  2 Test12= 1.80D-12 3.33D-08 XBig12= 9.90D+00 1.76D-01.
      3 vectors produced by pass  3 Test12= 1.80D-12 3.33D-08 XBig12= 1.11D+00 9.51D-02.
      3 vectors produced by pass  4 Test12= 1.80D-12 3.33D-08 XBig12= 3.29D-01 4.58D-02.
      3 vectors produced by pass  5 Test12= 1.80D-12 3.33D-08 XBig12= 6.30D-02 1.96D-02.
      3 vectors produced by pass  6 Test12= 1.80D-12 3.33D-08 XBig12= 2.31D-02 1.82D-02.
      3 vectors produced by pass  7 Test12= 1.80D-12 3.33D-08 XBig12= 3.21D-03 8.15D-03.
      3 vectors produced by pass  8 Test12= 1.80D-12 3.33D-08 XBig12= 7.16D-04 2.99D-03.
      3 vectors produced by pass  9 Test12= 1.80D-12 3.33D-08 XBig12= 1.71D-04 1.86D-03.
      3 vectors produced by pass 10 Test12= 1.80D-12 3.33D-08 XBig12= 5.51D-05 7.49D-04.
      3 vectors produced by pass 11 Test12= 1.80D-12 3.33D-08 XBig12= 1.15D-05 4.90D-04.
      3 vectors produced by pass 12 Test12= 1.80D-12 3.33D-08 XBig12= 1.32D-06 1.41D-04.
      3 vectors produced by pass 13 Test12= 1.80D-12 3.33D-08 XBig12= 3.79D-07 4.63D-05.
      3 vectors produced by pass 14 Test12= 1.80D-12 3.33D-08 XBig12= 6.95D-08 2.91D-05.
      3 vectors produced by pass 15 Test12= 1.80D-12 3.33D-08 XBig12= 1.65D-08 9.99D-06.
      3 vectors produced by pass 16 Test12= 1.80D-12 3.33D-08 XBig12= 2.50D-09 6.82D-06.
      3 vectors produced by pass 17 Test12= 1.80D-12 3.33D-08 XBig12= 2.68D-10 1.53D-06.
      3 vectors produced by pass 18 Test12= 1.80D-12 3.33D-08 XBig12= 4.82D-11 6.37D-07.
      3 vectors produced by pass 19 Test12= 1.80D-12 3.33D-08 XBig12= 8.63D-12 2.93D-07.
      2 vectors produced by pass 20 Test12= 1.80D-12 3.33D-08 XBig12= 2.82D-12 1.77D-07.
      2 vectors produced by pass 21 Test12= 1.80D-12 3.33D-08 XBig12= 1.00D-12 7.74D-08.
 Inverted reduced A of dimension    64 with in-core refinement.
 End of Minotr Frequency-dependent properties file   721 does not exist.
 End of Minotr Frequency-dependent properties file   722 does not exist.
 Symmetrizing basis deriv contribution to polar:
 IMax=3 JMax=2 DiffMx= 0.00D+00
 G2DrvN: will do    16 centers at a time, making    3 passes doing MaxLOS=2.
 Calling FoFCou, ICntrl=  3107 FMM=F I1Cent=   0 AccDes= 0.00D+00.
 Calling FoFCou, ICntrl=  3107 FMM=F I1Cent=   0 AccDes= 0.00D+00.
 Calling FoFCou, ICntrl=  3107 FMM=F I1Cent=   0 AccDes= 0.00D+00.
 FoFDir/FoFCou used for L=0 through L=2.
 End of G2Drv Frequency-dependent properties file   721 does not exist.
 End of G2Drv Frequency-dependent properties file   722 does not exist.
          IDoAtm=111111111111111111111111111111111111111111111
          Differentiating once with respect to electric field.
                with respect to dipole field.
          Differentiating once with respect to nuclear coordinates.
          There are   138 degrees of freedom in the 1st order CPHF.  IDoFFX=5.
 Will reuse    3 saved solutions.
    135 vectors produced by pass  0 Test12= 5.41D-14 1.00D-09 XBig12= 1.42D-01 9.02D-02.
 AX will form    45 AO Fock derivatives at one time.
    135 vectors produced by pass  1 Test12= 5.41D-14 1.00D-09 XBig12= 1.99D-02 1.14D-02.
    132 vectors produced by pass  2 Test12= 5.41D-14 1.00D-09 XBig12= 1.36D-04 1.26D-03.
    132 vectors produced by pass  3 Test12= 5.41D-14 1.00D-09 XBig12= 4.71D-07 5.81D-05.
    132 vectors produced by pass  4 Test12= 5.41D-14 1.00D-09 XBig12= 9.42D-10 2.08D-06.
    132 vectors produced by pass  5 Test12= 5.41D-14 1.00D-09 XBig12= 2.00D-12 9.38D-08.
     79 vectors produced by pass  6 Test12= 5.41D-14 1.00D-09 XBig12= 8.30D-14 1.88D-08.
 Inverted reduced A of dimension   877 with in-core refinement.
 Isotropic polarizability for W=    0.000000      192.33 Bohr**3.
 End of Minotr Frequency-dependent properties file   721 does not exist.
 End of Minotr Frequency-dependent properties file   722 does not exist.

 **********************************************************************

            Population analysis using the SCF density.

 **********************************************************************

 Orbital symmetries:
       Occupied  (A) (A) (A) (A) (A) (A) (A) (A) (A) (A) (A) (A)
                 (A) (A) (A) (A) (A) (A) (A) (A) (A) (A) (A) (A)
                 (A) (A) (A) (A) (A) (A) (A) (A) (A) (A) (A) (A)
                 (A) (A) (A) (A) (A) (A) (A) (A) (A) (A) (A) (A)
                 (A) (A) (A) (A) (A) (A) (A) (A) (A) (A) (A) (A)
                 (A) (A) (A) (A) (A) (A) (A) (A) (A) (A) (A) (A)
                 (A) (A) (A) (A) (A) (A) (A) (A) (A) (A) (A) (A)
                 (A) (A) (A) (A) (A) (A) (A)
       Virtual   (A) (A) (A) (A) (A) (A) (A) (A) (A) (A) (A) (A)
                 (A) (A) (A) (A) (A) (A) (A) (A) (A) (A) (A) (A)
                 (A) (A) (A) (A) (A) (A) (A) (A) (A) (A) (A) (A)
                 (A) (A) (A) (A) (A) (A) (A) (A) (A) (A) (A) (A)
                 (A) (A) (A) (A) (A) (A) (A) (A) (A) (A) (A) (A)
                 (A) (A) (A) (A) (A) (A) (A) (A) (A) (A) (A) (A)
                 (A) (A) (A) (A) (A) (A) (A) (A) (A) (A) (A) (A)
                 (A) (A) (A) (A) (A) (A) (A) (A) (A) (A) (A) (A)
                 (A) (A) (A) (A) (A) (A) (A) (A) (A) (A) (A) (A)
                 (A) (A) (A) (A) (A) (A) (A) (A) (A) (A) (A) (A)
                 (A) (A) (A) (A) (A) (A) (A) (A) (A) (A) (A) (A)
                 (A) (A) (A) (A) (A) (A) (A) (A) (A) (A) (A) (A)
                 (A) (A) (A) (A) (A) (A) (A) (A) (A) (A) (A) (A)
                 (A) (A) (A) (A) (A) (A) (A) (A) (A) (A) (A) (A)
                 (A) (A) (A) (A) (A) (A) (A) (A) (A) (A) (A) (A)
                 (A) (A) (A) (A) (A) (A) (A) (A) (A) (A) (A) (A)
                 (A) (A) (A) (A) (A) (A) (A) (A) (A) (A) (A) (A)
                 (A) (A) (A) (A) (A) (A) (A) (A) (A) (A) (A) (A)
                 (A) (A) (A) (A) (A) (A) (A) (A) (A) (A) (A) (A)
                 (A) (A) (A) (A) (A) (A) (A) (A) (A) (A) (A) (A)
                 (A) (A) (A) (A) (A) (A) (A) (A) (A) (A) (A) (A)
                 (A) (A) (A) (A) (A) (A) (A) (A) (A) (A) (A) (A)
                 (A) (A) (A) (A) (A) (A) (A) (A) (A) (A) (A) (A)
                 (A) (A) (A) (A) (A) (A) (A) (A) (A) (A) (A) (A)
                 (A) (A) (A) (A) (A) (A) (A) (A) (A) (A) (A) (A)
                 (A) (A) (A) (A) (A) (A) (A) (A) (A) (A) (A) (A)
                 (A) (A) (A) (A) (A) (A) (A) (A) (A) (A) (A) (A)
                 (A) (A) (A) (A) (A) (A) (A) (A) (A) (A) (A) (A)
                 (A) (A) (A) (A) (A) (A) (A) (A) (A) (A) (A) (A)
                 (A) (A) (A) (A) (A) (A) (A) (A) (A) (A) (A) (A)
                 (A) (A) (A) (A) (A) (A) (A) (A) (A) (A) (A) (A)
                 (A) (A) (A) (A) (A) (A) (A) (A) (A) (A) (A) (A)
                 (A) (A) (A) (A) (A) (A) (A) (A) (A) (A) (A) (A)
                 (A) (A) (A) (A) (A) (A) (A) (A) (A) (A) (A) (A)
                 (A) (A) (A) (A) (A) (A) (A) (A) (A) (A) (A) (A)
                 (A) (A) (A) (A) (A) (A) (A) (A) (A) (A) (A) (A)
                 (A) (A) (A) (A) (A) (A) (A) (A) (A) (A) (A) (A)
                 (A) (A) (A) (A) (A) (A) (A) (A) (A) (A) (A) (A)
                 (A) (A) (A) (A) (A) (A) (A) (A) (A) (A) (A) (A)
                 (A) (A) (A) (A) (A) (A) (A) (A) (A) (A) (A) (A)
                 (A) (A) (A) (A) (A) (A) (A) (A) (A) (A) (A) (A)
                 (A) (A) (A) (A) (A) (A) (A) (A) (A) (A) (A) (A)
                 (A) (A) (A) (A) (A) (A) (A) (A) (A) (A) (A) (A)
                 (A) (A) (A) (A) (A) (A) (A) (A) (A) (A) (A) (A)
                 (A) (A) (A) (A) (A) (A) (A) (A) (A) (A) (A) (A)
                 (A) (A) (A) (A) (A) (A) (A) (A) (A) (A) (A) (A)
                 (A) (A) (A) (A) (A) (A) (A) (A) (A) (A) (A) (A)
                 (A) (A) (A) (A) (A) (A) (A) (A) (A) (A) (A) (A)
                 (A) (A) (A) (A) (A) (A) (A) (A) (A) (A) (A) (A)
                 (A) (A) (A) (A) (A) (A)
 The electronic state is 1-A.
 Alpha  occ. eigenvalues --  -19.19278 -19.18525 -19.17830 -19.17373 -19.17171
 Alpha  occ. eigenvalues --  -19.16594 -19.16378 -19.16219 -19.15218 -19.14541
 Alpha  occ. eigenvalues --  -19.12367 -10.30587 -10.30498 -10.26194 -10.25929
 Alpha  occ. eigenvalues --  -10.25717 -10.25308 -10.24709 -10.24305 -10.24115
 Alpha  occ. eigenvalues --  -10.24040 -10.23979 -10.23946  -1.09910  -1.09364
 Alpha  occ. eigenvalues --   -1.06075  -1.05108  -1.03930  -1.03290  -1.02765
 Alpha  occ. eigenvalues --   -1.02219  -1.01705  -1.00796  -0.99297  -0.82255
 Alpha  occ. eigenvalues --   -0.80046  -0.79523  -0.78017  -0.72178  -0.69621
 Alpha  occ. eigenvalues --   -0.67389  -0.64630  -0.63358  -0.62445  -0.61168
 Alpha  occ. eigenvalues --   -0.60144  -0.56682  -0.56113  -0.55079  -0.54535
 Alpha  occ. eigenvalues --   -0.54365  -0.53318  -0.52702  -0.51642  -0.51207
 Alpha  occ. eigenvalues --   -0.50419  -0.49573  -0.49337  -0.48913  -0.46443
 Alpha  occ. eigenvalues --   -0.46200  -0.45082  -0.44194  -0.43684  -0.42904
 Alpha  occ. eigenvalues --   -0.42449  -0.41327  -0.40891  -0.40265  -0.39554
 Alpha  occ. eigenvalues --   -0.38802  -0.38403  -0.37862  -0.36220  -0.35949
 Alpha  occ. eigenvalues --   -0.35155  -0.34623  -0.34473  -0.33919  -0.33157
 Alpha  occ. eigenvalues --   -0.32614  -0.31238  -0.30418  -0.30129  -0.29788
 Alpha  occ. eigenvalues --   -0.29170  -0.28985  -0.28132  -0.27397  -0.27181
 Alpha  occ. eigenvalues --   -0.26200
 Alpha virt. eigenvalues --   -0.02330  -0.01820  -0.01654  -0.00190   0.00236
 Alpha virt. eigenvalues --    0.01165   0.01825   0.02267   0.02871   0.03503
 Alpha virt. eigenvalues --    0.03678   0.04292   0.04795   0.05320   0.05525
 Alpha virt. eigenvalues --    0.06187   0.06657   0.07431   0.07602   0.07839
 Alpha virt. eigenvalues --    0.08256   0.08630   0.08854   0.09589   0.09889
 Alpha virt. eigenvalues --    0.10410   0.11070   0.11487   0.12045   0.12115
 Alpha virt. eigenvalues --    0.12384   0.13038   0.13214   0.13321   0.13710
 Alpha virt. eigenvalues --    0.13894   0.14256   0.14636   0.14846   0.15229
 Alpha virt. eigenvalues --    0.15447   0.16358   0.16734   0.17039   0.17312
 Alpha virt. eigenvalues --    0.17492   0.17708   0.17875   0.17975   0.18415
 Alpha virt. eigenvalues --    0.18752   0.19261   0.19475   0.19754   0.20132
 Alpha virt. eigenvalues --    0.20445   0.20656   0.20964   0.21224   0.21539
 Alpha virt. eigenvalues --    0.21800   0.22364   0.22699   0.22954   0.23151
 Alpha virt. eigenvalues --    0.23229   0.23420   0.23918   0.24478   0.24530
 Alpha virt. eigenvalues --    0.24843   0.25061   0.25425   0.25499   0.25938
 Alpha virt. eigenvalues --    0.26135   0.26366   0.26641   0.27000   0.27358
 Alpha virt. eigenvalues --    0.27562   0.28008   0.28267   0.28610   0.28863
 Alpha virt. eigenvalues --    0.29071   0.29713   0.29875   0.30063   0.30735
 Alpha virt. eigenvalues --    0.30826   0.30909   0.31578   0.31892   0.32226
 Alpha virt. eigenvalues --    0.32549   0.33356   0.33508   0.33593   0.34118
 Alpha virt. eigenvalues --    0.34260   0.34614   0.34821   0.35578   0.35799
 Alpha virt. eigenvalues --    0.36291   0.36397   0.36838   0.37180   0.37637
 Alpha virt. eigenvalues --    0.38277   0.38372   0.38700   0.39272   0.39471
 Alpha virt. eigenvalues --    0.39964   0.40571   0.40691   0.41561   0.41922
 Alpha virt. eigenvalues --    0.42351   0.42802   0.43269   0.43617   0.44097
 Alpha virt. eigenvalues --    0.44538   0.45064   0.45347   0.46177   0.46701
 Alpha virt. eigenvalues --    0.47226   0.47495   0.48052   0.48854   0.49524
 Alpha virt. eigenvalues --    0.49696   0.50706   0.54121   0.57100   0.57135
 Alpha virt. eigenvalues --    0.59542   0.60464   0.60841   0.61752   0.62267
 Alpha virt. eigenvalues --    0.62809   0.63903   0.65014   0.65699   0.66686
 Alpha virt. eigenvalues --    0.67183   0.68593   0.69106   0.69885   0.70694
 Alpha virt. eigenvalues --    0.71383   0.72362   0.72879   0.73955   0.74214
 Alpha virt. eigenvalues --    0.74904   0.75316   0.76541   0.77072   0.77611
 Alpha virt. eigenvalues --    0.78838   0.79587   0.80265   0.81385   0.82228
 Alpha virt. eigenvalues --    0.82777   0.83042   0.83762   0.84265   0.85304
 Alpha virt. eigenvalues --    0.86861   0.87279   0.88790   0.89133   0.89497
 Alpha virt. eigenvalues --    0.90041   0.90723   0.91292   0.91634   0.91820
 Alpha virt. eigenvalues --    0.92223   0.92914   0.93407   0.93939   0.94757
 Alpha virt. eigenvalues --    0.94843   0.95214   0.95612   0.96036   0.96473
 Alpha virt. eigenvalues --    0.96792   0.97277   0.97679   0.98215   0.98984
 Alpha virt. eigenvalues --    0.99347   0.99446   1.00013   1.00717   1.02408
 Alpha virt. eigenvalues --    1.03399   1.03623   1.03782   1.04955   1.05769
 Alpha virt. eigenvalues --    1.06115   1.07096   1.07221   1.07733   1.08112
 Alpha virt. eigenvalues --    1.09268   1.10578   1.10872   1.11266   1.11897
 Alpha virt. eigenvalues --    1.12179   1.12796   1.13324   1.13808   1.15365
 Alpha virt. eigenvalues --    1.15645   1.16305   1.16462   1.17036   1.17306
 Alpha virt. eigenvalues --    1.17875   1.18395   1.19186   1.19600   1.20262
 Alpha virt. eigenvalues --    1.20741   1.21602   1.21773   1.22524   1.23212
 Alpha virt. eigenvalues --    1.23782   1.23925   1.24161   1.24619   1.25547
 Alpha virt. eigenvalues --    1.25845   1.26332   1.26936   1.27875   1.28425
 Alpha virt. eigenvalues --    1.28595   1.29110   1.30019   1.30522   1.32517
 Alpha virt. eigenvalues --    1.32591   1.33417   1.34108   1.34504   1.35262
 Alpha virt. eigenvalues --    1.35656   1.35869   1.36323   1.36919   1.37917
 Alpha virt. eigenvalues --    1.38633   1.39021   1.39485   1.40227   1.40577
 Alpha virt. eigenvalues --    1.41067   1.41521   1.42260   1.43235   1.43798
 Alpha virt. eigenvalues --    1.44673   1.45138   1.45987   1.46670   1.48259
 Alpha virt. eigenvalues --    1.49109   1.50182   1.50596   1.51636   1.52064
 Alpha virt. eigenvalues --    1.53554   1.54215   1.55104   1.56657   1.56819
 Alpha virt. eigenvalues --    1.57200   1.59310   1.60509   1.60703   1.61413
 Alpha virt. eigenvalues --    1.61923   1.62604   1.63417   1.64410   1.65560
 Alpha virt. eigenvalues --    1.66349   1.67618   1.68343   1.68447   1.69139
 Alpha virt. eigenvalues --    1.70454   1.71239   1.71580   1.72724   1.73864
 Alpha virt. eigenvalues --    1.74525   1.76076   1.76987   1.77810   1.78628
 Alpha virt. eigenvalues --    1.79385   1.79844   1.81955   1.82484   1.83906
 Alpha virt. eigenvalues --    1.85438   1.85747   1.86665   1.88116   1.88778
 Alpha virt. eigenvalues --    1.89511   1.90057   1.91887   1.92716   1.93669
 Alpha virt. eigenvalues --    1.94675   1.95785   1.97274   1.98318   2.00030
 Alpha virt. eigenvalues --    2.00740   2.01722   2.02597   2.04592   2.05599
 Alpha virt. eigenvalues --    2.06111   2.06492   2.08103   2.09047   2.10611
 Alpha virt. eigenvalues --    2.12741   2.12950   2.15038   2.16302   2.17008
 Alpha virt. eigenvalues --    2.19172   2.20184   2.21948   2.23324   2.25243
 Alpha virt. eigenvalues --    2.27116   2.28863   2.29756   2.31200   2.31585
 Alpha virt. eigenvalues --    2.32894   2.34011   2.36230   2.36540   2.37984
 Alpha virt. eigenvalues --    2.39586   2.41222   2.42361   2.47641   2.49881
 Alpha virt. eigenvalues --    2.52879   2.54325   2.56260   2.56903   2.59838
 Alpha virt. eigenvalues --    2.61888   2.63428   2.64414   2.66951   2.67704
 Alpha virt. eigenvalues --    2.68454   2.69621   2.70622   2.71781   2.72997
 Alpha virt. eigenvalues --    2.75327   2.76025   2.76416   2.78228   2.79352
 Alpha virt. eigenvalues --    2.81090   2.81721   2.83449   2.84413   2.85865
 Alpha virt. eigenvalues --    2.88895   2.90198   2.91665   2.92026   2.92795
 Alpha virt. eigenvalues --    2.93607   2.94348   2.94571   2.96412   2.97568
 Alpha virt. eigenvalues --    2.98172   2.98669   2.99530   3.00045   3.00519
 Alpha virt. eigenvalues --    3.01809   3.02502   3.03445   3.04866   3.05308
 Alpha virt. eigenvalues --    3.05322   3.05826   3.06913   3.07274   3.08291
 Alpha virt. eigenvalues --    3.08656   3.09867   3.11030   3.12315   3.13702
 Alpha virt. eigenvalues --    3.16672   3.17619   3.20358   3.21448   3.23908
 Alpha virt. eigenvalues --    3.24974   3.31213   3.38057   3.76160   3.76613
 Alpha virt. eigenvalues --    3.98155   4.02061   4.08354   4.10426   4.11990
 Alpha virt. eigenvalues --    4.12823   4.14254   4.14564   4.15714   4.15983
 Alpha virt. eigenvalues --    4.16164   4.18235   4.19140   4.22462   4.23401
 Alpha virt. eigenvalues --    4.24229   4.25638   4.25876   4.26472   4.27035
 Alpha virt. eigenvalues --    4.27578   4.29040   4.29366   4.30236   4.30900
 Alpha virt. eigenvalues --    4.31039   4.31604   4.31918   4.32569   4.32942
 Alpha virt. eigenvalues --    4.33936   4.34166   4.35520   4.35949   4.36311
 Alpha virt. eigenvalues --    4.36459   4.36829   4.37769   4.38412   4.39048
 Alpha virt. eigenvalues --    4.39659   4.40704   4.41999   4.43432   4.44056
 Alpha virt. eigenvalues --    4.44672   4.46543   4.47418   4.48710   4.50907
 Alpha virt. eigenvalues --    4.51754   4.53015   4.53499   4.55363   4.56219
 Alpha virt. eigenvalues --    4.56478   4.57187   4.58393   4.58819   4.59888
 Alpha virt. eigenvalues --    4.60912   4.61598   4.63436   4.63963   4.64782
 Alpha virt. eigenvalues --    4.65352   4.65782   4.66881   4.67382   4.67495
 Alpha virt. eigenvalues --    4.68075   4.69088   4.69271   4.69563   4.70675
 Alpha virt. eigenvalues --    4.72034   4.72145   4.72594   4.72925   4.73951
 Alpha virt. eigenvalues --    4.74423   4.75244   4.75904   4.76675   4.77369
 Alpha virt. eigenvalues --    4.78749   4.79189   4.79597   4.80545   4.81751
 Alpha virt. eigenvalues --    4.82109   4.82857   4.83359   4.84961   4.85528
 Alpha virt. eigenvalues --    4.86458   4.87449   4.89788   4.90911   4.91185
 Alpha virt. eigenvalues --    4.93227   4.94639   4.94989   4.97237   4.98126
 Alpha virt. eigenvalues --    5.00082   5.00144   5.02103   5.02637   5.03844
 Alpha virt. eigenvalues --    5.07316   5.09059   5.10688   5.12457   5.16051
 Alpha virt. eigenvalues --    5.23025   5.24783   5.27435   5.29328   5.40085
 Alpha virt. eigenvalues --    5.47511   5.78865   6.01924   6.26997   6.47495
 Alpha virt. eigenvalues --    6.74161   6.75035   6.77614   6.82651   6.83759
 Alpha virt. eigenvalues --    6.91777   6.93265   6.96799   7.01476   7.05020
 Alpha virt. eigenvalues --    7.10630  11.85537  11.91297  12.06564  12.15178
 Alpha virt. eigenvalues --   12.26110  12.36418  12.70786  12.80122  12.83307
 Alpha virt. eigenvalues --   12.94183  13.13767  13.15852  13.21760  13.24813
 Alpha virt. eigenvalues --   13.31507  13.36847  13.41293  13.42103  13.48294
 Alpha virt. eigenvalues --   13.56694  13.68461  13.81297  13.88914
          Condensed to atoms (all electrons):
              1          2          3          4          5          6
     1  O    8.196762   0.286143  -0.104676  -0.020289   0.021252   0.001348
     2  C    0.286143   6.757912  -0.650964   0.038093  -0.053667  -0.830709
     3  C   -0.104676  -0.650964   6.640105   0.184459   0.002104   0.251148
     4  O   -0.020289   0.038093   0.184459   8.188696   0.235366  -0.077629
     5  H    0.021252  -0.053667   0.002104   0.235366   0.425719   0.024316
     6  C    0.001348  -0.830709   0.251148  -0.077629   0.024316   7.477250
     7  O    0.000125   0.000551  -0.099196   0.008606  -0.000517   0.216784
     8  H    0.000002  -0.000027   0.006536  -0.000351   0.000010   0.023317
     9  C    0.016048  -0.034284  -0.298285   0.003913  -0.001601   0.340445
    10  O   -0.012606   0.054674   0.015666  -0.000085  -0.000042  -0.002252
    11  H    0.002347  -0.016312  -0.000916   0.000001   0.000000   0.000494
    12  C   -0.102320  -0.713328   0.219749   0.013501   0.008379  -0.016415
    13  O    0.002154  -0.039979  -0.052271  -0.002583   0.000124   0.006687
    14  C    0.001241   0.631871  -0.312548   0.004944   0.000676  -1.525137
    15  O   -0.000191  -0.000948  -0.016172   0.000781  -0.000038  -0.013600
    16  C   -0.000529   0.080432   0.049560  -0.000747   0.000104  -0.055073
    17  C   -0.000042  -0.044316  -0.000235  -0.000086   0.000035   0.007153
    18  O    0.000037   0.004873  -0.000613  -0.000005   0.000000  -0.007020
    19  H   -0.000035  -0.001586   0.003821   0.000000   0.000000   0.003265
    20  C    0.000035   0.006722  -0.009731  -0.000031   0.000001   0.058930
    21  O    0.000000  -0.000038  -0.000022   0.000000   0.000000  -0.000498
    22  H    0.000000  -0.000001   0.000001   0.000000   0.000000  -0.000027
    23  C    0.000011   0.005956  -0.003953   0.000169  -0.000015  -0.072442
    24  O    0.000004   0.002421  -0.007683  -0.000028  -0.000002  -0.013919
    25  H    0.000000  -0.000030   0.000518   0.000002   0.000000   0.000486
    26  C    0.000115  -0.008378  -0.022344  -0.000262   0.000020  -0.037223
    27  O    0.000000  -0.000004  -0.000055   0.000000   0.000000   0.004174
    28  C   -0.000002   0.000293  -0.001252   0.000000   0.000000  -0.006671
    29  O    0.000000  -0.000003   0.000024   0.000000   0.000000  -0.000246
    30  H    0.000000   0.000000   0.000000   0.000000   0.000000  -0.000001
    31  H    0.000000   0.000005  -0.000001   0.000000   0.000000  -0.000115
    32  H    0.000000   0.000128   0.000000   0.000000   0.000000   0.000503
    33  H    0.000000  -0.000373   0.001385   0.000000   0.000000   0.004135
    34  H    0.000000  -0.002645   0.004935   0.000000   0.000000   0.006718
    35  H    0.000000  -0.000188   0.001098   0.000000   0.000000   0.001757
    36  H    0.000000  -0.000011   0.000026   0.000000   0.000000   0.000989
    37  H    0.000000   0.000036   0.000308   0.000000   0.000000  -0.002893
    38  H   -0.000126  -0.011078   0.003795   0.000004   0.000000  -0.002547
    39  H    0.001594   0.019194  -0.012241  -0.000053   0.000000   0.013309
    40  H    0.005841   0.105662  -0.070876  -0.000010   0.000011  -0.004239
    41  H    0.265608   0.022623  -0.005102   0.000698  -0.002568   0.002997
    42  H   -0.016609   0.391023  -0.067203  -0.000793  -0.000215  -0.011445
    43  H   -0.000215   0.024904   0.309349  -0.030318  -0.002671  -0.193083
    44  H   -0.000229   0.002798  -0.115943   0.001968  -0.000213   0.357339
    45  H    0.000013  -0.032609  -0.027485   0.000068   0.000001   0.030054
              7          8          9         10         11         12
     1  O    0.000125   0.000002   0.016048  -0.012606   0.002347  -0.102320
     2  C    0.000551  -0.000027  -0.034284   0.054674  -0.016312  -0.713328
     3  C   -0.099196   0.006536  -0.298285   0.015666  -0.000916   0.219749
     4  O    0.008606  -0.000351   0.003913  -0.000085   0.000001   0.013501
     5  H   -0.000517   0.000010  -0.001601  -0.000042   0.000000   0.008379
     6  C    0.216784   0.023317   0.340445  -0.002252   0.000494  -0.016415
     7  O    8.283376   0.242167  -0.000092  -0.000007   0.000000   0.010189
     8  H    0.242167   0.338717   0.000042   0.000000   0.000000  -0.000725
     9  C   -0.000092   0.000042   7.332975   0.090582   0.008363  -1.564874
    10  O   -0.000007   0.000000   0.090582   8.271291   0.228259  -0.044448
    11  H    0.000000   0.000000   0.008363   0.228259   0.439873   0.015583
    12  C    0.010189  -0.000725  -1.564874  -0.044448   0.015583   9.176107
    13  O    0.001462   0.000519  -0.015001  -0.001978  -0.000657   0.010717
    14  C    0.014536  -0.048845  -0.619294   0.006065  -0.003652  -0.838316
    15  O   -0.004322   0.010977   0.000365   0.000064  -0.000001  -0.016602
    16  C   -0.019316   0.001569  -0.115227  -0.000440  -0.000130   0.018269
    17  C   -0.000124   0.000949   0.017535  -0.000056   0.000006  -0.088186
    18  O    0.000022  -0.000006   0.001160  -0.000058  -0.000009  -0.002143
    19  H   -0.000067  -0.000004  -0.005524  -0.000025  -0.000001  -0.004159
    20  C    0.000820   0.001033   0.002436   0.000008   0.000003  -0.013077
    21  O    0.000000   0.000000   0.000049   0.000000   0.000000  -0.000147
    22  H    0.000000   0.000000   0.000002   0.000000   0.000000   0.000018
    23  C    0.004741   0.015476   0.001322   0.000001   0.000000  -0.001305
    24  O   -0.031344  -0.014382  -0.000014   0.000000   0.000000   0.001271
    25  H    0.003956  -0.000309  -0.000009   0.000000   0.000000  -0.000277
    26  C    0.007609  -0.018024   0.002891  -0.000017  -0.000002  -0.000948
    27  O   -0.000136  -0.000167   0.000063   0.000000   0.000000   0.000353
    28  C   -0.000288  -0.000219   0.000443   0.000000   0.000000   0.008014
    29  O   -0.000003  -0.000001  -0.000008   0.000000   0.000000   0.000069
    30  H    0.000000   0.000000   0.000000   0.000000   0.000000  -0.000001
    31  H    0.000000   0.000000  -0.000001   0.000000   0.000000   0.000092
    32  H    0.000000   0.000000  -0.000119   0.000000   0.000000   0.000814
    33  H   -0.000008  -0.000002  -0.000296   0.000000   0.000000  -0.000416
    34  H   -0.000907  -0.000091   0.000492   0.000000   0.000000   0.000458
    35  H   -0.000408   0.000004   0.000149   0.000000   0.000000   0.000923
    36  H   -0.000275   0.000219   0.000002   0.000000   0.000000   0.000122
    37  H   -0.000403  -0.000063   0.000004   0.000000   0.000000  -0.000032
    38  H   -0.000013   0.000000   0.392455  -0.013969  -0.014776  -0.022519
    39  H    0.000011   0.000000   0.639797  -0.057578   0.001928  -0.295590
    40  H    0.000256   0.000002   0.056974   0.002705  -0.000312   0.029428
    41  H   -0.000025   0.000000   0.003885  -0.000036  -0.000061  -0.028437
    42  H    0.001180  -0.000001  -0.021611  -0.001394  -0.000019  -0.099906
    43  H    0.008313  -0.000184   0.008295  -0.000083   0.000000   0.035352
    44  H   -0.035581  -0.002597   0.017967   0.000024   0.000000   0.077099
    45  H   -0.001183   0.000046   0.023311   0.000092   0.000000   0.099901
             13         14         15         16         17         18
     1  O    0.002154   0.001241  -0.000191  -0.000529  -0.000042   0.000037
     2  C   -0.039979   0.631871  -0.000948   0.080432  -0.044316   0.004873
     3  C   -0.052271  -0.312548  -0.016172   0.049560  -0.000235  -0.000613
     4  O   -0.002583   0.004944   0.000781  -0.000747  -0.000086  -0.000005
     5  H    0.000124   0.000676  -0.000038   0.000104   0.000035   0.000000
     6  C    0.006687  -1.525137  -0.013600  -0.055073   0.007153  -0.007020
     7  O    0.001462   0.014536  -0.004322  -0.019316  -0.000124   0.000022
     8  H    0.000519  -0.048845   0.010977   0.001569   0.000949  -0.000006
     9  C   -0.015001  -0.619294   0.000365  -0.115227   0.017535   0.001160
    10  O   -0.001978   0.006065   0.000064  -0.000440  -0.000056  -0.000058
    11  H   -0.000657  -0.003652  -0.000001  -0.000130   0.000006  -0.000009
    12  C    0.010717  -0.838316  -0.016602   0.018269  -0.088186  -0.002143
    13  O    8.160661   0.232691  -0.012620  -0.023328   0.026521  -0.029049
    14  C    0.232691   8.122396   0.253986  -0.560524   0.211850   0.002041
    15  O   -0.012620   0.253986   8.157008   0.057618  -0.042606  -0.000940
    16  C   -0.023328  -0.560524   0.057618   9.113038  -1.378271  -0.035268
    17  C    0.026521   0.211850  -0.042606  -1.378271   7.668741   0.168416
    18  O   -0.029049   0.002041  -0.000940  -0.035268   0.168416   8.221742
    19  H    0.030508   0.012199   0.006493  -0.047340   0.058261   0.225242
    20  C   -0.006257  -0.249370   0.011639  -0.738522  -0.605160  -0.026880
    21  O   -0.000031   0.002636   0.000406   0.025629  -0.077404  -0.005049
    22  H   -0.000001   0.000067  -0.000033  -0.004798   0.038362   0.000063
    23  C    0.003627   0.126913  -0.005613   0.015058  -0.278344   0.010201
    24  O   -0.000056   0.024832  -0.010199   0.092723  -0.004963   0.000004
    25  H   -0.000010  -0.005460   0.001833  -0.017884  -0.000763   0.000000
    26  C   -0.011768  -0.133495  -0.046495  -1.725426   0.141789   0.038459
    27  O   -0.000089   0.010440  -0.001247   0.083751  -0.001263  -0.001163
    28  C    0.000018   0.048284  -0.001465   0.785718  -0.149470   0.002000
    29  O    0.000016  -0.000081  -0.000223  -0.014472  -0.029271  -0.000025
    30  H    0.000000  -0.000060   0.000002   0.000150   0.011146  -0.000018
    31  H    0.000015   0.001829   0.000314   0.048359  -0.009138   0.000190
    32  H    0.000158  -0.004763   0.001543   0.099037  -0.232770   0.007641
    33  H   -0.000385  -0.000938  -0.000054  -0.126910   0.309748  -0.024394
    34  H   -0.003711   0.017885  -0.007083   0.118621   0.066035   0.000039
    35  H   -0.000564   0.038177  -0.001837  -0.003785   0.005612   0.000037
    36  H    0.000023   0.004491   0.001351   0.009095   0.005913   0.000003
    37  H    0.000005   0.004595   0.000559   0.040631  -0.009784   0.000032
    38  H   -0.002748  -0.001750  -0.000148   0.001371   0.000967   0.000086
    39  H   -0.003484   0.000279  -0.000458  -0.004240   0.001956  -0.000047
    40  H   -0.025018   0.147785  -0.000718  -0.003150   0.004195   0.000244
    41  H   -0.000606  -0.001327   0.000005   0.000135  -0.000056  -0.000001
    42  H    0.007667   0.076712  -0.000235  -0.002533   0.001149   0.000035
    43  H    0.004132   0.081280   0.000543  -0.003230   0.001315   0.000018
    44  H    0.009983  -0.034100  -0.009885  -0.034031   0.005463   0.000082
    45  H   -0.042609   0.237370  -0.021015  -0.037289   0.012361  -0.000612
             19         20         21         22         23         24
     1  O   -0.000035   0.000035   0.000000   0.000000   0.000011   0.000004
     2  C   -0.001586   0.006722  -0.000038  -0.000001   0.005956   0.002421
     3  C    0.003821  -0.009731  -0.000022   0.000001  -0.003953  -0.007683
     4  O    0.000000  -0.000031   0.000000   0.000000   0.000169  -0.000028
     5  H    0.000000   0.000001   0.000000   0.000000  -0.000015  -0.000002
     6  C    0.003265   0.058930  -0.000498  -0.000027  -0.072442  -0.013919
     7  O   -0.000067   0.000820   0.000000   0.000000   0.004741  -0.031344
     8  H   -0.000004   0.001033   0.000000   0.000000   0.015476  -0.014382
     9  C   -0.005524   0.002436   0.000049   0.000002   0.001322  -0.000014
    10  O   -0.000025   0.000008   0.000000   0.000000   0.000001   0.000000
    11  H   -0.000001   0.000003   0.000000   0.000000   0.000000   0.000000
    12  C   -0.004159  -0.013077  -0.000147   0.000018  -0.001305   0.001271
    13  O    0.030508  -0.006257  -0.000031  -0.000001   0.003627  -0.000056
    14  C    0.012199  -0.249370   0.002636   0.000067   0.126913   0.024832
    15  O    0.006493   0.011639   0.000406  -0.000033  -0.005613  -0.010199
    16  C   -0.047340  -0.738522   0.025629  -0.004798   0.015058   0.092723
    17  C    0.058261  -0.605160  -0.077404   0.038362  -0.278344  -0.004963
    18  O    0.225242  -0.026880  -0.005049   0.000063   0.010201   0.000004
    19  H    0.382426  -0.023853   0.000150   0.000016  -0.002577  -0.000006
    20  C   -0.023853   7.515289   0.144503  -0.052125   0.072948  -0.003846
    21  O    0.000150   0.144503   8.246269   0.234673  -0.000454   0.000010
    22  H    0.000016  -0.052125   0.234673   0.438286  -0.000187   0.000000
    23  C   -0.002577   0.072948  -0.000454  -0.000187   6.587251   0.088579
    24  O   -0.000006  -0.003846   0.000010   0.000000   0.088579   8.312585
    25  H    0.000000   0.000882   0.000000   0.000000  -0.011428   0.245440
    26  C   -0.006383   0.543103   0.000108   0.000514  -1.205122  -0.065881
    27  O    0.000038  -0.135634   0.003527  -0.000579  -0.098547   0.001798
    28  C    0.001665  -0.703440   0.016520   0.005308  -0.073455   0.003164
    29  O    0.000027   0.012426  -0.000308   0.015876   0.011423  -0.000012
    30  H    0.000000  -0.049659   0.000426  -0.001647  -0.000365  -0.000001
    31  H    0.000005  -0.125796   0.005216   0.000396   0.000261   0.000023
    32  H   -0.000208   0.379273  -0.030264  -0.005418   0.009533   0.000021
    33  H   -0.003707   0.008140  -0.000023  -0.000184   0.014018  -0.000030
    34  H    0.000121   0.012481  -0.000281   0.000008  -0.001621   0.000048
    35  H    0.000026  -0.048450   0.000100   0.000003   0.074896   0.003745
    36  H    0.000000  -0.000366  -0.000005   0.000000   0.394919  -0.014942
    37  H    0.000000  -0.002085   0.000008   0.000000   0.644208  -0.061590
    38  H    0.000854  -0.000410   0.000000   0.000000  -0.000004   0.000000
    39  H    0.000011   0.000051   0.000000   0.000000   0.000004   0.000000
    40  H   -0.000422   0.000492  -0.000001   0.000000   0.000091   0.000004
    41  H    0.000000   0.000001   0.000000   0.000000   0.000001   0.000000
    42  H   -0.000012   0.000015   0.000000   0.000000   0.000078   0.000010
    43  H   -0.000001  -0.000001   0.000000   0.000000   0.000371   0.000078
    44  H   -0.000014   0.000588   0.000000   0.000000   0.002360  -0.000081
    45  H   -0.000727   0.008974   0.000006   0.000000  -0.002062  -0.000156
             25         26         27         28         29         30
     1  O    0.000000   0.000115   0.000000  -0.000002   0.000000   0.000000
     2  C   -0.000030  -0.008378  -0.000004   0.000293  -0.000003   0.000000
     3  C    0.000518  -0.022344  -0.000055  -0.001252   0.000024   0.000000
     4  O    0.000002  -0.000262   0.000000   0.000000   0.000000   0.000000
     5  H    0.000000   0.000020   0.000000   0.000000   0.000000   0.000000
     6  C    0.000486  -0.037223   0.004174  -0.006671  -0.000246  -0.000001
     7  O    0.003956   0.007609  -0.000136  -0.000288  -0.000003   0.000000
     8  H   -0.000309  -0.018024  -0.000167  -0.000219  -0.000001   0.000000
     9  C   -0.000009   0.002891   0.000063   0.000443  -0.000008   0.000000
    10  O    0.000000  -0.000017   0.000000   0.000000   0.000000   0.000000
    11  H    0.000000  -0.000002   0.000000   0.000000   0.000000   0.000000
    12  C   -0.000277  -0.000948   0.000353   0.008014   0.000069  -0.000001
    13  O   -0.000010  -0.011768  -0.000089   0.000018   0.000016   0.000000
    14  C   -0.005460  -0.133495   0.010440   0.048284  -0.000081  -0.000060
    15  O    0.001833  -0.046495  -0.001247  -0.001465  -0.000223   0.000002
    16  C   -0.017884  -1.725426   0.083751   0.785718  -0.014472   0.000150
    17  C   -0.000763   0.141789  -0.001263  -0.149470  -0.029271   0.011146
    18  O    0.000000   0.038459  -0.001163   0.002000  -0.000025  -0.000018
    19  H    0.000000  -0.006383   0.000038   0.001665   0.000027   0.000000
    20  C    0.000882   0.543103  -0.135634  -0.703440   0.012426  -0.049659
    21  O    0.000000   0.000108   0.003527   0.016520  -0.000308   0.000426
    22  H    0.000000   0.000514  -0.000579   0.005308   0.015876  -0.001647
    23  C   -0.011428  -1.205122  -0.098547  -0.073455   0.011423  -0.000365
    24  O    0.245440  -0.065881   0.001798   0.003164  -0.000012  -0.000001
    25  H    0.415416   0.025087  -0.000741  -0.001024  -0.000004   0.000000
    26  C    0.025087   9.281136   0.072258  -0.741110   0.006386  -0.004748
    27  O   -0.000741   0.072258   8.218251   0.226602  -0.095970   0.007785
    28  C   -0.001024  -0.741110   0.226602   5.665722   0.206203   0.036040
    29  O   -0.000004   0.006386  -0.095970   0.206203   8.182412   0.253593
    30  H    0.000000  -0.004748   0.007785   0.036040   0.253593   0.429902
    31  H    0.000000  -0.000913  -0.042399   0.419162  -0.019126  -0.008063
    32  H    0.000000   0.014246  -0.000190   0.011344  -0.007392   0.000375
    33  H    0.000000   0.095918   0.001360  -0.030529   0.000143   0.000009
    34  H   -0.000011   0.044250   0.004785  -0.002823  -0.000364   0.000004
    35  H   -0.000299   0.145444  -0.022691   0.048996  -0.001472   0.000027
    36  H   -0.015232  -0.054426  -0.004090  -0.000835  -0.000204   0.000000
    37  H    0.001988  -0.315290   0.001673   0.002378  -0.000200   0.000001
    38  H    0.000000   0.000122   0.000000   0.000010   0.000000   0.000000
    39  H    0.000000  -0.000063   0.000000  -0.000011   0.000000   0.000000
    40  H    0.000000  -0.000280   0.000000  -0.000014   0.000000   0.000000
    41  H    0.000000  -0.000006   0.000000   0.000000   0.000000   0.000000
    42  H    0.000000  -0.000064   0.000000  -0.000005   0.000000   0.000000
    43  H    0.000000  -0.000003   0.000000  -0.000003   0.000000   0.000000
    44  H    0.000005   0.001970  -0.000004   0.000005   0.000000   0.000000
    45  H    0.000003   0.010030   0.000089  -0.000112  -0.000003   0.000000
             31         32         33         34         35         36
     1  O    0.000000   0.000000   0.000000   0.000000   0.000000   0.000000
     2  C    0.000005   0.000128  -0.000373  -0.002645  -0.000188  -0.000011
     3  C   -0.000001   0.000000   0.001385   0.004935   0.001098   0.000026
     4  O    0.000000   0.000000   0.000000   0.000000   0.000000   0.000000
     5  H    0.000000   0.000000   0.000000   0.000000   0.000000   0.000000
     6  C   -0.000115   0.000503   0.004135   0.006718   0.001757   0.000989
     7  O    0.000000   0.000000  -0.000008  -0.000907  -0.000408  -0.000275
     8  H    0.000000   0.000000  -0.000002  -0.000091   0.000004   0.000219
     9  C   -0.000001  -0.000119  -0.000296   0.000492   0.000149   0.000002
    10  O    0.000000   0.000000   0.000000   0.000000   0.000000   0.000000
    11  H    0.000000   0.000000   0.000000   0.000000   0.000000   0.000000
    12  C    0.000092   0.000814  -0.000416   0.000458   0.000923   0.000122
    13  O    0.000015   0.000158  -0.000385  -0.003711  -0.000564   0.000023
    14  C    0.001829  -0.004763  -0.000938   0.017885   0.038177   0.004491
    15  O    0.000314   0.001543  -0.000054  -0.007083  -0.001837   0.001351
    16  C    0.048359   0.099037  -0.126910   0.118621  -0.003785   0.009095
    17  C   -0.009138  -0.232770   0.309748   0.066035   0.005612   0.005913
    18  O    0.000190   0.007641  -0.024394   0.000039   0.000037   0.000003
    19  H    0.000005  -0.000208  -0.003707   0.000121   0.000026   0.000000
    20  C   -0.125796   0.379273   0.008140   0.012481  -0.048450  -0.000366
    21  O    0.005216  -0.030264  -0.000023  -0.000281   0.000100  -0.000005
    22  H    0.000396  -0.005418  -0.000184   0.000008   0.000003   0.000000
    23  C    0.000261   0.009533   0.014018  -0.001621   0.074896   0.394919
    24  O    0.000023   0.000021  -0.000030   0.000048   0.003745  -0.014942
    25  H    0.000000   0.000000   0.000000  -0.000011  -0.000299  -0.015232
    26  C   -0.000913   0.014246   0.095918   0.044250   0.145444  -0.054426
    27  O   -0.042399  -0.000190   0.001360   0.004785  -0.022691  -0.004090
    28  C    0.419162   0.011344  -0.030529  -0.002823   0.048996  -0.000835
    29  O   -0.019126  -0.007392   0.000143  -0.000364  -0.001472  -0.000204
    30  H   -0.008063   0.000375   0.000009   0.000004   0.000027   0.000000
    31  H    0.585488   0.005356   0.001608  -0.000041   0.002582  -0.000020
    32  H    0.005356   0.612282   0.006744   0.001881  -0.000023   0.000001
    33  H    0.001608   0.006744   0.616506   0.005380   0.002030   0.000004
    34  H   -0.000041   0.001881   0.005380   0.599839   0.006087  -0.000012
    35  H    0.002582  -0.000023   0.002030   0.006087   0.629716  -0.005173
    36  H   -0.000020   0.000001   0.000004  -0.000012  -0.005173   0.572234
    37  H   -0.000005  -0.000023  -0.000005   0.002931   0.006583  -0.040196
    38  H    0.000000   0.000000  -0.000001   0.000000   0.000000   0.000000
    39  H    0.000000   0.000000   0.000000   0.000000   0.000000   0.000000
    40  H    0.000000   0.000000  -0.000001  -0.000002   0.000000   0.000000
    41  H    0.000000   0.000000   0.000000   0.000000   0.000000   0.000000
    42  H    0.000000   0.000000   0.000000   0.000000   0.000000   0.000000
    43  H    0.000000   0.000000   0.000000   0.000000   0.000000   0.000000
    44  H    0.000000   0.000000  -0.000008  -0.000001  -0.000004   0.000000
    45  H    0.000000  -0.000001  -0.000032   0.004479  -0.000008   0.000000
             37         38         39         40         41         42
     1  O    0.000000  -0.000126   0.001594   0.005841   0.265608  -0.016609
     2  C    0.000036  -0.011078   0.019194   0.105662   0.022623   0.391023
     3  C    0.000308   0.003795  -0.012241  -0.070876  -0.005102  -0.067203
     4  O    0.000000   0.000004  -0.000053  -0.000010   0.000698  -0.000793
     5  H    0.000000   0.000000   0.000000   0.000011  -0.002568  -0.000215
     6  C   -0.002893  -0.002547   0.013309  -0.004239   0.002997  -0.011445
     7  O   -0.000403  -0.000013   0.000011   0.000256  -0.000025   0.001180
     8  H   -0.000063   0.000000   0.000000   0.000002   0.000000  -0.000001
     9  C    0.000004   0.392455   0.639797   0.056974   0.003885  -0.021611
    10  O    0.000000  -0.013969  -0.057578   0.002705  -0.000036  -0.001394
    11  H    0.000000  -0.014776   0.001928  -0.000312  -0.000061  -0.000019
    12  C   -0.000032  -0.022519  -0.295590   0.029428  -0.028437  -0.099906
    13  O    0.000005  -0.002748  -0.003484  -0.025018  -0.000606   0.007667
    14  C    0.004595  -0.001750   0.000279   0.147785  -0.001327   0.076712
    15  O    0.000559  -0.000148  -0.000458  -0.000718   0.000005  -0.000235
    16  C    0.040631   0.001371  -0.004240  -0.003150   0.000135  -0.002533
    17  C   -0.009784   0.000967   0.001956   0.004195  -0.000056   0.001149
    18  O    0.000032   0.000086  -0.000047   0.000244  -0.000001   0.000035
    19  H    0.000000   0.000854   0.000011  -0.000422   0.000000  -0.000012
    20  C   -0.002085  -0.000410   0.000051   0.000492   0.000001   0.000015
    21  O    0.000008   0.000000   0.000000  -0.000001   0.000000   0.000000
    22  H    0.000000   0.000000   0.000000   0.000000   0.000000   0.000000
    23  C    0.644208  -0.000004   0.000004   0.000091   0.000001   0.000078
    24  O   -0.061590   0.000000   0.000000   0.000004   0.000000   0.000010
    25  H    0.001988   0.000000   0.000000   0.000000   0.000000   0.000000
    26  C   -0.315290   0.000122  -0.000063  -0.000280  -0.000006  -0.000064
    27  O    0.001673   0.000000   0.000000   0.000000   0.000000   0.000000
    28  C    0.002378   0.000010  -0.000011  -0.000014   0.000000  -0.000005
    29  O   -0.000200   0.000000   0.000000   0.000000   0.000000   0.000000
    30  H    0.000001   0.000000   0.000000   0.000000   0.000000   0.000000
    31  H   -0.000005   0.000000   0.000000   0.000000   0.000000   0.000000
    32  H   -0.000023   0.000000   0.000000   0.000000   0.000000   0.000000
    33  H   -0.000005  -0.000001   0.000000  -0.000001   0.000000   0.000000
    34  H    0.002931   0.000000   0.000000  -0.000002   0.000000   0.000000
    35  H    0.006583   0.000000   0.000000   0.000000   0.000000   0.000000
    36  H   -0.040196   0.000000   0.000000   0.000000   0.000000   0.000000
    37  H    0.567449   0.000000   0.000000   0.000000   0.000000   0.000000
    38  H    0.000000   0.577146  -0.044542  -0.004373   0.000018   0.000049
    39  H    0.000000  -0.044542   0.585960   0.006283  -0.000249   0.004430
    40  H    0.000000  -0.004373   0.006283   0.624914  -0.000225   0.006720
    41  H    0.000000   0.000018  -0.000249  -0.000225   0.412415  -0.014585
    42  H    0.000000   0.000049   0.004430   0.006720  -0.014585   0.618224
    43  H    0.000000   0.000004  -0.000001   0.001590  -0.000161   0.006380
    44  H    0.000001   0.000001  -0.000030  -0.000101   0.000020   0.001752
    45  H    0.000011  -0.000025  -0.000021   0.002962   0.000004  -0.000019
             43         44         45
     1  O   -0.000215  -0.000229   0.000013
     2  C    0.024904   0.002798  -0.032609
     3  C    0.309349  -0.115943  -0.027485
     4  O   -0.030318   0.001968   0.000068
     5  H   -0.002671  -0.000213   0.000001
     6  C   -0.193083   0.357339   0.030054
     7  O    0.008313  -0.035581  -0.001183
     8  H   -0.000184  -0.002597   0.000046
     9  C    0.008295   0.017967   0.023311
    10  O   -0.000083   0.000024   0.000092
    11  H    0.000000   0.000000   0.000000
    12  C    0.035352   0.077099   0.099901
    13  O    0.004132   0.009983  -0.042609
    14  C    0.081280  -0.034100   0.237370
    15  O    0.000543  -0.009885  -0.021015
    16  C   -0.003230  -0.034031  -0.037289
    17  C    0.001315   0.005463   0.012361
    18  O    0.000018   0.000082  -0.000612
    19  H   -0.000001  -0.000014  -0.000727
    20  C   -0.000001   0.000588   0.008974
    21  O    0.000000   0.000000   0.000006
    22  H    0.000000   0.000000   0.000000
    23  C    0.000371   0.002360  -0.002062
    24  O    0.000078  -0.000081  -0.000156
    25  H    0.000000   0.000005   0.000003
    26  C   -0.000003   0.001970   0.010030
[...]
 913,0.00002134,-0.00777573,-0.00185648,0.00128450,0.00155261,0.0008185
 0,0.00077185,-0.00019666,-0.00007107,0.00001701,0.00007210,-0.00000487
 ,0.00016054,0.00000937,0.00001398,-0.00002735,-0.00003083,0.00000277,0
 .00000693,0.00003152,-0.00001829,0.00000686,-0.00002461,0.00001895,0.0
 0000398,-0.00000160,0.00000017,-0.00000099,0.00000978,-0.00000401,0.00
 000430,-0.00000307,-0.00000134,-0.00000111,-0.00001058,0.00000654,-0.0
 0000064,0.00001729,0.00001162,0.00003568,-0.00001332,-0.00000001,0.000
 00734,-0.00001934,-0.00001118,-0.00000278,0.00001475,-0.00000216,0.000
 00862,-0.00001558,0.00000656,-0.00000449,0.00000590,-0.00000031,-0.000
 00038,-0.00000183,-0.00000071,0.00000054,0.00000333,0.00000038,0.00000
 234,0.00000453,0.00000105,-0.00000353,0.00000929,0.00000252,0.00000863
 ,0.00000812,0.00000150,-0.00000606,0.00000788,0.00000189,0.00000522,-0
 .00000011,-0.00000052,0.00000416,0.00000416,-0.00000049,-0.00000249,0.
 00037542,0.00014332,-0.00001402,0.00077807,-0.00093121,-0.00008070,0.0
 0081243,-0.00052949,0.00051878,0.00160188,0.00015238,-0.00075943,0.370
 57894,-0.01203020,-0.00192057,-0.00651476,-0.03413553,-0.04705671,0.00
 592746,0.03378355,-0.00054609,-0.00478317,-0.00176480,0.00369129,-0.00
 093766,0.00052331,-0.00018363,0.00040945,0.00071992,0.00106322,0.00096
 750,-0.00038193,-0.00029609,-0.00014293,-0.00013718,0.00002238,0.00007
 118,-0.00268660,0.00125193,-0.00042001,0.00040734,0.00002154,0.0001454
 3,0.00000055,-0.00004904,-0.00001458,-0.02808577,-0.00740825,0.0072628
 8,0.00146781,0.00139727,-0.00147949,0.00007065,-0.00051654,-0.00003733
 ,0.00003580,0.00011317,-0.00004544,-0.00004387,0.00000886,0.00000115,0
 .00000517,-0.00000046,-0.00001427,0.00003222,0.00000709,-0.00002795,-0
 .00004810,-0.00001462,0.00003130,-0.00000637,0.00000143,0.00000216,0.0
 0000410,0.00000316,-0.00000313,-0.00000161,-0.00000076,-0.00000067,0.0
 0000036,-0.00001617,0.00001463,-0.00000350,-0.00000974,-0.00004996,0.0
 0000691,0.00000168,-0.00000641,0.00000808,-0.00000224,0.00000255,-0.00
 000382,0.00000570,-0.00000646,0.00000173,-0.00000481,0.00000652,0.0000
 0291,0.00000099,-0.00000582,-0.00000031,0.00000046,0.00000092,-0.00000
 017,0.00000108,-0.00000008,0.00000132,-0.00000062,-0.00000158,0.000002
 91,0.00000458,0.00000350,0.00000501,-0.00000480,0.00000055,-0.00000055
 ,0.00000198,0.00000004,-0.00000010,0.00000228,-0.00000539,0.00000106,0
 .00000137,-0.00000037,0.00034051,0.00037184,-0.00008348,0.00113759,-0.
 00015336,-0.00010425,-0.00069556,-0.00325826,0.00345784,-0.00119420,0.
 00140126,-0.00002802,0.04123181,0.05762405,-0.04186102,-0.01177889,-0.
 01697894,0.04653543,0.00571745,-0.04660251,0.01180519,0.00149906,0.000
 15389,-0.00170119,0.00062865,0.00055871,-0.00043938,-0.00029216,-0.000
 10701,0.00096178,0.00020455,0.00029969,-0.00031344,-0.00007963,-0.0000
 7560,-0.00000612,0.00005340,0.00003609,0.00056576,-0.00150502,0.000647
 36,-0.00013752,0.00000697,0.00009320,0.00001384,-0.00002324,0.00005216
 ,0.02510138,0.00701306,-0.00377776,-0.00096494,-0.00063376,0.00233223,
 0.00042274,-0.00020233,-0.00007114,-0.00004991,0.00004818,-0.00017453,
 -0.00000775,-0.00004209,0.00002620,0.00002720,0.00001288,0.00000787,-0
 .00005256,-0.00002458,0.00000939,0.00006494,0.00003439,-0.00002277,0.0
 0000134,-0.00000669,0.00000739,-0.00000959,0.00000944,-0.00001107,0.00
 000258,-0.00000011,0.00000185,0.00000328,-0.00000025,0.00000307,-0.000
 00821,-0.00001443,-0.00001867,0.00000590,0.00000248,-0.00000372,0.0000
 1656,0.00001794,0.00000857,-0.00001272,0.00000212,-0.00002214,0.000012
 13,-0.00000693,0.00001651,0.00000089,0.00000038,-0.00001195,0.00000050
 ,0.00000096,0.00000155,-0.00000284,-0.00000035,-0.00000297,-0.00000444
 ,-0.00000022,0.00000410,-0.00001035,-0.00000618,-0.00001196,-0.0000079
 1,0.00000127,0.00000643,-0.00000549,-0.00000245,-0.00000505,-0.0000005
 3,-0.00000256,-0.00000292,-0.00000204,0.00000166,0.00000236,-0.0001118
 4,-0.00026430,-0.00001977,-0.00082648,0.00026467,0.00022170,0.00008788
 ,0.00330045,-0.00322250,-0.00338501,0.00055493,0.00304610,-0.03559886,
 -0.00195837,0.06393007,0.00192455,-0.00019467,-0.00012506,-0.01602368,
 0.00155320,-0.00224178,-0.34959592,-0.01317928,-0.02022295,-0.00753137
 ,-0.00937154,0.01001848,-0.00013634,-0.00083916,-0.00007729,-0.0116714
 7,0.00116731,-0.00228558,0.00195709,0.00003804,0.00086444,0.00028619,0
 .00004386,0.00002966,0.00025206,0.00031768,-0.00028171,0.00006094,0.00
 002348,0.00003776,-0.00001016,-0.00000634,0.00001106,-0.00073462,-0.00
 018230,0.00060850,0.00050457,0.00009280,0.00007725,-0.00114289,-0.0009
 7878,0.00049175,0.00053686,0.00015461,-0.00025499,-0.00011027,0.000035
 64,-0.00004851,-0.00000185,-0.00000392,-0.00004163,0.00003935,0.000007
 68,0.00000928,-0.00003492,-0.00000357,0.00001608,-0.00001609,0.0000075
 7,0.00000342,0.00001209,0.00000033,-0.00000078,-0.00000504,0.00000024,
 -0.00000231,-0.00003243,0.00000176,0.00000753,0.00002597,0.00002501,0.
 00004444,-0.00002315,-0.00000731,0.00001192,-0.00001204,0.00000713,-0.
 00000672,0.00001427,-0.00000419,-0.00000623,-0.00001123,0.00000029,-0.
 00000202,0.00000562,0.00000225,-0.00000042,-0.00000127,-0.00000114,0.0
 0000007,0.00000335,0.00000052,0.00000216,0.00000510,0.00000103,-0.0000
 0239,0.00000984,-0.00000035,0.00000693,0.00001190,0.00000545,-0.000023
 24,0.00001132,-0.00000004,0.00000859,0.00000360,-0.00000007,0.00000364
 ,0.00000859,0.00000046,-0.00000826,-0.00002432,0.00013803,0.00001448,0
 .00014644,-0.00019558,0.00000190,0.00048897,0.00060115,-0.00045344,0.0
 0042653,-0.00045340,-0.00017727,0.00004431,0.00178175,0.00025370,0.379
 41939,-0.00239962,0.00249063,0.00160124,0.03497109,-0.00129516,0.00152
 276,-0.01131680,-0.04029403,-0.00454979,-0.03155336,-0.01160989,0.0136
 5917,-0.00012472,-0.00011337,-0.00093356,-0.01022361,0.00123435,-0.003
 32213,0.00002178,0.00077254,0.00160668,0.00007720,-0.00001805,-0.00009
 855,0.00009159,-0.00020135,0.00006840,-0.00006348,-0.00003478,-0.00006
 420,-0.00000558,0.00002174,-0.00000699,0.00044844,0.00229222,-0.000703
 93,-0.00016613,-0.00024010,0.00039475,0.00045146,-0.00069212,0.0001618
 5,0.00009892,0.00004389,-0.00034079,-0.00003769,0.00002764,0.00002701,
 0.00000851,-0.00002617,-0.00004882,-0.00001018,0.00001076,0.00004230,0
 .00001929,0.00001100,-0.00005349,-0.00000630,0.00001050,0.00000877,0.0
 0000157,0.00000277,-0.00000603,-0.00000174,0.00000220,-0.00000083,-0.0
 0000839,0.00005023,-0.00003507,0.00002820,0.00001482,0.00014151,-0.000
 01873,0.00000357,0.00001163,-0.00001744,0.00003878,0.00000784,0.000009
 21,-0.00002336,-0.00001161,-0.00000273,0.00000285,0.00000051,0.0000001
 8,-0.00000155,0.00000213,-0.00000032,0.00000003,-0.00000028,0.00000070
 ,-0.00000046,0.00000036,-0.00000021,0.00000003,0.00000081,0.00000158,-
 0.00000019,0.00000030,0.00000493,0.00000875,-0.00001141,0.00000492,-0.
 00000392,0.00000169,0.00000124,-0.00001000,0.00001248,-0.00000098,-0.0
 0000330,-0.00000001,-0.00011190,-0.00010977,-0.00000332,-0.00028587,0.
 00006418,0.00003543,-0.00052249,-0.00035834,0.00028605,-0.00007807,0.0
 0036707,0.00045195,0.00257108,-0.00517729,-0.00214796,0.01865702,0.052
 53458,-0.00020331,0.00117736,0.00144061,0.01063684,-0.00316885,0.00142
 534,-0.02156303,-0.00467899,-0.04198552,0.02904155,0.01503754,-0.00889
 838,0.00127754,0.00034254,0.00067992,-0.03581027,-0.00171536,-0.005622
 58,0.00169352,0.00160993,0.00321912,0.00008474,0.00017976,-0.00007710,
 -0.00000873,-0.00012134,0.00016992,-0.00002174,0.00001409,-0.00001559,
 -0.00000076,0.00001476,-0.00000688,-0.00029166,-0.00006616,-0.00051871
 ,0.00012914,0.00039837,-0.00020971,-0.00142680,-0.00138353,0.00173142,
 0.00051287,0.00013308,-0.00038868,0.00004638,0.00005040,0.00007365,0.0
 0000484,-0.00002763,-0.00003340,0.00001804,0.00002869,-0.00000015,-0.0
 0001900,-0.00003452,0.00001707,-0.00000907,-0.00000252,0.00001933,0.00
 000006,0.00001804,-0.00002037,-0.00000245,-0.00000010,-0.00000016,-0.0
 0002948,0.00004764,-0.00000328,0.00003570,0.00001906,0.00015748,-0.000
 01325,0.00001522,0.00001604,-0.00002550,0.00003725,0.00004066,0.000007
 24,-0.00000815,-0.00004398,0.00000188,-0.00001031,0.00002590,0.0000101
 3,0.00000227,-0.00002119,-0.00000133,0.00000064,0.00000336,0.,0.000000
 73,-0.00000064,-0.00000101,0.00000184,-0.00000159,0.00000650,-0.000003
 40,0.00000890,0.00002564,0.00002148,-0.00006406,0.00001369,-0.00000296
 ,0.00001102,0.00000199,-0.00001304,0.00001074,0.00000605,-0.00000254,-
 0.00000255,-0.00000977,-0.00009874,-0.00000451,-0.00004883,0.00004099,
 -0.00001734,-0.00009970,0.00005530,0.00017471,-0.00004061,0.00031910,0
 .00005684,0.00105000,-0.00127285,-0.00034615,0.01579320,-0.00619720,0.
 05512563,0.00059513,0.00000460,-0.00009110,-0.00120029,0.00079365,0.00
 023801,-0.01144273,-0.00476786,-0.00181610,0.00145550,0.00071484,0.000
 32295,0.00017316,0.00006301,0.00014897,-0.33281026,-0.07696410,-0.0110
 7021,-0.01938395,0.01339344,0.00837158,-0.00040604,-0.00009021,-0.0017
 7305,-0.00008244,-0.00006824,0.00001061,0.00004629,0.00005222,0.000035
 09,-0.00000929,-0.00000733,0.00000108,0.00001867,-0.00016295,0.0000495
 7,0.00200563,-0.00053871,-0.00049720,-0.00828772,-0.00196241,-0.000564
 25,0.00112689,0.00034239,-0.00061714,0.00032695,0.00015278,0.00017535,
 -0.00004243,0.00002727,0.00000567,0.00004533,-0.00001649,-0.00006033,-
 0.00002468,-0.00004317,0.00004564,-0.00000798,0.00001433,0.00002225,0.
 00001210,-0.00001238,-0.00001795,-0.00000474,0.00000398,-0.00000046,-0
 .00004846,0.00028348,-0.00020150,0.00016944,0.00005168,0.00076266,-0.0
 0004519,-0.00000086,0.00005044,-0.00013937,0.00008027,0.00004880,0.000
 07241,-0.00010305,-0.00000258,-0.00004586,0.00006125,-0.00000571,0.000
 01297,-0.00001865,-0.00000468,-0.00000319,0.00000014,0.00000300,0.0000
 0850,-0.00000513,0.00000466,0.00000492,0.00000474,-0.00000481,0.000020
 61,-0.00001309,0.00002407,0.00001201,0.00006228,-0.00023908,0.00004200
 ,-0.00000743,0.00002343,0.00000565,-0.00004775,0.00007127,-0.00000318,
 -0.00003389,0.00000196,0.00001662,-0.00000710,-0.00001550,0.00005402,-
 0.00002207,-0.00001349,0.00004343,0.00014808,0.00002264,-0.00002573,-0
 .00014267,-0.00012023,0.00088884,-0.00033624,-0.00015194,0.00039907,-0
 .00059412,-0.00126348,0.36607278,0.00018953,0.00005053,0.00010736,-0.0
 0081504,-0.00008558,0.00016542,-0.00674016,0.00031535,0.00007350,0.001
 02563,0.00042250,-0.00034475,-0.00002998,-0.00005896,0.00004221,-0.075
 61379,-0.05586530,0.00074983,0.03893154,-0.00682054,-0.00740411,0.0008
 7656,0.00113842,0.00135570,-0.00009852,0.00001650,0.00002701,0.0000331
 4,-0.00000346,0.00001368,-0.00000281,0.00000018,-0.00000323,-0.0001583
 0,-0.00025680,-0.00021907,0.00105404,0.00249082,-0.00047850,-0.0305365
 6,-0.00934655,0.00104870,0.00132634,0.00132369,-0.00202401,0.00001489,
 0.00023710,0.00001054,0.00000251,-0.00001591,-0.00014686,0.00011563,0.
 00000668,0.00002829,-0.00012192,0.00002486,0.00005602,-0.00001593,0.00
 001799,0.00001036,0.00000788,0.00001517,-0.00000900,-0.00000459,-0.000
 00095,-0.00000201,-0.00003513,-0.00016322,0.00014521,-0.00023581,-0.00
 017801,-0.00044745,0.00006804,0.00000453,-0.00009115,0.00008858,-0.000
 06840,0.00001781,-0.00003604,0.00005841,-0.00001335,0.00001594,-0.0000
 3920,0.00001553,0.00000344,0.00001285,-0.00001066,-0.00000010,0.000000
 07,0.00000091,-0.00000170,0.00000576,0.00000032,0.00000469,0.00000155,
 -0.00000694,0.00002545,-0.00000455,0.00002956,0.00013114,0.00002450,-0
 .00016176,-0.00000802,0.00002288,0.00001610,0.00000256,0.00003174,-0.0
 0004740,0.00001512,0.00000685,0.00000712,0.00001342,-0.00001363,-0.000
 00040,0.00005557,-0.00003614,-0.00002864,0.00015182,0.00015284,0.00005
 380,0.00001051,0.00001256,-0.00001450,0.00018833,-0.00022581,-0.000392
 97,0.00021299,0.00004672,-0.00122968,0.07003914,0.07033990,0.00066802,
 0.00010057,-0.00030948,-0.00143166,0.00115897,0.00086174,-0.03548868,-
 0.00987842,-0.00417340,0.00194465,0.00058256,0.00322710,0.00012547,-0.
 00025291,0.00050521,-0.01258619,0.00080480,-0.04407603,0.01707394,-0.0
 0601605,0.00057743,0.00103196,0.00036178,0.00072531,-0.00006681,-0.000
 04853,0.00007134,0.00001424,0.00001301,0.00001154,0.00000392,-0.000000
 61,0.00000671,-0.00016415,-0.00025129,-0.00051450,-0.00115613,-0.00126
 881,0.00053491,0.02293116,0.00941283,-0.00060308,-0.00025693,-0.000802
 55,0.00218384,0.00019184,-0.00013802,-0.00015608,0.00000347,0.00004592
 ,0.00015496,-0.00008637,-0.00001951,-0.00005165,0.00007921,-0.00002706
 ,0.00002262,0.00001149,-0.00002575,-0.00002190,-0.00000707,-0.00002155
 ,0.00002178,0.00000520,-0.00000157,0.00000289,0.00005122,-0.00003887,-
 0.00001441,-0.00021506,-0.00008205,-0.00015880,0.00003448,-0.00002657,
 -0.00002623,0.00005087,-0.00000561,-0.00006659,-0.00002683,-0.00001316
 ,0.00007179,0.00000015,0.00003871,-0.00002808,-0.00001163,-0.00001055,
 0.00001712,0.00000223,-0.00000019,-0.00000278,-0.00000135,-0.00000378,
 -0.00000284,-0.00000438,-0.00000467,0.00000864,-0.00004000,0.00001872,
 -0.00002364,-0.00021497,-0.00007051,0.00007767,-0.00004275,-0.00001046
 ,-0.00006397,-0.00000475,0.00000875,-0.00001493,-0.00002013,-0.0000012
 1,0.00002520,0.00001881,-0.00002864,0.00000531,0.00001014,-0.00000748,
 0.00000113,0.00005940,0.00001177,-0.00012825,0.00008041,-0.00017497,-0
 .00007784,0.00060156,-0.00036039,-0.00012391,-0.00148737,-0.00156606,-
 0.00586583,0.00770875,0.00580195,0.04980091,0.00010469,-0.00005622,0.0
 0028151,-0.00009815,0.00023526,0.00012980,-0.00046909,-0.00019033,-0.0
 0037532,0.00033967,0.00002663,-0.00004866,-0.00003516,0.00001085,0.000
 06085,-0.00619725,-0.00037165,0.00123179,0.00215693,-0.00042597,-0.001
 13468,-0.00028047,-0.00024089,-0.00002730,0.00068865,0.00012069,0.0000
 9160,-0.00001043,0.00027581,0.00014776,-0.00001168,-0.00000309,0.00003
 535,-0.00048105,-0.00135005,-0.00223959,-0.01812205,0.00930495,0.00591
 304,-0.33514234,-0.07211044,0.02505587,-0.01157525,-0.00530759,-0.0078
 2258,0.00092505,-0.00017464,0.00201749,0.00006298,-0.00004183,-0.00020
 994,0.00051492,0.00002311,-0.00016876,-0.00063478,-0.00019591,0.000629
 15,-0.00002509,0.00005532,0.00002993,0.00002330,0.00003979,-0.00004571
 ,-0.00001656,0.00000166,-0.00000739,-0.00018217,0.00004833,-0.00000603
 ,0.00009845,-0.00002703,0.00002817,-0.00000138,-0.00000536,0.00000958,
 0.00032260,0.00019255,0.00001558,0.00001569,-0.00007013,-0.00022910,0.
 00000186,-0.00005581,0.00006614,0.00002701,0.00001510,-0.00004825,-0.0
 0000280,0.00000193,0.00000598,0.00000295,0.00001000,0.00000096,0.00001
 200,0.00001272,-0.00003334,0.00010391,-0.00012793,0.00015116,0.0005295
 8,0.00040984,-0.00160445,0.00007075,0.00014107,0.00021689,0.00003472,-
 0.00000307,0.00000084,0.00005808,-0.00001360,-0.00003169,-0.00001423,-
 0.00005481,0.00000564,0.00022395,-0.00028033,-0.00014215,0.00090897,0.
 00063049,0.00104563,0.00001298,0.00000462,-0.00000433,0.00008427,-0.00
 001599,-0.00021096,0.00052108,0.00008153,0.00049227,0.00038458,-0.0001
 5002,0.00061064,0.36507029,-0.00005031,0.00036789,-0.00025849,-0.00036
 439,-0.00073704,-0.00006397,-0.00098371,0.00003321,-0.00154316,0.00044
 216,0.00004576,0.00036521,0.00008312,-0.00010306,0.00006431,-0.0264247
 2,-0.00466621,0.00477395,0.00152527,0.00334344,-0.00078536,-0.00042357
 ,-0.00042749,-0.00016218,0.00020513,0.00024000,0.00014957,-0.00016660,
 -0.00026228,-0.00018034,-0.00000608,0.00002860,-0.00002895,0.00379107,
 0.00185917,0.00423937,0.03631339,-0.00614765,-0.01097695,-0.07455630,-
 0.05996799,0.00882773,-0.00941631,0.00163890,-0.00394169,0.00064885,-0
 .00045251,0.00131315,0.00015694,-0.00011963,-0.00005871,-0.00024118,0.
 00007885,0.00022248,0.00046265,0.00014351,-0.00055878,0.00003497,0.000
 01901,0.00006758,-0.00002437,0.00007158,-0.00006725,-0.00000293,-0.000
 00005,0.00000305,-0.00011808,0.00007191,-0.00008745,0.00007703,-0.0000
 6184,0.00005520,-0.00001039,0.00000270,0.00000459,-0.00000309,0.000178
 02,0.00010738,-0.00000680,-0.00002732,-0.00018646,0.00002545,-0.000059
 76,0.00010416,0.00002278,0.00001322,-0.00006569,-0.00000235,0.00000205
 ,0.00000914,-0.00000417,0.00000256,-0.00000862,-0.00001357,0.00000710,
 -0.00000405,0.00003940,-0.00006660,0.00002885,0.00037450,0.00019293,-0
 .00050421,0.00003010,0.00001561,0.00005967,0.00002859,-0.00002013,0.00
 000578,0.00003126,-0.00001397,-0.00003476,0.00004200,0.00002678,0.0000
 0490,-0.00021609,-0.00007168,-0.00002125,-0.00116802,0.00010435,0.0000
 5796,-0.00000756,0.00001002,0.00002281,0.00002881,-0.00015274,0.000010
 57,0.00054437,0.00016137,0.00047181,-0.00032769,-0.00359796,0.00279746
 ,0.06963044,0.06829735,-0.00005544,-0.00008362,-0.00025810,-0.00011119
 ,0.00011322,-0.00011224,0.00122008,-0.00017328,0.00161594,-0.00046814,
 -0.00007057,-0.00012538,-0.00002377,-0.00000622,-0.00002099,0.02235196
 ,0.00617732,0.00073138,-0.00188375,-0.00102553,0.00100643,-0.00023797,
 0.00005588,-0.00029283,0.00010960,0.00004989,0.00004953,-0.00010943,-0
 .00012408,-0.00010022,0.00001385,0.00001427,-0.00000657,0.00299137,0.0
 0042665,0.00241229,0.01084808,-0.00472773,-0.00062179,0.02936239,0.012
 20649,-0.04688983,-0.03725945,-0.01050297,-0.01547015,-0.00388571,-0.0
 0201515,0.00551824,-0.00008723,0.00006476,-0.00055208,0.00016672,0.000
 12836,0.00029522,-0.00011766,0.00003991,-0.00031583,0.00000628,0.00008
 793,0.00008564,0.00000962,0.00008242,-0.00007657,-0.00001188,0.0000060
 1,-0.00000620,-0.00010159,0.00017010,0.00000145,0.00006155,-0.00010299
 ,0.00015904,0.00003023,0.00000962,-0.00000951,-0.00007660,-0.00014802,
 0.00002004,0.00012294,0.00006649,-0.00028439,0.00004222,-0.00012451,0.
 00011993,0.00002559,0.00003176,-0.00007804,-0.00000288,0.00000488,0.00
 000760,-0.00000562,0.00001188,0.00000144,0.00002157,0.00001692,-0.0000
 5306,0.00029198,-0.00005314,0.00000625,0.00142674,0.00046824,0.0000019
 1,0.00026239,0.00016562,0.00005298,0.00002112,-0.00001825,0.00000715,0
 .00004134,-0.00005200,-0.00001316,-0.00000364,0.00002941,-0.00000138,-
 0.00014657,-0.00003340,-0.00003652,-0.00060196,-0.00028619,0.00011696,
 -0.00002453,-0.00000768,0.00000490,-0.00014525,-0.00000023,0.00014657,
 -0.00056632,0.00005639,-0.00025931,0.00038236,0.00329950,-0.00241094,-
 0.02388341,-0.00422838,0.05563420\\0.00847480,-0.01057006,-0.00154191,
 -0.00800210,0.00913794,0.01392997,0.00219861,0.00798481,0.00351248,0.0
 0125876,0.01684391,0.00942825,-0.00400102,-0.01402500,-0.02414373,0.00
 580258,-0.03163138,-0.01139489,0.00304718,0.01137314,0.00329159,-0.002
 74619,0.00499398,0.02304361,0.00057073,0.01044850,0.01024006,0.0044749
 5,0.02290449,-0.00516760,0.00273587,-0.03445366,0.00525547,-0.00095994
 ,0.00647994,0.00499358,0.01248000,-0.00770936,0.01170213,-0.02947076,0
 .00661817,-0.03603779,0.00507350,-0.01868347,0.02431785,-0.01645058,0.
 00072811,0.02482963,0.00375125,0.04381165,-0.02130545,0.00158524,-0.03
 062846,0.03161330,0.00082056,0.01341487,-0.01785723,0.00435645,0.00048
 138,0.00683132,-0.00570719,-0.01316199,-0.02316335,-0.00673210,-0.0066
 9987,0.02964258,0.01599411,-0.00304699,-0.00621620,-0.01243041,-0.0222
 8619,-0.01794726,-0.00137239,0.03134917,0.01546645,-0.00978532,0.00799
 074,0.00089019,-0.01028434,-0.00834699,0.01751127,0.06208292,0.0041348
 0,-0.01471962,-0.02111158,0.00952231,-0.01300070,-0.00142493,-0.001895
 03,-0.00573401,-0.01688594,-0.00678459,-0.00476658,0.02054797,-0.00254
 127,-0.00156202,-0.01974401,-0.00737165,0.00532799,0.01839579,0.004129
 33,0.00125297,-0.02135839,-0.00327299,0.00501877,-0.00501791,-0.005736
 82,-0.01618899,0.01970215,0.00406534,-0.00433018,0.00065446,0.00627785
 ,-0.01711495,-0.02014543,-0.00503281,0.00024793,0.02089675,0.00517504,
 -0.00108241,-0.00049321,0.00426776,-0.00020948,-0.02077007,-0.00451037
 ,-0.00101801,0.02189476,0.00084155,-0.00043723,-0.02157117,-0.00089750
 ,-0.00137724,0.01966564,0.00631166,-0.00203056\\\@


  ON THE CHOICE OF THE CORRECT LANGUAGE -
 I SPEAK SPANISH TO GOD, ITALIAN TO WOMEN,
 FRENCH TO MEN, AND GERMAN TO MY HORSE.
          -- CHARLES V
 Job cpu time:  1 days  6 hours 26 minutes 58.5 seconds.
 File lengths (MBytes):  RWF=   1769 Int=      0 D2E=      0 Chk=     28 Scr=      1
 Normal termination of Gaussian 09 at Thu Mar 24 12:35:07 2016.
Gaussian '09 finished on node001 at Thu Mar 24 12:35:07 EDT 2016.
