Gaussian '09 started on node002 at Wed Jan 20 15:58:15 EST 2016.
 Entering Gaussian System, Link 0=/usr/local/gaussian/g09/g09
 Initial command:
 /usr/local/gaussian/g09/l1.exe /home/srmcgrat/thesis/gaussian/cellobiose/320/9000/gaussian9974/Gau-10010.inp -scrdir=/home/srmcgrat/thesis/gaussian/cellobiose/320/9000/gaussian9974/
 Entering Link 1 = /usr/local/gaussian/g09/l1.exe PID=     10012.
  
 Copyright (c) 1988,1990,1992,1993,1995,1998,2003,2009,2010,
            Gaussian, Inc.  All Rights Reserved.
  
 This is part of the Gaussian(R) 09 program.  It is based on
 the Gaussian(R) 03 system (copyright 2003, Gaussian, Inc.),
 the Gaussian(R) 98 system (copyright 1998, Gaussian, Inc.),
 the Gaussian(R) 94 system (copyright 1995, Gaussian, Inc.),
 the Gaussian 92(TM) system (copyright 1992, Gaussian, Inc.),
 the Gaussian 90(TM) system (copyright 1990, Gaussian, Inc.),
 the Gaussian 88(TM) system (copyright 1988, Gaussian, Inc.),
 the Gaussian 86(TM) system (copyright 1986, Carnegie Mellon
 University), and the Gaussian 82(TM) system (copyright 1983,
 Carnegie Mellon University). Gaussian is a federally registered
 trademark of Gaussian, Inc.
  
 This software contains proprietary and confidential information,
 including trade secrets, belonging to Gaussian, Inc.
  
 This software is provided under written license and may be
 used, copied, transmitted, or stored only in accord with that
 written license.
  
 The following legend is applicable only to US Government
 contracts under FAR:
  
                    RESTRICTED RIGHTS LEGEND
  
 Use, reproduction and disclosure by the US Government is
 subject to restrictions as set forth in subparagraphs (a)
 and (c) of the Commercial Computer Software - Restricted
 Rights clause in FAR 52.227-19.
  
 Gaussian, Inc.
 340 Quinnipiac St., Bldg. 40, Wallingford CT 06492
  
  
 ---------------------------------------------------------------
 Warning -- This program may not be used in any manner that
 competes with the business of Gaussian, Inc. or will provide
 assistance to any competitor of Gaussian, Inc.  The licensee
 of this program is prohibited from giving any competitor of
 Gaussian, Inc. access to this program.  By using this program,
 the user acknowledges that Gaussian, Inc. is engaged in the
 business of creating and licensing software in the field of
 computational chemistry and represents and warrants to the
 licensee that it is not a competitor of Gaussian, Inc. and that
 it will not use this program in any manner prohibited above.
 ---------------------------------------------------------------
  

 Cite this work as:
 Gaussian 09, Revision B.01,
 M. J. Frisch, G. W. Trucks, H. B. Schlegel, G. E. Scuseria, 
 M. A. Robb, J. R. Cheeseman, G. Scalmani, V. Barone, B. Mennucci, 
 G. A. Petersson, H. Nakatsuji, M. Caricato, X. Li, H. P. Hratchian, 
 A. F. Izmaylov, J. Bloino, G. Zheng, J. L. Sonnenberg, M. Hada, 
 M. Ehara, K. Toyota, R. Fukuda, J. Hasegawa, M. Ishida, T. Nakajima, 
 Y. Honda, O. Kitao, H. Nakai, T. Vreven, J. A. Montgomery, Jr., 
 J. E. Peralta, F. Ogliaro, M. Bearpark, J. J. Heyd, E. Brothers, 
 K. N. Kudin, V. N. Staroverov, T. Keith, R. Kobayashi, J. Normand, 
 K. Raghavachari, A. Rendell, J. C. Burant, S. S. Iyengar, J. Tomasi, 
 M. Cossi, N. Rega, J. M. Millam, M. Klene, J. E. Knox, J. B. Cross, 
 V. Bakken, C. Adamo, J. Jaramillo, R. Gomperts, R. E. Stratmann, 
 O. Yazyev, A. J. Austin, R. Cammi, C. Pomelli, J. W. Ochterski, 
 R. L. Martin, K. Morokuma, V. G. Zakrzewski, G. A. Voth, 
 P. Salvador, J. J. Dannenberg, S. Dapprich, A. D. Daniels, 
 O. Farkas, J. B. Foresman, J. V. Ortiz, J. Cioslowski, 
 and D. J. Fox, Gaussian, Inc., Wallingford CT, 2010.
 
 ******************************************
 Gaussian 09:  EM64L-G09RevB.01 12-Aug-2010
                20-Jan-2016 
 ******************************************
 ------------------------------------------------
 # freq=raman b3lyp/6-31+g(d,p) geom=connectivity
 ------------------------------------------------
 1/10=4,30=1,38=1,57=2/1,3;
 2/12=2,17=6,18=5,40=1/2;
 3/5=1,6=6,7=111,11=2,16=1,25=1,30=1,71=2,74=-5/1,2,3;
 4//1;
 5/5=2,38=5,98=1/2;
 8/6=4,10=90,11=11/1;
 10/13=10,15=4/2;
 11/6=3,8=1,9=11,15=111,16=1/1,2,10;
 10/6=1/2;
 6/7=2,8=2,9=2,10=2,18=1,28=1/1;
 7/8=1,10=1,25=1/1,2,3,16;
 1/10=4,30=1/3;
 99//99;
 ------------
 320 9000.com
 ------------
 Symbolic Z-matrix:
 Charge =  0 Multiplicity = 1
 O                     7.709     7.462     12.278 
 C                     8.101     7.944     13.572 
 C                     7.648     9.324     14.019 
 O                     7.959     10.36     13.076 
 H                     7.795     10.082    12.13 
 C                     8.208     9.739     15.37 
 O                     7.686     10.957    15.919 
 H                     7.788     11.07     16.908 
 C                     8.473     5.584     14.253 
 O                     7.804     4.761     13.287 
 H                     7.692     3.785     13.474 
 C                     7.807     6.896     14.633 
 O                     8.482     7.422     15.785 
 C                     8.024     8.635     16.4 
 O                     8.925     8.8       17.505 
 C                     8.419     8.506     18.815 
 C                     8.941     7.18      19.345 
 O                     8.653     6.146     18.393 
 H                     8.823     6.648     17.545 
 C                     8.39      6.748     20.694 
 O                     9.051     5.529     21.063 
 H                     8.621     5.162     21.888 
 C                     8.021     10.887    19.555 
 O                     8.343     11.547    18.322 
 H                     7.92      12.444    18.445 
 C                     8.64      9.543     19.904 
 O                     7.987     9.046     21.081 
 C                     8.575     7.885     21.685 
 O                     7.817     7.637     22.878 
 H                     8.4165    7.48439   23.6121 
 H                     9.60954   8.04472   21.90662 
 H                     7.34328   6.55175   20.59023 
 H                     10.00426   7.259     19.43516 
 H                     7.35961   8.39837   18.71009 
 H                     9.68722   9.66017   20.08974 
 H                     8.27268   11.56209   20.34608 
 H                     7.00721   8.55511   16.72352 
 H                     9.26099   9.87912   15.24163 
 H                     8.4923    7.26827   11.7579 
 H                     6.58274   9.29034   14.11377 
 H                     9.16817   8.00827   13.52821 
 H                     6.75679   6.78136   14.80278 
 H                     8.59343   5.00757   15.14638 
 H                     9.44687   5.81      13.87169 
 H                     6.95918   10.75602   19.57158 
 

 GradGradGradGradGradGradGradGradGradGradGradGradGradGradGradGradGradGrad
 Berny optimization.
 Initialization pass.
 Trust Radius=3.00D-01 FncErr=1.00D-07 GrdErr=1.00D-07
 Number of steps in this run=      2 maximum allowed number of steps=      2.
 GradGradGradGradGradGradGradGradGradGradGradGradGradGradGradGradGradGrad

                          Input orientation:                          
 ---------------------------------------------------------------------
 Center     Atomic      Atomic             Coordinates (Angstroms)
 Number     Number       Type             X           Y           Z
 ---------------------------------------------------------------------
      1          8           0        7.709000    7.462000   12.278000
      2          6           0        8.101000    7.944000   13.572000
      3          6           0        7.648000    9.324000   14.019000
      4          8           0        7.959000   10.360000   13.076000
      5          1           0        7.795000   10.082000   12.130000
      6          6           0        8.208000    9.739000   15.370000
      7          8           0        7.686000   10.957000   15.919000
      8          1           0        7.788000   11.070000   16.908000
      9          6           0        8.473000    5.584000   14.253000
     10          8           0        7.804000    4.761000   13.287000
     11          1           0        7.692000    3.785000   13.474000
     12          6           0        7.807000    6.896000   14.633000
     13          8           0        8.482000    7.422000   15.785000
     14          6           0        8.024000    8.635000   16.400000
     15          8           0        8.925000    8.800000   17.505000
     16          6           0        8.419000    8.506000   18.815000
     17          6           0        8.941000    7.180000   19.345000
     18          8           0        8.653000    6.146000   18.393000
     19          1           0        8.823000    6.648000   17.545000
     20          6           0        8.390000    6.748000   20.694000
     21          8           0        9.051000    5.529000   21.063000
     22          1           0        8.621000    5.162000   21.888000
     23          6           0        8.021000   10.887000   19.555000
     24          8           0        8.343000   11.547000   18.322000
     25          1           0        7.920000   12.444000   18.445000
     26          6           0        8.640000    9.543000   19.904000
     27          8           0        7.987000    9.046000   21.081000
     28          6           0        8.575000    7.885000   21.685000
     29          8           0        7.817000    7.637000   22.878000
     30          1           0        8.416502    7.484395   23.612104
     31          1           0        9.609540    8.044724   21.906621
     32          1           0        7.343282    6.551749   20.590232
     33          1           0       10.004264    7.258999   19.435162
     34          1           0        7.359609    8.398368   18.710089
     35          1           0        9.687220    9.660173   20.089743
     36          1           0        8.272685   11.562089   20.346082
     37          1           0        7.007215    8.555110   16.723520
     38          1           0        9.260990    9.879121   15.241630
     39          1           0        8.492303    7.268269   11.757900
     40          1           0        6.582736    9.290342   14.113766
     41          1           0        9.168170    8.008274   13.528214
     42          1           0        6.756795    6.781357   14.802782
     43          1           0        8.593426    5.007575   15.146382
     44          1           0        9.446874    5.809997   13.871692
     45          1           0        6.959177   10.756016   19.571582
 ---------------------------------------------------------------------
                    Distance matrix (angstroms):
                    1          2          3          4          5
     1  O    0.000000
     2  C    1.435418   0.000000
     3  C    2.549872   1.519677   0.000000
     4  O    3.016241   2.470473   1.435014   0.000000
     5  H    2.625586   2.596930   2.040709   0.999548   0.000000
     6  C    3.872234   2.542888   1.520206   2.389577   3.284177
     7  O    5.047022   3.841719   2.505620   2.917805   3.890248
     8  H    5.870333   4.582438   3.378526   3.900970   4.879086
     9  C    2.830407   2.484300   3.837054   4.945675   5.019842
    10  O    2.884876   3.209505   4.623973   5.605118   5.445344
    11  H    3.866657   4.180211   5.565921   6.592444   6.439655
    12  C    2.424043   1.520020   2.509474   3.800875   4.051635
    13  O    3.591403   2.305431   2.726154   4.030391   4.572373
    14  C    4.297213   2.912215   2.507042   3.745507   4.514327
    15  O    5.530862   4.108552   3.749333   4.794038   5.640128
    16  C    6.657808   5.282615   4.925970   6.048557   6.896548
    17  C    7.179125   5.883606   5.885139   7.097682   7.860734
    18  O    6.325837   5.174896   5.499235   6.819818   7.446706
    19  H    5.444711   4.240947   4.579768   5.873449   6.493948
    20  C    8.473642   7.227504   7.193189   8.441933   9.209326
    21  O    9.094706   7.927787   8.123323   9.398042  10.104743
    22  H    9.923399   8.784406   8.954894  10.252258  10.959345
    23  C    8.048770   6.668129   5.764494   6.500693   7.471929
    24  O    7.322508   5.966798   4.892909   5.392304   6.386501
    25  H    7.930746   6.635427   5.421979   5.759404   6.743433
    26  C    7.959472   6.552980   5.972039   6.910343   7.838343
    27  O    8.948695   7.590289   7.075595   8.112176   9.012800
    28  C    9.456243   8.127049   7.854782   8.978862   9.835305
    29  O   10.601995   9.315393   9.019779  10.174188  11.022614
    30  H   11.356187  10.055569   9.798081  10.931052  11.788661
    31  H    9.831682   8.470641   8.227925   9.277104  10.150142
    32  H    8.369917   7.195004   7.138580   8.446631   9.178358
    33  H    7.518937   6.202283   6.257078   7.364662   8.137295
    34  H    6.509273   5.211149   4.790228   5.995851   6.806009
    35  H    8.352763   6.924039   6.412905   7.257348   8.192432
    36  H    9.067657   7.681681   6.740269   7.375466   8.361988
    37  H    4.631419   3.391445   2.883786   4.179464   4.904327
    38  H    4.127257   2.806766   2.098742   2.572231   3.445653
    39  H    0.960000   1.975017   3.170403   3.403029   2.922631
    40  H    2.825127   2.100303   1.070000   2.028602   2.455938
    41  H    1.997655   1.070000   2.069523   2.682761   2.853233
    42  H    2.782893   2.161817   2.805993   4.151356   4.372171
    43  H    3.877374   3.368049   4.560301   5.773858   5.956999
    44  H    2.879092   2.540701   3.950426   4.852775   4.900223
    45  H    8.037980   6.723554   5.775493   6.584001   7.518647
                    6          7          8          9         10
     6  C    0.000000
     7  O    1.434367   0.000000
     8  H    2.076874   1.000647   0.000000
     9  C    4.310677   5.680146   6.133062   0.000000
    10  O    5.411339   6.732887   7.274296   1.434589   0.000000
    11  H    6.269863   7.577311   8.054365   2.110261   1.000044
    12  C    2.964223   4.261474   4.753763   1.519638   2.523876
    13  O    2.369766   3.625989   3.879519   2.392770   3.712224
    14  C    1.521043   2.395264   2.498597   3.757634   4.974640
    15  O    2.440089   2.950113   2.608079   4.595918   5.946569
    16  C    3.665083   3.864131   3.257132   5.417827   6.705374
    17  C    4.783973   5.251498   4.732914   5.356744   6.621457
    18  O    4.716588   5.495588   5.215288   4.181847   5.358196
    19  H    3.829247   4.743851   4.585965   3.477335   4.767567
    20  C    6.109352   6.404055   5.777187   6.545859   7.691243
    21  O    7.130568   7.601786   7.040020   6.834706   7.912712
    22  H    7.975200   8.371691   7.771663   7.648086   8.649017
    23  C    4.343627   3.652071   2.663529   7.512477   8.767143
    24  O    3.464303   2.560109   1.592153   7.220182   8.467086
    25  H    4.105556   2.940510   2.065834   8.058429   9.254562
    26  C    4.558749   4.334713   3.468955   6.901838   8.206772
    27  O    5.757136   5.512601   4.642209   7.670934   8.896131
    28  C    6.591755   6.593501   5.795112   7.780722   8.993343
    29  O    7.806494   7.711501   6.886743   8.890206  10.012933
    30  H    8.547456   8.472100   7.628669   9.550263  10.695785
    31  H    6.896543   6.930582   6.120173   8.119409   9.398973
    32  H    6.177146   6.429938   5.845614   6.509479   7.533674
    33  H    5.089451   5.604726   5.081545   5.657313   6.991499
    34  H    3.697737   3.800436   3.250948   5.387573   6.545061
    35  H    4.946745   4.804346   3.964611   7.221986   8.592190
    36  H    5.299927   4.506593   3.506776   8.538344   9.813516
    37  H    2.162290   2.622418   2.639759   4.132734   5.180715
    38  H    1.070000   2.025153   2.522832   4.477319   5.669088
    39  H    4.385500   5.618863   6.439933   3.010425   3.016340
    40  H    2.102594   2.693290   3.525279   4.162866   4.763398
    41  H    2.703612   4.075251   4.764661   2.624058   3.530429
    42  H    3.342960   4.421013   4.887513   2.163628   2.734242
    43  H    4.752362   6.067621   6.364355   1.070000   2.035017
    44  H    4.383697   5.812382   6.295924   1.070000   2.035017
    45  H    4.499686   3.729614   2.807170   7.571574   8.726392
                   11         12         13         14         15
    11  H    0.000000
    12  C    3.321871   0.000000
    13  O    4.380935   1.435063   0.000000
    14  C    5.673993   2.488674   1.435046   0.000000
    15  O    6.551296   3.622640   2.248006   1.435288   0.000000
    16  C    7.165379   4.522805   3.218684   2.450488   1.434772
    17  C    6.895989   4.854849   3.597617   3.410416   2.451582
    18  O    5.540253   3.926298   2.908450   3.250048   2.811804
    19  H    5.103819   3.094108   1.952679   2.428496   2.154787
    20  C    7.835494   6.090773   4.955908   4.704589   3.829706
    21  O    7.904514   6.690376   5.636000   5.696098   4.834737
    22  H    8.576396   7.503624   6.509495   6.521985   5.704222
    23  C    9.355491   6.340344   5.141172   3.876279   3.061909
    24  O    9.174723   5.960522   4.844720   3.503654   2.924418
    25  H    9.987047   6.732341   5.710685   4.324503   3.895171
    26  C    8.683212   5.956840   4.635706   3.671776   2.527543
    27  O    9.253734   6.799383   5.561476   4.699154   3.705150
    28  C    9.220098   7.162308   5.918870   5.366314   4.293265
    29  O   10.163107   8.278237   7.127349   6.557693   5.607973
    30  H   10.816265   9.018981   7.827627   7.313850   6.267863
    31  H    9.640089   7.581180   6.255668   5.760663   4.518109
    32  H    7.643119   5.985162   5.014407   4.728780   4.132205
    33  H    7.276722   5.293439   3.958224   3.876472   2.695370
    34  H    6.986435   4.368057   3.281646   2.415351   2.015936
    35  H    9.070094   6.399369   4.999279   4.175103   2.828741
    36  H   10.394509   7.391113   6.163409   4.919477   4.015768
    37  H    5.812251   2.786140   2.083207   1.070000   2.085326
    38  H    6.536402   3.373948   2.634297   2.102333   2.529869
    39  H    3.964675   2.978998   4.030047   4.861724   5.963438
    40  H    5.652305   2.738850   3.144985   2.780932   4.150555
    41  H    4.474154   2.076171   2.430561   3.154214   4.062116
    42  H    3.408581   1.070000   2.086027   2.755523   4.009740
    43  H    2.259230   2.109070   2.499940   3.879951   4.478338
    44  H    2.708940   2.109070   2.681470   4.049389   4.734279
    45  H    9.290458   6.325197   5.269996   3.961249   3.458500
                   16         17         18         19         20
    16  C    0.000000
    17  C    1.520414   0.000000
    18  O    2.408825   1.434714   0.000000
    19  H    2.286543   1.880678   1.000004   0.000000
    20  C    2.573334   1.519877   2.392943   3.180203   0.000000
    21  O    3.783577   2.385252   2.769114   3.698712   1.434937
    22  H    4.546039   3.262142   3.631020   4.594633   1.998598
    23  C    2.524909   3.825225   4.922068   4.759456   4.308689
    24  O    3.081640   4.524911   5.410355   4.983405   5.353410
    25  H    3.986696   5.437107   6.340725   5.934562   6.141931
    26  C    1.519912   2.446804   3.717916   3.738903   2.915240
    27  O    2.369173   2.721354   4.009850   4.353458   2.364949
    28  C    2.940557   2.471150   3.723905   4.327964   1.519564
    29  O    4.198278   3.735547   4.799709   5.516434   2.426624
    30  H    4.904681   4.309981   5.393170   6.137960   3.009703
    31  H    3.344889   2.785067   4.106782   4.646851   2.153885
    32  H    2.850915   2.120850   2.589946   3.387074   1.070000
    33  H    2.110136   1.070000   2.037347   2.311150   2.109891
    34  H    1.070000   2.094834   2.616594   2.561783   2.778726
    35  H    2.136695   2.694948   4.037073   4.036803   3.244789
    36  H    3.421300   4.544393   5.770025   5.683060   4.828070
    37  H    2.523854   3.535903   3.361486   2.758437   4.576293
    38  H    3.919615   4.921920   4.923107   3.992179   6.347510
    39  H    7.165195   7.600869   6.731261   5.829633   8.951817
    40  H    5.107706   6.113981   5.699537   4.875871   7.282114
    41  H    5.362750   5.879850   5.234463   4.254886   7.317262
    42  H    4.672816   5.055829   4.109615   3.436094   6.113503
    43  H    5.072294   4.740109   3.440943   2.914973   5.817777
    44  H    5.723744   5.664796   4.602755   3.818986   6.967117
    45  H    2.786767   4.094735   5.050776   4.945368   4.401280
                   21         22         23         24         25
    21  O    0.000000
    22  H    1.000107   0.000000
    23  C    5.660665   6.211160   0.000000
    24  O    6.650614   7.318597   1.435121   0.000000
    25  H    7.479994   8.085368   1.914824   0.999333   0.000000
    26  C    4.198142   4.809343   1.520295   2.570399   3.326091
    27  O    3.674467   4.017295   2.391467   3.740831   4.301092
    28  C    2.482780   2.730944   3.722341   4.977332   5.631261
    29  O    3.043131   2.784267   4.652574   6.026766   6.539828
    30  H    3.274766   2.899633   5.309825   6.670485   7.179357
    31  H    2.711555   3.047566   4.016480   5.169098   5.847307
    32  H    2.045929   2.290888   4.508371   5.576455   6.297082
    33  H    2.559583   3.511017   4.136434   4.731372   5.675281
    34  H    4.078022   4.707897   2.710093   3.321379   4.092854
    35  H    4.291689   4.960253   2.137135   2.914097   3.684826
    36  H    6.125186   6.592418   1.070000   2.025359   2.125151
    37  H    5.671463   6.386655   3.805621   3.645664   4.349728
    38  H    7.270213   8.175271   4.599843   3.621216   4.317226
    39  H    9.482726  10.347554   8.608840   7.836916   8.475437
    40  H    8.278398   9.035289   5.850209   5.089231   5.522085
    41  H    7.933065   8.847976   6.776814   6.015303   6.738574
    42  H    6.783959   7.503192   6.406098   6.132886   6.832592
    43  H    5.957149   6.743443   7.370972   7.274019   8.163014
    44  H    7.207675   8.084748   7.753003   7.344180   8.201005
    45  H    5.824238   6.278572   1.070000   2.025359   2.245364
                   26         27         28         29         30
    26  C    0.000000
    27  O    1.434833   0.000000
    28  C    2.434163   1.434741   0.000000
    29  O    3.626960   2.289845   1.435032   0.000000
    30  H    4.247098   3.004925   1.974674   0.960000   0.000000
    31  H    2.682411   2.077700   1.070000   2.079186   2.155454
    32  H    3.331662   2.622311   2.119718   2.576055   3.339661
    33  H    2.701423   3.157770   2.737963   4.096357   4.474219
    34  H    2.091652   2.536585   3.254353   4.261498   5.097266
    35  H    1.070000   2.061685   2.633081   3.919863   4.330792
    36  H    2.099304   2.636745   3.924930   4.693035   5.226392
    37  H    3.709093   4.493171   5.246264   6.275054   7.112322
    38  H    4.715538   6.034516   6.779684   8.088656   8.747155
    39  H    8.459029   9.504518   9.946583  11.146687  11.856417
    40  H    6.150039   7.111541   7.954099   9.003819   9.840863
    41  H    6.579133   7.714701   8.179254   9.454205  10.125428
    42  H    6.098816   6.786607   7.203389   8.189341   8.991832
    43  H    6.573217   7.203910   7.143769   8.203331   8.822380
    44  H    7.139684   8.035986   8.131026   9.333167   9.936846
    45  H    2.099304   2.501783   3.914097   4.625637   5.399363
                   31         32         33         34         35
    31  H    0.000000
    32  H    3.016252   0.000000
    33  H    2.623220   2.985835   0.000000
    34  H    3.924929   2.635376   2.969527   0.000000
    35  H    2.432438   3.925154   2.508910   2.985527   0.000000
    36  H    4.073612   5.101657   4.727020   3.676861   2.384094
    37  H    5.822124   4.367821   4.244433   2.023662   4.442415
    38  H    6.921605   6.584570   5.000321   4.223516   4.871736
    39  H   10.239514   8.935533   7.824734   7.133937   8.750351
    40  H    8.452319   7.072690   6.644582   4.746087   6.744398
    41  H    8.390104   7.437996   6.012695   5.502263   6.786151
    42  H    7.758787   5.821620   5.677423   4.271435   6.695291
    43  H    7.480481   5.795070   5.045098   5.071468   6.876036
    44  H    8.341496   7.079129   5.776027   5.870811   7.317498
    45  H    4.452857   4.342931   4.638997   2.541854   2.985228
                   36         37         38         39         40
    36  H    0.000000
    37  H    4.875068   0.000000
    38  H    5.464847   3.004747   0.000000
    39  H    9.604269   5.340303   4.420838   0.000000
    40  H    6.845328   2.744369   2.965093   3.644905   0.000000
    41  H    7.740466   3.895990   2.538598   2.034310   2.944662
    42  H    7.475392   2.626432   4.007458   3.538415   2.607690
    43  H    8.372658   4.193857   4.917995   4.074650   4.842651
    44  H    8.739736   4.649785   4.297564   2.739686   4.513832
    45  H    1.724791   3.599688   4.981543   8.693014   5.663715
                   41         42         43         44         45
    41  H    0.000000
    42  H    2.990749   0.000000
    43  H    3.457310   2.576350   0.000000
    44  H    2.242336   3.007822   1.731210   0.000000
    45  H    6.996573   6.211306   7.436245   7.946099   0.000000
 Stoichiometry    C12H22O11
 Framework group  C1[X(C12H22O11)]
 Deg. of freedom   129
 Full point group                 C1      NOp   1
 Largest Abelian subgroup         C1      NOp   1
 Largest concise Abelian subgroup C1      NOp   1
                         Standard orientation:                         
 ---------------------------------------------------------------------
 Center     Atomic      Atomic             Coordinates (Angstroms)
 Number     Number       Type             X           Y           Z
 ---------------------------------------------------------------------
      1          8           0       -5.051408   -0.546532    0.272241
      2          6           0       -3.721492   -0.129718   -0.071289
      3          6           0       -3.258639    1.266283    0.311288
      4          8           0       -4.147720    2.303021   -0.129138
      5          1           0       -5.110249    2.063689   -0.005222
      6          6           0       -1.863915    1.602703   -0.191298
      7          8           0       -1.308609    2.839301    0.277605
      8          1           0       -0.312169    2.917367    0.229591
      9          6           0       -3.095105   -2.528182   -0.234850
     10          8           0       -4.125286   -3.274233    0.428612
     11          1           0       -3.976602   -4.244510    0.619776
     12          6           0       -2.714047   -1.182894    0.360376
     13          8           0       -1.507419   -0.738534   -0.276804
     14          6           0       -0.882586    0.486679    0.132826
     15          8           0        0.279182    0.556232   -0.707120
     16          6           0        1.546409    0.263127   -0.101481
     17          6           0        2.064160   -1.110943   -0.495848
     18          8           0        1.064067   -2.095013   -0.196143
     19          1           0        0.244256   -1.583240   -0.453058
     20          6           0        3.363191   -1.539499    0.166636
     21          8           0        3.732070   -2.812383   -0.383581
     22          1           0        4.517647   -3.170319    0.121359
     23          6           0        2.336847    2.645158    0.174749
     24          8           0        1.147090    3.314222   -0.268427
     25          1           0        1.273069    4.235444    0.097832
     26          6           0        2.679261    1.251199   -0.326180
     27          8           0        3.798495    0.769879    0.431709
     28          6           0        4.399303   -0.446441   -0.035277
     29          8           0        5.536151   -0.672425    0.810788
     30          1           0        6.299651   -0.887733    0.270132
     31          1           0        4.687578   -0.367311   -1.062670
     32          1           0        3.190600   -1.657431    1.216019
     33          1           0        2.220426   -1.110726   -1.554376
     34          1           0        1.374747    0.234491    0.954271
     35          1           0        2.931143    1.287986   -1.365460
     36          1           0        3.162755    3.278414   -0.073772
     37          1           0       -0.623366    0.470828    1.170830
     38          1           0       -1.924341    1.670630   -1.257429
     39          1           0       -5.529499   -0.781367   -0.526434
     40          1           0       -3.229076    1.306312    1.380130
     41          1           0       -3.699101   -0.140765   -1.140998
     42          1           0       -2.611323   -1.226761    1.424530
     43          1           0       -2.214969   -3.136190   -0.259085
     44          1           0       -3.409888   -2.361989   -1.243905
     45          1           0        2.285505    2.590059    1.242095
 ---------------------------------------------------------------------
 Rotational constants (GHZ):      0.4014338      0.1459091      0.1098958
 Standard basis: 6-31+G(d,p) (6D, 7F)
 There are   547 symmetry adapted basis functions of A   symmetry.
 Integral buffers will be    131072 words long.
 Raffenetti 2 integral format.
 Two-electron integral symmetry is turned on.
   547 basis functions,   890 primitive gaussians,   547 cartesian basis functions
    91 alpha electrons       91 beta electrons
       nuclear repulsion energy      2284.6576326244 Hartrees.
 NAtoms=   45 NActive=   45 NUniq=   45 SFac= 1.00D+00 NAtFMM=   50 NAOKFM=F Big=F
 One-electron integrals computed using PRISM.
 NBasis=   547 RedAO= T  NBF=   547
 NBsUse=   547 1.00D-06 NBFU=   547
 Harris functional with IExCor=  402 diagonalized for initial guess.
 ExpMin= 4.38D-02 ExpMax= 5.48D+03 ExpMxC= 8.25D+02 IAcc=2 IRadAn=         0 AccDes= 0.00D+00
 HarFok:  IExCor=  402 AccDes= 0.00D+00 IRadAn=         0 IDoV= 1
 ScaDFX=  1.000000  1.000000  1.000000  1.000000
 FoFCou: FMM=F IPFlag=           0 FMFlag=      100000 FMFlg1=           0
         NFxFlg=           0 DoJE=T BraDBF=F KetDBF=T FulRan=T
         Omega=  0.000000  0.000000  1.000000  0.000000  0.000000 ICntrl=     500 IOpCl=  0
         NMat0=    1 NMatS0=    1 NMatT0=    0 NMatD0=    1 NMtDS0=    0 NMtDT0=    0
         I1Cent=           4 NGrid=           0.
 Petite list used in FoFCou.
 Initial guess orbital symmetries:
       Occupied  (A) (A) (A) (A) (A) (A) (A) (A) (A) (A) (A) (A)
                 (A) (A) (A) (A) (A) (A) (A) (A) (A) (A) (A) (A)
                 (A) (A) (A) (A) (A) (A) (A) (A) (A) (A) (A) (A)
                 (A) (A) (A) (A) (A) (A) (A) (A) (A) (A) (A) (A)
                 (A) (A) (A) (A) (A) (A) (A) (A) (A) (A) (A) (A)
                 (A) (A) (A) (A) (A) (A) (A) (A) (A) (A) (A) (A)
                 (A) (A) (A) (A) (A) (A) (A) (A) (A) (A) (A) (A)
                 (A) (A) (A) (A) (A) (A) (A)
       Virtual   (A) (A) (A) (A) (A) (A) (A) (A) (A) (A) (A) (A)
                 (A) (A) (A) (A) (A) (A) (A) (A) (A) (A) (A) (A)
                 (A) (A) (A) (A) (A) (A) (A) (A) (A) (A) (A) (A)
                 (A) (A) (A) (A) (A) (A) (A) (A) (A) (A) (A) (A)
                 (A) (A) (A) (A) (A) (A) (A) (A) (A) (A) (A) (A)
                 (A) (A) (A) (A) (A) (A) (A) (A) (A) (A) (A) (A)
                 (A) (A) (A) (A) (A) (A) (A) (A) (A) (A) (A) (A)
                 (A) (A) (A) (A) (A) (A) (A) (A) (A) (A) (A) (A)
                 (A) (A) (A) (A) (A) (A) (A) (A) (A) (A) (A) (A)
                 (A) (A) (A) (A) (A) (A) (A) (A) (A) (A) (A) (A)
                 (A) (A) (A) (A) (A) (A) (A) (A) (A) (A) (A) (A)
                 (A) (A) (A) (A) (A) (A) (A) (A) (A) (A) (A) (A)
                 (A) (A) (A) (A) (A) (A) (A) (A) (A) (A) (A) (A)
                 (A) (A) (A) (A) (A) (A) (A) (A) (A) (A) (A) (A)
                 (A) (A) (A) (A) (A) (A) (A) (A) (A) (A) (A) (A)
                 (A) (A) (A) (A) (A) (A) (A) (A) (A) (A) (A) (A)
                 (A) (A) (A) (A) (A) (A) (A) (A) (A) (A) (A) (A)
                 (A) (A) (A) (A) (A) (A) (A) (A) (A) (A) (A) (A)
                 (A) (A) (A) (A) (A) (A) (A) (A) (A) (A) (A) (A)
                 (A) (A) (A) (A) (A) (A) (A) (A) (A) (A) (A) (A)
                 (A) (A) (A) (A) (A) (A) (A) (A) (A) (A) (A) (A)
                 (A) (A) (A) (A) (A) (A) (A) (A) (A) (A) (A) (A)
                 (A) (A) (A) (A) (A) (A) (A) (A) (A) (A) (A) (A)
                 (A) (A) (A) (A) (A) (A) (A) (A) (A) (A) (A) (A)
                 (A) (A) (A) (A) (A) (A) (A) (A) (A) (A) (A) (A)
                 (A) (A) (A) (A) (A) (A) (A) (A) (A) (A) (A) (A)
                 (A) (A) (A) (A) (A) (A) (A) (A) (A) (A) (A) (A)
                 (A) (A) (A) (A) (A) (A) (A) (A) (A) (A) (A) (A)
                 (A) (A) (A) (A) (A) (A) (A) (A) (A) (A) (A) (A)
                 (A) (A) (A) (A) (A) (A) (A) (A) (A) (A) (A) (A)
                 (A) (A) (A) (A) (A) (A) (A) (A) (A) (A) (A) (A)
                 (A) (A) (A) (A) (A) (A) (A) (A) (A) (A) (A) (A)
                 (A) (A) (A) (A) (A) (A) (A) (A) (A) (A) (A) (A)
                 (A) (A) (A) (A) (A) (A) (A) (A) (A) (A) (A) (A)
                 (A) (A) (A) (A) (A) (A) (A) (A) (A) (A) (A) (A)
                 (A) (A) (A) (A) (A) (A) (A) (A) (A) (A) (A) (A)
                 (A) (A) (A) (A) (A) (A) (A) (A) (A) (A) (A) (A)
                 (A) (A) (A) (A) (A) (A) (A) (A) (A) (A) (A) (A)
 The electronic state of the initial guess is 1-A.
 Requested convergence on RMS density matrix=1.00D-08 within 128 cycles.
 Requested convergence on MAX density matrix=1.00D-06.
 Requested convergence on             energy=1.00D-06.
 No special actions if energy rises.
 SCF Done:  E(RB3LYP) =  -1297.93187434     A.U. after   14 cycles
             Convg  =    0.2828D-08             -V/T =  2.0087
 Range of M.O.s used for correlation:     1   547
 NBasis=   547 NAE=    91 NBE=    91 NFC=     0 NFV=     0
 NROrb=    547 NOA=    91 NOB=    91 NVA=   456 NVB=   456

 **** Warning!!: The largest alpha MO coefficient is  0.60550895D+02

          Differentiating once with respect to electric field.
                with respect to dipole field.
          Electric field/nuclear overlap derivatives assumed to be zero.
          There are     3 degrees of freedom in the 1st order CPHF.  IDoFFX=0.
      3 vectors produced by pass  0 Test12= 1.38D-12 3.33D-08 XBig12= 1.20D+02 1.22D+00.
 AX will form     3 AO Fock derivatives at one time.
      3 vectors produced by pass  1 Test12= 1.38D-12 3.33D-08 XBig12= 2.20D+01 4.80D-01.
      3 vectors produced by pass  2 Test12= 1.38D-12 3.33D-08 XBig12= 9.66D+00 2.09D-01.
      3 vectors produced by pass  3 Test12= 1.38D-12 3.33D-08 XBig12= 8.98D-01 9.56D-02.
      3 vectors produced by pass  4 Test12= 1.38D-12 3.33D-08 XBig12= 2.86D-01 4.73D-02.
      3 vectors produced by pass  5 Test12= 1.38D-12 3.33D-08 XBig12= 5.22D-02 2.03D-02.
      3 vectors produced by pass  6 Test12= 1.38D-12 3.33D-08 XBig12= 1.68D-02 1.44D-02.
      3 vectors produced by pass  7 Test12= 1.38D-12 3.33D-08 XBig12= 2.39D-03 6.44D-03.
      3 vectors produced by pass  8 Test12= 1.38D-12 3.33D-08 XBig12= 4.82D-04 1.64D-03.
      3 vectors produced by pass  9 Test12= 1.38D-12 3.33D-08 XBig12= 1.50D-04 1.51D-03.
      3 vectors produced by pass 10 Test12= 1.38D-12 3.33D-08 XBig12= 2.80D-05 4.62D-04.
      3 vectors produced by pass 11 Test12= 1.38D-12 3.33D-08 XBig12= 7.51D-06 2.37D-04.
      3 vectors produced by pass 12 Test12= 1.38D-12 3.33D-08 XBig12= 6.72D-07 7.82D-05.
      3 vectors produced by pass 13 Test12= 1.38D-12 3.33D-08 XBig12= 2.30D-07 4.92D-05.
      3 vectors produced by pass 14 Test12= 1.38D-12 3.33D-08 XBig12= 2.94D-08 1.48D-05.
      3 vectors produced by pass 15 Test12= 1.38D-12 3.33D-08 XBig12= 7.30D-09 7.38D-06.
      3 vectors produced by pass 16 Test12= 1.38D-12 3.33D-08 XBig12= 9.46D-10 2.64D-06.
      3 vectors produced by pass 17 Test12= 1.38D-12 3.33D-08 XBig12= 1.27D-10 8.83D-07.
      3 vectors produced by pass 18 Test12= 1.38D-12 3.33D-08 XBig12= 2.57D-11 4.00D-07.
      3 vectors produced by pass 19 Test12= 1.38D-12 3.33D-08 XBig12= 6.97D-12 2.36D-07.
      3 vectors produced by pass 20 Test12= 1.38D-12 3.33D-08 XBig12= 6.12D-12 2.13D-07.
      3 vectors produced by pass 21 Test12= 1.38D-12 3.33D-08 XBig12= 8.66D-13 1.01D-07.
 Inverted reduced A of dimension    66 with in-core refinement.
 End of Minotr Frequency-dependent properties file   721 does not exist.
 End of Minotr Frequency-dependent properties file   722 does not exist.
 Symmetrizing basis deriv contribution to polar:
 IMax=3 JMax=2 DiffMx= 0.00D+00
 G2DrvN: will do    23 centers at a time, making    2 passes doing MaxLOS=2.
 Calling FoFCou, ICntrl=  3107 FMM=F I1Cent=   0 AccDes= 0.00D+00.
 Calling FoFCou, ICntrl=  3107 FMM=F I1Cent=   0 AccDes= 0.00D+00.
 FoFDir/FoFCou used for L=0 through L=2.
 End of G2Drv Frequency-dependent properties file   721 does not exist.
 End of G2Drv Frequency-dependent properties file   722 does not exist.
          IDoAtm=111111111111111111111111111111111111111111111
          Differentiating once with respect to electric field.
                with respect to dipole field.
          Differentiating once with respect to nuclear coordinates.
          There are   138 degrees of freedom in the 1st order CPHF.  IDoFFX=5.
 Will reuse    3 saved solutions.
    135 vectors produced by pass  0 Test12= 4.15D-14 1.00D-09 XBig12= 2.30D-01 8.34D-02.
 AX will form    68 AO Fock derivatives at one time.
    135 vectors produced by pass  1 Test12= 4.15D-14 1.00D-09 XBig12= 3.33D-02 1.62D-02.
    132 vectors produced by pass  2 Test12= 4.15D-14 1.00D-09 XBig12= 2.46D-04 2.00D-03.
    132 vectors produced by pass  3 Test12= 4.15D-14 1.00D-09 XBig12= 8.10D-07 1.06D-04.
    132 vectors produced by pass  4 Test12= 4.15D-14 1.00D-09 XBig12= 1.23D-09 3.45D-06.
    129 vectors produced by pass  5 Test12= 4.15D-14 1.00D-09 XBig12= 3.40D-12 1.44D-07.
     78 vectors produced by pass  6 Test12= 4.15D-14 1.00D-09 XBig12= 1.07D-13 1.82D-08.
 Inverted reduced A of dimension   873 with in-core refinement.
 Isotropic polarizability for W=    0.000000      188.48 Bohr**3.
 End of Minotr Frequency-dependent properties file   721 does not exist.
 End of Minotr Frequency-dependent properties file   722 does not exist.

 **********************************************************************

            Population analysis using the SCF density.

 **********************************************************************

 Orbital symmetries:
       Occupied  (A) (A) (A) (A) (A) (A) (A) (A) (A) (A) (A) (A)
                 (A) (A) (A) (A) (A) (A) (A) (A) (A) (A) (A) (A)
                 (A) (A) (A) (A) (A) (A) (A) (A) (A) (A) (A) (A)
                 (A) (A) (A) (A) (A) (A) (A) (A) (A) (A) (A) (A)
                 (A) (A) (A) (A) (A) (A) (A) (A) (A) (A) (A) (A)
                 (A) (A) (A) (A) (A) (A) (A) (A) (A) (A) (A) (A)
                 (A) (A) (A) (A) (A) (A) (A) (A) (A) (A) (A) (A)
                 (A) (A) (A) (A) (A) (A) (A)
       Virtual   (A) (A) (A) (A) (A) (A) (A) (A) (A) (A) (A) (A)
                 (A) (A) (A) (A) (A) (A) (A) (A) (A) (A) (A) (A)
                 (A) (A) (A) (A) (A) (A) (A) (A) (A) (A) (A) (A)
                 (A) (A) (A) (A) (A) (A) (A) (A) (A) (A) (A) (A)
                 (A) (A) (A) (A) (A) (A) (A) (A) (A) (A) (A) (A)
                 (A) (A) (A) (A) (A) (A) (A) (A) (A) (A) (A) (A)
                 (A) (A) (A) (A) (A) (A) (A) (A) (A) (A) (A) (A)
                 (A) (A) (A) (A) (A) (A) (A) (A) (A) (A) (A) (A)
                 (A) (A) (A) (A) (A) (A) (A) (A) (A) (A) (A) (A)
                 (A) (A) (A) (A) (A) (A) (A) (A) (A) (A) (A) (A)
                 (A) (A) (A) (A) (A) (A) (A) (A) (A) (A) (A) (A)
                 (A) (A) (A) (A) (A) (A) (A) (A) (A) (A) (A) (A)
                 (A) (A) (A) (A) (A) (A) (A) (A) (A) (A) (A) (A)
                 (A) (A) (A) (A) (A) (A) (A) (A) (A) (A) (A) (A)
                 (A) (A) (A) (A) (A) (A) (A) (A) (A) (A) (A) (A)
                 (A) (A) (A) (A) (A) (A) (A) (A) (A) (A) (A) (A)
                 (A) (A) (A) (A) (A) (A) (A) (A) (A) (A) (A) (A)
                 (A) (A) (A) (A) (A) (A) (A) (A) (A) (A) (A) (A)
                 (A) (A) (A) (A) (A) (A) (A) (A) (A) (A) (A) (A)
                 (A) (A) (A) (A) (A) (A) (A) (A) (A) (A) (A) (A)
                 (A) (A) (A) (A) (A) (A) (A) (A) (A) (A) (A) (A)
                 (A) (A) (A) (A) (A) (A) (A) (A) (A) (A) (A) (A)
                 (A) (A) (A) (A) (A) (A) (A) (A) (A) (A) (A) (A)
                 (A) (A) (A) (A) (A) (A) (A) (A) (A) (A) (A) (A)
                 (A) (A) (A) (A) (A) (A) (A) (A) (A) (A) (A) (A)
                 (A) (A) (A) (A) (A) (A) (A) (A) (A) (A) (A) (A)
                 (A) (A) (A) (A) (A) (A) (A) (A) (A) (A) (A) (A)
                 (A) (A) (A) (A) (A) (A) (A) (A) (A) (A) (A) (A)
                 (A) (A) (A) (A) (A) (A) (A) (A) (A) (A) (A) (A)
                 (A) (A) (A) (A) (A) (A) (A) (A) (A) (A) (A) (A)
                 (A) (A) (A) (A) (A) (A) (A) (A) (A) (A) (A) (A)
                 (A) (A) (A) (A) (A) (A) (A) (A) (A) (A) (A) (A)
                 (A) (A) (A) (A) (A) (A) (A) (A) (A) (A) (A) (A)
                 (A) (A) (A) (A) (A) (A) (A) (A) (A) (A) (A) (A)
                 (A) (A) (A) (A) (A) (A) (A) (A) (A) (A) (A) (A)
                 (A) (A) (A) (A) (A) (A) (A) (A) (A) (A) (A) (A)
                 (A) (A) (A) (A) (A) (A) (A) (A) (A) (A) (A) (A)
                 (A) (A) (A) (A) (A) (A) (A) (A) (A) (A) (A) (A)
 The electronic state is 1-A.
 Alpha  occ. eigenvalues --  -19.20947 -19.19595 -19.19465 -19.19411 -19.18252
 Alpha  occ. eigenvalues --  -19.17333 -19.17004 -19.16375 -19.15650 -19.14696
 Alpha  occ. eigenvalues --  -19.12840 -10.31713 -10.31241 -10.27527 -10.26401
 Alpha  occ. eigenvalues --  -10.26179 -10.25591 -10.25154 -10.24778 -10.24550
 Alpha  occ. eigenvalues --  -10.24465 -10.24427 -10.24214  -1.10109  -1.09471
 Alpha  occ. eigenvalues --   -1.07136  -1.04943  -1.04107  -1.03668  -1.03134
 Alpha  occ. eigenvalues --   -1.01811  -1.01414  -1.00851  -0.99084  -0.82550
 Alpha  occ. eigenvalues --   -0.80158  -0.79602  -0.78480  -0.72474  -0.70178
 Alpha  occ. eigenvalues --   -0.67329  -0.65130  -0.63521  -0.62755  -0.61726
 Alpha  occ. eigenvalues --   -0.60203  -0.57015  -0.56279  -0.55436  -0.55189
 Alpha  occ. eigenvalues --   -0.54058  -0.53678  -0.53210  -0.51982  -0.51102
 Alpha  occ. eigenvalues --   -0.50873  -0.50454  -0.49566  -0.48756  -0.46943
 Alpha  occ. eigenvalues --   -0.46677  -0.45422  -0.44478  -0.43605  -0.43220
 Alpha  occ. eigenvalues --   -0.42767  -0.41522  -0.41194  -0.40121  -0.39780
 Alpha  occ. eigenvalues --   -0.38495  -0.38178  -0.37406  -0.35657  -0.35395
 Alpha  occ. eigenvalues --   -0.34642  -0.34609  -0.33989  -0.33766  -0.33541
 Alpha  occ. eigenvalues --   -0.33106  -0.32012  -0.31734  -0.30588  -0.29389
 Alpha  occ. eigenvalues --   -0.28893  -0.28595  -0.28449  -0.26736  -0.26539
 Alpha  occ. eigenvalues --   -0.25783
 Alpha virt. eigenvalues --   -0.02568  -0.02140  -0.01489  -0.00258   0.00219
 Alpha virt. eigenvalues --    0.00994   0.01870   0.02060   0.02622   0.03288
 Alpha virt. eigenvalues --    0.03819   0.04282   0.04759   0.05254   0.05601
 Alpha virt. eigenvalues --    0.06210   0.06637   0.07415   0.07760   0.07996
 Alpha virt. eigenvalues --    0.08408   0.08675   0.09108   0.09623   0.09677
 Alpha virt. eigenvalues --    0.10257   0.10978   0.11396   0.11709   0.11769
 Alpha virt. eigenvalues --    0.12619   0.12854   0.13383   0.13403   0.13610
 Alpha virt. eigenvalues --    0.14108   0.14364   0.14423   0.14818   0.14948
 Alpha virt. eigenvalues --    0.15772   0.16311   0.16661   0.16805   0.17151
 Alpha virt. eigenvalues --    0.17564   0.17772   0.17965   0.18132   0.18750
 Alpha virt. eigenvalues --    0.18843   0.19151   0.19412   0.20000   0.20138
 Alpha virt. eigenvalues --    0.20810   0.21112   0.21299   0.21577   0.22021
 Alpha virt. eigenvalues --    0.22141   0.22340   0.22969   0.23202   0.23298
 Alpha virt. eigenvalues --    0.23737   0.23800   0.24094   0.24457   0.24656
 Alpha virt. eigenvalues --    0.24869   0.25141   0.25648   0.25905   0.26095
 Alpha virt. eigenvalues --    0.26138   0.26455   0.26735   0.27121   0.27439
 Alpha virt. eigenvalues --    0.27810   0.27924   0.28075   0.28495   0.28833
 Alpha virt. eigenvalues --    0.29064   0.29420   0.29893   0.30193   0.30819
 Alpha virt. eigenvalues --    0.30965   0.31409   0.31888   0.32286   0.32754
 Alpha virt. eigenvalues --    0.33232   0.33372   0.33441   0.33746   0.34160
 Alpha virt. eigenvalues --    0.34450   0.34664   0.35003   0.35635   0.36109
 Alpha virt. eigenvalues --    0.36212   0.36259   0.36681   0.37433   0.37665
 Alpha virt. eigenvalues --    0.37795   0.38059   0.38753   0.39273   0.39562
 Alpha virt. eigenvalues --    0.40127   0.40762   0.41091   0.41544   0.41841
 Alpha virt. eigenvalues --    0.42385   0.42955   0.43330   0.43654   0.43977
 Alpha virt. eigenvalues --    0.44618   0.45401   0.46451   0.46480   0.47434
 Alpha virt. eigenvalues --    0.48418   0.48827   0.49478   0.49812   0.50280
 Alpha virt. eigenvalues --    0.50627   0.51616   0.54830   0.62517   0.63673
 Alpha virt. eigenvalues --    0.64584   0.65282   0.67312   0.68668   0.70715
 Alpha virt. eigenvalues --    0.71269   0.71507   0.72165   0.72825   0.73597
 Alpha virt. eigenvalues --    0.74788   0.75702   0.76922   0.77718   0.79744
 Alpha virt. eigenvalues --    0.79980   0.80686   0.81672   0.82339   0.84287
 Alpha virt. eigenvalues --    0.84696   0.86201   0.87503   0.88348   0.89677
 Alpha virt. eigenvalues --    0.90671   0.91097   0.92357   0.93990   0.94604
 Alpha virt. eigenvalues --    0.95718   0.96589   0.97463   0.98875   0.99623
 Alpha virt. eigenvalues --    1.01543   1.01623   1.02058   1.02647   1.03556
 Alpha virt. eigenvalues --    1.04365   1.04819   1.06790   1.07161   1.08099
 Alpha virt. eigenvalues --    1.08290   1.08940   1.09134   1.09723   1.10981
 Alpha virt. eigenvalues --    1.11780   1.12111   1.12596   1.13907   1.14859
 Alpha virt. eigenvalues --    1.16732   1.17360   1.19817   1.20787   1.21116
 Alpha virt. eigenvalues --    1.22467   1.22613   1.23843   1.24222   1.25204
 Alpha virt. eigenvalues --    1.25741   1.26534   1.27443   1.28158   1.28724
 Alpha virt. eigenvalues --    1.29221   1.29462   1.29993   1.30909   1.31303
 Alpha virt. eigenvalues --    1.32880   1.33550   1.34137   1.34371   1.34860
 Alpha virt. eigenvalues --    1.35884   1.36522   1.37846   1.38392   1.38742
 Alpha virt. eigenvalues --    1.39548   1.40724   1.41248   1.42912   1.44116
 Alpha virt. eigenvalues --    1.45475   1.46392   1.47013   1.48343   1.48950
 Alpha virt. eigenvalues --    1.49895   1.50909   1.51166   1.52580   1.53159
 Alpha virt. eigenvalues --    1.53533   1.56053   1.56225   1.57426   1.57731
 Alpha virt. eigenvalues --    1.59377   1.59579   1.60091   1.60610   1.61354
 Alpha virt. eigenvalues --    1.61981   1.63109   1.64313   1.65338   1.66036
 Alpha virt. eigenvalues --    1.66816   1.67081   1.67818   1.68642   1.69591
 Alpha virt. eigenvalues --    1.70056   1.71632   1.72756   1.73318   1.73587
 Alpha virt. eigenvalues --    1.74189   1.74447   1.75293   1.77146   1.77829
 Alpha virt. eigenvalues --    1.78071   1.78358   1.79305   1.81112   1.82198
 Alpha virt. eigenvalues --    1.83331   1.83788   1.84345   1.85624   1.86422
 Alpha virt. eigenvalues --    1.86675   1.87690   1.89383   1.90096   1.90758
 Alpha virt. eigenvalues --    1.91160   1.92140   1.93150   1.93447   1.94381
 Alpha virt. eigenvalues --    1.94771   1.95818   1.96734   1.96808   1.97772
 Alpha virt. eigenvalues --    1.99587   2.00198   2.00858   2.01773   2.02222
 Alpha virt. eigenvalues --    2.03848   2.04171   2.05475   2.06189   2.06731
 Alpha virt. eigenvalues --    2.07556   2.09076   2.09614   2.10776   2.11534
 Alpha virt. eigenvalues --    2.12435   2.13214   2.13502   2.14515   2.14799
 Alpha virt. eigenvalues --    2.17141   2.18172   2.19442   2.19500   2.21029
 Alpha virt. eigenvalues --    2.22217   2.23765   2.24766   2.26319   2.28526
 Alpha virt. eigenvalues --    2.30324   2.30526   2.32281   2.33416   2.33665
 Alpha virt. eigenvalues --    2.35169   2.35812   2.37007   2.38285   2.38603
 Alpha virt. eigenvalues --    2.39936   2.40699   2.42977   2.44599   2.45276
 Alpha virt. eigenvalues --    2.46230   2.46721   2.48396   2.49268   2.50143
 Alpha virt. eigenvalues --    2.51280   2.52191   2.53267   2.53953   2.54622
 Alpha virt. eigenvalues --    2.55232   2.55880   2.58388   2.59112   2.60215
 Alpha virt. eigenvalues --    2.60814   2.62173   2.62600   2.63511   2.64160
 Alpha virt. eigenvalues --    2.65410   2.66864   2.68125   2.68901   2.70284
 Alpha virt. eigenvalues --    2.70684   2.72035   2.72344   2.73435   2.74053
 Alpha virt. eigenvalues --    2.74771   2.76066   2.77749   2.79684   2.80881
 Alpha virt. eigenvalues --    2.82114   2.82962   2.83745   2.85467   2.86098
 Alpha virt. eigenvalues --    2.86435   2.86944   2.87706   2.89315   2.89694
 Alpha virt. eigenvalues --    2.90105   2.92038   2.92554   2.94376   2.95160
 Alpha virt. eigenvalues --    2.95695   2.97709   2.98559   2.99052   2.99996
 Alpha virt. eigenvalues --    3.01583   3.02322   3.03753   3.04820   3.05563
 Alpha virt. eigenvalues --    3.06903   3.07663   3.09713   3.10121   3.11519
 Alpha virt. eigenvalues --    3.14526   3.17587   3.23172   3.25261   3.29775
 Alpha virt. eigenvalues --    3.31293   3.35858   3.38220   3.38452   3.41141
 Alpha virt. eigenvalues --    3.42309   3.43937   3.45279   3.45690   3.47600
 Alpha virt. eigenvalues --    3.48472   3.49868   3.51942   3.53377   3.53998
 Alpha virt. eigenvalues --    3.54752   3.57358   3.60298   3.62298   3.65412
 Alpha virt. eigenvalues --    3.66994   3.72955   3.77908   4.31437   4.32152
 Alpha virt. eigenvalues --    4.34783   4.35819   4.40458   4.41880   4.45284
 Alpha virt. eigenvalues --    4.48874   4.51053   4.52542   4.54045   4.55675
 Alpha virt. eigenvalues --    4.56474   4.57580   4.61738   4.64621   4.71631
 Alpha virt. eigenvalues --    4.76127   4.81087   4.84343   4.86683   4.88380
 Alpha virt. eigenvalues --    4.93053
          Condensed to atoms (all electrons):
              1          2          3          4          5          6
     1  O    8.237841   0.453984  -0.123604  -0.008278   0.020591   0.031863
     2  C    0.453984   9.335812  -2.220512   0.003362  -0.092193  -2.281287
     3  C   -0.123604  -2.220512   9.332471   0.152747   0.063613   0.674090
     4  O   -0.008278   0.003362   0.152747   8.252837   0.193876  -0.106991
     5  H    0.020591  -0.092193   0.063613   0.193876   0.427448   0.017915
     6  C    0.031863  -2.281287   0.674090  -0.106991   0.017915  11.723130
     7  O   -0.000990   0.054450  -0.185536   0.013722  -0.000808   0.299399
     8  H    0.000009  -0.009329   0.023711  -0.000734   0.000006  -0.032156
     9  C    0.038815   0.770812  -0.402918   0.005816  -0.003540   0.226083
    10  O   -0.012433   0.001530  -0.009916   0.000065  -0.000020  -0.001894
    11  H    0.002255  -0.003239  -0.000094   0.000000   0.000000   0.001039
    12  C   -0.349237  -1.537185  -0.047820   0.021268   0.016545  -0.342230
    13  O    0.003674   0.021338  -0.089736   0.000850  -0.000014  -0.087439
    14  C    0.023688   1.057314  -0.807824   0.026780   0.002607  -3.577790
    15  O    0.000394  -0.057499   0.066639  -0.000925   0.000072   0.160990
    16  C    0.003141  -0.075666  -0.207393  -0.003316   0.001222  -0.236625
    17  C    0.000571   0.003211  -0.053683   0.001158   0.000044   0.096834
    18  O    0.000018   0.012248  -0.004373  -0.000011   0.000000   0.004036
    19  H   -0.000035  -0.009203   0.007854   0.000003   0.000000   0.004334
    20  C    0.000042   0.000506   0.000297  -0.000088   0.000001   0.093299
    21  O    0.000000  -0.000009  -0.000058   0.000000   0.000000  -0.000562
    22  H    0.000000   0.000001   0.000001   0.000000   0.000000  -0.000043
    23  C    0.000074   0.002555  -0.019393   0.000012  -0.000003  -0.137762
    24  O   -0.000009   0.003956   0.014284   0.000027  -0.000005  -0.013310
    25  H    0.000000  -0.000068   0.000629   0.000000   0.000000  -0.003514
    26  C   -0.000175   0.030764  -0.078921   0.001029   0.000016  -0.330713
    27  O    0.000000  -0.000409   0.000802   0.000001   0.000000   0.004196
    28  C   -0.000001  -0.001023   0.001750   0.000005   0.000000  -0.000713
    29  O    0.000000  -0.000003   0.000026   0.000000   0.000000  -0.000515
    30  H    0.000000   0.000000   0.000000   0.000000   0.000000   0.000000
    31  H    0.000000  -0.000004   0.000017   0.000000   0.000000   0.000113
    32  H    0.000000  -0.000005   0.000082   0.000000   0.000000   0.000664
    33  H    0.000000   0.000085   0.000465   0.000000   0.000000   0.005813
    34  H   -0.000001  -0.000374   0.000842  -0.000002   0.000000   0.027563
    35  H    0.000000  -0.000051   0.000717   0.000000   0.000000   0.002964
    36  H    0.000000  -0.000004   0.000123   0.000000   0.000000   0.001893
    37  H    0.000062   0.028411  -0.067165  -0.000187   0.000004  -0.071525
    38  H   -0.001436   0.112909  -0.242831   0.007762  -0.000090   0.266283
    39  H    0.248349  -0.007525   0.022248  -0.000543  -0.001443   0.000649
    40  H   -0.007403   0.196297   0.184694  -0.044664  -0.003226  -0.349565
    41  H   -0.053126   0.495577  -0.152258   0.004316  -0.000961  -0.034792
    42  H    0.008639   0.033798  -0.066687  -0.000089  -0.000002  -0.017706
    43  H    0.000389  -0.020764  -0.002462   0.000033   0.000000  -0.003308
    44  H    0.000989   0.021035  -0.016985  -0.000118   0.000001   0.012539
    45  H    0.000000   0.000025   0.000148   0.000000   0.000000   0.000126
              7          8          9         10         11         12
     1  O   -0.000990   0.000009   0.038815  -0.012433   0.002255  -0.349237
     2  C    0.054450  -0.009329   0.770812   0.001530  -0.003239  -1.537185
     3  C   -0.185536   0.023711  -0.402918  -0.009916  -0.000094  -0.047820
     4  O    0.013722  -0.000734   0.005816   0.000065   0.000000   0.021268
     5  H   -0.000808   0.000006  -0.003540  -0.000020   0.000000   0.016545
     6  C    0.299399  -0.032156   0.226083  -0.001894   0.001039  -0.342230
     7  O    8.309843   0.207169   0.002446   0.000016   0.000000   0.023343
     8  H    0.207169   0.339235   0.000022   0.000000   0.000000   0.001167
     9  C    0.002446   0.000022   8.242162   0.179608   0.016023  -3.734069
    10  O    0.000016   0.000000   0.179608   8.351137   0.221011  -0.041927
    11  H    0.000000   0.000000   0.016023   0.221011   0.405321  -0.007527
    12  C    0.023343   0.001167  -3.734069  -0.041927  -0.007527  12.031679
    13  O    0.011045   0.002170   0.165500   0.000664   0.000024  -0.273840
    14  C   -0.087123   0.006972  -0.335355  -0.000684  -0.001270   0.024576
    15  O   -0.004412   0.015794  -0.024566  -0.000107   0.000002   0.012204
    16  C    0.011879   0.005232  -0.150991  -0.003629  -0.000269   0.243613
    17  C    0.012378   0.000874  -0.027147   0.000342   0.000013  -0.111238
    18  O   -0.000097  -0.000014   0.010904  -0.000011  -0.000003  -0.027122
    19  H   -0.000034  -0.000020  -0.010124  -0.000031   0.000000   0.016662
    20  C    0.001818   0.001256   0.007229   0.000246   0.000025  -0.026715
    21  O   -0.000006   0.000000   0.000318   0.000000   0.000000  -0.000581
    22  H    0.000000   0.000000  -0.000006   0.000000   0.000000   0.000049
    23  C    0.005884   0.017258  -0.001502  -0.000020   0.000000   0.003770
    24  O   -0.046733  -0.017526   0.000285  -0.000001   0.000000  -0.001069
    25  H    0.004944  -0.003401  -0.000011   0.000000   0.000000  -0.000267
    26  C   -0.006297  -0.026456   0.002481  -0.000072  -0.000003   0.059129
    27  O    0.000233   0.000118  -0.000027   0.000000   0.000000   0.000201
    28  C   -0.000096  -0.000328  -0.001827  -0.000004   0.000000   0.003001
    29  O   -0.000002   0.000000  -0.000006   0.000000   0.000000   0.000062
    30  H    0.000000   0.000000   0.000000   0.000000   0.000000  -0.000001
    31  H    0.000000   0.000000   0.000000   0.000000   0.000000   0.000004
    32  H   -0.000001   0.000000  -0.000081   0.000000   0.000000   0.000270
    33  H   -0.000018   0.000003   0.000203   0.000000   0.000000   0.000185
    34  H   -0.000468  -0.000030   0.000156   0.000002   0.000000   0.001275
    35  H    0.000033  -0.000007   0.000020   0.000000   0.000000   0.000175
    36  H   -0.000802   0.000376  -0.000003   0.000000   0.000000  -0.000066
    37  H    0.005420  -0.001834   0.011221   0.000066   0.000000   0.006703
    38  H   -0.053001  -0.000822   0.012591   0.000021   0.000000   0.020544
    39  H   -0.000025   0.000000  -0.003643  -0.000419  -0.000078  -0.000229
    40  H    0.011883  -0.000059   0.016189   0.000090   0.000000  -0.013083
    41  H    0.000642   0.000003   0.011536   0.000389  -0.000016  -0.139143
    42  H    0.000283   0.000000   0.088125   0.005381   0.000114   0.161832
    43  H   -0.000013   0.000000   0.394976  -0.036843  -0.013189   0.001673
    44  H    0.000009   0.000000   0.694670  -0.072401   0.003240  -0.353676
    45  H    0.001452   0.000314  -0.000005   0.000000   0.000000   0.000290
             13         14         15         16         17         18
     1  O    0.003674   0.023688   0.000394   0.003141   0.000571   0.000018
     2  C    0.021338   1.057314  -0.057499  -0.075666   0.003211   0.012248
     3  C   -0.089736  -0.807824   0.066639  -0.207393  -0.053683  -0.004373
     4  O    0.000850   0.026780  -0.000925  -0.003316   0.001158  -0.000011
     5  H   -0.000014   0.002607   0.000072   0.001222   0.000044   0.000000
     6  C   -0.087439  -3.577790   0.160990  -0.236625   0.096834   0.004036
     7  O    0.011045  -0.087123  -0.004412   0.011879   0.012378  -0.000097
     8  H    0.002170   0.006972   0.015794   0.005232   0.000874  -0.000014
     9  C    0.165500  -0.335355  -0.024566  -0.150991  -0.027147   0.010904
    10  O    0.000664  -0.000684  -0.000107  -0.003629   0.000342  -0.000011
    11  H    0.000024  -0.001270   0.000002  -0.000269   0.000013  -0.000003
    12  C   -0.273840   0.024576   0.012204   0.243613  -0.111238  -0.027122
    13  O    8.545658   0.228750  -0.054948   0.050101  -0.083772   0.026089
    14  C    0.228750  10.690454  -0.004268  -0.545408  -0.795175  -0.051862
    15  O   -0.054948  -0.004268   8.336331  -0.027658   0.068764  -0.013487
    16  C    0.050101  -0.545408  -0.027658  15.454943  -3.764585  -0.028708
    17  C   -0.083772  -0.795175   0.068764  -3.764585   9.532080   0.288184
    18  O    0.026089  -0.051862  -0.013487  -0.028708   0.288184   8.220471
    19  H    0.005402   0.004645   0.033810  -0.141339   0.083096   0.168529
    20  C   -0.019655  -0.109358   0.061961  -1.679532   0.409360  -0.144883
    21  O   -0.000204  -0.000348  -0.000327   0.002431  -0.090038   0.001646
    22  H    0.000000  -0.000396   0.000025  -0.008837   0.009726  -0.000647
    23  C    0.019397  -0.169686  -0.016451   0.128979  -0.248424   0.011052
    24  O   -0.001115   0.092573  -0.031681  -0.033972   0.001945   0.000256
    25  H    0.000025  -0.009672   0.001685   0.003146  -0.003296   0.000003
    26  C   -0.015647  -0.799660  -0.065064  -4.477338   0.653880   0.038732
    27  O    0.000304  -0.013954   0.012339  -0.090387   0.004860   0.000909
    28  C    0.002505   0.022141   0.009549   0.768819   0.004891   0.017223
    29  O    0.000025  -0.001026   0.000142   0.012136   0.002836  -0.000416
    30  H    0.000000   0.000038   0.000001  -0.009053   0.007808  -0.000045
    31  H    0.000005   0.004919   0.000130   0.131227  -0.043591  -0.000765
    32  H    0.000269   0.006891  -0.001251   0.119920  -0.178958   0.005171
    33  H    0.001506   0.057754  -0.011528   0.155700   0.225627  -0.041684
    34  H    0.000094   0.011151  -0.071290   0.361630  -0.002945  -0.001083
    35  H   -0.000127   0.039530   0.004949   0.089647  -0.026714  -0.000287
    36  H   -0.000010  -0.001587  -0.000231   0.030465  -0.004596   0.000034
    37  H   -0.056792   0.348073  -0.070702   0.019141   0.044988  -0.000510
    38  H    0.020256   0.082910  -0.022997   0.011703   0.006177   0.000183
    39  H   -0.001269  -0.002944  -0.000019   0.000180  -0.000066   0.000000
    40  H    0.009050   0.193356  -0.001703   0.004294   0.001346   0.000053
    41  H    0.010840   0.080203  -0.001096  -0.001442   0.001395   0.000068
    42  H   -0.031535   0.069547  -0.001074   0.000695   0.005144   0.000369
    43  H   -0.004164  -0.005216  -0.000319   0.006541   0.000329  -0.000909
    44  H    0.009395  -0.004256  -0.000324  -0.003649   0.000686   0.000104
    45  H    0.000125   0.001098   0.003647   0.005162   0.011378  -0.000039
             19         20         21         22         23         24
     1  O   -0.000035   0.000042   0.000000   0.000000   0.000074  -0.000009
     2  C   -0.009203   0.000506  -0.000009   0.000001   0.002555   0.003956
     3  C    0.007854   0.000297  -0.000058   0.000001  -0.019393   0.014284
     4  O    0.000003  -0.000088   0.000000   0.000000   0.000012   0.000027
     5  H    0.000000   0.000001   0.000000   0.000000  -0.000003  -0.000005
     6  C    0.004334   0.093299  -0.000562  -0.000043  -0.137762  -0.013310
     7  O   -0.000034   0.001818  -0.000006   0.000000   0.005884  -0.046733
     8  H   -0.000020   0.001256   0.000000   0.000000   0.017258  -0.017526
     9  C   -0.010124   0.007229   0.000318  -0.000006  -0.001502   0.000285
    10  O   -0.000031   0.000246   0.000000   0.000000  -0.000020  -0.000001
    11  H    0.000000   0.000025   0.000000   0.000000   0.000000   0.000000
    12  C    0.016662  -0.026715  -0.000581   0.000049   0.003770  -0.001069
    13  O    0.005402  -0.019655  -0.000204   0.000000   0.019397  -0.001115
    14  C    0.004645  -0.109358  -0.000348  -0.000396  -0.169686   0.092573
    15  O    0.033810   0.061961  -0.000327   0.000025  -0.016451  -0.031681
    16  C   -0.141339  -1.679532   0.002431  -0.008837   0.128979  -0.033972
    17  C    0.083096   0.409360  -0.090038   0.009726  -0.248424   0.001945
    18  O    0.168529  -0.144883   0.001646  -0.000647   0.011052   0.000256
    19  H    0.399928   0.032917  -0.001072   0.000026  -0.007566   0.000003
    20  C    0.032917   8.101324   0.196388   0.017834  -0.009683  -0.013356
    21  O   -0.001072   0.196388   8.260649   0.202482   0.001527   0.000056
    22  H    0.000026   0.017834   0.202482   0.436491  -0.000121   0.000000
    23  C   -0.007566  -0.009683   0.001527  -0.000121   6.221856  -0.182695
    24  O    0.000003  -0.013356   0.000056   0.000000  -0.182695   8.574264
    25  H    0.000000   0.000569   0.000000   0.000000   0.036670   0.190314
    26  C    0.026272   0.167818   0.031411  -0.000667  -0.468063   0.159261
    27  O    0.000297  -0.178473   0.008125  -0.000255  -0.081536  -0.001586
    28  C   -0.004774  -1.004785  -0.071668  -0.005643  -0.069029   0.008689
    29  O    0.000033  -0.167823   0.009171   0.011191  -0.006158   0.000048
    30  H    0.000000  -0.011667  -0.002319  -0.000870   0.000297   0.000000
    31  H    0.000005  -0.116433   0.005120  -0.000440  -0.004439   0.000053
    32  H    0.000058   0.390944  -0.042253  -0.008104   0.012745  -0.000003
    33  H   -0.005015  -0.091003  -0.000086  -0.000105   0.018491  -0.000020
    34  H   -0.001380   0.027834  -0.000712   0.000006   0.016476  -0.000409
    35  H    0.000000  -0.019803  -0.000035   0.000003  -0.021873   0.004865
    36  H    0.000000   0.002120  -0.000007   0.000000   0.451691  -0.043571
    37  H   -0.000105   0.010005   0.000006   0.000000   0.005949   0.000814
    38  H   -0.000015   0.000095   0.000000   0.000000   0.002753   0.000038
    39  H    0.000000  -0.000001   0.000000   0.000000   0.000003   0.000000
    40  H   -0.000001  -0.000017   0.000000   0.000000   0.000524   0.000172
    41  H    0.000002   0.000040   0.000000   0.000000   0.000088   0.000017
    42  H    0.000000   0.000459   0.000000   0.000000   0.000231   0.000002
    43  H    0.000617  -0.001432  -0.000005   0.000000   0.000014   0.000000
    44  H    0.000002   0.000150   0.000000   0.000000   0.000001   0.000000
    45  H   -0.000001  -0.001121  -0.000009   0.000000   0.518472  -0.075343
             25         26         27         28         29         30
     1  O    0.000000  -0.000175   0.000000  -0.000001   0.000000   0.000000
     2  C   -0.000068   0.030764  -0.000409  -0.001023  -0.000003   0.000000
     3  C    0.000629  -0.078921   0.000802   0.001750   0.000026   0.000000
     4  O    0.000000   0.001029   0.000001   0.000005   0.000000   0.000000
     5  H    0.000000   0.000016   0.000000   0.000000   0.000000   0.000000
     6  C   -0.003514  -0.330713   0.004196  -0.000713  -0.000515   0.000000
     7  O    0.004944  -0.006297   0.000233  -0.000096  -0.000002   0.000000
     8  H   -0.003401  -0.026456   0.000118  -0.000328   0.000000   0.000000
     9  C   -0.000011   0.002481  -0.000027  -0.001827  -0.000006   0.000000
    10  O    0.000000  -0.000072   0.000000  -0.000004   0.000000   0.000000
    11  H    0.000000  -0.000003   0.000000   0.000000   0.000000   0.000000
    12  C   -0.000267   0.059129   0.000201   0.003001   0.000062  -0.000001
    13  O    0.000025  -0.015647   0.000304   0.002505   0.000025   0.000000
    14  C   -0.009672  -0.799660  -0.013954   0.022141  -0.001026   0.000038
    15  O    0.001685  -0.065064   0.012339   0.009549   0.000142   0.000001
    16  C    0.003146  -4.477338  -0.090387   0.768819   0.012136  -0.009053
    17  C   -0.003296   0.653880   0.004860   0.004891   0.002836   0.007808
    18  O    0.000003   0.038732   0.000909   0.017223  -0.000416  -0.000045
    19  H    0.000000   0.026272   0.000297  -0.004774   0.000033   0.000000
    20  C    0.000569   0.167818  -0.178473  -1.004785  -0.167823  -0.011667
    21  O    0.000000   0.031411   0.008125  -0.071668   0.009171  -0.002319
    22  H    0.000000  -0.000667  -0.000255  -0.005643   0.011191  -0.000870
    23  C    0.036670  -0.468063  -0.081536  -0.069029  -0.006158   0.000297
    24  O    0.190314   0.159261  -0.001586   0.008689   0.000048   0.000000
    25  H    0.415865  -0.002592  -0.000036  -0.001827   0.000003   0.000000
    26  C   -0.002592  12.050789   0.313487  -0.761697  -0.056211   0.013803
    27  O   -0.000036   0.313487   8.340021   0.134476  -0.049640   0.001234
    28  C   -0.001827  -0.761697   0.134476   5.847646   0.398954   0.008209
    29  O    0.000003  -0.056211  -0.049640   0.398954   8.219218   0.232999
    30  H    0.000000   0.013803   0.001234   0.008209   0.232999   0.406509
    31  H    0.000000  -0.087880  -0.057441   0.455194  -0.050560  -0.007864
    32  H    0.000000  -0.010306   0.002702  -0.044943  -0.004420   0.000177
    33  H    0.000000  -0.095776   0.001673   0.000421  -0.000388   0.000010
    34  H    0.000002  -0.158970   0.000364   0.007028  -0.000739   0.000001
    35  H   -0.000147   0.166865  -0.045324   0.045494  -0.001045   0.000007
    36  H   -0.009734  -0.097167  -0.000703  -0.001680  -0.000095  -0.000001
    37  H    0.000022   0.003081  -0.000117  -0.001792  -0.000001   0.000000
    38  H   -0.000015   0.003193  -0.000001  -0.000158   0.000000   0.000000
    39  H    0.000000  -0.000008   0.000000   0.000000   0.000000   0.000000
    40  H    0.000000   0.000745   0.000000  -0.000019   0.000000   0.000000
    41  H    0.000000   0.000047   0.000000  -0.000008   0.000000   0.000000
    42  H    0.000000  -0.000723  -0.000001  -0.000054   0.000000   0.000000
    43  H    0.000000   0.000332   0.000000   0.000065   0.000000   0.000000
    44  H    0.000000  -0.000092   0.000000  -0.000004   0.000000   0.000000
    45  H   -0.003848  -0.189540   0.005639   0.011057  -0.000205   0.000000
             31         32         33         34         35         36
     1  O    0.000000   0.000000   0.000000  -0.000001   0.000000   0.000000
     2  C   -0.000004  -0.000005   0.000085  -0.000374  -0.000051  -0.000004
     3  C    0.000017   0.000082   0.000465   0.000842   0.000717   0.000123
     4  O    0.000000   0.000000   0.000000  -0.000002   0.000000   0.000000
     5  H    0.000000   0.000000   0.000000   0.000000   0.000000   0.000000
     6  C    0.000113   0.000664   0.005813   0.027563   0.002964   0.001893
     7  O    0.000000  -0.000001  -0.000018  -0.000468   0.000033  -0.000802
     8  H    0.000000   0.000000   0.000003  -0.000030  -0.000007   0.000376
     9  C    0.000000  -0.000081   0.000203   0.000156   0.000020  -0.000003
    10  O    0.000000   0.000000   0.000000   0.000002   0.000000   0.000000
    11  H    0.000000   0.000000   0.000000   0.000000   0.000000   0.000000
    12  C    0.000004   0.000270   0.000185   0.001275   0.000175  -0.000066
    13  O    0.000005   0.000269   0.001506   0.000094  -0.000127  -0.000010
    14  C    0.004919   0.006891   0.057754   0.011151   0.039530  -0.001587
    15  O    0.000130  -0.001251  -0.011528  -0.071290   0.004949  -0.000231
    16  C    0.131227   0.119920   0.155700   0.361630   0.089647   0.030465
    17  C   -0.043591  -0.178958   0.225627  -0.002945  -0.026714  -0.004596
    18  O   -0.000765   0.005171  -0.041684  -0.001083  -0.000287   0.000034
    19  H    0.000005   0.000058  -0.005015  -0.001380   0.000000   0.000000
    20  C   -0.116433   0.390944  -0.091003   0.027834  -0.019803   0.002120
    21  O    0.005120  -0.042253  -0.000086  -0.000712  -0.000035  -0.000007
    22  H   -0.000440  -0.008104  -0.000105   0.000006   0.000003   0.000000
    23  C   -0.004439   0.012745   0.018491   0.016476  -0.021873   0.451691
    24  O    0.000053  -0.000003  -0.000020  -0.000409   0.004865  -0.043571
    25  H    0.000000   0.000000   0.000000   0.000002  -0.000147  -0.009734
    26  C   -0.087880  -0.010306  -0.095776  -0.158970   0.166865  -0.097167
    27  O   -0.057441   0.002702   0.001673   0.000364  -0.045324  -0.000703
    28  C    0.455194  -0.044943   0.000421   0.007028   0.045494  -0.001680
    29  O   -0.050560  -0.004420  -0.000388  -0.000739  -0.001045  -0.000095
    30  H   -0.007864   0.000177   0.000010   0.000001   0.000007  -0.000001
    31  H    0.629507   0.005242   0.002787   0.000013   0.006336  -0.000014
    32  H    0.005242   0.583585   0.006256   0.002664   0.000003   0.000002
    33  H    0.002787   0.006256   0.618278   0.006637   0.003200   0.000008
    34  H    0.000013   0.002664   0.006637   0.627236   0.006529   0.000025
    35  H    0.006336   0.000003   0.003200   0.006529   0.605805  -0.008828
    36  H   -0.000014   0.000002   0.000008   0.000025  -0.008828   0.587642
    37  H    0.000000  -0.000028  -0.000052   0.013775  -0.000009   0.000002
    38  H    0.000000   0.000000  -0.000005   0.000009  -0.000006   0.000000
    39  H    0.000000   0.000000   0.000000   0.000000   0.000000   0.000000
    40  H    0.000000   0.000000   0.000000  -0.000003   0.000000   0.000000
    41  H    0.000000   0.000000   0.000000   0.000000   0.000000   0.000000
    42  H    0.000000   0.000000   0.000000  -0.000004   0.000000   0.000000
    43  H    0.000000   0.000000  -0.000001   0.000000   0.000000   0.000000
    44  H    0.000000   0.000000   0.000000   0.000000   0.000000   0.000000
    45  H    0.000003  -0.000011   0.000002   0.004483   0.006420  -0.045751
             37         38         39         40         41         42
     1  O    0.000062  -0.001436   0.248349  -0.007403  -0.053126   0.008639
     2  C    0.028411   0.112909  -0.007525   0.196297   0.495577   0.033798
     3  C   -0.067165  -0.242831   0.022248   0.184694  -0.152258  -0.066687
     4  O   -0.000187   0.007762  -0.000543  -0.044664   0.004316  -0.000089
     5  H    0.000004  -0.000090  -0.001443  -0.003226  -0.000961  -0.000002
     6  C   -0.071525   0.266283   0.000649  -0.349565  -0.034792  -0.017706
     7  O    0.005420  -0.053001  -0.000025   0.011883   0.000642   0.000283
     8  H   -0.001834  -0.000822   0.000000  -0.000059   0.000003   0.000000
     9  C    0.011221   0.012591  -0.003643   0.016189   0.011536   0.088125
    10  O    0.000066   0.000021  -0.000419   0.000090   0.000389   0.005381
    11  H    0.000000   0.000000  -0.000078   0.000000  -0.000016   0.000114
    12  C    0.006703   0.020544  -0.000229  -0.013083  -0.139143   0.161832
    13  O   -0.056792   0.020256  -0.001269   0.009050   0.010840  -0.031535
    14  C    0.348073   0.082910  -0.002944   0.193356   0.080203   0.069547
    15  O   -0.070702  -0.022997  -0.000019  -0.001703  -0.001096  -0.001074
    16  C    0.019141   0.011703   0.000180   0.004294  -0.001442   0.000695
    17  C    0.044988   0.006177  -0.000066   0.001346   0.001395   0.005144
    18  O   -0.000510   0.000183   0.000000   0.000053   0.000068   0.000369
    19  H   -0.000105  -0.000015   0.000000  -0.000001   0.000002   0.000000
    20  C    0.010005   0.000095  -0.000001  -0.000017   0.000040   0.000459
    21  O    0.000006   0.000000   0.000000   0.000000   0.000000   0.000000
    22  H    0.000000   0.000000   0.000000   0.000000   0.000000   0.000000
    23  C    0.005949   0.002753   0.000003   0.000524   0.000088   0.000231
    24  O    0.000814   0.000038   0.000000   0.000172   0.000017   0.000002
    25  H    0.000022  -0.000015   0.000000   0.000000   0.000000   0.000000
    26  C    0.003081   0.003193  -0.000008   0.000745   0.000047  -0.000723
    27  O   -0.000117  -0.000001   0.000000   0.000000   0.000000  -0.000001
    28  C   -0.001792  -0.000158   0.000000  -0.000019  -0.000008  -0.000054
    29  O   -0.000001   0.000000   0.000000   0.000000   0.000000   0.000000
    30  H    0.000000   0.000000   0.000000   0.000000   0.000000   0.000000
    31  H    0.000000   0.000000   0.000000   0.000000   0.000000   0.000000
    32  H   -0.000028   0.000000   0.000000   0.000000   0.000000   0.000000
    33  H   -0.000052  -0.000005   0.000000   0.000000   0.000000   0.000000
    34  H    0.013775   0.000009   0.000000  -0.000003   0.000000  -0.000004
    35  H   -0.000009  -0.000006   0.000000   0.000000   0.000000   0.000000
    36  H    0.000002   0.000000   0.000000   0.000000   0.000000   0.000000
    37  H    0.635096   0.005620   0.000002   0.003084   0.000018   0.004718
    38  H    0.005620   0.613068   0.000025   0.007952   0.004457  -0.000012
    39  H    0.000002   0.000025   0.388691  -0.000093  -0.013758  -0.000091
    40  H    0.003084   0.007952  -0.000093   0.652571   0.008027   0.003276
    41  H    0.000018   0.004457  -0.013758   0.008027   0.638892   0.006017
    42  H    0.004718  -0.000012  -0.000091   0.003276   0.006017   0.589902
    43  H   -0.000023   0.000003   0.000002   0.000003   0.000332  -0.004207
    44  H   -0.000005  -0.000022  -0.000041   0.000002   0.006043   0.005844
    45  H   -0.000018  -0.000004   0.000000   0.000000   0.000000   0.000000
             43         44         45
     1  O    0.000389   0.000989   0.000000
     2  C   -0.020764   0.021035   0.000025
     3  C   -0.002462  -0.016985   0.000148
     4  O    0.000033  -0.000118   0.000000
     5  H    0.000000   0.000001   0.000000
     6  C   -0.003308   0.012539   0.000126
     7  O   -0.000013   0.000009   0.001452
     8  H    0.000000   0.000000   0.000314
     9  C    0.394976   0.694670  -0.000005
    10  O   -0.036843  -0.072401   0.000000
    11  H   -0.013189   0.003240   0.000000
    12  C    0.001673  -0.353676   0.000290
    13  O   -0.004164   0.009395   0.000125
    14  C   -0.005216  -0.004256   0.001098
    15  O   -0.000319  -0.000324   0.003647
    16  C    0.006541  -0.003649   0.005162
    17  C    0.000329   0.000686   0.011378
    18  O   -0.000909   0.000104  -0.000039
    19  H    0.000617   0.000002  -0.000001
    20  C   -0.001432   0.000150  -0.001121
    21  O   -0.000005   0.000000  -0.000009
    22  H    0.000000   0.000000   0.000000
    23  C    0.000014   0.000001   0.518472
    24  O    0.000000   0.000000  -0.075343
    25  H    0.000000   0.000000  -0.003848
    26  C    0.000332  -0.000092  -0.189540
    27  O    0.000000   0.000000   0.005639
    28  C    0.000065  -0.000004   0.011057
    29  O    0.000000   0.000000  -0.000205
    30  H    0.000000   0.000000   0.000000
    31  H    0.000000   0.000000   0.000003
    32  H    0.000000   0.000000  -0.000011
    33  H   -0.000001   0.000000   0.000002
    34  H    0.000000   0.000000   0.004483
    35  H    0.000000   0.000000   0.006420
    36  H    0.000000   0.000000  -0.045751
    37  H   -0.000023  -0.000005  -0.000018
    38  H    0.000003  -0.000022  -0.000004
    39  H    0.000002  -0.000041   0.000000
    40  H    0.000003   0.000002   0.000000
    41  H    0.000332   0.006043   0.000000
    42  H   -0.004207   0.005844   0.000000
    43  H    0.586951  -0.043741   0.000000
    44  H   -0.043741   0.612218   0.000000
    45  H    0.000000   0.000000   0.592527
 Mulliken atomic charges:
              1
     1  O   -0.518663
     2  C   -0.323630
     3  C    0.251916
     4  O   -0.519723
     5  H    0.358344
     6  C   -0.025375
     7  O   -0.591829
     8  H    0.471032
     9  C   -0.202369
    10  O   -0.580158
    11  H    0.376621
    12  C    0.356804
    13  O   -0.414790
    14  C    0.248891
    15  O   -0.305502
    16  C   -0.132151
    17  C   -0.045699
    18  O   -0.489322
    19  H    0.396222
    20  C    0.071293
    21  O   -0.509034
    22  H    0.348296
    23  C   -0.032364
    24  O   -0.589520
    25  H    0.384550
    26  C    0.006904
    27  O   -0.312091
    28  C    0.224956
    29  O   -0.547589
    30  H    0.360726
    31  H    0.128755
    32  H    0.152718
    33  H    0.140577
    34  H    0.122617
    35  H    0.140693
    36  H    0.140470
    37  H    0.124580
    38  H    0.142860
    39  H    0.372044
    40  H    0.126227
    41  H    0.127652
    42  H    0.137809
    43  H    0.144335
    44  H    0.128385
    45  H    0.153528
 Sum of Mulliken atomic charges =   0.00000
 Mulliken charges with hydrogens summed into heavy atoms:
              1
     1  O   -0.146618
     2  C   -0.195978
     3  C    0.378144
     4  O   -0.161379
     6  C    0.117485
     7  O   -0.120798
     9  C    0.070352
    10  O   -0.203536
    12  C    0.494613
    13  O   -0.414790
    14  C    0.373471
    15  O   -0.305502
    16  C   -0.009534
    17  C    0.094878
    18  O   -0.093100
    20  C    0.224011
    21  O   -0.160738
    23  C    0.261634
    24  O   -0.204970
    26  C    0.147597
    27  O   -0.312091
    28  C    0.353711
    29  O   -0.186862
 Sum of Mulliken charges with hydrogens summed into heavy atoms =   0.00000
 APT atomic charges:
              1
     1  O   -0.645997
     2  C    0.433499
     3  C    0.420992
     4  O   -0.641134
     5  H    0.263087
     6  C    0.400638
     7  O   -0.824542
     8  H    0.533543
     9  C    0.506327
    10  O   -0.656102
    11  H    0.264157
    12  C    0.436032
    13  O   -0.908245
    14  C    0.958846
    15  O   -0.878394
    16  C    0.458019
    17  C    0.345077
    18  O   -0.668134
    19  H    0.367874
    20  C    0.400655
    21  O   -0.604577
    22  H    0.245669
    23  C    0.438441
    24  O   -0.662711
    25  H    0.268311
    26  C    0.457642
    27  O   -0.808027
    28  C    0.920512
    29  O   -0.675507
    30  H    0.271304
    31  H   -0.073944
    32  H   -0.033471
    33  H   -0.058138
    34  H   -0.033767
    35  H   -0.054724
    36  H   -0.052104
    37  H   -0.061367
    38  H   -0.038130
    39  H    0.260891
    40  H   -0.067635
    41  H   -0.051298
    42  H   -0.046489
    43  H   -0.030993
    44  H   -0.046393
    45  H   -0.029694
 Sum of APT charges=   0.00000
 APT Atomic charges with hydrogens summed into heavy atoms:
              1
     1  O   -0.385106
     2  C    0.382201
     3  C    0.353357
     4  O   -0.378047
[...]
 .00648140,-0.00876506,0.00031804,0.00231437,0.00130266,0.00030977,-0.0
 0006441,-0.00056479,-0.00020572,-0.00013061,0.00024677,0.00003231,0.00
 003991,-0.00001426,0.00016552,0.00010320,-0.00023027,-0.00013178,-0.00
 024710,0.00058149,-0.00005060,-0.00003902,0.00002201,0.00002023,0.0000
 4156,-0.00002073,-0.00001035,-0.00000834,-0.00000936,-0.00002869,0.000
 00307,0.00003190,0.00000567,-0.00002359,-0.00003908,-0.00000454,0.0000
 0415,-0.00000458,0.00002840,0.00003793,0.00003074,0.00001545,0.0000240
 1,-0.00009445,0.00000541,-0.00002830,0.00005447,0.00002161,0.00000853,
 -0.00004871,-0.00000030,-0.00000075,0.00000581,0.00000183,0.00000478,0
 .00000038,0.00000960,0.00000021,-0.00001113,0.00001464,0.00001247,0.00
 002311,0.00004012,-0.00001081,-0.00002397,0.00000416,0.00000043,0.0000
 0482,0.00000152,-0.00000706,-0.00000648,0.00018236,-0.00133336,-0.0009
 6520,0.00008528,0.00015244,0.00006006,0.00014005,0.00001285,0.00001416
 ,0.00068121,-0.00077707,-0.00011879,0.00050696,-0.00024492,-0.00001848
 ,0.37365949,0.00135771,0.00056683,0.00005045,-0.02411936,-0.00227891,0
 .00478644,-0.00173146,0.00139748,0.00015000,0.00079758,-0.00001729,-0.
 00021765,-0.00009770,0.00008540,-0.00000384,-0.00011136,-0.00027804,-0
 .00010045,0.00019155,-0.00016613,-0.00001678,-0.00002462,-0.00001352,-
 0.00000781,0.03053299,0.00472940,-0.00642855,-0.00245664,0.00219152,0.
 00137082,0.00007157,0.00012223,-0.00004243,-0.02842205,-0.04999079,0.0
 0765323,-0.01331383,-0.00278257,-0.00497187,-0.00271162,0.00189271,0.0
 0131695,0.00036575,-0.00015875,-0.00022693,-0.00000200,-0.00004261,0.0
 0000686,0.00001219,0.00009874,0.00008020,-0.00006000,-0.00001751,-0.00
 018883,0.00007711,-0.00009405,0.00025552,0.00000050,-0.00001671,0.0000
 0171,-0.00001087,-0.00000196,-0.00001609,0.00000502,0.00000062,0.00000
 422,-0.00001280,0.00000880,-0.00001332,0.00000996,-0.00000964,0.000017
 07,-0.00000456,-0.00000053,-0.00000418,0.00002370,0.00001666,0.0000019
 2,0.00000355,-0.00001747,-0.00001167,-0.00000441,0.00002413,0.00001150
 ,0.00000571,-0.00000764,-0.00001917,0.00000067,0.00000107,0.00000317,-
 0.00000037,-0.00000277,-0.00000152,-0.00000297,0.00000457,0.00000404,-
 0.00001099,-0.00002344,-0.00001260,0.00001266,0.00001633,-0.00003440,0
 .00000013,0.00000092,0.00000424,0.00000321,-0.00000451,0.00000106,0.00
 067158,0.00014236,-0.00002557,0.00019120,0.00008078,-0.00001788,0.0002
 5347,-0.00008357,-0.00013311,0.00071154,-0.00025897,-0.00014738,-0.000
 87788,-0.00273875,0.00251708,0.03655848,0.05176491,-0.00193830,-0.0007
 4643,0.00141666,0.02606436,0.00297137,-0.00167881,0.00064715,-0.001800
 69,0.00001729,-0.00068389,0.00027276,0.00003369,0.00018899,-0.00009284
 ,0.00005461,0.00020818,-0.00013934,-0.00056380,0.00003596,-0.00029678,
 0.00029602,0.00000412,0.00008225,-0.00000378,0.00684622,0.00242547,0.0
 0012277,-0.00063006,0.00038752,0.00039681,0.00002074,-0.00004222,-0.00
 010839,0.06339492,0.00683352,-0.05512862,-0.03735148,-0.01000987,-0.00
 473337,-0.00302606,0.00347956,0.00358660,0.00045856,-0.00010429,-0.000
 83740,-0.00008811,-0.00018867,0.00026035,0.00002512,0.00002624,-0.0000
 0124,0.00014552,0.00009221,-0.00015960,-0.00008904,-0.00027665,0.00067
 498,-0.00003244,-0.00004643,0.00003086,0.00000340,0.00004859,-0.000025
 74,-0.00000512,-0.00000677,-0.00000545,-0.00001045,0.00002522,0.000008
 28,0.00000267,-0.00003497,0.00000888,0.00000429,0.00000561,-0.00000669
 ,0.00004750,0.00006127,0.00003709,0.00000207,0.00001603,-0.00010304,0.
 00001618,-0.00002876,0.00005603,0.00001474,0.00000730,-0.00004778,0.00
 000164,-0.00000033,0.00000606,-0.00000222,0.00000359,-0.00000123,0.000
 00380,0.00000106,-0.00000837,0.00000717,0.00000819,0.00001126,0.000027
 41,-0.00000405,-0.00006404,-0.00000168,-0.00000107,-0.00000181,0.00000
 030,-0.00001074,-0.00000233,0.00107971,0.00004532,-0.00012067,-0.00001
 259,-0.00000255,-0.00011095,-0.00011577,-0.00016434,0.00056553,-0.0006
 1371,0.00038615,0.00031402,0.00104087,0.00339729,-0.00328545,-0.056288
 20,-0.00468966,0.05891114,0.00030060,-0.00063985,0.00003350,-0.0017475
 7,0.00201536,0.00236193,0.00086172,0.00010920,-0.00075773,-0.00006002,
 0.00053195,-0.00004425,-0.00000107,-0.00000447,0.00005616,0.00001617,-
 0.00008626,-0.00015039,-0.00000330,-0.00006355,0.00007238,0.00000561,0
 .00002020,-0.00000433,-0.05144066,0.01563024,-0.01914727,-0.00544618,0
 .00367807,-0.02480077,0.00188253,0.00098327,0.00025594,-0.00142814,0.0
 1430873,-0.01594646,0.00063912,-0.00285789,-0.00070293,-0.00016944,0.0
 0011129,0.00017588,-0.00009621,-0.00002731,-0.00010948,0.00001661,-0.0
 0002598,0.00003033,-0.00002283,0.00002052,0.00003666,-0.00020988,0.000
 00347,-0.00005268,0.00034296,-0.00004120,-0.00000705,0.00002241,-0.000
 00707,0.00001440,-0.00002922,0.00000703,-0.00001768,0.00000827,0.00000
 335,0.00000919,0.00000502,0.00000962,-0.00000524,-0.00000270,-0.000010
 62,0.00000821,0.00000239,0.00000355,-0.00000142,0.00000523,0.00001552,
 0.00001081,-0.00000939,-0.00000128,-0.00001645,0.00000572,0.00000065,0
 .00001787,-0.00000088,-0.00000196,-0.00001241,0.00000160,0.00000058,0.
 00000255,-0.00000346,-0.00000317,-0.00000350,-0.00000958,0.00000595,0.
 00000842,-0.00001789,-0.00003416,-0.00003455,-0.00001160,0.00001067,0.
 00000279,-0.00000388,-0.00000321,-0.00000507,-0.00000072,-0.00000386,-
 0.00000013,0.00000410,0.00001785,-0.00000624,0.00000654,0.00000849,0.0
 0001824,-0.00019331,0.00024344,-0.00041805,0.00000962,-0.00014129,-0.0
 0004594,0.00049842,0.00025478,-0.00006803,0.00038024,-0.00072267,-0.00
 016386,0.05011188,-0.00009367,0.00014309,-0.00023959,0.00338630,-0.004
 53095,-0.00290663,-0.00059740,0.00012802,0.00168581,0.00012683,-0.0011
 9195,0.00009873,-0.00007306,0.00011680,-0.00017908,0.00000096,0.000271
 83,0.00059681,0.00001207,0.00004751,-0.00040836,0.00002292,-0.00002655
 ,0.00016847,0.01919547,-0.14335127,0.15114887,-0.00909379,0.00655303,-
 0.02918262,0.00030595,0.00329884,-0.00073168,0.00207329,-0.01781421,0.
 02456028,-0.00037478,0.00300712,0.00061572,-0.00001428,-0.00013529,-0.
 00026189,-0.00005889,0.00007023,-0.00028295,-0.00000706,-0.00005285,0.
 00010785,-0.00008790,-0.00032065,-0.00027741,0.00003224,0.00046116,0.0
 0044274,-0.00005831,-0.00069524,-0.00052943,0.00002324,0.00008334,0.00
 000039,0.00001085,-0.00000270,0.00004246,-0.00000699,0.00000811,-0.000
 00728,-0.00000770,-0.00005463,0.00008335,-0.00003184,0.00003255,-0.000
 13501,0.00000533,-0.00000509,0.00001691,-0.00000248,-0.00000096,-0.000
 03795,-0.00001027,0.00006081,-0.00001748,0.00002102,-0.00009982,-0.000
 03572,-0.00002462,0.00002654,0.00006943,-0.00000089,-0.00000195,-0.000
 01202,-0.00000102,0.00000760,0.00000318,0.00000298,-0.00000588,-0.0000
 1053,0.00004354,0.00005502,0.00003791,0.00000717,-0.00001309,-0.000007
 79,-0.00000135,0.00000047,0.00000177,-0.00000106,0.00002049,-0.0000131
 2,-0.00003600,0.00006028,0.00004189,-0.00001165,-0.00001590,-0.0000340
 8,0.00001742,-0.00007625,-0.00022013,0.00009923,-0.00000143,-0.0000719
 3,0.00011836,0.00024797,-0.00023047,0.00015554,0.00061587,-0.00036049,
 -0.01655926,0.15491437,0.00006678,0.00043233,0.00021049,0.00014176,-0.
 00154715,-0.00086177,-0.00024102,-0.00022755,0.00037755,0.00002969,-0.
 00024455,0.00007594,0.00000568,-0.00004324,-0.00003286,0.00000515,-0.0
 0004951,-0.00007588,-0.00000564,-0.00000400,0.00005751,-0.00000490,0.0
 0000775,-0.00002166,-0.02209686,0.14555413,-0.25720925,-0.01152210,0.0
 0042522,-0.02933568,0.00010545,0.00025947,0.00159782,0.00146271,-0.003
 94981,0.00624123,0.00046211,-0.00026086,0.00125475,0.00004458,-0.00008
 474,0.00026358,0.00001075,0.00003641,0.00006113,0.00000737,0.00003913,
 0.00000709,-0.00001876,0.00001899,-0.00003701,0.00005716,-0.00011067,-
 0.00003221,-0.00009916,-0.00000266,-0.00012757,-0.00000893,0.00001148,
 -0.00001325,0.00000728,-0.00002577,-0.00000025,0.00000146,0.00000456,0
 .00000432,0.00000069,0.00001079,-0.00001055,0.00000601,-0.00000799,0.0
 0001986,-0.00000194,0.00000191,-0.00000316,-0.00000615,0.00000423,-0.0
 0000430,0.00000573,-0.00002315,0.00000992,-0.00000986,0.00002196,0.000
 00376,0.00000655,-0.00000947,-0.00001009,-0.00000150,0.00000309,0.0000
 0365,0.00000173,-0.00000057,0.00000007,0.00000228,-0.00000055,-0.00000
 008,0.00000280,0.00000656,0.00000638,0.00000218,-0.00000410,-0.0000003
 8,0.00000187,0.00000061,0.00000112,-0.00000089,-0.00000191,0.00000149,
 -0.00000232,-0.00000988,-0.00000260,-0.00000953,-0.00000400,0.00000417
 ,-0.00000133,-0.00029186,0.00012948,-0.00000275,0.00005551,0.00001687,
 -0.00018296,-0.00015916,-0.00000586,-0.00026369,0.00041129,0.00029721,
 0.03304385,-0.14830865,0.28570007,0.00066190,-0.00064292,-0.00049392,0
 .00030108,-0.00224784,0.00141090,0.00075081,-0.00003926,0.00009160,0.0
 0008680,0.00002403,-0.00006826,-0.00006923,0.00007834,-0.00000951,-0.0
 0009932,0.00001517,0.00019073,0.00005503,0.00002124,-0.00014035,-0.000
 00611,-0.00002151,0.00004274,-0.29703029,-0.05091125,0.11223392,-0.013
 37613,-0.01684432,-0.00731338,-0.00281156,0.00129144,-0.00047786,-0.01
 921658,-0.00138983,0.00914060,0.00086640,0.00085878,0.00052666,0.00030
 296,-0.00015692,0.00002706,0.00013812,0.00016431,0.00022025,-0.0000018
 8,0.00004760,-0.00005032,-0.00002134,0.00000061,-0.00000408,0.00007961
 ,-0.00003691,0.00002025,-0.00010228,0.00006971,-0.00002903,-0.00001016
 ,0.00000026,-0.00000271,0.00001532,-0.00000017,0.00000773,-0.00000492,
 -0.00000341,-0.00000476,-0.00001063,-0.00001857,0.00001388,0.00000149,
 0.00001543,-0.00003362,-0.00000474,-0.00000187,0.00000454,-0.00001410,
 -0.00002521,0.00000143,0.00000924,0.00000837,0.00001253,-0.00001078,0.
 00000059,-0.00000424,0.00000544,0.00000223,0.00000085,-0.00000189,-0.0
 0000118,-0.00000072,0.00000367,0.00000169,0.00000208,0.00000541,-0.000
 00031,-0.00000425,0.00001070,0.00000627,0.00001263,0.00000893,-0.00000
 605,-0.00000352,0.00000559,0.00000263,0.00000529,0.00000091,0.00000381
 ,-0.00000266,0.00002976,-0.00014245,-0.00013018,0.00004258,0.00004433,
 -0.00000088,-0.00035770,0.00060126,-0.00082015,0.00017252,-0.00036106,
 -0.00010636,0.00103923,0.00097800,-0.00067201,-0.00061555,0.00283680,0
 .00076021,0.00578370,0.00149062,-0.00100155,0.32338316,-0.00024633,0.0
 0036425,0.00020082,0.00317287,0.00073711,-0.00143753,0.00031726,0.0000
 0059,-0.00022604,-0.00016872,0.00002579,0.00016734,0.00001898,-0.00007
 409,0.00000776,0.,0.00006164,-0.00001615,-0.00002742,0.00000972,0.0000
 5652,0.00000024,0.00001264,-0.00001510,-0.05506550,-0.05327223,0.03026
 405,-0.02246504,-0.01291386,-0.00524632,-0.00373015,-0.00009893,-0.000
 35311,0.03006994,0.00000706,-0.01124166,-0.00041817,0.00113446,0.00140
 152,-0.00007429,0.00011289,-0.00002913,-0.00007505,-0.00009356,-0.0001
 1922,-0.00001511,-0.00002707,0.00006673,-0.00001049,-0.00001963,-0.000
 02418,0.00004735,0.00006073,0.00003278,-0.00005600,-0.00008296,0.00000
 650,-0.00000289,-0.00000441,0.00000772,0.00000896,0.00001623,0.0000004
 6,-0.00000444,-0.00000448,-0.00000446,0.00000255,0.00000865,0.00000091
 ,0.00000183,-0.00000711,0.00000953,0.00000073,0.00000183,-0.00000266,-
 0.00000784,0.00001309,0.00000561,0.00000364,0.00000627,-0.00002192,-0.
 00000183,-0.00001333,0.00001436,0.00000551,0.00000416,-0.00000909,-0.0
 0000146,-0.00000033,0.00000148,0.00000087,0.00000207,0.00000033,0.0000
 0237,-0.00000253,-0.00000296,0.00000676,0.00001388,0.00001293,0.000004
 69,-0.00000029,0.00000674,0.00000099,-0.00000093,-0.00000089,-0.000001
 74,-0.00000230,0.00000072,-0.00012128,0.00008860,0.00009554,-0.0000239
 9,-0.00003362,-0.00001661,0.00002594,-0.00014114,0.00036338,-0.0002961
 1,-0.00003633,0.00008997,-0.00038279,-0.00061231,0.00002415,0.00197823
 ,-0.00475424,-0.00152931,-0.01675970,-0.00183814,0.00806719,0.06428720
 ,0.07135174,-0.00005642,0.00024394,0.00026052,-0.00079008,0.00111148,-
 0.00035924,-0.00031727,0.00000068,0.00007780,0.00001425,-0.00017473,0.
 00001210,-0.00000353,0.00004304,-0.00001087,0.00009129,0.00001425,0.00
 004189,-0.00003066,-0.00002882,-0.00005269,0.00001176,0.00000578,0.000
 03041,0.11417046,0.03058434,-0.09318678,-0.02806767,-0.01672427,0.0050
 1187,-0.00359647,-0.00053668,-0.00044450,0.00721028,0.00210573,0.00010
 896,-0.00053339,0.00023075,0.00074262,-0.00004997,-0.00005686,0.000071
 89,-0.00008740,-0.00001538,-0.00003522,0.00002134,-0.00000463,-0.00003
 280,0.00003449,0.00004642,0.00007105,-0.00016370,-0.00007905,-0.000129
 35,0.00025174,0.00009877,0.00002096,0.00000640,-0.00001510,0.00000493,
 -0.00002372,0.00000272,-0.00001831,0.00000633,0.00000102,0.00000784,0.
 00000531,0.00000040,-0.00000408,-0.00001838,-0.00000844,-0.00001636,0.
 00000581,0.00000489,0.00000252,0.00001130,-0.00000145,0.00001419,-0.00
 001231,-0.00000208,-0.00000754,0.00000856,0.00001144,0.00001711,0.0000
 0033,-0.00000406,-0.00001655,0.00000221,0.00000023,0.00000302,-0.00000
 383,-0.00000342,-0.00000355,-0.00000793,0.00000313,0.00000896,-0.00002
 523,-0.00003100,-0.00003854,-0.00001594,0.00000630,0.00000785,-0.00000
 555,-0.00000255,-0.00000701,0.00000011,-0.00000364,-0.00000208,-0.0000
 9188,0.00008787,0.00005136,-0.00002412,-0.00002868,-0.00000027,-0.0001
 5185,0.00028010,-0.00010934,-0.00003240,0.00013883,0.00000722,-0.00046
 602,-0.00016332,0.00042589,-0.00028553,-0.00131303,-0.00011146,0.02636
 142,0.00478460,-0.00856166,-0.11334925,-0.02061080,0.09614546,0.000002
 27,0.00002619,0.00001953,0.00001002,-0.00003392,0.00000380,-0.00005464
 ,0.00004206,0.00000725,0.00001953,0.00001575,0.00000134,-0.00000525,0.
 00000280,-0.00000128,0.00008525,-0.00027717,0.00000548,0.00019673,0.00
 050956,0.00070648,-0.00046617,-0.00059204,-0.00091311,-0.00000608,-0.0
 0000889,-0.00000752,0.00001449,0.00001370,0.00000534,-0.00000551,-0.00
 000101,0.00000163,-0.00002741,-0.00000472,0.00002007,0.00009517,0.0000
 5985,-0.00002133,-0.00038806,0.00000194,0.00008625,0.00033451,0.000087
 69,0.00009417,0.00023266,-0.00134918,-0.00040436,0.00032392,0.00004024
 ,0.00006850,0.00007068,0.00016919,0.00000676,-0.00003252,-0.00001157,-
 0.00001324,-0.00004412,-0.00001403,0.00006782,0.00004336,-0.00005416,-
 0.00000934,-0.00001079,0.00000450,-0.00000921,-0.35476174,-0.03443694,
 -0.00691987,-0.00267518,-0.00652421,0.01051541,0.00011766,-0.00006846,
 0.00065721,-0.01937633,-0.00068955,-0.00220173,0.00181389,-0.00082929,
 0.00047051,0.00045171,0.00000454,-0.00011383,0.00002755,0.00009751,-0.
 00009161,-0.00000268,0.00000575,-0.00000984,0.00011440,-0.00024706,0.0
 0016766,0.00003236,0.00004582,-0.00001134,0.00015827,-0.00023031,0.000
 06444,0.00061653,0.00083977,0.00061467,0.00000337,0.00310950,-0.000344
 75,-0.00702363,-0.00024314,-0.00095283,0.00011144,0.00003825,0.0000159
 3,-0.00000643,0.00001896,-0.00002645,0.00000060,-0.00000275,-0.0000014
 1,0.00001755,0.00000205,0.00000455,0.00000461,-0.00000165,-0.00000287,
 0.00000706,0.00000352,0.00000116,-0.00000252,0.00000291,0.00000024,0.0
 0000483,-0.00000056,-0.00000290,0.37997864,-0.00000089,0.00003023,0.00
 003921,0.00001219,-0.00003878,-0.00001366,-0.00003168,0.00004929,-0.00
 002629,0.00000683,-0.00000410,0.00003681,-0.00000177,0.00000423,-0.000
 00560,0.00008810,-0.00022221,-0.00009443,0.00012800,0.00023308,0.00056
 607,-0.00039322,-0.00021267,-0.00110534,0.00000047,-0.00002206,-0.0000
 0831,0.00000616,0.00002310,0.00001090,-0.00000105,-0.00000345,0.000000
 23,-0.00001729,-0.00002130,-0.00003210,-0.00005095,0.00010130,0.000005
 44,0.00016684,-0.00018323,-0.00007167,-0.00028627,0.00006012,-0.000287
 79,0.00126224,0.00228475,0.00096057,0.00013967,-0.00000922,0.00016687,
 -0.00019703,-0.00006636,-0.00011630,0.00004216,-0.00005303,0.00005253,
 0.00001521,0.00006262,-0.00004286,-0.00004516,0.00004692,-0.00001797,0
 .00000360,0.00000569,0.00000458,-0.03393746,-0.05144949,-0.00713470,-0
 .01722916,-0.00479365,0.01403885,-0.00160055,0.00001232,0.00044515,0.0
 3522528,0.00019956,0.00213326,-0.00098977,0.00205375,-0.00179228,0.000
 22520,0.00005848,0.00007789,-0.00010473,-0.00005372,0.00001430,0.00001
 007,0.00001197,-0.00001790,-0.00024453,0.00003283,-0.00007923,-0.00003
 037,-0.00005120,0.00001779,-0.00028438,0.00004043,-0.00009755,-0.00071
 253,-0.00026674,-0.00030871,0.00186895,-0.00529238,0.00176889,-0.02349
 010,-0.00109248,-0.00129449,-0.00002615,-0.00001817,-0.00004880,-0.000
 01567,-0.00000562,-0.00000218,0.00000337,-0.00000276,-0.00000490,0.000
 00388,0.00000300,0.00000098,0.00000049,-0.00000178,0.00000025,0.000002
 12,-0.00000096,0.00000076,0.00000097,0.00000375,-0.00000075,0.00000033
 ,0.00000040,0.00000129,0.04047857,0.05854752,0.00000155,-0.00000758,0.
 00002801,-0.00000197,0.00000781,-0.00002453,0.00001627,-0.00000830,-0.
 00003761,-0.00001554,-0.00003255,0.00003628,0.00000074,0.00000193,-0.0
 0000114,-0.00004645,0.00011513,0.00002925,-0.00052393,-0.00032003,-0.0
 0026010,0.00121797,0.00066405,0.00085016,0.00000049,-0.00001830,-0.000
 01074,0.00000349,0.00001861,0.00001718,-0.00000041,-0.00000386,-0.0000
 0186,-0.00001471,-0.00001365,-0.00006154,-0.00004917,0.00004786,0.0001
 2739,0.00020420,-0.00002768,-0.00023137,-0.00010643,-0.00012476,0.0001
 8781,0.00091490,0.00004217,0.00004454,-0.00005542,-0.00009076,0.000030
 70,-0.00000507,0.00010432,0.00001960,0.00001975,-0.00001796,-0.0000383
 0,-0.00001736,-0.00005892,0.00008273,0.00001296,0.00000261,-0.00004247
 ,-0.00000494,0.00000351,-0.00000071,-0.01125199,-0.00707732,-0.0421074
 8,0.04007374,0.01738413,-0.01797650,0.00080292,-0.00109668,0.00032168,
 -0.00434237,-0.00057032,0.00142660,-0.00034678,0.00017774,0.00038251,-
 0.00012602,-0.00009226,-0.00008482,0.00009550,-0.00001732,-0.00013339,
 0.00000013,0.00001680,0.00001786,0.00011479,0.00000588,0.00000506,0.00
 000557,0.00002122,0.00000261,0.00002134,-0.00002649,-0.00002562,0.0000
 2213,-0.00000978,0.00012263,0.00016190,0.00144223,0.00000192,-0.025152
 78,-0.00266947,0.00200925,-0.00005111,-0.00005777,-0.00001298,-0.00001
 484,0.00003277,0.00004741,0.00000189,0.00000165,-0.00000498,-0.0000151
 4,-0.00000655,-0.00000796,-0.00000228,0.00000256,0.00000175,0.00000078
 ,-0.00000306,0.00000388,0.00000136,-0.00000490,0.00000067,-0.00000235,
 0.00000210,0.00000175,-0.00154732,-0.00773880,0.05526488\\0.02099719,-
 0.02168348,-0.00332842,-0.01756439,0.01079861,0.00776025,0.02308532,-0
 .01751085,0.02500383,-0.00608418,0.00608561,0.02107179,-0.00035224,-0.
 00007441,-0.03119554,-0.00308686,-0.01633010,-0.03475210,0.01844232,0.
 00276821,0.01852928,-0.01124033,0.01237683,0.02023724,0.00567795,0.030
 39121,-0.00715456,0.01534523,0.01086252,0.00990519,-0.01017011,-0.0361
 3784,-0.00869810,-0.00809766,-0.02034590,0.01388128,-0.00228907,0.0247
 0172,-0.01971883,-0.03625269,0.01131864,0.01556791,0.00676843,-0.00852
 638,0.00144446,0.01016686,0.01154413,-0.00545105,0.00340536,0.02694567
 ,0.01681519,-0.00553465,-0.02590115,0.01580182,0.00454488,0.02719287,-
 0.00773774,-0.01163180,0.00618760,0.00151234,0.00809882,0.00080234,-0.
 02630779,-0.00987480,-0.01253305,0.02535290,0.01050601,-0.00638321,-0.
 01576505,0.00303866,-0.02018422,-0.01309214,-0.01603309,0.02254942,0.0
 0917046,-0.00111276,0.00059762,0.02390978,0.00090788,-0.01406896,-0.00
 530194,0.03170461,0.00317416,-0.00204478,-0.00714213,-0.00170690,0.019
 10073,-0.00392787,-0.00299392,-0.00403087,-0.01891297,-0.00461935,-0.0
 0547342,0.01962260,0.00005990,0.00070924,-0.02357869,-0.00179610,-0.00
 316117,0.02069093,0.00107170,-0.00137261,-0.02067259,-0.00279770,-0.00
 382826,-0.00324880,-0.01008427,-0.01591228,0.01787122,0.00250055,-0.00
 798413,-0.02129116,0.00067268,0.00276423,-0.00212215,0.00076104,0.0002
 7193,0.02460165,-0.00081910,-0.00194633,-0.02144809,-0.00067602,-0.004
 11662,0.01916100,0.00424729,-0.00438844,-0.00499681,0.00589509,-0.0179
 7771,-0.01782738,-0.00336968,0.00553377,0.01985638,0.00503717,-0.00360
 372\\\@


 QUHEN THE CAUSS IS TAKEN AWAY THE EFFECT WANISHETH.
 -- PROVERBS AND REASONS OF THE YEAR 1585
           AS REPRINTED IN PAISLEY MAGAZINE 1828.
 Job cpu time:  0 days 12 hours 59 minutes  8.3 seconds.
 File lengths (MBytes):  RWF=   1324 Int=      0 D2E=      0 Chk=     19 Scr=      1
 Normal termination of Gaussian 09 at Thu Jan 21 04:58:19 2016.
Gaussian '09 finished on node002 at Thu Jan 21 04:58:19 EST 2016.
