Gaussian '09 started on node019 at Wed Jan 20 15:58:13 EST 2016.
 Entering Gaussian System, Link 0=/usr/local/gaussian/g09/g09
 Initial command:
 /usr/local/gaussian/g09/l1.exe /home/srmcgrat/thesis/gaussian/cellobiose/300/10000/gaussian5704/Gau-5740.inp -scrdir=/home/srmcgrat/thesis/gaussian/cellobiose/300/10000/gaussian5704/
 Entering Link 1 = /usr/local/gaussian/g09/l1.exe PID=      5742.
  
 Copyright (c) 1988,1990,1992,1993,1995,1998,2003,2009,2010,
            Gaussian, Inc.  All Rights Reserved.
  
 This is part of the Gaussian(R) 09 program.  It is based on
 the Gaussian(R) 03 system (copyright 2003, Gaussian, Inc.),
 the Gaussian(R) 98 system (copyright 1998, Gaussian, Inc.),
 the Gaussian(R) 94 system (copyright 1995, Gaussian, Inc.),
 the Gaussian 92(TM) system (copyright 1992, Gaussian, Inc.),
 the Gaussian 90(TM) system (copyright 1990, Gaussian, Inc.),
 the Gaussian 88(TM) system (copyright 1988, Gaussian, Inc.),
 the Gaussian 86(TM) system (copyright 1986, Carnegie Mellon
 University), and the Gaussian 82(TM) system (copyright 1983,
 Carnegie Mellon University). Gaussian is a federally registered
 trademark of Gaussian, Inc.
  
 This software contains proprietary and confidential information,
 including trade secrets, belonging to Gaussian, Inc.
  
 This software is provided under written license and may be
 used, copied, transmitted, or stored only in accord with that
 written license.
  
 The following legend is applicable only to US Government
 contracts under FAR:
  
                    RESTRICTED RIGHTS LEGEND
  
 Use, reproduction and disclosure by the US Government is
 subject to restrictions as set forth in subparagraphs (a)
 and (c) of the Commercial Computer Software - Restricted
 Rights clause in FAR 52.227-19.
  
 Gaussian, Inc.
 340 Quinnipiac St., Bldg. 40, Wallingford CT 06492
  
  
 ---------------------------------------------------------------
 Warning -- This program may not be used in any manner that
 competes with the business of Gaussian, Inc. or will provide
 assistance to any competitor of Gaussian, Inc.  The licensee
 of this program is prohibited from giving any competitor of
 Gaussian, Inc. access to this program.  By using this program,
 the user acknowledges that Gaussian, Inc. is engaged in the
 business of creating and licensing software in the field of
 computational chemistry and represents and warrants to the
 licensee that it is not a competitor of Gaussian, Inc. and that
 it will not use this program in any manner prohibited above.
 ---------------------------------------------------------------
  

 Cite this work as:
 Gaussian 09, Revision B.01,
 M. J. Frisch, G. W. Trucks, H. B. Schlegel, G. E. Scuseria, 
 M. A. Robb, J. R. Cheeseman, G. Scalmani, V. Barone, B. Mennucci, 
 G. A. Petersson, H. Nakatsuji, M. Caricato, X. Li, H. P. Hratchian, 
 A. F. Izmaylov, J. Bloino, G. Zheng, J. L. Sonnenberg, M. Hada, 
 M. Ehara, K. Toyota, R. Fukuda, J. Hasegawa, M. Ishida, T. Nakajima, 
 Y. Honda, O. Kitao, H. Nakai, T. Vreven, J. A. Montgomery, Jr., 
 J. E. Peralta, F. Ogliaro, M. Bearpark, J. J. Heyd, E. Brothers, 
 K. N. Kudin, V. N. Staroverov, T. Keith, R. Kobayashi, J. Normand, 
 K. Raghavachari, A. Rendell, J. C. Burant, S. S. Iyengar, J. Tomasi, 
 M. Cossi, N. Rega, J. M. Millam, M. Klene, J. E. Knox, J. B. Cross, 
 V. Bakken, C. Adamo, J. Jaramillo, R. Gomperts, R. E. Stratmann, 
 O. Yazyev, A. J. Austin, R. Cammi, C. Pomelli, J. W. Ochterski, 
 R. L. Martin, K. Morokuma, V. G. Zakrzewski, G. A. Voth, 
 P. Salvador, J. J. Dannenberg, S. Dapprich, A. D. Daniels, 
 O. Farkas, J. B. Foresman, J. V. Ortiz, J. Cioslowski, 
 and D. J. Fox, Gaussian, Inc., Wallingford CT, 2010.
 
 ******************************************
 Gaussian 09:  EM64L-G09RevB.01 12-Aug-2010
                20-Jan-2016 
 ******************************************
 ------------------------------------------------
 # freq=raman b3lyp/6-31+g(d,p) geom=connectivity
 ------------------------------------------------
 1/10=4,30=1,38=1,57=2/1,3;
 2/12=2,17=6,18=5,40=1/2;
 3/5=1,6=6,7=111,11=2,16=1,25=1,30=1,71=2,74=-5/1,2,3;
 4//1;
 5/5=2,38=5,98=1/2;
 8/6=4,10=90,11=11/1;
 10/13=10,15=4/2;
 11/6=3,8=1,9=11,15=111,16=1/1,2,10;
 10/6=1/2;
 6/7=2,8=2,9=2,10=2,18=1,28=1/1;
 7/8=1,10=1,25=1/1,2,3,16;
 1/10=4,30=1/3;
 99//99;
 -------------
 300 10000.com
 -------------
 Symbolic Z-matrix:
 Charge =  0 Multiplicity = 1
 O                     7.433     7.793     12.366 
 C                     8.021     8.005     13.658 
 C                     7.582     9.408     14.046 
 O                     8.094     10.431    13.18 
 H                     8.172     10.097    12.241 
 C                     8.043     9.733     15.458 
 O                     7.427     10.918    15.982 
 H                     7.892     11.13     16.842 
 C                     8.155     5.611     14.343 
 O                     7.654     4.786     13.281 
 H                     8.105     3.909     13.442 
 C                     7.566     6.972     14.676 
 O                     8.054     7.239     15.998 
 C                     7.76      8.582     16.409 
 O                     8.639     8.675     17.54 
 C                     8.056     8.336     18.806 
 C                     8.556     7.015     19.37 
 O                     8.581     5.925     18.437 
 H                     8.831     6.36      17.572 
 C                     7.989     6.601     20.718 
 O                     8.348     5.418     21.445 
 H                     7.824     5.487     22.294 
 C                     7.829     10.735    19.628 
 O                     8.27      11.568    18.546 
 H                     8.423     12.486    18.914 
 C                     8.374     9.342     19.9 
 O                     7.563     9.007     21.036 
 C                     8.085     7.811     21.633 
 O                     7.263     7.619     22.794 
 H                     7.82175   7.49163   23.56418 
 H                     8.12756   7.68569   11.71203 
 H                     9.08724   7.976     13.57325 
 H                     6.513     9.44677   14.02069 
 H                     9.10088   9.89162   15.43309 
 H                     6.74469   8.63764   16.74209 
 H                     6.4976    6.91445   14.68601 
 H                     8.09454   5.02623   15.23703 
 H                     9.19358   5.77011   14.14068 
 H                     7.98631   11.29871   20.52376 
 H                     6.77118   10.62538   19.51012 
 H                     9.41516   9.35873   20.14619 
 H                     6.99388   8.27962   18.68932 
 H                     9.58949   7.20261   19.57398 
 H                     6.94269   6.47824   20.53076 
 H                     9.10178   7.9652    21.92842 
 

 GradGradGradGradGradGradGradGradGradGradGradGradGradGradGradGradGradGrad
 Berny optimization.
 Initialization pass.
 Trust Radius=3.00D-01 FncErr=1.00D-07 GrdErr=1.00D-07
 Number of steps in this run=      2 maximum allowed number of steps=      2.
 GradGradGradGradGradGradGradGradGradGradGradGradGradGradGradGradGradGrad

                          Input orientation:                          
 ---------------------------------------------------------------------
 Center     Atomic      Atomic             Coordinates (Angstroms)
 Number     Number       Type             X           Y           Z
 ---------------------------------------------------------------------
      1          8           0        7.433000    7.793000   12.366000
      2          6           0        8.021000    8.005000   13.658000
      3          6           0        7.582000    9.408000   14.046000
      4          8           0        8.094000   10.431000   13.180000
      5          1           0        8.172000   10.097000   12.241000
      6          6           0        8.043000    9.733000   15.458000
      7          8           0        7.427000   10.918000   15.982000
      8          1           0        7.892000   11.130000   16.842000
      9          6           0        8.155000    5.611000   14.343000
     10          8           0        7.654000    4.786000   13.281000
     11          1           0        8.105000    3.909000   13.442000
     12          6           0        7.566000    6.972000   14.676000
     13          8           0        8.054000    7.239000   15.998000
     14          6           0        7.760000    8.582000   16.409000
     15          8           0        8.639000    8.675000   17.540000
     16          6           0        8.056000    8.336000   18.806000
     17          6           0        8.556000    7.015000   19.370000
     18          8           0        8.581000    5.925000   18.437000
     19          1           0        8.831000    6.360000   17.572000
     20          6           0        7.989000    6.601000   20.718000
     21          8           0        8.348000    5.418000   21.445000
     22          1           0        7.824000    5.487000   22.294000
     23          6           0        7.829000   10.735000   19.628000
     24          8           0        8.270000   11.568000   18.546000
     25          1           0        8.423000   12.486000   18.914000
     26          6           0        8.374000    9.342000   19.900000
     27          8           0        7.563000    9.007000   21.036000
     28          6           0        8.085000    7.811000   21.633000
     29          8           0        7.263000    7.619000   22.794000
     30          1           0        7.821751    7.491632   23.564178
     31          1           0        8.127555    7.685692   11.712029
     32          1           0        9.087244    7.975995   13.573254
     33          1           0        6.513002    9.446767   14.020692
     34          1           0        9.100885    9.891619   15.433093
     35          1           0        6.744690    8.637636   16.742093
     36          1           0        6.497596    6.914448   14.686012
     37          1           0        8.094539    5.026230   15.237030
     38          1           0        9.193582    5.770109   14.140682
     39          1           0        7.986308   11.298712   20.523759
     40          1           0        6.771179   10.625376   19.510117
     41          1           0        9.415159    9.358731   20.146187
     42          1           0        6.993877    8.279618   18.689316
     43          1           0        9.589486    7.202613   19.573978
     44          1           0        6.942687    6.478237   20.530759
     45          1           0        9.101784    7.965200   21.928421
 ---------------------------------------------------------------------
                    Distance matrix (angstroms):
                    1          2          3          4          5
     1  O    0.000000
     2  C    1.435253   0.000000
     3  C    2.335129   1.520419   0.000000
     4  O    2.838760   2.473720   1.434792   0.000000
     5  H    2.422842   2.531236   2.020110   0.999680   0.000000
     6  C    3.700833   2.495289   1.520490   2.383084   3.240097
     7  O    4.779238   3.773510   2.460126   2.921175   3.901813
     8  H    5.601859   4.463196   3.298333   3.733584   4.723843
     9  C    3.031656   2.493675   3.851460   4.958698   4.954078
    10  O    3.150891   3.261714   4.685434   5.663023   5.436602
    11  H    4.085929   4.102551   5.556739   6.527270   6.303827
    12  C    2.455164   1.520012   2.516198   3.805454   4.007753
    13  O    3.726121   2.462406   2.955951   4.258120   4.721984
    14  C    4.132227   2.822951   2.509528   3.735880   4.453896
    15  O    5.385410   3.987574   3.723248   4.731824   5.506321
    16  C    6.492810   5.158749   4.902189   6.003528   6.798073
    17  C    7.135995   5.821793   5.917778   7.085097   7.776170
    18  O    6.454794   5.242026   5.692993   6.940984   7.480861
    19  H    5.577663   4.322213   4.825244   6.033728   6.543624
    20  C    8.454934   7.198322   7.249861   8.455848   9.171425
    21  O    9.429003   8.211995   8.441093   9.669794  10.326550
    22  H   10.199789   8.997757   9.135771  10.372128  11.065081
    23  C    7.845306   6.567394   5.742879   6.460599   7.422430
    24  O    7.289965   6.053884   5.038744   5.487960   6.475065
    25  H    8.116690   6.918562   5.820549   6.100002   7.092196
    26  C    7.748938   6.393336   5.907701   6.813422   7.698773
    27  O    8.755547   7.459802   7.001519   8.001654   8.883187
    28  C    9.289926   7.977616   7.769555   8.849728   9.666593
    29  O   10.430837   9.175514   8.934752  10.051214  10.878078
    30  H   11.208976   9.921473   9.712140  10.795609  11.624327
    31  H    0.960000   1.974871   2.951507   3.113323   2.469047
    32  H    2.056082   1.070000   2.130701   2.677355   2.666690
    33  H    2.513831   2.117616   1.070000   2.043289   2.518408
    34  H    4.073463   2.806499   2.113037   2.526099   3.330836
    35  H    4.509697   3.397179   2.926340   4.210142   4.942347
    36  H    2.651281   2.137024   2.793448   4.145204   4.348603
    37  H    4.041715   3.372212   4.569590   5.782984   5.890238
    38  H    3.215779   2.569565   3.980001   4.884249   4.834708
    39  H    8.896358   7.615010   6.760149   7.395628   8.371540
    40  H    7.713544   6.532664   5.656501   6.469777   7.421694
    41  H    8.179962   6.772949   6.369865   7.170982   8.036322
    42  H    6.357197   5.142425   4.814511   6.015918   6.802325
    43  H    7.546784   6.172745   6.281105   7.317235   8.009951
    44  H    8.284461   7.122400   7.144531   8.425171   9.128349
    45  H    9.708470   8.340836   8.156223   9.144980   9.962690
                    6          7          8          9         10
     6  C    0.000000
     7  O    1.434663   0.000000
     8  H    1.972274   1.000384   0.000000
     9  C    4.271610   5.601835   6.064118   0.000000
    10  O    5.418806   6.704353   7.278990   1.435085   0.000000
    11  H    6.163366   7.485811   7.984248   1.926423   0.999225
    12  C    2.908982   4.158831   4.699659   1.519912   2.594680
    13  O    2.551814   3.732081   3.984779   2.323706   3.682295
    14  C    1.519635   2.397940   2.587898   3.640223   4.919882
    15  O    2.410250   2.987868   2.659368   4.454566   5.850951
    16  C    3.627793   3.877801   3.419156   5.230086   6.579493
    17  C    4.791079   5.290236   4.874926   5.234763   6.546600
    18  O    4.864643   5.682323   5.487328   4.128063   5.361062
    19  H    4.057964   5.027393   4.916047   3.382960   4.719691
    20  C    6.122086   6.432887   5.961931   6.453548   7.662599
    21  O    7.386232   7.806575   7.349999   7.107243   8.217783
    22  H    8.050303   8.336349   7.846807   7.958853   9.041818
    23  C    4.294031   3.672657   2.814567   7.368370   8.700899
    24  O    3.599236   2.776193   1.799540   7.291384   8.607857
    25  H    4.434788   3.470917   2.532564   8.260235   9.571418
    26  C    4.471443   4.327968   3.575001   6.696908   8.067633
    27  O    5.645490   5.404936   4.712219   7.528581   8.829787
    28  C    6.467339   6.482300   5.831526   7.615051   8.893385
    29  O    7.674262   7.570577   6.938953   8.731960   9.933576
    30  H    8.413252   8.329781   7.643974   9.416898  10.634488
    31  H    4.269768   5.401041   6.183473   3.350688   3.330786
    32  H    2.780248   4.148959   4.696920   2.656086   3.509369
    33  H    2.118650   2.616610   3.562961   4.184872   4.855077
    34  H    1.070000   2.038785   2.231593   4.517378   5.726459
    35  H    2.129395   2.498669   2.745574   4.111587   5.257481
    36  H    3.305824   4.309502   4.935942   2.136264   2.800290
    37  H    4.712236   5.976081   6.314504   1.070000   2.019366
    38  H    4.331705   5.745610   6.141633   1.070000   2.019366
    39  H    5.302507   4.591877   3.686828   8.401208   9.745942
    40  H    4.339760   3.600464   2.937641   7.331987   8.583681
    41  H    4.899183   4.870785   4.046611   7.022141   8.434592
    42  H    3.695183   3.805025   3.513385   5.230697   6.472326
    43  H    5.073042   5.602032   5.076371   5.652797   7.013394
    44  H    6.126749   6.374736   6.012240   6.364759   7.478545
    45  H    6.790617   6.847178   6.111564   7.998579   9.326376
                   11         12         13         14         15
    11  H    0.000000
    12  C    3.345930   0.000000
    13  O    4.198171   1.434265   0.000000
    14  C    5.546084   2.373399   1.434924   0.000000
    15  O    6.308210   3.500576   2.186798   1.435427   0.000000
    16  C    6.955086   4.376928   3.014677   2.427703   1.434422
    17  C    6.707594   4.797456   3.416513   3.443345   2.472122
    18  O    5.407482   4.033802   2.820115   3.441871   2.893177
    19  H    4.857096   3.218942   1.963121   2.727067   2.323169
    20  C    7.758898   6.068141   4.763367   4.748082   3.850151
    21  O    8.147646   6.988977   5.750851   5.976448   5.093305
    22  H    8.995941   7.765675   6.539268   6.649537   5.781703
    23  C    9.216130   6.225082   5.044754   3.873258   3.042933
    24  O    9.205342   6.049441   5.027843   3.707164   3.085068
    25  H   10.178843   7.007088   6.014169   4.685703   4.056877
    26  C    8.443673   5.793094   4.444166   3.625145   2.466721
    27  O    9.162544   6.677637   5.361749   4.650652   3.672876
    28  C    9.072953   7.026602   5.664042   5.290580   4.219723
    29  O   10.096186   8.149377   6.852423   6.476311   5.532904
    30  H   10.741228   8.907028   7.573957   7.238045   6.193463
    31  H    4.154120   3.099972   4.309813   4.795832   5.933426
    32  H    4.185986   2.130314   2.736814   3.189087   4.052728
    33  H    5.791046   2.768160   3.340458   2.829637   4.183422
    34  H    6.383414   3.384263   2.907142   2.113165   2.476399
    35  H    5.924614   2.778063   2.055273   1.070000   2.055836
    36  H    3.628227   1.070000   2.061320   2.709812   3.978744
    37  H    2.114342   2.092875   2.340314   3.758847   4.348980
    38  H    2.266472   2.092875   2.627911   3.886792   4.505697
    39  H   10.235880   7.286520   6.080159   4.935886   4.026498
    40  H    9.149362   6.111267   5.044615   3.843186   3.342766
    41  H    8.738547   6.248105   4.853191   4.160460   2.803947
    42  H    6.918903   4.259565   3.074073   2.424504   2.045406
    43  H    7.117074   5.304514   3.891872   3.907278   2.684850
    44  H    7.629053   5.908513   4.728602   4.699225   4.080181
    45  H    9.458630   7.479484   6.065897   5.713566   4.469477
                   16         17         18         19         20
    16  C    0.000000
    17  C    1.520900   0.000000
    18  O    2.494936   1.434996   0.000000
    19  H    2.455190   1.933250   0.999975   0.000000
    20  C    2.582723   1.519865   2.451612   3.265633   0.000000
    21  O    3.945163   2.626651   3.059314   4.015069   1.434189
    22  H    4.509631   3.379406   3.954914   4.906471   1.937007
    23  C    2.546059   3.799144   5.011994   4.936777   4.278277
    24  O    3.249495   4.635793   5.652615   5.327913   5.428410
    25  H    4.167596   5.491581   6.580214   6.284529   6.170575
    26  C    1.519867   2.393523   3.722782   3.810611   2.886248
    27  O    2.380376   2.780228   4.158106   4.540234   2.464028
    28  C    2.875482   2.444714   3.743986   4.376487   1.520046
    29  O    4.128811   3.709507   4.856975   5.595801   2.423464
    30  H    4.838191   4.284558   5.414680   6.181050   2.986960
    31  H    7.124075   7.699215   6.966411   6.049095   9.072115
    32  H    5.345531   5.899830   5.302725   4.320541   7.358271
    33  H    5.149158   6.221128   6.015251   5.245287   7.425019
    34  H    3.858527   4.906228   5.002779   4.137643   6.324136
    35  H    2.463784   3.580459   3.688243   3.198290   4.637244
    36  H    4.628578   5.117312   4.403350   3.752481   6.221528
    37  H    4.867608   4.609728   3.359203   2.788082   5.703690
    38  H    5.444545   5.413134   4.342533   3.500482   6.738138
    39  H    3.425378   4.472795   5.795256   5.815261   4.701726
    40  H    2.718049   4.029893   5.149813   5.117870   4.374663
    41  H    2.165500   2.614133   3.925258   3.995005   3.156894
    42  H    1.070000   2.121985   2.850763   2.882421   2.814887
    43  H    2.055709   1.070000   1.985462   2.300699   2.057251
    44  H    2.768671   2.058702   2.715505   3.511974   1.070000
    45  H    3.313709   2.783214   4.077211   4.650634   2.136457
                   21         22         23         24         25
    21  O    0.000000
    22  H    1.000069   0.000000
    23  C    5.642813   5.886347   0.000000
    24  O    6.799469   7.157163   1.434954   0.000000
    25  H    7.507877   7.795460   1.982078   1.000778   0.000000
    26  C    4.217283   4.571079   1.520348   2.607529   3.295350
    27  O    3.696543   3.747144   2.244817   3.641246   4.164844
    28  C    2.414738   2.430230   3.554622   4.866091   5.418748
    29  O    2.800255   2.260563   4.478099   5.886778   6.331484
    30  H    3.011280   2.373164   5.100293   6.480727   6.850502
    31  H    9.996086  10.812238   8.488228   7.861028   8.660175
    32  H    8.309886   9.156544   6.771650   6.188586   7.021747
    33  H    8.643989   9.265317   5.901974   5.297649   6.068731
    34  H    7.531475   8.252463   4.463880   3.631915   4.393979
    35  H    5.920641   6.474186   3.728689   3.763998   4.726924
    36  H    7.165701   7.853562   6.386900   6.300513   7.254326
    37  H    6.225482   7.077170   7.207023   7.333132   8.323230
    38  H    7.361525   8.272393   7.524817   7.339984   8.275357
    39  H    5.963411   6.077507   1.070000   2.016067   2.047358
    40  H    5.774678   5.938127   1.070000   2.016067   2.558474
    41  H    4.284286   4.704805   2.162992   2.958523   3.504637
    42  H    4.197178   4.634821   2.758162   3.530225   4.448205
    43  H    2.868249   3.668622   3.947150   4.674868   5.450729
    44  H    1.983644   2.206419   4.440783   5.621984   6.395189
    45  H    2.700021   2.812091   3.818862   5.011267   5.475866
                   26         27         28         29         30
    26  C    0.000000
    27  O    1.435424   0.000000
    28  C    2.330401   1.435029   0.000000
    29  O    3.546588   2.259891   1.435433   0.000000
    30  H    4.141865   2.958881   1.975031   0.960000   0.000000
    31  H    8.357449   9.434035   9.921853  11.115844  11.857682
    32  H    6.511713   7.686278   8.123498   9.406246  10.082393
    33  H    6.167703   7.107070   7.943183   8.993007   9.829218
    34  H    4.558914   5.877091   6.618145   7.919947   8.573836
    35  H    3.622590   4.386764   5.138164   6.158883   7.001017
    36  H    6.049758   6.770244   7.182221   8.174454   8.994908
    37  H    6.359816   7.053873   6.975921   8.032541   8.688730
    38  H    6.826409   7.789843   7.844043   9.056790   9.677181
    39  H    2.090000   2.386110   3.661187   4.383771   4.874945
    40  H    2.090000   2.361026   3.762110   4.479294   5.230628
    41  H    1.070000   2.084700   2.524957   3.830061   4.208049
    42  H    2.121120   2.521887   3.174182   4.166207   5.007054
    43  H    2.482071   3.082202   2.621676   3.994303   4.373799
    44  H    3.263073   2.652300   2.072696   2.554643   3.316829
    45  H    2.557291   2.061460   1.070000   2.061603   2.130365
                   31         32         33         34         35
    31  H    0.000000
    32  H    2.114104   0.000000
    33  H    3.322362   2.998349   0.000000
    34  H    4.433938   2.669982   2.981595   0.000000
    35  H    5.302835   3.995857   2.848578   2.972811   0.000000
    36  H    3.477954   3.011875   2.618307   4.024772   2.694049
    37  H    4.415819   3.529125   4.849937   4.972241   4.138787
    38  H    3.271731   2.280179   4.551672   4.320389   4.581169
    39  H    9.524728   7.782160   6.920275   5.397876   4.787894
    40  H    8.443440   6.901429   5.620459   4.752689   3.407898
    41  H    8.694366   6.724800   6.778787   4.753524   4.386255
    42  H    7.093695   5.536105   4.836272   4.200120   1.995482
    43  H    8.011295   6.071167   6.733497   4.961493   4.262831
    44  H    8.979524   7.432986   7.167829   6.503475   4.365340
    45  H   10.266543   8.355187   8.451569   6.774981   5.736380
                   36         37         38         39         40
    36  H    0.000000
    37  H    2.533617   0.000000
    38  H    2.979133   1.721403   0.000000
    39  H    7.450994   8.203977   8.530335   0.000000
    40  H    6.092440   7.166658   7.633641   1.719706   0.000000
    41  H    6.655839   6.679403   6.999527   2.438791   2.999935
    42  H    4.258688   4.869730   5.641489   3.669472   2.495173
    43  H    5.790945   5.077463   5.632895   4.500032   4.434213
    44  H    5.877878   5.608802   6.811831   4.932156   4.274329
    45  H    7.767777   7.377452   8.091707   3.785454   4.284443
                   41         42         43         44         45
    41  H    0.000000
    42  H    3.024825   0.000000
    43  H    2.237556   2.946143   0.000000
    44  H    3.815528   2.576530   2.906148   0.000000
    45  H    2.283964   3.877362   2.522458   2.970894   0.000000
 Stoichiometry    C12H22O11
 Framework group  C1[X(C12H22O11)]
 Deg. of freedom   129
 Full point group                 C1      NOp   1
 Largest Abelian subgroup         C1      NOp   1
 Largest concise Abelian subgroup C1      NOp   1
                         Standard orientation:                         
 ---------------------------------------------------------------------
 Center     Atomic      Atomic             Coordinates (Angstroms)
 Number     Number       Type             X           Y           Z
 ---------------------------------------------------------------------
      1          8           0       -4.994999   -0.365233    0.446584
      2          6           0       -3.691352   -0.164280   -0.119167
      3          6           0       -3.318683    1.252610    0.287297
      4          8           0       -4.177436    2.256342   -0.272787
      5          1           0       -5.113157    1.915851   -0.361412
      6          6           0       -1.898291    1.570743   -0.152211
      7          8           0       -1.392634    2.775474    0.440404
      8          1           0       -0.523563    2.977965   -0.011793
      9          6           0       -2.993935   -2.557930   -0.168853
     10          8           0       -4.063267   -3.373060    0.332706
     11          1           0       -3.888933   -4.261961   -0.089093
     12          6           0       -2.679353   -1.178945    0.387539
     13          8           0       -1.348116   -0.919987   -0.079221
     14          6           0       -0.949049    0.432848    0.184575
     15          8           0        0.200463    0.505695   -0.672026
     16          6           0        1.454809    0.189588   -0.052140
     17          6           0        2.034905   -1.142657   -0.501304
     18          8           0        1.107079   -2.237266   -0.514925
     19          1           0        0.245987   -1.813710   -0.796118
     20          6           0        3.371882   -1.533812    0.106544
     21          8           0        4.111306   -2.723284   -0.202178
     22          1           0        4.948394   -2.635216    0.337883
     23          6           0        2.261973    2.597953    0.123007
     24          8           0        1.186492    3.412809   -0.365299
     25          1           0        1.554031    4.327714   -0.536825
     26          6           0        2.551412    1.191076   -0.375370
     27          8           0        3.670803    0.884946    0.469432
     28          6           0        4.283865   -0.322834   -0.004624
     29          8           0        5.427432   -0.485591    0.847569
     30          1           0        6.210118   -0.625450    0.309571
     31          1           0       -5.633232   -0.495609   -0.258584
     32          1           0       -3.752713   -0.224467   -1.185710
     33          1           0       -3.367450    1.322121    1.353923
     34          1           0       -1.900766    1.698621   -1.214539
     35          1           0       -0.638400    0.519342    1.204828
     36          1           0       -2.692406   -1.205564    1.457128
     37          1           0       -2.099083   -3.136531   -0.072104
     38          1           0       -3.174200   -2.429832   -1.215751
     39          1           0        3.158666    3.161059   -0.031116
     40          1           0        2.121497    2.518382    1.180757
     41          1           0        2.820172    1.178874   -1.410995
     42          1           0        1.315223    0.163365    1.008392
     43          1           0        2.260609   -0.984026   -1.535129
     44          1           0        3.162369   -1.627173    1.151670
     45          1           0        4.600761   -0.196691   -1.018806
 ---------------------------------------------------------------------
 Rotational constants (GHZ):      0.3979253      0.1470212      0.1105526
 Standard basis: 6-31+G(d,p) (6D, 7F)
 There are   547 symmetry adapted basis functions of A   symmetry.
 Integral buffers will be    131072 words long.
 Raffenetti 2 integral format.
 Two-electron integral symmetry is turned on.
   547 basis functions,   890 primitive gaussians,   547 cartesian basis functions
    91 alpha electrons       91 beta electrons
       nuclear repulsion energy      2284.3538470134 Hartrees.
 NAtoms=   45 NActive=   45 NUniq=   45 SFac= 1.00D+00 NAtFMM=   50 NAOKFM=F Big=F
 One-electron integrals computed using PRISM.
 NBasis=   547 RedAO= T  NBF=   547
 NBsUse=   547 1.00D-06 NBFU=   547
 Harris functional with IExCor=  402 diagonalized for initial guess.
 ExpMin= 4.38D-02 ExpMax= 5.48D+03 ExpMxC= 8.25D+02 IAcc=2 IRadAn=         0 AccDes= 0.00D+00
 HarFok:  IExCor=  402 AccDes= 0.00D+00 IRadAn=         0 IDoV= 1
 ScaDFX=  1.000000  1.000000  1.000000  1.000000
 FoFCou: FMM=F IPFlag=           0 FMFlag=      100000 FMFlg1=           0
         NFxFlg=           0 DoJE=T BraDBF=F KetDBF=T FulRan=T
         Omega=  0.000000  0.000000  1.000000  0.000000  0.000000 ICntrl=     500 IOpCl=  0
         NMat0=    1 NMatS0=    1 NMatT0=    0 NMatD0=    1 NMtDS0=    0 NMtDT0=    0
         I1Cent=           4 NGrid=           0.
 Petite list used in FoFCou.
 Initial guess orbital symmetries:
       Occupied  (A) (A) (A) (A) (A) (A) (A) (A) (A) (A) (A) (A)
                 (A) (A) (A) (A) (A) (A) (A) (A) (A) (A) (A) (A)
                 (A) (A) (A) (A) (A) (A) (A) (A) (A) (A) (A) (A)
                 (A) (A) (A) (A) (A) (A) (A) (A) (A) (A) (A) (A)
                 (A) (A) (A) (A) (A) (A) (A) (A) (A) (A) (A) (A)
                 (A) (A) (A) (A) (A) (A) (A) (A) (A) (A) (A) (A)
                 (A) (A) (A) (A) (A) (A) (A) (A) (A) (A) (A) (A)
                 (A) (A) (A) (A) (A) (A) (A)
       Virtual   (A) (A) (A) (A) (A) (A) (A) (A) (A) (A) (A) (A)
                 (A) (A) (A) (A) (A) (A) (A) (A) (A) (A) (A) (A)
                 (A) (A) (A) (A) (A) (A) (A) (A) (A) (A) (A) (A)
                 (A) (A) (A) (A) (A) (A) (A) (A) (A) (A) (A) (A)
                 (A) (A) (A) (A) (A) (A) (A) (A) (A) (A) (A) (A)
                 (A) (A) (A) (A) (A) (A) (A) (A) (A) (A) (A) (A)
                 (A) (A) (A) (A) (A) (A) (A) (A) (A) (A) (A) (A)
                 (A) (A) (A) (A) (A) (A) (A) (A) (A) (A) (A) (A)
                 (A) (A) (A) (A) (A) (A) (A) (A) (A) (A) (A) (A)
                 (A) (A) (A) (A) (A) (A) (A) (A) (A) (A) (A) (A)
                 (A) (A) (A) (A) (A) (A) (A) (A) (A) (A) (A) (A)
                 (A) (A) (A) (A) (A) (A) (A) (A) (A) (A) (A) (A)
                 (A) (A) (A) (A) (A) (A) (A) (A) (A) (A) (A) (A)
                 (A) (A) (A) (A) (A) (A) (A) (A) (A) (A) (A) (A)
                 (A) (A) (A) (A) (A) (A) (A) (A) (A) (A) (A) (A)
                 (A) (A) (A) (A) (A) (A) (A) (A) (A) (A) (A) (A)
                 (A) (A) (A) (A) (A) (A) (A) (A) (A) (A) (A) (A)
                 (A) (A) (A) (A) (A) (A) (A) (A) (A) (A) (A) (A)
                 (A) (A) (A) (A) (A) (A) (A) (A) (A) (A) (A) (A)
                 (A) (A) (A) (A) (A) (A) (A) (A) (A) (A) (A) (A)
                 (A) (A) (A) (A) (A) (A) (A) (A) (A) (A) (A) (A)
                 (A) (A) (A) (A) (A) (A) (A) (A) (A) (A) (A) (A)
                 (A) (A) (A) (A) (A) (A) (A) (A) (A) (A) (A) (A)
                 (A) (A) (A) (A) (A) (A) (A) (A) (A) (A) (A) (A)
                 (A) (A) (A) (A) (A) (A) (A) (A) (A) (A) (A) (A)
                 (A) (A) (A) (A) (A) (A) (A) (A) (A) (A) (A) (A)
                 (A) (A) (A) (A) (A) (A) (A) (A) (A) (A) (A) (A)
                 (A) (A) (A) (A) (A) (A) (A) (A) (A) (A) (A) (A)
                 (A) (A) (A) (A) (A) (A) (A) (A) (A) (A) (A) (A)
                 (A) (A) (A) (A) (A) (A) (A) (A) (A) (A) (A) (A)
                 (A) (A) (A) (A) (A) (A) (A) (A) (A) (A) (A) (A)
                 (A) (A) (A) (A) (A) (A) (A) (A) (A) (A) (A) (A)
                 (A) (A) (A) (A) (A) (A) (A) (A) (A) (A) (A) (A)
                 (A) (A) (A) (A) (A) (A) (A) (A) (A) (A) (A) (A)
                 (A) (A) (A) (A) (A) (A) (A) (A) (A) (A) (A) (A)
                 (A) (A) (A) (A) (A) (A) (A) (A) (A) (A) (A) (A)
                 (A) (A) (A) (A) (A) (A) (A) (A) (A) (A) (A) (A)
                 (A) (A) (A) (A) (A) (A) (A) (A) (A) (A) (A) (A)
 The electronic state of the initial guess is 1-A.
 Requested convergence on RMS density matrix=1.00D-08 within 128 cycles.
 Requested convergence on MAX density matrix=1.00D-06.
 Requested convergence on             energy=1.00D-06.
 No special actions if energy rises.
 SCF Done:  E(RB3LYP) =  -1297.92705692     A.U. after   14 cycles
             Convg  =    0.2436D-08             -V/T =  2.0086
 Range of M.O.s used for correlation:     1   547
 NBasis=   547 NAE=    91 NBE=    91 NFC=     0 NFV=     0
 NROrb=    547 NOA=    91 NOB=    91 NVA=   456 NVB=   456

 **** Warning!!: The largest alpha MO coefficient is  0.72467340D+02

          Differentiating once with respect to electric field.
                with respect to dipole field.
          Electric field/nuclear overlap derivatives assumed to be zero.
          There are     3 degrees of freedom in the 1st order CPHF.  IDoFFX=0.
      3 vectors produced by pass  0 Test12= 1.38D-12 3.33D-08 XBig12= 1.19D+02 1.14D+00.
 AX will form     3 AO Fock derivatives at one time.
      3 vectors produced by pass  1 Test12= 1.38D-12 3.33D-08 XBig12= 2.20D+01 3.89D-01.
      3 vectors produced by pass  2 Test12= 1.38D-12 3.33D-08 XBig12= 9.65D+00 2.23D-01.
      3 vectors produced by pass  3 Test12= 1.38D-12 3.33D-08 XBig12= 9.20D-01 9.18D-02.
      3 vectors produced by pass  4 Test12= 1.38D-12 3.33D-08 XBig12= 2.98D-01 4.31D-02.
      3 vectors produced by pass  5 Test12= 1.38D-12 3.33D-08 XBig12= 5.51D-02 2.18D-02.
      3 vectors produced by pass  6 Test12= 1.38D-12 3.33D-08 XBig12= 1.73D-02 1.57D-02.
      3 vectors produced by pass  7 Test12= 1.38D-12 3.33D-08 XBig12= 2.31D-03 6.81D-03.
      3 vectors produced by pass  8 Test12= 1.38D-12 3.33D-08 XBig12= 4.02D-04 2.00D-03.
      3 vectors produced by pass  9 Test12= 1.38D-12 3.33D-08 XBig12= 1.25D-04 1.22D-03.
      3 vectors produced by pass 10 Test12= 1.38D-12 3.33D-08 XBig12= 2.96D-05 3.60D-04.
      3 vectors produced by pass 11 Test12= 1.38D-12 3.33D-08 XBig12= 7.42D-06 2.18D-04.
      3 vectors produced by pass 12 Test12= 1.38D-12 3.33D-08 XBig12= 8.74D-07 8.23D-05.
      3 vectors produced by pass 13 Test12= 1.38D-12 3.33D-08 XBig12= 3.51D-07 4.69D-05.
      3 vectors produced by pass 14 Test12= 1.38D-12 3.33D-08 XBig12= 4.16D-08 1.73D-05.
      3 vectors produced by pass 15 Test12= 1.38D-12 3.33D-08 XBig12= 1.47D-08 1.12D-05.
      3 vectors produced by pass 16 Test12= 1.38D-12 3.33D-08 XBig12= 1.28D-09 3.44D-06.
      3 vectors produced by pass 17 Test12= 1.38D-12 3.33D-08 XBig12= 8.11D-11 8.69D-07.
      3 vectors produced by pass 18 Test12= 1.38D-12 3.33D-08 XBig12= 1.90D-11 3.30D-07.
      3 vectors produced by pass 19 Test12= 1.38D-12 3.33D-08 XBig12= 2.25D-11 4.28D-07.
      2 vectors produced by pass 20 Test12= 1.38D-12 3.33D-08 XBig12= 8.17D-12 2.38D-07.
      2 vectors produced by pass 21 Test12= 1.38D-12 3.33D-08 XBig12= 4.00D-12 2.14D-07.
      2 vectors produced by pass 22 Test12= 1.38D-12 3.33D-08 XBig12= 5.63D-13 5.19D-08.
 Inverted reduced A of dimension    66 with in-core refinement.
 End of Minotr Frequency-dependent properties file   721 does not exist.
 End of Minotr Frequency-dependent properties file   722 does not exist.
 Symmetrizing basis deriv contribution to polar:
 IMax=3 JMax=2 DiffMx= 0.00D+00
 G2DrvN: will do    23 centers at a time, making    2 passes doing MaxLOS=2.
 Calling FoFCou, ICntrl=  3107 FMM=F I1Cent=   0 AccDes= 0.00D+00.
 Calling FoFCou, ICntrl=  3107 FMM=F I1Cent=   0 AccDes= 0.00D+00.
 FoFDir/FoFCou used for L=0 through L=2.
 End of G2Drv Frequency-dependent properties file   721 does not exist.
 End of G2Drv Frequency-dependent properties file   722 does not exist.
          IDoAtm=111111111111111111111111111111111111111111111
          Differentiating once with respect to electric field.
                with respect to dipole field.
          Differentiating once with respect to nuclear coordinates.
          There are   138 degrees of freedom in the 1st order CPHF.  IDoFFX=5.
 Will reuse    3 saved solutions.
    135 vectors produced by pass  0 Test12= 4.15D-14 1.00D-09 XBig12= 2.29D-01 6.93D-02.
 AX will form    68 AO Fock derivatives at one time.
    135 vectors produced by pass  1 Test12= 4.15D-14 1.00D-09 XBig12= 3.48D-02 1.44D-02.
    132 vectors produced by pass  2 Test12= 4.15D-14 1.00D-09 XBig12= 2.61D-04 1.32D-03.
    132 vectors produced by pass  3 Test12= 4.15D-14 1.00D-09 XBig12= 8.75D-07 6.72D-05.
    132 vectors produced by pass  4 Test12= 4.15D-14 1.00D-09 XBig12= 1.34D-09 2.75D-06.
    132 vectors produced by pass  5 Test12= 4.15D-14 1.00D-09 XBig12= 5.10D-12 1.44D-07.
     78 vectors produced by pass  6 Test12= 4.15D-14 1.00D-09 XBig12= 1.58D-13 2.09D-08.
 Inverted reduced A of dimension   876 with in-core refinement.
 Isotropic polarizability for W=    0.000000      186.99 Bohr**3.
 End of Minotr Frequency-dependent properties file   721 does not exist.
 End of Minotr Frequency-dependent properties file   722 does not exist.

 **********************************************************************

            Population analysis using the SCF density.

 **********************************************************************

 Orbital symmetries:
       Occupied  (A) (A) (A) (A) (A) (A) (A) (A) (A) (A) (A) (A)
                 (A) (A) (A) (A) (A) (A) (A) (A) (A) (A) (A) (A)
                 (A) (A) (A) (A) (A) (A) (A) (A) (A) (A) (A) (A)
                 (A) (A) (A) (A) (A) (A) (A) (A) (A) (A) (A) (A)
                 (A) (A) (A) (A) (A) (A) (A) (A) (A) (A) (A) (A)
                 (A) (A) (A) (A) (A) (A) (A) (A) (A) (A) (A) (A)
                 (A) (A) (A) (A) (A) (A) (A) (A) (A) (A) (A) (A)
                 (A) (A) (A) (A) (A) (A) (A)
       Virtual   (A) (A) (A) (A) (A) (A) (A) (A) (A) (A) (A) (A)
                 (A) (A) (A) (A) (A) (A) (A) (A) (A) (A) (A) (A)
                 (A) (A) (A) (A) (A) (A) (A) (A) (A) (A) (A) (A)
                 (A) (A) (A) (A) (A) (A) (A) (A) (A) (A) (A) (A)
                 (A) (A) (A) (A) (A) (A) (A) (A) (A) (A) (A) (A)
                 (A) (A) (A) (A) (A) (A) (A) (A) (A) (A) (A) (A)
                 (A) (A) (A) (A) (A) (A) (A) (A) (A) (A) (A) (A)
                 (A) (A) (A) (A) (A) (A) (A) (A) (A) (A) (A) (A)
                 (A) (A) (A) (A) (A) (A) (A) (A) (A) (A) (A) (A)
                 (A) (A) (A) (A) (A) (A) (A) (A) (A) (A) (A) (A)
                 (A) (A) (A) (A) (A) (A) (A) (A) (A) (A) (A) (A)
                 (A) (A) (A) (A) (A) (A) (A) (A) (A) (A) (A) (A)
                 (A) (A) (A) (A) (A) (A) (A) (A) (A) (A) (A) (A)
                 (A) (A) (A) (A) (A) (A) (A) (A) (A) (A) (A) (A)
                 (A) (A) (A) (A) (A) (A) (A) (A) (A) (A) (A) (A)
                 (A) (A) (A) (A) (A) (A) (A) (A) (A) (A) (A) (A)
                 (A) (A) (A) (A) (A) (A) (A) (A) (A) (A) (A) (A)
                 (A) (A) (A) (A) (A) (A) (A) (A) (A) (A) (A) (A)
                 (A) (A) (A) (A) (A) (A) (A) (A) (A) (A) (A) (A)
                 (A) (A) (A) (A) (A) (A) (A) (A) (A) (A) (A) (A)
                 (A) (A) (A) (A) (A) (A) (A) (A) (A) (A) (A) (A)
                 (A) (A) (A) (A) (A) (A) (A) (A) (A) (A) (A) (A)
                 (A) (A) (A) (A) (A) (A) (A) (A) (A) (A) (A) (A)
                 (A) (A) (A) (A) (A) (A) (A) (A) (A) (A) (A) (A)
                 (A) (A) (A) (A) (A) (A) (A) (A) (A) (A) (A) (A)
                 (A) (A) (A) (A) (A) (A) (A) (A) (A) (A) (A) (A)
                 (A) (A) (A) (A) (A) (A) (A) (A) (A) (A) (A) (A)
                 (A) (A) (A) (A) (A) (A) (A) (A) (A) (A) (A) (A)
                 (A) (A) (A) (A) (A) (A) (A) (A) (A) (A) (A) (A)
                 (A) (A) (A) (A) (A) (A) (A) (A) (A) (A) (A) (A)
                 (A) (A) (A) (A) (A) (A) (A) (A) (A) (A) (A) (A)
                 (A) (A) (A) (A) (A) (A) (A) (A) (A) (A) (A) (A)
                 (A) (A) (A) (A) (A) (A) (A) (A) (A) (A) (A) (A)
                 (A) (A) (A) (A) (A) (A) (A) (A) (A) (A) (A) (A)
                 (A) (A) (A) (A) (A) (A) (A) (A) (A) (A) (A) (A)
                 (A) (A) (A) (A) (A) (A) (A) (A) (A) (A) (A) (A)
                 (A) (A) (A) (A) (A) (A) (A) (A) (A) (A) (A) (A)
                 (A) (A) (A) (A) (A) (A) (A) (A) (A) (A) (A) (A)
 The electronic state is 1-A.
 Alpha  occ. eigenvalues --  -19.19623 -19.19600 -19.19575 -19.19473 -19.19281
 Alpha  occ. eigenvalues --  -19.18091 -19.17480 -19.17015 -19.16251 -19.15014
 Alpha  occ. eigenvalues --  -19.14804 -10.31430 -10.30902 -10.26847 -10.26503
 Alpha  occ. eigenvalues --  -10.26190 -10.25971 -10.25489 -10.25419 -10.25087
 Alpha  occ. eigenvalues --  -10.24696 -10.24593 -10.24231  -1.10638  -1.10020
 Alpha  occ. eigenvalues --   -1.05786  -1.05438  -1.04501  -1.04097  -1.03076
 Alpha  occ. eigenvalues --   -1.02756  -1.02239  -1.01126  -1.00470  -0.82611
 Alpha  occ. eigenvalues --   -0.80817  -0.80099  -0.78540  -0.72046  -0.69950
 Alpha  occ. eigenvalues --   -0.67542  -0.65327  -0.63608  -0.62966  -0.61726
 Alpha  occ. eigenvalues --   -0.60473  -0.56863  -0.55998  -0.55729  -0.54807
 Alpha  occ. eigenvalues --   -0.54496  -0.53474  -0.53222  -0.51757  -0.51129
 Alpha  occ. eigenvalues --   -0.51038  -0.50276  -0.49674  -0.48854  -0.46572
 Alpha  occ. eigenvalues --   -0.46230  -0.45149  -0.44360  -0.44133  -0.43416
 Alpha  occ. eigenvalues --   -0.42839  -0.42081  -0.41436  -0.40527  -0.40007
 Alpha  occ. eigenvalues --   -0.39588  -0.38354  -0.37783  -0.36424  -0.36009
 Alpha  occ. eigenvalues --   -0.35775  -0.35511  -0.34693  -0.34587  -0.33970
 Alpha  occ. eigenvalues --   -0.33364  -0.31831  -0.31305  -0.30732  -0.30167
 Alpha  occ. eigenvalues --   -0.29801  -0.28822  -0.27999  -0.27967  -0.27006
 Alpha  occ. eigenvalues --   -0.26568
 Alpha virt. eigenvalues --   -0.02406  -0.02265  -0.02178  -0.00538   0.00046
 Alpha virt. eigenvalues --    0.00869   0.01729   0.02133   0.03265   0.03426
 Alpha virt. eigenvalues --    0.03929   0.04160   0.04747   0.05317   0.05526
 Alpha virt. eigenvalues --    0.05872   0.06399   0.07126   0.07648   0.08048
 Alpha virt. eigenvalues --    0.08554   0.08776   0.09116   0.09380   0.09951
 Alpha virt. eigenvalues --    0.10525   0.11114   0.11369   0.11569   0.11836
 Alpha virt. eigenvalues --    0.12133   0.12754   0.13066   0.13640   0.13667
 Alpha virt. eigenvalues --    0.13819   0.14069   0.14761   0.15010   0.15597
 Alpha virt. eigenvalues --    0.15726   0.16024   0.16464   0.16752   0.16953
 Alpha virt. eigenvalues --    0.17272   0.17552   0.17846   0.17972   0.18404
 Alpha virt. eigenvalues --    0.18667   0.18985   0.19217   0.19645   0.19842
 Alpha virt. eigenvalues --    0.20153   0.20825   0.21060   0.21358   0.21601
 Alpha virt. eigenvalues --    0.21652   0.21840   0.22345   0.22876   0.23152
 Alpha virt. eigenvalues --    0.23170   0.23765   0.24123   0.24256   0.24450
 Alpha virt. eigenvalues --    0.24714   0.24938   0.25343   0.25925   0.26109
 Alpha virt. eigenvalues --    0.26330   0.26552   0.27026   0.27240   0.27446
 Alpha virt. eigenvalues --    0.27691   0.27816   0.28200   0.28386   0.28578
 Alpha virt. eigenvalues --    0.28886   0.29201   0.29944   0.30248   0.30603
 Alpha virt. eigenvalues --    0.30910   0.31217   0.31674   0.32078   0.32215
 Alpha virt. eigenvalues --    0.32272   0.32630   0.33238   0.33673   0.33997
 Alpha virt. eigenvalues --    0.34370   0.34605   0.35031   0.35699   0.35743
 Alpha virt. eigenvalues --    0.36021   0.36376   0.36868   0.37485   0.37635
 Alpha virt. eigenvalues --    0.37957   0.38245   0.38604   0.38976   0.39338
 Alpha virt. eigenvalues --    0.40324   0.40479   0.40967   0.41396   0.41566
 Alpha virt. eigenvalues --    0.41912   0.42389   0.42640   0.43151   0.44051
 Alpha virt. eigenvalues --    0.44556   0.44746   0.45998   0.46291   0.46987
 Alpha virt. eigenvalues --    0.47681   0.48078   0.48984   0.50179   0.50375
 Alpha virt. eigenvalues --    0.51601   0.52399   0.54343   0.62346   0.63590
 Alpha virt. eigenvalues --    0.64175   0.67093   0.68139   0.68530   0.69924
 Alpha virt. eigenvalues --    0.70095   0.71529   0.72499   0.73253   0.74347
 Alpha virt. eigenvalues --    0.75317   0.75570   0.76820   0.77344   0.79139
 Alpha virt. eigenvalues --    0.80036   0.80413   0.80661   0.82003   0.83393
 Alpha virt. eigenvalues --    0.84971   0.86232   0.87282   0.88154   0.88952
 Alpha virt. eigenvalues --    0.90838   0.92040   0.92379   0.93798   0.94714
 Alpha virt. eigenvalues --    0.95719   0.96560   0.97306   0.99827   1.00180
 Alpha virt. eigenvalues --    1.01110   1.02066   1.02775   1.03317   1.03749
 Alpha virt. eigenvalues --    1.04248   1.04473   1.05654   1.07096   1.07538
 Alpha virt. eigenvalues --    1.08678   1.08989   1.09088   1.09772   1.10303
 Alpha virt. eigenvalues --    1.11031   1.12121   1.12580   1.14459   1.14683
 Alpha virt. eigenvalues --    1.16291   1.18075   1.18973   1.19321   1.20796
 Alpha virt. eigenvalues --    1.21768   1.22609   1.22851   1.23440   1.25329
 Alpha virt. eigenvalues --    1.26073   1.26643   1.26763   1.27498   1.27792
 Alpha virt. eigenvalues --    1.28793   1.29216   1.29606   1.30300   1.31209
 Alpha virt. eigenvalues --    1.31747   1.32076   1.33029   1.33127   1.34380
 Alpha virt. eigenvalues --    1.35094   1.35858   1.36536   1.37514   1.38456
 Alpha virt. eigenvalues --    1.39480   1.40348   1.41141   1.41618   1.42272
 Alpha virt. eigenvalues --    1.43468   1.44753   1.45480   1.46456   1.47187
 Alpha virt. eigenvalues --    1.48907   1.49158   1.49351   1.51415   1.52164
 Alpha virt. eigenvalues --    1.52385   1.54543   1.56002   1.56613   1.57344
 Alpha virt. eigenvalues --    1.57413   1.58170   1.58962   1.60453   1.60594
 Alpha virt. eigenvalues --    1.61736   1.62676   1.63404   1.64646   1.65363
 Alpha virt. eigenvalues --    1.66349   1.67265   1.68401   1.69134   1.69531
 Alpha virt. eigenvalues --    1.69941   1.70382   1.72053   1.72899   1.73855
 Alpha virt. eigenvalues --    1.74506   1.75794   1.76041   1.76604   1.76981
 Alpha virt. eigenvalues --    1.78827   1.78950   1.80048   1.80530   1.81452
 Alpha virt. eigenvalues --    1.82048   1.82701   1.84759   1.86205   1.86395
 Alpha virt. eigenvalues --    1.87234   1.88536   1.88680   1.89123   1.90698
 Alpha virt. eigenvalues --    1.91157   1.92130   1.94046   1.94911   1.95959
 Alpha virt. eigenvalues --    1.96698   1.96741   1.96836   1.97774   1.98193
 Alpha virt. eigenvalues --    1.99992   2.00654   2.01073   2.01856   2.02588
 Alpha virt. eigenvalues --    2.03000   2.03570   2.05282   2.05864   2.06635
 Alpha virt. eigenvalues --    2.07754   2.08020   2.09173   2.10698   2.11269
 Alpha virt. eigenvalues --    2.12187   2.12954   2.14100   2.14960   2.15953
 Alpha virt. eigenvalues --    2.17487   2.18380   2.18795   2.19766   2.20332
 Alpha virt. eigenvalues --    2.22409   2.24195   2.25354   2.26485   2.27296
 Alpha virt. eigenvalues --    2.30040   2.30873   2.32388   2.32705   2.33922
 Alpha virt. eigenvalues --    2.35132   2.35841   2.37375   2.38866   2.39563
 Alpha virt. eigenvalues --    2.40381   2.41390   2.42047   2.43278   2.44870
 Alpha virt. eigenvalues --    2.45451   2.46124   2.46544   2.47578   2.49071
 Alpha virt. eigenvalues --    2.50730   2.51407   2.52698   2.54337   2.55012
 Alpha virt. eigenvalues --    2.56126   2.56633   2.57891   2.58751   2.60343
 Alpha virt. eigenvalues --    2.61254   2.61884   2.62083   2.63934   2.64436
 Alpha virt. eigenvalues --    2.65826   2.66872   2.67815   2.69694   2.69780
 Alpha virt. eigenvalues --    2.70901   2.72641   2.72819   2.73414   2.74018
 Alpha virt. eigenvalues --    2.75484   2.77146   2.78339   2.78613   2.79658
 Alpha virt. eigenvalues --    2.80638   2.82324   2.83150   2.83862   2.85673
 Alpha virt. eigenvalues --    2.86757   2.87508   2.89180   2.89364   2.89791
 Alpha virt. eigenvalues --    2.90494   2.91192   2.91889   2.92666   2.94135
 Alpha virt. eigenvalues --    2.94521   2.95849   2.96444   2.97004   2.99354
 Alpha virt. eigenvalues --    3.01299   3.03652   3.03846   3.05602   3.06212
 Alpha virt. eigenvalues --    3.06898   3.08515   3.09045   3.11642   3.13324
 Alpha virt. eigenvalues --    3.17253   3.19627   3.21472   3.24734   3.29293
 Alpha virt. eigenvalues --    3.32461   3.37154   3.37423   3.39129   3.41216
 Alpha virt. eigenvalues --    3.42188   3.46024   3.46433   3.48018   3.48713
 Alpha virt. eigenvalues --    3.50169   3.51115   3.52295   3.53309   3.53710
 Alpha virt. eigenvalues --    3.56537   3.56963   3.60562   3.61869   3.62997
 Alpha virt. eigenvalues --    3.64088   3.67256   3.68678   4.30911   4.33102
 Alpha virt. eigenvalues --    4.35236   4.38854   4.39005   4.43861   4.46282
 Alpha virt. eigenvalues --    4.47506   4.48496   4.50703   4.51580   4.53473
 Alpha virt. eigenvalues --    4.54770   4.61070   4.61969   4.62469   4.72786
 Alpha virt. eigenvalues --    4.77882   4.80534   4.84998   4.85368   4.89872
 Alpha virt. eigenvalues --    4.92942
          Condensed to atoms (all electrons):
              1          2          3          4          5          6
     1  O    8.292949   0.155559  -0.103224  -0.016027   0.032077   0.120939
     2  C    0.155559  10.550211  -1.656506   0.068936  -0.055924  -3.983861
     3  C   -0.103224  -1.656506   9.470971   0.180696   0.039932   0.174931
     4  O   -0.016027   0.068936   0.180696   8.244902   0.189449  -0.221680
     5  H    0.032077  -0.055924   0.039932   0.189449   0.443233  -0.006203
     6  C    0.120939  -3.983861   0.174931  -0.221680  -0.006203  15.041739
     7  O   -0.001481   0.036078  -0.129527   0.012246  -0.000730   0.222942
     8  H    0.000043  -0.011866   0.031049  -0.001057   0.000016   0.066798
     9  C    0.018021   0.252361   0.112398   0.004152  -0.001766  -0.036120
    10  O    0.001486  -0.006558   0.004765  -0.000050  -0.000031  -0.008325
    11  H   -0.000353  -0.003444  -0.001830   0.000002   0.000000   0.000257
    12  C   -0.164417  -1.937928  -0.766033   0.002001   0.022503   1.002151
    13  O    0.010504  -0.043332  -0.000938   0.000756   0.000072  -0.192561
    14  C   -0.013033   1.892358  -0.647630   0.082062  -0.000828  -5.197099
    15  O    0.000630  -0.060329   0.024191  -0.001009   0.000113   0.155428
    16  C    0.003269   0.124220  -0.571690  -0.002012   0.001466  -0.133365
    17  C    0.000957  -0.051171   0.040582   0.000636   0.000050  -0.026670
    18  O    0.000025   0.009972  -0.000793  -0.000022   0.000000   0.019250
    19  H   -0.000009  -0.010842   0.005242   0.000003   0.000000   0.007530
    20  C    0.000012   0.008262  -0.005901  -0.000106   0.000001   0.064896
    21  O    0.000000  -0.000070   0.000021   0.000000   0.000000  -0.000572
    22  H    0.000000  -0.000002   0.000001   0.000000   0.000000  -0.000045
    23  C    0.000198   0.011979  -0.061354   0.000572   0.000004  -0.202010
    24  O   -0.000004   0.004736  -0.008662  -0.000008  -0.000005  -0.012092
    25  H    0.000000  -0.000013   0.000439   0.000002   0.000000  -0.002106
    26  C   -0.000554   0.066458  -0.089411   0.001405   0.000007  -0.617978
    27  O    0.000000  -0.000560   0.001021   0.000001   0.000000   0.005197
    28  C    0.000006  -0.004919   0.001455  -0.000006   0.000000   0.014582
    29  O    0.000000  -0.000005   0.000051   0.000000   0.000000  -0.000546
    30  H    0.000000   0.000000   0.000000   0.000000   0.000000  -0.000002
    31  H    0.230996   0.088204  -0.054421   0.001684  -0.004083  -0.001803
    32  H   -0.045813   0.471389  -0.094900   0.000663  -0.001185  -0.035248
    33  H   -0.014407   0.205789   0.310953  -0.043681  -0.000670  -0.411353
    34  H   -0.001165   0.099270  -0.212503   0.005094   0.000158   0.243294
    35  H   -0.000108   0.029862  -0.056332  -0.000397   0.000005  -0.050919
    36  H    0.007277   0.032819  -0.048684  -0.000172  -0.000012  -0.016659
    37  H    0.000351  -0.020096  -0.010978   0.000027   0.000000   0.000754
    38  H    0.002148  -0.019168   0.018702  -0.000071   0.000003   0.007793
    39  H    0.000000   0.000020   0.000049   0.000000   0.000000   0.001638
    40  H    0.000000  -0.000121   0.000449   0.000001   0.000000   0.000396
    41  H    0.000000  -0.000107   0.000939   0.000000   0.000000   0.003994
    42  H   -0.000003   0.000379   0.002431  -0.000003   0.000000   0.020301
    43  H    0.000000   0.001563  -0.000243   0.000000   0.000000   0.003923
    44  H    0.000000   0.000106   0.000070   0.000000   0.000000  -0.000043
    45  H    0.000000  -0.000003   0.000023   0.000000   0.000000   0.000098
              7          8          9         10         11         12
     1  O   -0.001481   0.000043   0.018021   0.001486  -0.000353  -0.164417
     2  C    0.036078  -0.011866   0.252361  -0.006558  -0.003444  -1.937928
     3  C   -0.129527   0.031049   0.112398   0.004765  -0.001830  -0.766033
     4  O    0.012246  -0.001057   0.004152  -0.000050   0.000002   0.002001
     5  H   -0.000730   0.000016  -0.001766  -0.000031   0.000000   0.022503
     6  C    0.222942   0.066798  -0.036120  -0.008325   0.000257   1.002151
     7  O    8.196400   0.213973  -0.001158   0.000002   0.000000   0.014699
     8  H    0.213973   0.347370   0.000441   0.000000   0.000000  -0.002384
     9  C   -0.001158   0.000441   6.103090   0.103767   0.010136  -1.342240
    10  O    0.000002   0.000000   0.103767   8.290835   0.196687   0.016367
    11  H    0.000000   0.000000   0.010136   0.196687   0.452500   0.023758
    12  C    0.014699  -0.002384  -1.342240   0.016367   0.023758  10.678305
    13  O    0.009684  -0.001122   0.027057  -0.000070  -0.000576  -0.203557
    14  C   -0.040275  -0.066190  -0.133018   0.020074  -0.006184  -1.121646
    15  O   -0.013666   0.013717  -0.015481  -0.000093   0.000005   0.044938
    16  C    0.032991   0.009292  -0.101213  -0.002544  -0.000010  -0.008010
    17  C    0.002351   0.000823  -0.022270  -0.000189  -0.000054  -0.145490
    18  O   -0.000144   0.000010   0.006023   0.000019   0.000008  -0.031669
    19  H   -0.000030  -0.000002   0.003563  -0.000054  -0.000004   0.006383
    20  C    0.002723   0.000453  -0.000625   0.000191   0.000018  -0.003731
    21  O   -0.000004   0.000000   0.000161   0.000000   0.000000  -0.000079
    22  H    0.000000   0.000000   0.000001   0.000000   0.000000   0.000006
    23  C    0.043502   0.012674   0.000563  -0.000011  -0.000001  -0.021192
    24  O   -0.020438  -0.001542   0.000224   0.000000   0.000000   0.003608
    25  H    0.001497   0.000038  -0.000006   0.000000   0.000000  -0.000222
    26  C   -0.029736  -0.035365   0.006646  -0.000064   0.000016   0.141993
    27  O    0.000426   0.000023  -0.000065   0.000000   0.000000  -0.000153
    28  C    0.000079  -0.000100  -0.001707  -0.000003  -0.000001   0.002855
    29  O   -0.000004   0.000000  -0.000001   0.000000   0.000000   0.000043
    30  H    0.000000   0.000000   0.000000   0.000000   0.000000   0.000000
    31  H   -0.000010   0.000000  -0.011513  -0.000325   0.000029  -0.004312
    32  H    0.000104   0.000006   0.024728   0.000876  -0.000007  -0.181121
    33  H    0.007340  -0.000096   0.012240   0.000094   0.000000  -0.069655
    34  H   -0.040127  -0.008976   0.008379   0.000011   0.000000  -0.008434
    35  H   -0.001629  -0.000950   0.010221   0.000072   0.000000  -0.014997
    36  H   -0.000129   0.000002   0.071638   0.004301  -0.000119   0.136925
    37  H   -0.000008   0.000000   0.454723  -0.047628  -0.011304  -0.048108
    38  H   -0.000006   0.000000   0.543527  -0.065212  -0.003713  -0.218001
    39  H   -0.000504   0.000273  -0.000004   0.000000   0.000000  -0.000058
    40  H    0.002086   0.000247   0.000022   0.000000   0.000000   0.000108
    41  H    0.000134   0.000012   0.000007   0.000000   0.000000   0.000253
    42  H   -0.000516   0.000042  -0.000489   0.000002   0.000000   0.001828
    43  H    0.000006   0.000001  -0.000351   0.000000   0.000000   0.000608
    44  H    0.000002   0.000000  -0.000127   0.000000   0.000000   0.000847
    45  H    0.000001   0.000000  -0.000005   0.000000   0.000000   0.000016
             13         14         15         16         17         18
     1  O    0.010504  -0.013033   0.000630   0.003269   0.000957   0.000025
     2  C   -0.043332   1.892358  -0.060329   0.124220  -0.051171   0.009972
     3  C   -0.000938  -0.647630   0.024191  -0.571690   0.040582  -0.000793
     4  O    0.000756   0.082062  -0.001009  -0.002012   0.000636  -0.000022
     5  H    0.000072  -0.000828   0.000113   0.001466   0.000050   0.000000
     6  C   -0.192561  -5.197099   0.155428  -0.133365  -0.026670   0.019250
     7  O    0.009684  -0.040275  -0.013666   0.032991   0.002351  -0.000144
     8  H   -0.001122  -0.066190   0.013717   0.009292   0.000823   0.000010
     9  C    0.027057  -0.133018  -0.015481  -0.101213  -0.022270   0.006023
    10  O   -0.000070   0.020074  -0.000093  -0.002544  -0.000189   0.000019
    11  H   -0.000576  -0.006184   0.000005  -0.000010  -0.000054   0.000008
    12  C   -0.203557  -1.121646   0.044938  -0.008010  -0.145490  -0.031669
    13  O    8.576149   0.210897  -0.077447   0.154342  -0.101377   0.018628
    14  C    0.210897  12.084207   0.146331  -1.197308  -0.374053  -0.031604
    15  O   -0.077447   0.146331   8.311970  -0.049966   0.087835  -0.001150
    16  C    0.154342  -1.197308  -0.049966  15.352584  -2.951574  -0.113496
    17  C   -0.101377  -0.374053   0.087835  -2.951574  10.710824   0.446876
    18  O    0.018628  -0.031604  -0.001150  -0.113496   0.446876   8.182754
    19  H    0.004136   0.008132   0.025355  -0.182785   0.107956   0.190249
    20  C   -0.016542  -0.169516   0.014433  -0.821877  -1.799201  -0.143511
    21  O   -0.000333   0.002171   0.000090   0.007030  -0.248121   0.013870
    22  H   -0.000002  -0.000151   0.000037  -0.021866   0.085850  -0.001060
    23  C    0.020249  -0.093931  -0.056419   0.483889  -0.577295   0.007622
    24  O    0.000925   0.071515  -0.002175   0.008307  -0.014938   0.000096
    25  H    0.000024  -0.006813   0.001222  -0.003405   0.001824  -0.000001
    26  C    0.033513  -0.599015  -0.096938  -5.169389   0.335504  -0.039108
    27  O    0.000219  -0.016135   0.010285  -0.075213   0.045713  -0.000364
    28  C    0.001332  -0.023687   0.018166   0.564456   0.405211  -0.000842
    29  O    0.000049   0.000153   0.000150  -0.016466   0.061386  -0.001157
    30  H    0.000000   0.000050  -0.000005  -0.004220   0.005388  -0.000007
    31  H   -0.001293   0.004468  -0.000023   0.000277  -0.000044   0.000000
    32  H    0.016116   0.079224  -0.000894   0.003045   0.000750   0.000034
    33  H    0.007471   0.222022  -0.001440   0.012653   0.000110   0.000007
    34  H    0.015113   0.081045  -0.012313   0.050368   0.001668   0.000001
    35  H   -0.045709   0.343236  -0.076940   0.024267   0.039029  -0.000592
    36  H   -0.023686   0.079009  -0.002526   0.008547   0.003347   0.000138
    37  H   -0.007293   0.003710  -0.000141   0.007100   0.000532  -0.000592
    38  H    0.007484   0.006763  -0.000595  -0.002472  -0.000497   0.000151
    39  H   -0.000001  -0.000729   0.000556   0.033961  -0.005295   0.000035
    40  H   -0.000081   0.001957   0.001151   0.049960   0.001282   0.000018
    41  H   -0.000255   0.038877   0.005962   0.086153  -0.013920  -0.000336
    42  H   -0.001045   0.012011  -0.063391   0.315106  -0.009625   0.001419
    43  H    0.003788   0.016308  -0.012276   0.008173   0.227193  -0.059227
    44  H    0.000582   0.001867  -0.001195   0.093251  -0.263135   0.001516
    45  H    0.000018   0.004169   0.000384   0.074912  -0.022055  -0.000942
             19         20         21         22         23         24
     1  O   -0.000009   0.000012   0.000000   0.000000   0.000198  -0.000004
     2  C   -0.010842   0.008262  -0.000070  -0.000002   0.011979   0.004736
     3  C    0.005242  -0.005901   0.000021   0.000001  -0.061354  -0.008662
     4  O    0.000003  -0.000106   0.000000   0.000000   0.000572  -0.000008
     5  H    0.000000   0.000001   0.000000   0.000000   0.000004  -0.000005
     6  C    0.007530   0.064896  -0.000572  -0.000045  -0.202010  -0.012092
     7  O   -0.000030   0.002723  -0.000004   0.000000   0.043502  -0.020438
     8  H   -0.000002   0.000453   0.000000   0.000000   0.012674  -0.001542
     9  C    0.003563  -0.000625   0.000161   0.000001   0.000563   0.000224
    10  O   -0.000054   0.000191   0.000000   0.000000  -0.000011   0.000000
    11  H   -0.000004   0.000018   0.000000   0.000000  -0.000001   0.000000
    12  C    0.006383  -0.003731  -0.000079   0.000006  -0.021192   0.003608
    13  O    0.004136  -0.016542  -0.000333  -0.000002   0.020249   0.000925
    14  C    0.008132  -0.169516   0.002171  -0.000151  -0.093931   0.071515
    15  O    0.025355   0.014433   0.000090   0.000037  -0.056419  -0.002175
    16  C   -0.182785  -0.821877   0.007030  -0.021866   0.483889   0.008307
    17  C    0.107956  -1.799201  -0.248121   0.085850  -0.577295  -0.014938
    18  O    0.190249  -0.143511   0.013870  -0.001060   0.007622   0.000096
    19  H    0.391100   0.039877  -0.000433   0.000009  -0.005150   0.000007
    20  C    0.039877   9.144275   0.369901  -0.059561   0.194662  -0.003731
    21  O   -0.000433   0.369901   8.215413   0.205287  -0.001999   0.000016
    22  H    0.000009  -0.059561   0.205287   0.425979  -0.001132   0.000000
    23  C   -0.005150   0.194662  -0.001999  -0.001132   7.101517   0.058020
    24  O    0.000007  -0.003731   0.000016   0.000000   0.058020   8.489305
    25  H    0.000000   0.000577   0.000000   0.000000   0.005258   0.217522
    26  C    0.028103   0.612344   0.018353   0.001210  -1.763686  -0.077394
    27  O    0.000092  -0.213894   0.004607   0.001782  -0.035702   0.001867
    28  C   -0.005496  -1.341047  -0.041285  -0.010881  -0.116109   0.006513
    29  O    0.000027  -0.161913  -0.011068   0.033866  -0.001740   0.000009
    30  H    0.000000  -0.023717   0.000643  -0.003888   0.000726  -0.000001
    31  H    0.000000   0.000001   0.000000   0.000000   0.000003   0.000000
    32  H    0.000015  -0.000027   0.000000   0.000000   0.000205   0.000012
    33  H    0.000001  -0.000034   0.000000   0.000000   0.000941   0.000117
    34  H    0.000031   0.000338   0.000000   0.000000   0.011078   0.002441
    35  H    0.000500   0.007288   0.000000   0.000000   0.005063   0.000914
    36  H    0.000075   0.000267   0.000000   0.000000   0.000298   0.000005
    37  H    0.000276  -0.001454  -0.000001   0.000000   0.000041   0.000000
    38  H    0.000072   0.000078   0.000000   0.000000   0.000023   0.000000
    39  H    0.000000   0.001269  -0.000005   0.000000   0.450982  -0.039359
    40  H    0.000001  -0.002261  -0.000005   0.000000   0.616993  -0.068776
    41  H    0.000027  -0.033751  -0.000050   0.000006   0.015655   0.007913
    42  H    0.000147   0.030794  -0.000821   0.000003   0.018931   0.000071
    43  H   -0.006149  -0.018503  -0.002497  -0.000241   0.035835  -0.000046
    44  H   -0.000136   0.452895  -0.052363  -0.007370   0.016762   0.000013
    45  H    0.000004  -0.103438   0.004100  -0.000156  -0.001646   0.000091
             25         26         27         28         29         30
     1  O    0.000000  -0.000554   0.000000   0.000006   0.000000   0.000000
     2  C   -0.000013   0.066458  -0.000560  -0.004919  -0.000005   0.000000
     3  C    0.000439  -0.089411   0.001021   0.001455   0.000051   0.000000
     4  O    0.000002   0.001405   0.000001  -0.000006   0.000000   0.000000
     5  H    0.000000   0.000007   0.000000   0.000000   0.000000   0.000000
     6  C   -0.002106  -0.617978   0.005197   0.014582  -0.000546  -0.000002
     7  O    0.001497  -0.029736   0.000426   0.000079  -0.000004   0.000000
     8  H    0.000038  -0.035365   0.000023  -0.000100   0.000000   0.000000
     9  C   -0.000006   0.006646  -0.000065  -0.001707  -0.000001   0.000000
    10  O    0.000000  -0.000064   0.000000  -0.000003   0.000000   0.000000
    11  H    0.000000   0.000016   0.000000  -0.000001   0.000000   0.000000
    12  C   -0.000222   0.141993  -0.000153   0.002855   0.000043   0.000000
    13  O    0.000024   0.033513   0.000219   0.001332   0.000049   0.000000
    14  C   -0.006813  -0.599015  -0.016135  -0.023687   0.000153   0.000050
    15  O    0.001222  -0.096938   0.010285   0.018166   0.000150  -0.000005
    16  C   -0.003405  -5.169389  -0.075213   0.564456  -0.016466  -0.004220
    17  C    0.001824   0.335504   0.045713   0.405211   0.061386   0.005388
    18  O   -0.000001  -0.039108  -0.000364  -0.000842  -0.001157  -0.000007
    19  H    0.000000   0.028103   0.000092  -0.005496   0.000027   0.000000
    20  C    0.000577   0.612344  -0.213894  -1.341047  -0.161913  -0.023717
    21  O    0.000000   0.018353   0.004607  -0.041285  -0.011068   0.000643
    22  H    0.000000   0.001210   0.001782  -0.010881   0.033866  -0.003888
    23  C    0.005258  -1.763686  -0.035702  -0.116109  -0.001740   0.000726
    24  O    0.217522  -0.077394   0.001867   0.006513   0.000009  -0.000001
    25  H    0.390807   0.012787   0.000177  -0.000983   0.000001   0.000000
    26  C    0.012787  14.412089   0.153816  -0.921750  -0.071474   0.016207
    27  O    0.000177   0.153816   8.362770   0.173929  -0.060964   0.000814
    28  C   -0.000983  -0.921750   0.173929   6.273432   0.376010   0.010916
    29  O    0.000001  -0.071474  -0.060964   0.376010   8.253371   0.234533
    30  H    0.000000   0.016207   0.000814   0.010916   0.234533   0.402271
    31  H    0.000000  -0.000011   0.000000   0.000000   0.000000   0.000000
    32  H    0.000000   0.000544   0.000000  -0.000013   0.000000   0.000000
    33  H    0.000000   0.001533   0.000000  -0.000029   0.000000   0.000000
    34  H    0.000018   0.003703   0.000002  -0.000227   0.000000   0.000000
    35  H    0.000007   0.015619  -0.000003  -0.001726  -0.000004   0.000000
    36  H    0.000000   0.000238   0.000000  -0.000066   0.000000   0.000000
    37  H    0.000000  -0.000100   0.000000   0.000117   0.000000   0.000000
    38  H    0.000000  -0.000167   0.000000  -0.000012   0.000000   0.000000
    39  H   -0.013816  -0.103232  -0.005090  -0.000120  -0.000202  -0.000003
    40  H    0.001481  -0.329068   0.011831   0.010519  -0.000093  -0.000001
    41  H   -0.000102   0.112046  -0.031979   0.048911  -0.000570   0.000006
    42  H   -0.000007  -0.108258   0.003981  -0.000574  -0.000662   0.000001
    43  H    0.000000   0.011497   0.002756  -0.042100  -0.000445   0.000019
    44  H    0.000000  -0.004126   0.004887  -0.022832  -0.005938   0.000305
    45  H    0.000000  -0.067999  -0.058109   0.442858  -0.050812  -0.008020
             31         32         33         34         35         36
     1  O    0.230996  -0.045813  -0.014407  -0.001165  -0.000108   0.007277
     2  C    0.088204   0.471389   0.205789   0.099270   0.029862   0.032819
     3  C   -0.054421  -0.094900   0.310953  -0.212503  -0.056332  -0.048684
     4  O    0.001684   0.000663  -0.043681   0.005094  -0.000397  -0.000172
     5  H   -0.004083  -0.001185  -0.000670   0.000158   0.000005  -0.000012
     6  C   -0.001803  -0.035248  -0.411353   0.243294  -0.050919  -0.016659
     7  O   -0.000010   0.000104   0.007340  -0.040127  -0.001629  -0.000129
     8  H    0.000000   0.000006  -0.000096  -0.008976  -0.000950   0.000002
     9  C   -0.011513   0.024728   0.012240   0.008379   0.010221   0.071638
    10  O   -0.000325   0.000876   0.000094   0.000011   0.000072   0.004301
    11  H    0.000029  -0.000007   0.000000   0.000000   0.000000  -0.000119
    12  C   -0.004312  -0.181121  -0.069655  -0.008434  -0.014997   0.136925
    13  O   -0.001293   0.016116   0.007471   0.015113  -0.045709  -0.023686
    14  C    0.004468   0.079224   0.222022   0.081045   0.343236   0.079009
    15  O   -0.000023  -0.000894  -0.001440  -0.012313  -0.076940  -0.002526
    16  C    0.000277   0.003045   0.012653   0.050368   0.024267   0.008547
    17  C   -0.000044   0.000750   0.000110   0.001668   0.039029   0.003347
    18  O    0.000000   0.000034   0.000007   0.000001  -0.000592   0.000138
    19  H    0.000000   0.000015   0.000001   0.000031   0.000500   0.000075
    20  C    0.000001  -0.000027  -0.000034   0.000338   0.007288   0.000267
    21  O    0.000000   0.000000   0.000000   0.000000   0.000000   0.000000
    22  H    0.000000   0.000000   0.000000   0.000000   0.000000   0.000000
    23  C    0.000003   0.000205   0.000941   0.011078   0.005063   0.000298
    24  O    0.000000   0.000012   0.000117   0.002441   0.000914   0.000005
    25  H    0.000000   0.000000   0.000000   0.000018   0.000007   0.000000
    26  C   -0.000011   0.000544   0.001533   0.003703   0.015619   0.000238
    27  O    0.000000   0.000000   0.000000   0.000002  -0.000003   0.000000
    28  C    0.000000  -0.000013  -0.000029  -0.000227  -0.001726  -0.000066
    29  O    0.000000   0.000000   0.000000   0.000000  -0.000004   0.000000
    30  H    0.000000   0.000000   0.000000   0.000000   0.000000   0.000000
    31  H    0.399096  -0.011431   0.000470   0.000029   0.000002  -0.000041
    32  H   -0.011431   0.617301   0.005742   0.002629   0.000039   0.005740
    33  H    0.000470   0.005742   0.596587   0.006531   0.001840   0.002238
    34  H    0.000029   0.002629   0.006531   0.594097   0.005770   0.000011
    35  H    0.000002   0.000039   0.001840   0.005770   0.622478   0.003663
    36  H   -0.000041   0.005740   0.002238   0.000011   0.003663   0.590255
    37  H   -0.000013   0.000240   0.000005   0.000002  -0.000045  -0.005411
    38  H    0.000024   0.006542  -0.000002  -0.000016  -0.000013   0.006464
    39  H    0.000000   0.000000   0.000000   0.000001   0.000004   0.000000
    40  H    0.000000   0.000000   0.000000  -0.000008   0.000033   0.000000
    41  H    0.000000   0.000000   0.000000  -0.000006  -0.000017   0.000000
    42  H    0.000000   0.000000  -0.000002   0.000014   0.013523  -0.000006
    43  H    0.000000   0.000000   0.000000  -0.000004  -0.000003   0.000000
    44  H    0.000000   0.000000   0.000000   0.000000  -0.000007   0.000000
    45  H    0.000000   0.000000   0.000000   0.000000   0.000000   0.000000
             37         38         39         40         41         42
     1  O    0.000351   0.002148   0.000000   0.000000   0.000000  -0.000003
     2  C   -0.020096  -0.019168   0.000020  -0.000121  -0.000107   0.000379
     3  C   -0.010978   0.018702   0.000049   0.000449   0.000939   0.002431
     4  O    0.000027  -0.000071   0.000000   0.000001   0.000000  -0.000003
     5  H    0.000000   0.000003   0.000000   0.000000   0.000000   0.000000
     6  C    0.000754   0.007793   0.001638   0.000396   0.003994   0.020301
     7  O   -0.000008  -0.000006  -0.000504   0.002086   0.000134  -0.000516
     8  H    0.000000   0.000000   0.000273   0.000247   0.000012   0.000042
     9  C    0.454723   0.543527  -0.000004   0.000022   0.000007  -0.000489
    10  O   -0.047628  -0.065212   0.000000   0.000000   0.000000   0.000002
    11  H   -0.011304  -0.003713   0.000000   0.000000   0.000000   0.000000
    12  C   -0.048108  -0.218001  -0.000058   0.000108   0.000253   0.001828
    13  O   -0.007293   0.007484  -0.000001  -0.000081  -0.000255  -0.001045
    14  C    0.003710   0.006763  -0.000729   0.001957   0.038877   0.012011
    15  O   -0.000141  -0.000595   0.000556   0.001151   0.005962  -0.063391
    16  C    0.007100  -0.002472   0.033961   0.049960   0.086153   0.315106
    17  C    0.000532  -0.000497  -0.005295   0.001282  -0.013920  -0.009625
    18  O   -0.000592   0.000151   0.000035   0.000018  -0.000336   0.001419
    19  H    0.000276   0.000072   0.000000   0.000001   0.000027   0.000147
    20  C   -0.001454   0.000078   0.001269  -0.002261  -0.033751   0.030794
    21  O   -0.000001   0.000000  -0.000005  -0.000005  -0.000050  -0.000821
    22  H    0.000000   0.000000   0.000000   0.000000   0.000006   0.000003
    23  C    0.000041   0.000023   0.450982   0.616993   0.015655   0.018931
    24  O    0.000000   0.000000  -0.039359  -0.068776   0.007913   0.000071
    25  H    0.000000   0.000000  -0.013816   0.001481  -0.000102  -0.000007
    26  C   -0.000100  -0.000167  -0.103232  -0.329068   0.112046  -0.108258
    27  O    0.000000   0.000000  -0.005090   0.011831  -0.031979   0.003981
    28  C    0.000117  -0.000012  -0.000120   0.010519   0.048911  -0.000574
    29  O    0.000000   0.000000  -0.000202  -0.000093  -0.000570  -0.000662
    30  H    0.000000   0.000000  -0.000003  -0.000001   0.000006   0.000001
    31  H   -0.000013   0.000024   0.000000   0.000000   0.000000   0.000000
    32  H    0.000240   0.006542   0.000000   0.000000   0.000000   0.000000
    33  H    0.000005  -0.000002   0.000000   0.000000   0.000000  -0.000002
    34  H    0.000002  -0.000016   0.000001  -0.000008  -0.000006   0.000014
    35  H   -0.000045  -0.000013   0.000004   0.000033  -0.000017   0.013523
    36  H   -0.005411   0.006464   0.000000   0.000000   0.000000  -0.000006
    37  H    0.594356  -0.053796   0.000000   0.000000   0.000000  -0.000001
    38  H   -0.053796   0.642935   0.000000   0.000000   0.000000   0.000000
    39  H    0.000000   0.000000   0.592788  -0.038219  -0.006355   0.000103
    40  H    0.000000   0.000000  -0.038219   0.574283   0.006015   0.004101
    41  H    0.000000   0.000000  -0.006355   0.006015   0.602563   0.005417
    42  H   -0.000001   0.000000   0.000103   0.004101   0.005417   0.613719
    43  H    0.000001   0.000000   0.000005  -0.000006   0.004920   0.008373
    44  H    0.000000   0.000000   0.000004  -0.000010   0.000064   0.004820
    45  H    0.000000   0.000000   0.000015  -0.000016   0.007408   0.000052
             43         44         45
     1  O    0.000000   0.000000   0.000000
     2  C    0.001563   0.000106  -0.000003
     3  C   -0.000243   0.000070   0.000023
     4  O    0.000000   0.000000   0.000000
     5  H    0.000000   0.000000   0.000000
     6  C    0.003923  -0.000043   0.000098
     7  O    0.000006   0.000002   0.000001
     8  H    0.000001   0.000000   0.000000
     9  C   -0.000351  -0.000127  -0.000005
    10  O    0.000000   0.000000   0.000000
    11  H    0.000000   0.000000   0.000000
    12  C    0.000608   0.000847   0.000016
    13  O    0.003788   0.000582   0.000018
    14  C    0.016308   0.001867   0.004169
    15  O   -0.012276  -0.001195   0.000384
    16  C    0.008173   0.093251   0.074912
    17  C    0.227193  -0.263135  -0.022055
    18  O   -0.059227   0.001516  -0.000942
    19  H   -0.006149  -0.000136   0.000004
    20  C   -0.018503   0.452895  -0.103438
    21  O   -0.002497  -0.052363   0.004100
    22  H   -0.000241  -0.007370  -0.000156
    23  C    0.035835   0.016762  -0.001646
    24  O   -0.000046   0.000013   0.000091
    25  H    0.000000   0.000000   0.000000
    26  C    0.011497  -0.004126  -0.067999
    27  O    0.002756   0.004887  -0.058109
    28  C   -0.042100  -0.022832   0.442858
    29  O   -0.000445  -0.005938  -0.050812
    30  H    0.000019   0.000305  -0.008020
    31  H    0.000000   0.000000   0.000000
    32  H    0.000000   0.000000   0.000000
    33  H    0.000000   0.000000   0.000000
    34  H   -0.000004   0.000000   0.000000
    35  H   -0.000003  -0.000007   0.000000
    36  H    0.000000   0.000000   0.000000
    37  H    0.000001   0.000000   0.000000
    38  H    0.000000   0.000000   0.000000
    39  H    0.000005   0.000004   0.000015
    40  H   -0.000006  -0.000010  -0.000016
    41  H    0.004920   0.000064   0.007408
    42  H    0.008373   0.004820   0.000052
    43  H    0.683542   0.009453   0.005087
    44  H    0.009453   0.619320   0.006558
    45  H    0.005087   0.006558   0.640465
 Mulliken atomic charges:
              1
     1  O   -0.516850
     2  C   -0.243707
     3  C    0.100200
     4  O   -0.508989
     5  H    0.342347
     6  C   -0.021569
     7  O   -0.519145
     8  H    0.432347
     9  C   -0.105931
    10  O   -0.508391
    11  H    0.344182
    12  C    0.193239
    13  O   -0.401887
    14  C    0.326229
    15  O   -0.316539
    16  C   -0.080736
    17  C    0.013299
    18  O   -0.472101
    19  H    0.392175
    20  C   -0.021212
    21  O   -0.481956
    22  H    0.352316
    23  C   -0.174869
    24  O   -0.625075
    25  H    0.393793
    26  C    0.139189
    27  O   -0.287964
    28  C    0.185167
    29  O   -0.575586
    30  H    0.367985
    31  H    0.364041
    32  H    0.134698
    33  H    0.146685
    34  H    0.152682
    35  H    0.126956
    36  H    0.144251
    37  H    0.144735
    38  H    0.121031
    39  H    0.131290
    40  H    0.155732
    41  H    0.140166
    42  H    0.127833
    43  H    0.119038
    44  H    0.143960
    45  H    0.126942
 Sum of Mulliken atomic charges =   0.00000
 Mulliken charges with hydrogens summed into heavy atoms:
              1
     1  O   -0.152808
     2  C   -0.109009
     3  C    0.246885
     4  O   -0.166643
     6  C    0.131113
     7  O   -0.086798
     9  C    0.159835
    10  O   -0.164210
    12  C    0.337489
    13  O   -0.401887
    14  C    0.453186
    15  O   -0.316539
    16  C    0.047097
    17  C    0.132337
    18  O   -0.079926
    20  C    0.122748
    21  O   -0.129640
    23  C    0.112154
    24  O   -0.231282
    26  C    0.279356
    27  O   -0.287964
    28  C    0.312109
    29  O   -0.207601
 Sum of Mulliken charges with hydrogens summed into heavy atoms =   0.00000
 APT atomic charges:
              1
     1  O   -0.623218
     2  C    0.390208
     3  C    0.428525
     4  O   -0.626237
     5  H    0.252217
     6  C    0.357297
     7  O   -0.699702
     8  H    0.429851
     9  C    0.475450
    10  O   -0.608615
    11  H    0.248245
    12  C    0.428075
    13  O   -0.798510
    14  C    0.893949
    15  O   -0.863713
    16  C    0.456249
    17  C    0.389147
    18  O   -0.668084
    19  H    0.345120
    20  C    0.362616
    21  O   -0.615650
    22  H    0.278789
    23  C    0.468945
    24  O   -0.669131
    25  H    0.250502
    26  C    0.404018
    27  O   -0.758594
    28  C    0.899439
    29  O   -0.676371
    30  H    0.266745
    31  H    0.256647
    32  H   -0.046352
    33  H   -0.041282
    34  H   -0.027054
    35  H   -0.059999
    36  H   -0.047252
    37  H   -0.041310
    38  H   -0.063810
    39  H   -0.040407
    40  H   -0.018556
    41  H   -0.044492
    42  H   -0.029615
    43  H   -0.080136
    44  H   -0.051750
    45  H   -0.082191
 Sum of APT charges=   0.00000
 APT Atomic charges with hydrogens summed into heavy atoms:
              1
[...]
 2642,0.00022510,0.00041070,0.00022557,-0.00546436,-0.01763865,-0.00355
 439,0.01052513,-0.35117340,-0.01453903,-0.03901012,-0.01266078,0.00026
 950,-0.00535674,0.00157331,0.00017811,0.00114908,-0.00043246,-0.000096
 71,-0.00005624,-0.00023783,-0.00031362,0.00087119,0.00028774,-0.000095
 96,0.00007459,-0.00000339,0.00005546,-0.00003735,0.00002129,0.00072563
 ,0.00053775,0.00018640,0.00001304,-0.00008883,0.00002792,-0.00001524,-
 0.00002047,-0.00704367,0.00017122,-0.00115723,0.00225962,0.00089501,0.
 00097428,-0.00008305,0.00025496,-0.00018137,0.00006431,-0.00004313,-0.
 00007199,-0.00000191,-0.00000882,-0.00000841,-0.00000370,-0.00000073,-
 0.00000432,0.00001402,-0.00000003,-0.00001008,0.00001727,0.00000350,0.
 00002735,0.00000405,0.00026669,-0.00034486,0.00184082,0.00011402,0.000
 80293,0.00002934,0.00000775,0.00004295,-0.00001375,0.00000852,0.000000
 56,0.00001660,0.00000521,-0.00001784,0.00031954,0.00006406,0.00005156,
 0.00068136,-0.00071815,0.00000272,0.00029862,-0.00026762,-0.00031892,0
 .37965324,0.00000167,-0.00002592,0.00002446,-0.00000545,0.00004426,-0.
 00002248,0.00001519,0.00000511,0.00000184,0.00000665,-0.00002283,-0.00
 000438,-0.00000264,0.00000639,-0.00000509,-0.00000821,0.00008093,0.000
 09557,0.00015159,-0.00006480,-0.00020630,-0.00012975,-0.00007932,0.000
 03961,0.00002222,-0.00002469,0.00000070,-0.00001480,0.00001996,0.00002
 592,0.00000723,0.00000002,-0.00000447,-0.00004033,0.00004674,-0.000040
 24,0.00036624,-0.00010539,0.00019159,-0.00156610,0.00121666,-0.0009125
 6,-0.00933973,0.00035897,0.00492983,-0.01141180,-0.04526820,-0.0040058
 6,0.03380493,0.00046731,0.00800499,-0.00273562,0.00210519,-0.00055536,
 0.00024746,-0.00004613,-0.00011595,0.00153168,0.00155060,-0.00158423,-
 0.00054911,-0.00015121,-0.00024135,-0.00003273,-0.00000718,0.00001627,
 -0.00180422,0.00117810,0.00053509,0.00025487,-0.00005126,-0.00017158,0
 .00001179,-0.00002816,0.00000288,-0.02647996,-0.00213988,-0.00672677,0
 .00074255,0.00103329,0.00267995,0.00026204,-0.00022595,0.00011546,-0.0
 0003942,0.00007142,0.00007445,-0.00001236,0.00001186,0.00000026,0.0000
 0168,0.00000093,-0.00000298,0.00000036,-0.00000718,0.00000367,0.000007
 04,0.00000424,0.00001628,0.00007435,0.00002491,-0.00004997,0.00038746,
 0.00017142,0.00040162,-0.00000622,0.00001868,-0.00000314,0.00001328,-0
 .00001107,0.00000113,-0.00000937,-0.00000285,0.00000756,0.00032870,0.0
 0032870,0.00013272,0.00068801,-0.00014442,0.00018915,-0.00039657,-0.00
 264486,-0.00341317,0.01419695,0.04756433,-0.00001248,-0.00001968,-0.00
 001716,0.00003039,0.00002396,0.00003314,-0.00001227,0.00004858,0.00002
 194,-0.00001991,-0.00000889,-0.00001627,0.00000093,0.00000218,-0.00000
 026,-0.00003998,0.00020875,-0.00029772,-0.00021681,-0.00000193,0.00004
 602,0.00010561,-0.00011584,-0.00000080,-0.00002567,0.00001707,-0.00002
 692,0.00000112,-0.00002210,0.00000096,0.00000176,-0.00000109,-0.000006
 34,-0.00006115,-0.00011742,-0.00016498,-0.00091704,-0.00012393,0.00000
 840,0.00915520,0.00052014,0.00146847,0.03552102,0.00652529,-0.01621666
 ,-0.04562320,-0.00446956,-0.04528096,-0.01256887,-0.00054789,-0.001140
 77,0.00086185,0.00054797,0.00094454,0.00005027,0.00023657,-0.00008929,
 -0.00116118,-0.00034052,0.00070620,0.00043289,-0.00009593,0.00008453,-
 0.00004018,-0.00000327,-0.00004486,-0.00038848,0.00109039,0.00070415,0
 .00011823,-0.00000671,0.00005967,-0.00000347,0.00000627,0.00001733,-0.
 02182144,-0.00139552,-0.00403859,-0.00026034,-0.00024760,0.00160791,-0
 .00065392,0.00029976,-0.00048285,0.00009971,0.00000702,-0.00016589,0.0
 0001973,-0.00000238,0.00000749,0.00000149,0.00000393,0.00000343,-0.000
 01362,0.00000762,0.00001138,-0.00003521,-0.00000322,-0.00005580,-0.000
 32391,-0.00013950,0.00006003,-0.00113986,0.00038017,-0.00103705,-0.000
 01315,-0.00002510,-0.00006366,-0.00000141,-0.00001099,0.00000231,-0.00
 000633,0.00000637,0.00000706,0.00014880,0.00023444,0.00000809,0.000651
 34,-0.00046462,0.00004123,-0.00032215,-0.00222105,-0.00284099,0.038340
 41,-0.00250539,0.06698018,0.00000813,0.00002757,-0.00006801,-0.0000393
 5,-0.00003670,0.00003896,-0.00000461,-0.00003645,0.00003439,0.00002680
 ,0.00006206,-0.00004812,-0.00000809,-0.00001305,0.00000425,0.00006065,
 -0.00010858,0.00001879,0.00005396,0.00015003,0.00003942,-0.00007960,-0
 .00008582,-0.00011534,-0.00001645,-0.00000200,0.00010911,0.00000799,-0
 .00003508,-0.00008965,-0.00001688,0.00001063,0.00002488,0.00002324,0.0
 0006667,0.00014000,-0.00004754,0.00017581,-0.00021507,0.00014559,-0.00
 034202,-0.00018401,0.00185341,0.00007897,-0.00001427,-0.01976050,0.001
 24790,-0.00315475,-0.32867069,-0.04120384,-0.04767321,0.00719797,-0.00
 707105,-0.00719203,0.00015939,-0.00076908,0.00032753,-0.02158591,-0.00
 322176,0.00204677,0.00194418,-0.00080126,0.00091803,-0.00000238,-0.000
 08741,-0.00019690,0.00082708,0.00042561,0.00019669,0.00003659,-0.00005
 797,0.00011026,-0.00001555,0.00002480,0.00000883,-0.00098494,-0.002366
 14,-0.00145172,0.00065530,0.00077465,0.00024821,-0.00125033,-0.0019281
 4,-0.00135224,0.00072323,0.00025917,0.00020371,-0.00005607,-0.00000769
 ,0.00015097,-0.00000859,-0.00000254,0.00000898,0.00000792,0.00000067,-
 0.00000863,0.00001090,0.00000006,0.00000340,0.00000535,0.00002512,-0.0
 0004032,0.00015331,-0.00001097,0.00027140,-0.00000214,-0.00000593,-0.0
 0000586,0.00000440,0.00004460,-0.00000580,0.00001308,0.00000369,-0.000
 01370,-0.00002716,0.00013766,0.00000858,0.00024834,-0.00043388,-0.0000
 0299,0.00138237,0.00070015,0.00088457,-0.00015959,0.00258165,-0.000770
 03,0.35686891,0.00000170,0.00004510,-0.00005717,-0.00003854,-0.0000523
 1,0.00003834,0.00001371,-0.00001136,-0.00001477,0.00000499,0.00004784,
 -0.00001520,0.00000010,-0.00001320,0.00000607,-0.00021011,-0.00005060,
 -0.00006558,-0.00003215,0.00008923,0.00008420,0.00002664,0.00000025,-0
 .00006689,-0.00000134,-0.00004403,0.00018392,-0.00000279,-0.00003132,-
 0.00012657,-0.00002131,0.00001463,0.00003626,0.00003767,0.00008528,0.0
 0008612,-0.00009009,0.00060368,-0.00026645,0.00033594,-0.00022972,-0.0
 0017988,-0.00135420,0.00132434,-0.00148735,0.03293821,-0.00321155,0.00
 662627,-0.04613090,-0.04179669,-0.00018419,-0.02750034,-0.02259885,-0.
 02512437,-0.00044614,-0.00055518,0.00108574,-0.01417652,0.00060289,0.0
 0062550,0.00092450,0.00046522,-0.00110142,0.00011000,0.00010645,-0.000
 10862,0.00044492,0.00013371,0.00004576,-0.00007343,-0.00001223,0.00007
 547,-0.00000254,0.00001172,-0.00000326,0.00315520,-0.00021428,0.001284
 74,-0.00033957,-0.00019731,-0.00031764,0.00065756,-0.00028044,-0.00105
 718,0.00021867,-0.00007937,0.00021394,-0.00000478,0.00006837,0.0000674
 6,-0.00000481,-0.00000512,0.00000718,0.00000082,-0.00000038,-0.0000039
 2,-0.00000187,0.00000152,-0.00000074,-0.00000800,-0.00003002,0.0000336
 9,-0.00029319,0.00003481,-0.00003068,-0.00001193,-0.00001875,-0.000017
 14,-0.00000309,0.00007620,0.00000308,0.00001030,0.00001697,-0.00002482
 ,-0.00011400,0.00002155,-0.00000172,-0.00022473,-0.00012358,-0.0000744
 0,0.00017393,-0.00093811,-0.00009648,0.00178019,-0.00486432,0.00223861
 ,0.05126085,0.07119545,0.00000603,0.00003258,-0.00005949,-0.00004745,-
 0.00003708,0.00003671,-0.00000380,-0.00005275,0.00002078,0.00002089,0.
 00004829,-0.00002075,-0.00000619,-0.00001328,0.00000643,0.00002486,-0.
 00002536,0.00008404,0.00003914,0.00010087,0.00000453,-0.00005265,-0.00
 003398,-0.00003649,-0.00002180,-0.00003689,0.00015615,0.00000891,-0.00
 002966,-0.00010628,-0.00001974,0.00001061,0.00003115,0.00003554,0.0001
 0250,0.00010282,0.00002662,0.00033533,-0.00031323,-0.00026991,-0.00052
 053,-0.00045636,0.00070857,-0.00107186,0.00156605,-0.01844536,0.002453
 99,-0.00100982,-0.04856209,0.00118991,-0.04837733,-0.02379977,-0.02512
 753,-0.01679748,-0.00136652,-0.00082076,0.00060263,0.03649444,0.006217
 67,0.00066673,-0.00245792,-0.00033218,0.00157068,-0.00000375,-0.000342
 39,0.00030496,0.00024127,0.00019702,-0.00007109,0.00002002,-0.00002635
 ,0.00004082,-0.00000100,0.00000338,0.00000669,0.00061783,-0.00233276,-
 0.00006177,-0.00020250,-0.00013746,-0.00003928,0.00183184,0.00113543,0
 .00086920,-0.00050822,0.00001083,0.00004712,-0.00008837,-0.00007251,-0
 .00006026,-0.00000588,-0.00000355,0.00000528,0.00000726,-0.00000122,-0
 .00000975,0.00000914,0.00000220,0.00000299,0.00001344,0.00002960,-0.00
 003589,0.00021353,0.00002420,0.00004953,0.00000033,-0.00000988,-0.0000
 0885,-0.00000475,0.00006371,0.00000114,0.00001924,0.00001474,-0.000032
 85,0.00004583,0.00006357,0.00000860,0.00012587,-0.00017373,-0.00003453
 ,0.00063215,-0.00016345,0.00067436,-0.00081555,0.00269583,-0.00079301,
 0.05272286,0.01555643,0.06752467,0.00000592,0.00000238,-0.00000983,-0.
 00000179,-0.00000440,0.00001184,-0.00001830,-0.00002157,0.00000943,0.0
 0001547,0.00001272,-0.00000797,-0.00000503,-0.00000315,0.00000215,0.00
 002597,0.00000478,0.00003455,0.00002726,0.00001123,-0.00000644,-0.0000
 1923,-0.00000539,-0.00000758,-0.00001723,-0.00000239,0.00001145,0.0000
 2307,0.00000170,-0.00000997,-0.00001223,-0.00000019,0.00000566,-0.0000
 3118,-0.00000453,0.00001909,0.00006758,0.00001879,-0.00000976,-0.00019
 506,-0.00011902,0.00000685,0.00059679,0.00009530,0.00022555,-0.0003445
 8,0.00143303,-0.00074983,-0.02104061,-0.00788890,0.00080573,0.00204145
 ,0.00123377,-0.00017389,0.00012051,0.00005659,-0.00015727,-0.33680267,
 -0.04509756,-0.04715658,-0.00981168,0.01291673,-0.01200288,0.00010791,
 0.00067432,0.00030133,0.00000140,-0.00001374,-0.00004401,0.00003840,0.
 00002684,-0.00001340,-0.00001307,0.00000167,-0.00000177,0.00001143,0.0
 0005869,-0.00000157,0.00191323,-0.00046290,0.00065718,-0.00643303,-0.0
 0113256,-0.00084038,0.00161847,-0.00007926,0.00027170,0.00030401,0.000
 37360,0.00041151,-0.00000244,0.00000043,0.00000249,0.00000643,0.000001
 78,-0.00000606,0.00000747,0.00000031,0.00000230,0.00000715,0.00000938,
 -0.00001081,0.00004466,-0.00002782,0.00002903,0.00001392,-0.00000574,0
 .00001342,-0.00001606,0.00000406,-0.00000139,0.00001336,0.00000478,-0.
 00001222,0.00000609,-0.00002299,0.00001561,0.00003706,-0.00005973,0.00
 001466,0.00008543,0.00024927,0.00003057,0.00072888,-0.00103319,0.00057
 150,-0.00043382,-0.00124133,0.00323916,0.36671015,0.00000142,-0.000004
 69,0.00000737,0.00000005,0.00000435,-0.00000364,-0.00000387,0.00000632
 ,0.00000276,0.00000353,-0.00000767,0.00000046,-0.00000096,0.00000253,-
 0.00000115,0.00000696,-0.00000223,-0.00000344,0.00001158,-0.00000285,-
 0.00000499,-0.00001020,-0.00000224,-0.00000625,-0.00000169,0.00000720,
 -0.00002072,-0.00000098,0.00000141,0.00001695,0.00000441,-0.00000157,-
 0.00000665,-0.00000122,-0.00000361,-0.00000426,0.00002962,-0.00005170,
 0.00001969,-0.00003583,0.00007795,0.00003434,0.00018456,-0.00007785,-0
 .00007827,-0.00116254,0.00029832,0.00005510,-0.00729734,0.00044013,0.0
 0090612,0.00064662,0.00060603,0.00074013,-0.00007807,-0.00002372,-0.00
 007853,-0.04554899,-0.04237826,-0.01409069,0.04060263,-0.01609452,0.02
 221240,0.00104963,0.00073989,-0.00073163,-0.00005081,0.00002831,-0.000
 02364,0.00002217,-0.00000621,-0.00001550,-0.00000451,0.00000088,0.0000
 0182,-0.00034195,-0.00030525,0.00015088,0.00112445,0.00263272,0.000403
 77,-0.03096235,-0.00752019,-0.00738937,0.00141104,0.00168696,0.0023530
 9,-0.00006384,0.00001926,0.00045949,0.00000021,0.00000081,-0.00000203,
 0.00000113,0.,-0.00000121,0.00000090,0.00000004,0.00000084,0.00000136,
 0.00000383,-0.00000628,0.00002400,-0.00001144,0.00001251,0.00000228,0.
 00000372,0.00000167,0.00000172,-0.00000720,0.00000194,0.00000002,-0.00
 000269,0.00000198,0.00000098,-0.00000812,-0.00001574,0.00004066,-0.000
 06326,0.00002715,0.00026440,0.00015470,-0.00001403,0.00037024,-0.00021
 175,0.00043971,-0.00030340,0.00010648,0.00132273,0.04009859,0.06393172
 ,-0.00000392,-0.00000948,-0.00000236,0.00000233,0.00001071,-0.00000099
 ,0.00000660,0.00001169,0.00000840,-0.00000094,-0.00000710,-0.00000783,
 0.00000085,0.00000249,-0.00000054,-0.00000875,-0.00000928,-0.00000780,
 -0.00000884,-0.00000855,-0.00001094,0.00000735,-0.00000223,0.00001297,
 0.00000574,0.00001400,-0.00002110,-0.00000570,-0.00000781,0.00001038,0
 .00000448,0.00000077,-0.00000687,0.00000917,-0.00001193,0.00000032,0.0
 0000200,-0.00010276,0.00000934,0.00002706,0.00013490,0.00010008,-0.000
 50492,-0.00023053,-0.00025731,0.00126418,-0.00127773,0.00159041,0.0364
 2062,0.00876547,0.00031252,-0.00246539,-0.00021498,0.00260033,-0.00022
 357,0.00028448,0.00025477,-0.04406013,-0.01279229,-0.04900916,-0.02096
 972,0.01493200,-0.00850509,-0.00171514,0.00044360,0.00009808,0.0000396
 2,-0.00002369,0.00004871,-0.00000846,0.00002506,-0.00002206,-0.0000076
 6,-0.00000423,-0.00000196,0.00034406,0.00020417,-0.00024265,0.00148091
 ,0.00153245,0.00080634,-0.02620660,-0.00883545,-0.00637635,0.00053188,
 0.00111861,0.00259665,-0.00016073,0.00028873,0.00044228,0.00000088,0.0
 0000210,0.00000029,-0.00000199,0.00000053,0.00000200,-0.00000101,-0.00
 000102,0.00000025,0.00000108,-0.00000475,0.00000700,-0.00003170,0.0000
 0514,-0.00004921,-0.00000423,0.00000362,-0.00000756,0.00000253,-0.0000
 0883,0.00000264,-0.00000431,-0.00000243,0.00000542,-0.00000980,0.00001
 833,0.00001106,-0.00001162,0.00001987,0.00000665,-0.00012621,-0.000018
 41,-0.00020692,-0.00078095,0.00036531,-0.00020723,0.00313977,0.0019948
 7,-0.00572467,0.05443765,-0.00338077,0.06459378,0.00000133,-0.00000589
 ,-0.00002507,-0.00000781,0.00000637,0.00001465,-0.00000289,-0.00000674
 ,0.00002566,0.00001228,0.00001104,-0.00002618,-0.00000385,-0.00000119,
 0.00000127,-0.00002677,0.00000164,0.00000560,0.00001466,-0.00000508,-0
 .00004978,-0.00000673,-0.00000050,0.00005207,-0.00001117,0.00001254,0.
 00000582,0.00000743,-0.00001426,-0.00001213,-0.00000476,0.00000205,0.0
 0000169,0.00000251,0.00000169,0.00003293,0.00001102,-0.00005489,-0.000
 06785,0.00004684,0.00005015,0.00011908,0.00006496,-0.00007710,-0.00036
 599,0.00036743,0.00049835,0.00024529,-0.00018117,-0.00053802,0.0001858
 1,0.00022685,0.00019867,0.00010427,-0.00002611,-0.00000493,-0.00007698
 ,-0.00353535,0.00057493,-0.00248915,0.00143814,-0.00099502,0.00136707,
 -0.00048132,0.00011985,-0.00006480,0.00066473,-0.00013003,0.00008696,0
 .00005074,0.00027046,-0.00014403,-0.00002080,-0.00000457,-0.00004113,-
 0.00025120,-0.00121367,0.00191474,-0.01117810,0.01002842,-0.00913508,-
 0.32012534,-0.05306631,-0.08397392,-0.01930751,-0.00576084,0.00625558,
 0.00016456,0.00015676,0.00037280,-0.00000285,0.00000194,0.00000373,0.0
 0000299,-0.00000005,-0.00000228,0.00000320,0.00000033,0.00000013,0.000
 00487,-0.00000190,-0.00000054,0.00000317,-0.00000577,-0.00000454,0.000
 00173,-0.00000040,-0.00000218,-0.00000339,0.00000081,0.00000045,0.0000
 0531,0.00000093,-0.00000390,-0.00004854,-0.00000234,-0.00000767,0.0001
 7250,-0.00032407,0.00011749,0.00105551,0.00030435,-0.00089774,0.000022
 14,-0.00008803,0.00033981,0.00075207,0.00023176,-0.00042152,0.00061854
 ,-0.00003662,-0.00040650,0.34951016,0.00000286,0.00001565,0.00000803,-
 0.00000074,-0.00001751,-0.00000088,-0.00000674,0.00000009,-0.00001399,
 -0.00000194,0.00000894,0.00000865,0.00000051,-0.00000261,0.00000025,0.
 00001586,-0.00004521,-0.00001972,-0.00000195,0.00005627,0.00008040,-0.
 00001068,-0.00003139,-0.00010761,-0.00000019,-0.00001456,0.00001747,0.
 00000478,0.00001000,-0.00001064,-0.00000513,-0.00000060,0.00000679,-0.
 00000914,0.00001022,-0.00000018,-0.00000204,0.00011926,0.00002227,-0.0
 0007540,-0.00007765,-0.00010382,-0.00000478,0.00029372,0.00027465,-0.0
 0022456,-0.00063702,0.00013815,-0.00169766,-0.00028243,0.00174598,0.00
 065848,0.00012899,-0.00030029,0.00014704,-0.00009716,0.00003031,-0.026
 57398,-0.00312922,-0.01170989,0.00180483,0.00374263,0.00110503,-0.0005
 0690,-0.00004565,0.00005512,0.00064235,0.00026694,-0.00015671,-0.00029
 468,-0.00024719,0.00019769,-0.00000107,0.00002672,0.00003972,0.0046617
 3,0.00131686,-0.00313707,0.03328455,-0.00836004,0.01986108,-0.05537487
 ,-0.05407313,-0.01848143,-0.00509671,0.00264807,0.00164914,-0.00063558
 ,0.00058060,-0.00035647,-0.00000008,-0.00000323,-0.00000052,0.00000054
 ,0.00000060,-0.00000056,0.00000100,-0.00000049,0.00000049,-0.00000291,
 0.00000467,-0.00000287,-0.00000027,-0.00000255,-0.00000227,0.00000231,
 -0.00000357,0.00000349,-0.00000116,0.00000881,-0.00000181,0.00000229,0
 .00000225,-0.00000244,0.00004088,-0.00002254,-0.00002905,-0.00030535,-
 0.00012597,0.00004523,-0.00104804,0.00014688,-0.00008083,-0.00006069,-
 0.00018269,0.00004536,0.00087245,0.00030704,-0.00024626,-0.00006438,-0
 .00396652,-0.00322467,0.04986518,0.06167372,-0.00000207,-0.00000364,-0
 .00003382,-0.00000691,0.00000382,0.00002086,0.00000357,-0.00000692,0.0
 0002887,0.00000986,0.00001579,-0.00002991,-0.00000268,-0.00000241,0.00
 000207,-0.00002006,-0.00001228,0.00000027,0.00000605,0.00000498,-0.000
 04307,-0.00000414,-0.00000104,0.00004879,-0.00000540,0.00001515,0.0000
 1858,0.00000163,-0.00002044,-0.00002387,-0.00000336,0.00000397,0.00000
 460,0.00001084,0.00000943,0.00004798,-0.00000044,-0.00003897,-0.000075
 93,0.00005771,0.00005295,0.00010678,0.00003787,0.00003162,-0.00035275,
 0.00030400,-0.00021959,-0.00010185,-0.00213848,-0.00012233,0.00163174,
 0.00067932,0.00011399,0.00002413,0.00002023,0.00001947,0.00000862,-0.0
 2331491,-0.00479273,-0.00521411,0.00202807,0.00023478,0.00196547,0.000
 21233,-0.00042136,-0.00024803,-0.00015661,-0.00001539,0.00000139,0.000
 14107,0.00021038,-0.00017857,-0.00001154,-0.00001337,-0.00002095,-0.00
 397164,0.00014315,0.00226987,-0.01397045,0.00838292,-0.00689637,-0.089
 81012,-0.02071683,-0.07267614,0.03894042,0.00729994,-0.00507141,0.0018
 0242,0.00013864,0.00367014,-0.00000200,0.00000165,0.00000531,0.0000016
 0,-0.00000002,-0.00000230,0.00000181,-0.00000031,-0.00000039,0.0000027
 3,-0.00000022,-0.00000173,0.00000491,-0.00000779,0.00000818,-0.0000011
 8,-0.00000066,-0.00000298,-0.00000255,0.00000469,-0.00000167,0.0000028
 5,0.00000016,-0.00000420,0.00000428,-0.00002674,0.00000008,0.00022387,
 0.00000167,-0.00004742,0.00070940,0.00022150,-0.00010978,0.00021621,0.
 00001912,0.00016361,0.00094227,0.00013279,-0.00033489,0.00009320,-0.00
 329413,-0.00285208,0.08696604,0.01265464,0.08429685\\0.00190038,0.0058
 1433,-0.00259803,0.01525467,-0.02205040,0.00760750,-0.01406040,-0.0166
 2047,-0.00530972,-0.00800641,0.01243450,0.02178360,0.00902585,-0.00592
 058,-0.02893853,0.00448924,-0.00830152,-0.00350086,-0.00963721,0.01098
 195,-0.00830616,0.01151525,0.00043621,0.01599635,-0.00770162,0.0190935
 6,-0.00248508,-0.00225241,0.01220309,-0.00269572,0.01666055,-0.0248599
 7,0.00849506,-0.00178933,0.02094146,0.01950079,0.00510706,-0.01756175,
 0.03217806,-0.02987631,0.02041924,-0.02968486,0.00735062,-0.01177603,-
 0.01025367,0.00094209,0.00653836,-0.00765647,-0.04765235,0.04644789,0.
 01209852,0.00698393,-0.01927851,0.01488063,0.00852451,0.01652570,-0.01
 784266,0.04454849,-0.01201218,-0.00575232,-0.01123364,-0.00883040,-0.0
 0504601,-0.01211949,0.00216228,0.02578076,0.00468754,-0.02073961,0.000
 05048,-0.02009578,-0.01906217,-0.00767532,0.00409908,0.03051609,0.0153
 8793,0.02764187,-0.02509750,0.02050734,-0.02096527,0.02106809,-0.00236
 217,0.03082000,-0.00896947,-0.02031318,-0.00577511,0.00659265,0.013527
 20,-0.00334950,-0.00398430,-0.00478215,-0.00185116,0.00666060,0.002463
 76,-0.01961686,0.00092147,-0.00100291,0.02106893,0.00101869,0.00194760
 ,-0.02034227,0.00036155,0.00233140,0.01956627,-0.00077079,-0.00392612,
 0.02108068,-0.00068310,0.00012986,0.00116673,0.00591686,-0.01918507,-0
 .02160923,-0.00525756,0.00006246,-0.00089165,-0.00518217,-0.01734269,0
 .01863219,0.00384260,0.00047733,-0.01867634,0.00056737,-0.00384416,0.0
 1919366,-0.00300513,0.00105240,-0.02717919,-0.00615039,-0.00263187,0.0
 2433618,-0.00086864,0.00354805,-0.01991426,-0.00448191,-0.00667136\\\@


 WE LEARN WISDOM FROM FAILURE MUCH MORE THAN FROM SUCCESS.
 WE DISCOVER WHAT WILL DO BY FINDING OUT WHAT WILL NOT DO...
 AND HE WHO NEVER MADE A MISTAKE NEVER MADE A DISCOVERY
 Job cpu time:  0 days 13 hours 35 minutes 16.0 seconds.
 File lengths (MBytes):  RWF=   1324 Int=      0 D2E=      0 Chk=     19 Scr=      1
 Normal termination of Gaussian 09 at Thu Jan 21 05:34:19 2016.
Gaussian '09 finished on node019 at Thu Jan 21 05:34:19 EST 2016.
