Gaussian '09 started on node005 at Mon Feb  1 16:09:56 EST 2016.
 Entering Gaussian System, Link 0=/usr/local/gaussian/g09/g09
 Initial command:
 /usr/local/gaussian/g09/l1.exe /home/srmcgrat/thesis/gaussian/cellobiose/280/6000/1/2dfp/gaussian27125/Gau-27161.inp -scrdir=/home/srmcgrat/thesis/gaussian/cellobiose/280/6000/1/2dfp/gaussian27125/
 Entering Link 1 = /usr/local/gaussian/g09/l1.exe PID=     27163.
  
 Copyright (c) 1988,1990,1992,1993,1995,1998,2003,2009,2010,
            Gaussian, Inc.  All Rights Reserved.
  
 This is part of the Gaussian(R) 09 program.  It is based on
 the Gaussian(R) 03 system (copyright 2003, Gaussian, Inc.),
 the Gaussian(R) 98 system (copyright 1998, Gaussian, Inc.),
 the Gaussian(R) 94 system (copyright 1995, Gaussian, Inc.),
 the Gaussian 92(TM) system (copyright 1992, Gaussian, Inc.),
 the Gaussian 90(TM) system (copyright 1990, Gaussian, Inc.),
 the Gaussian 88(TM) system (copyright 1988, Gaussian, Inc.),
 the Gaussian 86(TM) system (copyright 1986, Carnegie Mellon
 University), and the Gaussian 82(TM) system (copyright 1983,
 Carnegie Mellon University). Gaussian is a federally registered
 trademark of Gaussian, Inc.
  
 This software contains proprietary and confidential information,
 including trade secrets, belonging to Gaussian, Inc.
  
 This software is provided under written license and may be
 used, copied, transmitted, or stored only in accord with that
 written license.
  
 The following legend is applicable only to US Government
 contracts under FAR:
  
                    RESTRICTED RIGHTS LEGEND
  
 Use, reproduction and disclosure by the US Government is
 subject to restrictions as set forth in subparagraphs (a)
 and (c) of the Commercial Computer Software - Restricted
 Rights clause in FAR 52.227-19.
  
 Gaussian, Inc.
 340 Quinnipiac St., Bldg. 40, Wallingford CT 06492
  
  
 ---------------------------------------------------------------
 Warning -- This program may not be used in any manner that
 competes with the business of Gaussian, Inc. or will provide
 assistance to any competitor of Gaussian, Inc.  The licensee
 of this program is prohibited from giving any competitor of
 Gaussian, Inc. access to this program.  By using this program,
 the user acknowledges that Gaussian, Inc. is engaged in the
 business of creating and licensing software in the field of
 computational chemistry and represents and warrants to the
 licensee that it is not a competitor of Gaussian, Inc. and that
 it will not use this program in any manner prohibited above.
 ---------------------------------------------------------------
  

 Cite this work as:
 Gaussian 09, Revision B.01,
 M. J. Frisch, G. W. Trucks, H. B. Schlegel, G. E. Scuseria, 
 M. A. Robb, J. R. Cheeseman, G. Scalmani, V. Barone, B. Mennucci, 
 G. A. Petersson, H. Nakatsuji, M. Caricato, X. Li, H. P. Hratchian, 
 A. F. Izmaylov, J. Bloino, G. Zheng, J. L. Sonnenberg, M. Hada, 
 M. Ehara, K. Toyota, R. Fukuda, J. Hasegawa, M. Ishida, T. Nakajima, 
 Y. Honda, O. Kitao, H. Nakai, T. Vreven, J. A. Montgomery, Jr., 
 J. E. Peralta, F. Ogliaro, M. Bearpark, J. J. Heyd, E. Brothers, 
 K. N. Kudin, V. N. Staroverov, T. Keith, R. Kobayashi, J. Normand, 
 K. Raghavachari, A. Rendell, J. C. Burant, S. S. Iyengar, J. Tomasi, 
 M. Cossi, N. Rega, J. M. Millam, M. Klene, J. E. Knox, J. B. Cross, 
 V. Bakken, C. Adamo, J. Jaramillo, R. Gomperts, R. E. Stratmann, 
 O. Yazyev, A. J. Austin, R. Cammi, C. Pomelli, J. W. Ochterski, 
 R. L. Martin, K. Morokuma, V. G. Zakrzewski, G. A. Voth, 
 P. Salvador, J. J. Dannenberg, S. Dapprich, A. D. Daniels, 
 O. Farkas, J. B. Foresman, J. V. Ortiz, J. Cioslowski, 
 and D. J. Fox, Gaussian, Inc., Wallingford CT, 2010.
 
 ******************************************
 Gaussian 09:  EM64L-G09RevB.01 12-Aug-2010
                 1-Feb-2016 
 ******************************************
 --------------------------------------------------
 # freq=raman b3lyp/6-31+g(2df,p) geom=connectivity
 --------------------------------------------------
 1/10=4,30=1,38=1,57=2/1,3;
 2/12=2,17=6,18=5,40=1/2;
 3/5=1,6=6,7=114,11=2,16=1,25=1,30=1,71=2,74=-5/1,2,3;
 4//1;
 5/5=2,38=5,98=1/2;
 8/6=4,10=90,11=11/1;
 10/13=10,15=4/2;
 11/6=3,8=1,9=11,15=111,16=1/1,2,10;
 10/6=1/2;
 6/7=2,8=2,9=2,10=2,18=1,28=1/1;
 7/8=1,10=1,25=1/1,2,3,16;
 1/10=4,30=1/3;
 99//99;
 ------------
 280 6000.com
 ------------
 Symbolic Z-matrix:
 Charge =  0 Multiplicity = 1
 O                     7.38776   7.57431   12.49069 
 C                     8.115     7.966     13.658 
 C                     7.587     9.295     14.172 
 O                     7.781     10.308    13.174 
 H                     7.527     9.965     12.269 
 C                     8.17      9.733     15.506 
 O                     7.582     10.93     16.035 
 H                     7.98      11.144    16.927 
 C                     8.217     5.462     14.517 
 O                     7.503     5.004     13.36 
 H                     7.696     4.025     13.286 
 C                     7.92      6.934     14.757 
 O                     8.651     7.349     15.92 
 C                     8.054     8.543     16.445 
 O                     8.847     8.752     17.623 
 C                     8.322     8.418     18.916 
 C                     8.74      7.039     19.402 
 O                     8.551     6.042     18.387 
 H                     8.789     6.399     17.484 
 C                     8.193     6.762     20.793 
 O                     8.607     5.499     21.334 
 H                     8.112     5.195     22.148 
 C                     8.08      10.751    19.51 
 O                     8.599     11.486    18.392 
 H                     8.425     12.47     18.435 
 C                     8.714     9.446     19.964 
 O                     8.104     9.172     21.234 
 C                     8.514     7.897     21.75 
 O                     7.639     7.818     22.885 
 H                     8.16138   7.76207   23.68849 
 H                     9.5432    7.89833   22.04267 
 H                     7.12742   6.72461   20.70329 
 H                     9.80041   7.09799   19.53222 
 H                     7.25466   8.42371   18.84084 
 H                     9.77675   9.5368    20.04898 
 H                     8.09626   11.4127   20.35071 
 H                     7.05427   10.53818   19.29207 
 H                     7.0317    8.36751   16.70768 
 H                     9.21159   9.92647   15.35578 
 H                     6.53188   9.18338   14.31046 
 H                     9.15541   8.05496   13.42447 
 H                     8.00434   7.34023   11.7931 
 H                     6.88399   6.98248   15.02011 
 H                     9.26755   5.33224   14.36078 
 H                     7.91181   4.89401   15.3709 
 

 GradGradGradGradGradGradGradGradGradGradGradGradGradGradGradGradGradGrad
 Berny optimization.
 Initialization pass.
 Trust Radius=3.00D-01 FncErr=1.00D-07 GrdErr=1.00D-07
 Number of steps in this run=      2 maximum allowed number of steps=      2.
 GradGradGradGradGradGradGradGradGradGradGradGradGradGradGradGradGradGrad

                          Input orientation:                          
 ---------------------------------------------------------------------
 Center     Atomic      Atomic             Coordinates (Angstroms)
 Number     Number       Type             X           Y           Z
 ---------------------------------------------------------------------
      1          8           0        7.387765    7.574308   12.490693
      2          6           0        8.115000    7.966000   13.658000
      3          6           0        7.587000    9.295000   14.172000
      4          8           0        7.781000   10.308000   13.174000
      5          1           0        7.527000    9.965000   12.269000
      6          6           0        8.170000    9.733000   15.506000
      7          8           0        7.582000   10.930000   16.035000
      8          1           0        7.980000   11.144000   16.927000
      9          6           0        8.217000    5.462000   14.517000
     10          8           0        7.503000    5.004000   13.360000
     11          1           0        7.696000    4.025000   13.286000
     12          6           0        7.920000    6.934000   14.757000
     13          8           0        8.651000    7.349000   15.920000
     14          6           0        8.054000    8.543000   16.445000
     15          8           0        8.847000    8.752000   17.623000
     16          6           0        8.322000    8.418000   18.916000
     17          6           0        8.740000    7.039000   19.402000
     18          8           0        8.551000    6.042000   18.387000
     19          1           0        8.789000    6.399000   17.484000
     20          6           0        8.193000    6.762000   20.793000
     21          8           0        8.607000    5.499000   21.334000
     22          1           0        8.112000    5.195000   22.148000
     23          6           0        8.080000   10.751000   19.510000
     24          8           0        8.599000   11.486000   18.392000
     25          1           0        8.425000   12.470000   18.435000
     26          6           0        8.714000    9.446000   19.964000
     27          8           0        8.104000    9.172000   21.234000
     28          6           0        8.514000    7.897000   21.750000
     29          8           0        7.639000    7.818000   22.885000
     30          1           0        8.161378    7.762074   23.688488
     31          1           0        9.543195    7.898331   22.042670
     32          1           0        7.127423    6.724612   20.703294
     33          1           0        9.800408    7.097985   19.532216
     34          1           0        7.254659    8.423707   18.840836
     35          1           0        9.776749    9.536797   20.048978
     36          1           0        8.096263   11.412700   20.350708
     37          1           0        7.054274   10.538183   19.292065
     38          1           0        7.031696    8.367513   16.707676
     39          1           0        9.211586    9.926473   15.355776
     40          1           0        6.531884    9.183382   14.310460
     41          1           0        9.155408    8.054960   13.424468
     42          1           0        8.004341    7.340229   11.793097
     43          1           0        6.883986    6.982481   15.020106
     44          1           0        9.267551    5.332244   14.360777
     45          1           0        7.911810    4.894007   15.370899
 ---------------------------------------------------------------------
                    Distance matrix (angstroms):
                    1          2          3          4          5
     1  O    0.000000
     2  C    1.430000   0.000000
     3  C    2.413974   1.519612   0.000000
     4  O    2.845103   2.414700   1.435203   0.000000
     5  H    2.404983   2.504210   2.018393   1.000595   0.000000
     6  C    3.789976   2.557424   1.520292   2.433140   3.308390
     7  O    4.884722   3.836602   2.478713   2.934588   3.888059
     8  H    5.724881   4.561170   3.341149   3.850131   4.826201
     9  C    3.042269   2.649208   3.899720   5.047520   5.080021
    10  O    2.715780   3.039209   4.367961   5.314536   5.079604
    11  H    3.650358   3.980631   5.345070   6.284573   6.028802
    12  C    2.414419   1.520148   2.455084   3.729489   3.941009
    13  O    3.661513   2.405126   2.823919   4.129540   4.629971
    14  C    4.125382   2.846756   2.439287   3.726821   4.442836
    15  O    5.464147   4.107900   3.713738   4.832297   5.646157
    16  C    6.547457   5.281450   4.880050   6.069213   6.870796
    17  C    7.062667   5.851794   5.811355   7.098875   7.804648
    18  O    6.202219   5.123994   5.410871   6.779899   7.339511
    19  H    5.317700   4.189038   4.560807   5.905290   6.442455
    20  C    8.380725   7.236292   7.114841   8.413859   9.130243
    21  O    9.165016   8.077693   8.169716   9.507595  10.162961
    22  H    9.972423   8.930764   8.983440  10.333683  10.985889
    23  C    7.735712   6.480999   5.554928   6.358502   7.304498
    24  O    7.182886   5.919072   4.861381   5.411500   6.399512
    25  H    7.770357   6.572811   5.381081   5.724255   6.715727
    26  C    7.817446   6.504986   5.902558   6.907795   7.803291
    27  O    8.916896   7.671397   7.081967   8.146068   9.018481
    28  C    9.333130   8.102125   7.761431   8.938567   9.753981
    29  O   10.400199   9.240455   8.837454  10.026155  10.831510
    30  H   11.226057  10.032668   9.656258  10.825012  11.647319
    31  H    9.797507   8.505704   8.229510   9.357625  10.191211
    32  H    8.260544   7.221670   7.033911   8.364096   9.044174
    33  H    7.458605   6.172557   6.201449   7.403318   8.132802
    34  H    6.408082   5.273658   4.761053   5.995050   6.755648
    35  H    8.166167   6.787740   6.276331   7.200214   8.110042
    36  H    8.775822   7.528109   6.551368   7.268073   8.230060
    37  H    7.426603   6.283626   5.295693   6.165374   7.062255
    38  H    4.305684   3.261179   2.756492   4.100465   4.743326
    39  H    4.131308   2.815741   2.106979   2.636718   3.516745
    40  H    2.575501   2.100947   1.070000   2.028940   2.401821
    41  H    2.056095   1.070000   2.134574   2.651023   2.763164
    42  H    0.960000   1.970203   3.107167   3.280921   2.709938
    43  H    2.646127   2.082796   2.561495   3.907918   4.108220
    44  H    3.472415   2.959551   4.308518   5.326952   5.372846
    45  H    3.969159   3.523131   4.572920   5.844210   5.956914
                    6          7          8          9         10
     6  C    0.000000
     7  O    1.434710   0.000000
     8  H    2.011532   0.999932   0.000000
     9  C    4.384264   5.710217   6.176519   0.000000
    10  O    5.235804   6.502257   7.116925   1.434646   0.000000
    11  H    6.142828   7.432969   8.001106   1.962593   1.000583
    12  C    2.908247   4.208984   4.736729   1.520721   2.418760
    13  O    2.467025   3.738923   3.983254   2.391137   3.656573
    14  C    1.520288   2.467520   2.646318   3.638175   4.727087
    15  O    2.429481   2.977525   2.637758   4.568176   5.833267
    16  C    3.657927   3.893315   3.391778   5.300959   6.572313
    17  C    4.770886   5.274233   4.853272   5.159814   6.494394
    18  O    4.697744   5.510300   5.337419   3.927449   5.238939
    19  H    3.925710   4.907791   4.845591   3.163581   4.539515
    20  C    6.064630   6.354849   5.847499   6.409271   7.669169
    21  O    7.216877   7.656748   7.188936   6.828247   8.065266
    22  H    8.044437   8.398803   7.916241   7.636391   8.811147
    23  C    4.132365   3.515063   2.614639   7.274774   8.437028
    24  O    3.403828   2.626571   1.626761   7.172874   8.278802
    25  H    4.016869   2.973592   2.056785   8.031566   9.074517
    26  C    4.500230   4.349796   3.556027   6.766762   8.050509
    27  O    5.755785   5.512953   4.738608   7.674305   8.929351
    28  C    6.517420   6.536738   5.838621   7.637652   8.932171
    29  O    7.641913   7.523981   6.832007   8.712534   9.932911
    30  H    8.416516   8.303452   7.562278   9.455667  10.710654
    31  H    6.926740   7.009237   6.256838   8.020611   9.377009
    32  H    6.095017   6.299595   5.875225   6.407152   7.551525
    33  H    5.080546   5.642357   5.145024   5.507815   6.910797
    34  H    3.697733   3.776423   3.404245   5.328542   6.464954
    35  H    4.822736   4.782254   3.944383   7.045535   8.393962
    36  H    5.128159   4.372962   3.436203   8.334119   9.502283
    37  H    4.028331   3.322723   2.611037   7.065466   8.125142
    38  H    2.145767   2.705858   2.942153   3.827011   4.768887
    39  H    1.070000   2.030754   2.338358   4.650190   5.579707
    40  H    2.101147   2.669730   3.575940   4.090349   4.394732
    41  H    2.849495   4.190029   4.815753   2.966088   3.470298
    42  H    4.420232   5.573022   6.389541   3.315512   2.857358
    43  H    3.074944   4.135231   4.706987   2.083724   2.655846
    44  H    4.677907   6.081034   6.482268   1.070000   2.054979
    45  H    4.847759   6.081366   6.441158   1.070000   2.054979
                   11         12         13         14         15
    11  H    0.000000
    12  C    3.267460   0.000000
    13  O    4.347293   1.434976   0.000000
    14  C    5.524470   2.335847   1.434458   0.000000
    15  O    6.517584   3.518296   2.215183   1.435345   0.000000
    16  C    7.168488   4.434089   3.197971   2.488632   1.434932
    17  C    6.897796   4.717992   3.496905   3.387693   2.471975
    18  O    5.551533   3.790874   2.793625   3.205210   2.831150
    19  H    4.945071   2.911686   1.835113   2.493287   2.357816
    20  C    8.005825   6.044618   4.929550   4.700679   3.799568
    21  O    8.232430   6.766692   5.721524   5.785678   4.940762
    22  H    8.948575   7.595253   6.611976   6.613371   5.802422
    23  C    9.171952   6.098041   4.978729   3.777587   2.853955
    24  O    9.085877   5.864722   4.819570   3.570586   2.850898
    25  H    9.917745   6.665584   5.709723   4.418039   3.828962
    26  C    8.661365   5.835532   4.555800   3.692475   2.445323
    27  O    9.477804   6.855219   5.644567   4.830389   3.710495
    28  C    9.343490   7.083943   5.857301   5.363948   4.227770
    29  O   10.321381   8.180758   7.053746   6.493955   5.479075
    30  H   11.063185   8.973040   7.794855   7.286254   6.183864
    31  H    9.751620   7.526332   6.211671   5.828139   4.554879
    32  H    7.913750   6.002536   5.058760   4.722092   4.068840
    33  H    7.272344   5.134736   3.798980   3.830001   2.699974
    34  H    7.099268   4.397683   3.411165   2.528479   2.031367
    35  H    8.969241   6.182806   4.806477   4.116327   2.713984
    36  H   10.229780   7.167941   6.037595   4.846804   3.883725
    37  H    8.882915   5.857169   4.908283   3.617456   3.031516
    38  H    5.568356   2.578601   2.068804   1.070000   2.069052
    39  H    6.434933   3.313853   2.697401   2.107229   2.579267
    40  H    5.386426   2.680668   3.232063   2.698738   4.064329
    41  H    4.288312   2.135047   2.642061   3.251906   4.267159
    42  H    3.648915   2.992801   4.177269   4.805136   6.057305
    43  H    3.523235   1.070000   2.016552   2.415466   3.709404
    44  H    2.309503   2.130378   2.622712   4.015675   4.744860
    45  H    2.269042   2.130378   2.622004   3.806450   4.564061
                   16         17         18         19         20
    16  C    0.000000
    17  C    1.520711   0.000000
    18  O    2.444925   1.435254   0.000000
    19  H    2.518943   2.022554   0.999751   0.000000
    20  C    2.506413   1.520138   2.536809   3.381784   0.000000
    21  O    3.801120   2.474250   2.997131   3.957982   1.435007
    22  H    4.569207   3.366784   3.880110   4.864241   2.073180
    23  C    2.419564   3.771765   4.863913   4.852552   4.191775
    24  O    3.124729   4.562432   5.444214   5.170893   5.314679
    25  H    4.081749   5.525403   6.429414   6.155805   6.180231
    26  C    1.519458   2.471876   3.755092   3.929406   2.857016
    27  O    2.447277   2.882778   4.254658   4.713943   2.451633
    28  C    2.887882   2.510049   3.840854   4.529722   1.518919
    29  O    4.071787   3.735014   4.921171   5.701479   2.408011
    30  H    4.820029   4.385387   5.587149   6.383381   3.063495
    31  H    3.396680   2.890797   4.218333   4.857805   2.162394
    32  H    2.736603   2.095856   2.803168   3.637405   1.070000
    33  H    2.075536   1.070000   1.996909   2.388873   2.070319
    34  H    1.070000   2.106788   2.749363   2.880042   2.729963
    35  H    2.156766   2.780722   4.059339   4.171394   3.280446
    36  H    3.328298   4.521470   5.736493   5.816793   4.672685
    37  H    2.498745   3.885619   4.824416   4.838513   4.220078
    38  H    2.558149   3.455811   3.245986   2.750607   4.540503
    39  H    3.967625   4.993178   4.971300   4.141375   6.372975
    40  H    5.000132   5.949616   5.528407   4.787349   7.116581
    41  H    5.566263   6.077468   5.389252   4.399574   7.542760
    42  H    7.210981   7.650317   6.742685   5.821339   9.020433
    43  H    4.393926   4.759094   3.872907   3.168643   5.923549
    44  H    5.582653   5.348389   4.150623   3.334892   6.676253
    45  H    5.015429   4.640762   3.289881   2.738551   5.741746
                   21         22         23         24         25
    21  O    0.000000
    22  H    1.000018   0.000000
    23  C    5.584640   6.150545   0.000000
    24  O    6.670802   7.343118   1.435099   0.000000
    25  H    7.551964   8.173736   2.056602   1.000190   0.000000
    26  C    4.179373   4.816976   1.520229   2.577985   3.400873
    27  O    3.708630   4.080685   2.337946   3.698187   4.337539
    28  C    2.435592   2.760582   3.653939   4.915721   5.648847
    29  O    2.953030   2.765326   4.493061   5.879020   6.485476
    30  H    3.296013   2.994230   5.138099   6.489370   7.059263
    31  H    2.671229   3.060623   4.085716   5.204831   5.930076
    32  H    2.022143   2.322990   4.306176   5.493490   6.311763
    33  H    2.688383   3.648890   4.037922   4.690218   5.652802
    34  H    4.074138   4.700736   2.558371   3.374366   4.231654
    35  H    4.395839   5.101812   2.154935   2.816391   3.610517
    36  H    6.016607   6.472271   1.070000   2.023525   2.212665
    37  H    5.654539   6.150183   1.070000   2.023525   2.519001
    38  H    5.666818   6.389759   3.825306   3.875351   4.664262
    39  H    7.463726   8.350463   4.383824   3.467858   4.070610
    40  H    8.198225   8.934819   5.647062   5.121913   5.603354
    41  H    8.330328   9.239485   6.742316   6.062837   6.717998
    42  H    9.735613  10.575331   8.437398   7.815789   8.402761
    43  H    6.710793   7.450501   5.982585   5.881549   6.644478
    44  H    7.006424   7.873689   7.568864   7.386910   8.261764
    45  H    6.033894   6.786735   7.173898   7.283794   8.188269
                   26         27         28         29         30
    26  C    0.000000
    27  O    1.435296   0.000000
    28  C    2.372593   1.435263   0.000000
    29  O    3.512585   2.185256   1.435302   0.000000
    30  H    4.124659   2.831200   1.974914   0.960000   0.000000
    31  H    2.720976   2.085057   1.070000   2.083730   2.153300
    32  H    3.235697   2.687947   2.095873   2.493401   3.325173
    33  H    2.622955   3.174178   2.685486   4.053549   4.516861
    34  H    2.106243   2.647368   3.213502   4.107294   4.975905
    35  H    1.070000   2.082172   2.678982   3.945536   4.359484
    36  H    2.097391   2.408527   3.806924   4.421944   4.946927
    37  H    2.097391   2.596053   3.892055   4.544280   5.316107
    38  H    3.820592   4.720661   5.276707   6.231381   7.097498
    39  H    4.659847   6.029054   6.744738   7.975456   8.673042
    40  H    6.065733   7.099795   7.805787   8.752869   9.624073
    41  H    6.700396   7.958770   8.351696   9.584222  10.316200
    42  H    8.467677   9.617483   9.985473  11.108198  11.903905
    43  H    5.818931   6.700366   6.984609   7.945105   8.796610
    44  H    6.973200   7.958566   7.857890   9.027378   9.702263
    45  H    6.516189   7.260449   7.076265   8.067582   8.801726
                   31         32         33         34         35
    31  H    0.000000
    32  H    3.001250   0.000000
    33  H    2.647468   2.942054   0.000000
    34  H    3.970537   2.524255   2.952352   0.000000
    35  H    2.591124   3.918602   2.493071   3.009903   0.000000
    36  H    4.160185   4.800118   4.710711   3.452838   2.536550
    37  H    4.552952   4.066969   4.408387   2.171352   2.997925
    38  H    5.915227   4.321255   4.153973   2.145516   4.479602
    39  H    6.995561   6.572032   5.078357   4.270072   4.743143
    40  H    8.396810   6.875212   6.503758   4.650141   6.601866
    41  H    8.628343   7.672278   6.215819   5.752031   6.816600
    42  H   10.379465   8.974385   7.948491   7.169838   8.725017
    43  H    7.564824   5.694241   5.373825   4.100305   6.338939
    44  H    8.103843   6.837131   5.490498   5.803431   7.091768
    45  H    7.496660   5.692171   5.073547   4.993104   6.849665
                   36         37         38         39         40
    36  H    0.000000
    37  H    1.723730   0.000000
    38  H    4.866019   3.375112   0.000000
    39  H    5.329367   4.530183   3.001651   0.000000
    40  H    6.625838   5.188908   2.581104   2.970803   0.000000
    41  H    7.769749   6.708938   3.922665   2.689920   2.990183
    42  H    9.477667   8.207562   5.114142   4.564952   3.449995
    43  H    7.036459   5.560723   2.188155   3.767955   2.339132
    44  H    8.615285   7.504532   4.440703   4.701074   4.724158
    45  H    8.205234   6.925867   3.824502   5.197630   4.628981
                   41         42         43         44         45
    41  H    0.000000
    42  H    2.120653   0.000000
    43  H    2.975841   3.434643   0.000000
    44  H    2.881394   3.495809   2.973109   0.000000
    45  H    3.914939   4.335116   2.353975   1.746549   0.000000
 Stoichiometry    C12H22O11
 Framework group  C1[X(C12H22O11)]
 Deg. of freedom   129
 Full point group                 C1      NOp   1
 Largest Abelian subgroup         C1      NOp   1
 Largest concise Abelian subgroup C1      NOp   1
                         Standard orientation:                         
 ---------------------------------------------------------------------
 Center     Atomic      Atomic             Coordinates (Angstroms)
 Number     Number       Type             X           Y           Z
 ---------------------------------------------------------------------
      1          8           0        4.949880   -0.469583   -0.454179
      2          6           0        3.727596   -0.119989    0.200577
      3          6           0        3.217291    1.207129   -0.335677
      4          8           0        4.175021    2.238932   -0.056489
      5          1           0        5.103040    1.922304   -0.255780
      6          6           0        1.837171    1.602056    0.164912
      7          8           0        1.319130    2.798105   -0.434667
      8          1           0        0.397687    2.983175   -0.093266
      9          6           0        2.925495   -2.644851    0.198105
     10          8           0        4.138248   -3.061230   -0.445377
     11          1           0        4.223300   -4.041956   -0.266191
     12          6           0        2.669653   -1.173112   -0.086716
     13          8           0        1.450843   -0.800197    0.572520
     14          6           0        0.937463    0.393129   -0.035827
     15          8           0       -0.295365    0.558535    0.680406
     16          6           0       -1.542059    0.205259    0.063983
     17          6           0       -2.020714   -1.192870    0.422710
     18          8           0       -0.971219   -2.161945    0.283396
     19          1           0       -0.095056   -1.788933    0.587866
     20          6           0       -3.365103   -1.491007   -0.221147
     21          8           0       -3.901203   -2.774391    0.132081
     22          1           0       -4.672829   -3.087145   -0.421829
     23          6           0       -2.175817    2.528236   -0.173547
     24          8           0       -1.113136    3.278371    0.432684
     25          1           0       -1.168650    4.264431    0.274618
     26          6           0       -2.638711    1.200434    0.404181
     27          8           0       -3.858294    0.909389   -0.294378
     28          6           0       -4.368897   -0.385326    0.056306
     29          8           0       -5.441016   -0.472948   -0.893943
     30          1           0       -6.275796   -0.558138   -0.427591
     31          1           0       -4.729195   -0.411681    1.063476
     32          1           0       -3.203958   -1.504676   -1.278854
     33          1           0       -2.222455   -1.158452    1.472956
     34          1           0       -1.396361    0.234362   -0.995651
     35          1           0       -2.796264    1.267654    1.460381
     36          1           0       -3.031751    3.169729   -0.201166
     37          1           0       -1.885101    2.341396   -1.186205
     38          1           0        0.747630    0.232350   -1.076506
     39          1           0        1.913113    1.777805    1.217645
     40          1           0        3.151972    1.113744   -1.399591
     41          1           0        3.889282   -0.046741    1.255752
     42          1           0        5.610541   -0.699826    0.203176
     43          1           0        2.474799   -1.109761   -1.136915
     44          1           0        3.014767   -2.792219    1.254141
     45          1           0        2.107955   -3.226250   -0.174054
 ---------------------------------------------------------------------
 Rotational constants (GHZ):      0.4121625      0.1474173      0.1118741
 Standard basis: 6-31+G(2df,p) (6D, 7F)
 There are   846 symmetry adapted basis functions of A   symmetry.
 Integral buffers will be    131072 words long.
 Raffenetti 2 integral format.
 Two-electron integral symmetry is turned on.
   846 basis functions,  1258 primitive gaussians,   915 cartesian basis functions
    91 alpha electrons       91 beta electrons
       nuclear repulsion energy      2295.4076704694 Hartrees.
 NAtoms=   45 NActive=   45 NUniq=   45 SFac= 1.00D+00 NAtFMM=   50 NAOKFM=F Big=F
 One-electron integrals computed using PRISM.
 NBasis=   846 RedAO= T  NBF=   846
 NBsUse=   846 1.00D-06 NBFU=   846
 Harris functional with IExCor=  402 diagonalized for initial guess.
 ExpMin= 4.38D-02 ExpMax= 5.48D+03 ExpMxC= 8.25D+02 IAcc=2 IRadAn=         0 AccDes= 0.00D+00
 HarFok:  IExCor=  402 AccDes= 0.00D+00 IRadAn=         0 IDoV= 1
 ScaDFX=  1.000000  1.000000  1.000000  1.000000
 FoFCou: FMM=F IPFlag=           0 FMFlag=      100000 FMFlg1=           0
         NFxFlg=           0 DoJE=T BraDBF=F KetDBF=T FulRan=T
         Omega=  0.000000  0.000000  1.000000  0.000000  0.000000 ICntrl=     500 IOpCl=  0
         NMat0=    1 NMatS0=    1 NMatT0=    0 NMatD0=    1 NMtDS0=    0 NMtDT0=    0
         I1Cent=           4 NGrid=           0.
 Petite list used in FoFCou.
 Initial guess orbital symmetries:
       Occupied  (A) (A) (A) (A) (A) (A) (A) (A) (A) (A) (A) (A)
                 (A) (A) (A) (A) (A) (A) (A) (A) (A) (A) (A) (A)
                 (A) (A) (A) (A) (A) (A) (A) (A) (A) (A) (A) (A)
                 (A) (A) (A) (A) (A) (A) (A) (A) (A) (A) (A) (A)
                 (A) (A) (A) (A) (A) (A) (A) (A) (A) (A) (A) (A)
                 (A) (A) (A) (A) (A) (A) (A) (A) (A) (A) (A) (A)
                 (A) (A) (A) (A) (A) (A) (A) (A) (A) (A) (A) (A)
                 (A) (A) (A) (A) (A) (A) (A)
       Virtual   (A) (A) (A) (A) (A) (A) (A) (A) (A) (A) (A) (A)
                 (A) (A) (A) (A) (A) (A) (A) (A) (A) (A) (A) (A)
                 (A) (A) (A) (A) (A) (A) (A) (A) (A) (A) (A) (A)
                 (A) (A) (A) (A) (A) (A) (A) (A) (A) (A) (A) (A)
                 (A) (A) (A) (A) (A) (A) (A) (A) (A) (A) (A) (A)
                 (A) (A) (A) (A) (A) (A) (A) (A) (A) (A) (A) (A)
                 (A) (A) (A) (A) (A) (A) (A) (A) (A) (A) (A) (A)
                 (A) (A) (A) (A) (A) (A) (A) (A) (A) (A) (A) (A)
                 (A) (A) (A) (A) (A) (A) (A) (A) (A) (A) (A) (A)
                 (A) (A) (A) (A) (A) (A) (A) (A) (A) (A) (A) (A)
                 (A) (A) (A) (A) (A) (A) (A) (A) (A) (A) (A) (A)
                 (A) (A) (A) (A) (A) (A) (A) (A) (A) (A) (A) (A)
                 (A) (A) (A) (A) (A) (A) (A) (A) (A) (A) (A) (A)
                 (A) (A) (A) (A) (A) (A) (A) (A) (A) (A) (A) (A)
                 (A) (A) (A) (A) (A) (A) (A) (A) (A) (A) (A) (A)
                 (A) (A) (A) (A) (A) (A) (A) (A) (A) (A) (A) (A)
                 (A) (A) (A) (A) (A) (A) (A) (A) (A) (A) (A) (A)
                 (A) (A) (A) (A) (A) (A) (A) (A) (A) (A) (A) (A)
                 (A) (A) (A) (A) (A) (A) (A) (A) (A) (A) (A) (A)
                 (A) (A) (A) (A) (A) (A) (A) (A) (A) (A) (A) (A)
                 (A) (A) (A) (A) (A) (A) (A) (A) (A) (A) (A) (A)
                 (A) (A) (A) (A) (A) (A) (A) (A) (A) (A) (A) (A)
                 (A) (A) (A) (A) (A) (A) (A) (A) (A) (A) (A) (A)
                 (A) (A) (A) (A) (A) (A) (A) (A) (A) (A) (A) (A)
                 (A) (A) (A) (A) (A) (A) (A) (A) (A) (A) (A) (A)
                 (A) (A) (A) (A) (A) (A) (A) (A) (A) (A) (A) (A)
                 (A) (A) (A) (A) (A) (A) (A) (A) (A) (A) (A) (A)
                 (A) (A) (A) (A) (A) (A) (A) (A) (A) (A) (A) (A)
                 (A) (A) (A) (A) (A) (A) (A) (A) (A) (A) (A) (A)
                 (A) (A) (A) (A) (A) (A) (A) (A) (A) (A) (A) (A)
                 (A) (A) (A) (A) (A) (A) (A) (A) (A) (A) (A) (A)
                 (A) (A) (A) (A) (A) (A) (A) (A) (A) (A) (A) (A)
                 (A) (A) (A) (A) (A) (A) (A) (A) (A) (A) (A) (A)
                 (A) (A) (A) (A) (A) (A) (A) (A) (A) (A) (A) (A)
                 (A) (A) (A) (A) (A) (A) (A) (A) (A) (A) (A) (A)
                 (A) (A) (A) (A) (A) (A) (A) (A) (A) (A) (A) (A)
                 (A) (A) (A) (A) (A) (A) (A) (A) (A) (A) (A) (A)
                 (A) (A) (A) (A) (A) (A) (A) (A) (A) (A) (A) (A)
                 (A) (A) (A) (A) (A) (A) (A) (A) (A) (A) (A) (A)
                 (A) (A) (A) (A) (A) (A) (A) (A) (A) (A) (A) (A)
                 (A) (A) (A) (A) (A) (A) (A) (A) (A) (A) (A) (A)
                 (A) (A) (A) (A) (A) (A) (A) (A) (A) (A) (A) (A)
                 (A) (A) (A) (A) (A) (A) (A) (A) (A) (A) (A) (A)
                 (A) (A) (A) (A) (A) (A) (A) (A) (A) (A) (A) (A)
                 (A) (A) (A) (A) (A) (A) (A) (A) (A) (A) (A) (A)
                 (A) (A) (A) (A) (A) (A) (A) (A) (A) (A) (A) (A)
                 (A) (A) (A) (A) (A) (A) (A) (A) (A) (A) (A) (A)
                 (A) (A) (A) (A) (A) (A) (A) (A) (A) (A) (A) (A)
                 (A) (A) (A) (A) (A) (A) (A) (A) (A) (A) (A) (A)
                 (A) (A) (A) (A) (A) (A) (A) (A) (A) (A) (A) (A)
                 (A) (A) (A) (A) (A) (A) (A) (A) (A) (A) (A) (A)
                 (A) (A) (A) (A) (A) (A) (A) (A) (A) (A) (A) (A)
                 (A) (A) (A) (A) (A) (A) (A) (A) (A) (A) (A) (A)
                 (A) (A) (A) (A) (A) (A) (A) (A) (A) (A) (A) (A)
                 (A) (A) (A) (A) (A) (A) (A) (A) (A) (A) (A) (A)
                 (A) (A) (A) (A) (A) (A) (A) (A) (A) (A) (A) (A)
                 (A) (A) (A) (A) (A) (A) (A) (A) (A) (A) (A) (A)
                 (A) (A) (A) (A) (A) (A) (A) (A) (A) (A) (A) (A)
                 (A) (A) (A) (A) (A) (A) (A) (A) (A) (A) (A) (A)
                 (A) (A) (A) (A) (A) (A) (A) (A) (A) (A) (A) (A)
                 (A) (A) (A) (A) (A) (A) (A) (A) (A) (A) (A) (A)
                 (A) (A) (A) (A) (A) (A) (A) (A) (A) (A) (A) (A)
                 (A) (A) (A) (A) (A) (A) (A) (A) (A) (A) (A)
 The electronic state of the initial guess is 1-A.
 Requested convergence on RMS density matrix=1.00D-08 within 128 cycles.
 Requested convergence on MAX density matrix=1.00D-06.
 Requested convergence on             energy=1.00D-06.
 No special actions if energy rises.
 SCF Done:  E(RB3LYP) =  -1298.01890297     A.U. after   13 cycles
             Convg  =    0.4247D-08             -V/T =  2.0066
 Range of M.O.s used for correlation:     1   846
 NBasis=   846 NAE=    91 NBE=    91 NFC=     0 NFV=     0
 NROrb=    846 NOA=    91 NOB=    91 NVA=   755 NVB=   755

 **** Warning!!: The largest alpha MO coefficient is  0.66242378D+02

          Differentiating once with respect to electric field.
                with respect to dipole field.
          Electric field/nuclear overlap derivatives assumed to be zero.
          There are     3 degrees of freedom in the 1st order CPHF.  IDoFFX=0.
      3 vectors produced by pass  0 Test12= 2.29D-12 3.33D-08 XBig12= 1.24D+02 1.07D+00.
 AX will form     3 AO Fock derivatives at one time.
      3 vectors produced by pass  1 Test12= 2.29D-12 3.33D-08 XBig12= 2.55D+01 3.84D-01.
      3 vectors produced by pass  2 Test12= 2.29D-12 3.33D-08 XBig12= 1.06D+01 1.95D-01.
      3 vectors produced by pass  3 Test12= 2.29D-12 3.33D-08 XBig12= 1.13D+00 7.45D-02.
      3 vectors produced by pass  4 Test12= 2.29D-12 3.33D-08 XBig12= 3.14D-01 5.10D-02.
      3 vectors produced by pass  5 Test12= 2.29D-12 3.33D-08 XBig12= 6.17D-02 1.64D-02.
      3 vectors produced by pass  6 Test12= 2.29D-12 3.33D-08 XBig12= 1.91D-02 1.46D-02.
      3 vectors produced by pass  7 Test12= 2.29D-12 3.33D-08 XBig12= 3.25D-03 5.97D-03.
      3 vectors produced by pass  8 Test12= 2.29D-12 3.33D-08 XBig12= 4.45D-04 1.76D-03.
      3 vectors produced by pass  9 Test12= 2.29D-12 3.33D-08 XBig12= 1.75D-04 1.08D-03.
      3 vectors produced by pass 10 Test12= 2.29D-12 3.33D-08 XBig12= 3.88D-05 4.51D-04.
      3 vectors produced by pass 11 Test12= 2.29D-12 3.33D-08 XBig12= 9.68D-06 2.53D-04.
      3 vectors produced by pass 12 Test12= 2.29D-12 3.33D-08 XBig12= 9.66D-07 1.15D-04.
      3 vectors produced by pass 13 Test12= 2.29D-12 3.33D-08 XBig12= 2.84D-07 5.58D-05.
      3 vectors produced by pass 14 Test12= 2.29D-12 3.33D-08 XBig12= 5.21D-08 2.95D-05.
      3 vectors produced by pass 15 Test12= 2.29D-12 3.33D-08 XBig12= 1.44D-08 1.26D-05.
      3 vectors produced by pass 16 Test12= 2.29D-12 3.33D-08 XBig12= 2.25D-09 4.51D-06.
      3 vectors produced by pass 17 Test12= 2.29D-12 3.33D-08 XBig12= 2.46D-10 1.30D-06.
      3 vectors produced by pass 18 Test12= 2.29D-12 3.33D-08 XBig12= 4.97D-11 4.43D-07.
      3 vectors produced by pass 19 Test12= 2.29D-12 3.33D-08 XBig12= 5.00D-12 1.73D-07.
      3 vectors produced by pass 20 Test12= 2.29D-12 3.33D-08 XBig12= 1.67D-12 8.91D-08.
      1 vectors produced by pass 21 Test12= 2.29D-12 3.33D-08 XBig12= 5.01D-13 3.93D-08.
 Inverted reduced A of dimension    64 with in-core refinement.
 End of Minotr Frequency-dependent properties file   721 does not exist.
 End of Minotr Frequency-dependent properties file   722 does not exist.
 Symmetrizing basis deriv contribution to polar:
 IMax=3 JMax=2 DiffMx= 0.00D+00
 G2DrvN: will do     8 centers at a time, making    6 passes doing MaxLOS=3.
 Calling FoFCou, ICntrl=  3107 FMM=F I1Cent=   0 AccDes= 0.00D+00.
 Calling FoFCou, ICntrl=  3107 FMM=F I1Cent=   0 AccDes= 0.00D+00.
 Calling FoFCou, ICntrl=  3107 FMM=F I1Cent=   0 AccDes= 0.00D+00.
 Calling FoFCou, ICntrl=  3107 FMM=F I1Cent=   0 AccDes= 0.00D+00.
 Calling FoFCou, ICntrl=  3107 FMM=F I1Cent=   0 AccDes= 0.00D+00.
 Calling FoFCou, ICntrl=  3107 FMM=F I1Cent=   0 AccDes= 0.00D+00.
 FoFDir/FoFCou used for L=0 through L=3.
 End of G2Drv Frequency-dependent properties file   721 does not exist.
 End of G2Drv Frequency-dependent properties file   722 does not exist.
          IDoAtm=111111111111111111111111111111111111111111111
          Differentiating once with respect to electric field.
                with respect to dipole field.
          Differentiating once with respect to nuclear coordinates.
          There are   138 degrees of freedom in the 1st order CPHF.  IDoFFX=5.
 Will reuse    3 saved solutions.
    135 vectors produced by pass  0 Test12= 6.87D-14 1.00D-09 XBig12= 1.56D-01 5.47D-02.
 AX will form    27 AO Fock derivatives at one time.
    135 vectors produced by pass  1 Test12= 6.87D-14 1.00D-09 XBig12= 2.39D-02 1.22D-02.
    132 vectors produced by pass  2 Test12= 6.87D-14 1.00D-09 XBig12= 1.78D-04 1.52D-03.
    132 vectors produced by pass  3 Test12= 6.87D-14 1.00D-09 XBig12= 1.02D-06 6.48D-05.
    132 vectors produced by pass  4 Test12= 6.87D-14 1.00D-09 XBig12= 2.40D-09 3.36D-06.
    132 vectors produced by pass  5 Test12= 6.87D-14 1.00D-09 XBig12= 5.93D-12 1.18D-07.
    100 vectors produced by pass  6 Test12= 6.87D-14 1.00D-09 XBig12= 2.52D-13 2.63D-08.
      1 vectors produced by pass  7 Test12= 6.87D-14 1.00D-09 XBig12= 1.19D-15 1.66D-09.
 Inverted reduced A of dimension   899 with in-core refinement.
 Isotropic polarizability for W=    0.000000      192.19 Bohr**3.
 End of Minotr Frequency-dependent properties file   721 does not exist.
 End of Minotr Frequency-dependent properties file   722 does not exist.

 **********************************************************************

            Population analysis using the SCF density.

 **********************************************************************

 Orbital symmetries:
       Occupied  (A) (A) (A) (A) (A) (A) (A) (A) (A) (A) (A) (A)
                 (A) (A) (A) (A) (A) (A) (A) (A) (A) (A) (A) (A)
                 (A) (A) (A) (A) (A) (A) (A) (A) (A) (A) (A) (A)
                 (A) (A) (A) (A) (A) (A) (A) (A) (A) (A) (A) (A)
                 (A) (A) (A) (A) (A) (A) (A) (A) (A) (A) (A) (A)
                 (A) (A) (A) (A) (A) (A) (A) (A) (A) (A) (A) (A)
                 (A) (A) (A) (A) (A) (A) (A) (A) (A) (A) (A) (A)
                 (A) (A) (A) (A) (A) (A) (A)
       Virtual   (A) (A) (A) (A) (A) (A) (A) (A) (A) (A) (A) (A)
                 (A) (A) (A) (A) (A) (A) (A) (A) (A) (A) (A) (A)
                 (A) (A) (A) (A) (A) (A) (A) (A) (A) (A) (A) (A)
                 (A) (A) (A) (A) (A) (A) (A) (A) (A) (A) (A) (A)
                 (A) (A) (A) (A) (A) (A) (A) (A) (A) (A) (A) (A)
                 (A) (A) (A) (A) (A) (A) (A) (A) (A) (A) (A) (A)
                 (A) (A) (A) (A) (A) (A) (A) (A) (A) (A) (A) (A)
                 (A) (A) (A) (A) (A) (A) (A) (A) (A) (A) (A) (A)
                 (A) (A) (A) (A) (A) (A) (A) (A) (A) (A) (A) (A)
                 (A) (A) (A) (A) (A) (A) (A) (A) (A) (A) (A) (A)
                 (A) (A) (A) (A) (A) (A) (A) (A) (A) (A) (A) (A)
                 (A) (A) (A) (A) (A) (A) (A) (A) (A) (A) (A) (A)
                 (A) (A) (A) (A) (A) (A) (A) (A) (A) (A) (A) (A)
                 (A) (A) (A) (A) (A) (A) (A) (A) (A) (A) (A) (A)
                 (A) (A) (A) (A) (A) (A) (A) (A) (A) (A) (A) (A)
                 (A) (A) (A) (A) (A) (A) (A) (A) (A) (A) (A) (A)
                 (A) (A) (A) (A) (A) (A) (A) (A) (A) (A) (A) (A)
                 (A) (A) (A) (A) (A) (A) (A) (A) (A) (A) (A) (A)
                 (A) (A) (A) (A) (A) (A) (A) (A) (A) (A) (A) (A)
                 (A) (A) (A) (A) (A) (A) (A) (A) (A) (A) (A) (A)
                 (A) (A) (A) (A) (A) (A) (A) (A) (A) (A) (A) (A)
                 (A) (A) (A) (A) (A) (A) (A) (A) (A) (A) (A) (A)
                 (A) (A) (A) (A) (A) (A) (A) (A) (A) (A) (A) (A)
                 (A) (A) (A) (A) (A) (A) (A) (A) (A) (A) (A) (A)
                 (A) (A) (A) (A) (A) (A) (A) (A) (A) (A) (A) (A)
                 (A) (A) (A) (A) (A) (A) (A) (A) (A) (A) (A) (A)
                 (A) (A) (A) (A) (A) (A) (A) (A) (A) (A) (A) (A)
                 (A) (A) (A) (A) (A) (A) (A) (A) (A) (A) (A) (A)
                 (A) (A) (A) (A) (A) (A) (A) (A) (A) (A) (A) (A)
                 (A) (A) (A) (A) (A) (A) (A) (A) (A) (A) (A) (A)
                 (A) (A) (A) (A) (A) (A) (A) (A) (A) (A) (A) (A)
                 (A) (A) (A) (A) (A) (A) (A) (A) (A) (A) (A) (A)
                 (A) (A) (A) (A) (A) (A) (A) (A) (A) (A) (A) (A)
                 (A) (A) (A) (A) (A) (A) (A) (A) (A) (A) (A) (A)
                 (A) (A) (A) (A) (A) (A) (A) (A) (A) (A) (A) (A)
                 (A) (A) (A) (A) (A) (A) (A) (A) (A) (A) (A) (A)
                 (A) (A) (A) (A) (A) (A) (A) (A) (A) (A) (A) (A)
                 (A) (A) (A) (A) (A) (A) (A) (A) (A) (A) (A) (A)
                 (A) (A) (A) (A) (A) (A) (A) (A) (A) (A) (A) (A)
                 (A) (A) (A) (A) (A) (A) (A) (A) (A) (A) (A) (A)
                 (A) (A) (A) (A) (A) (A) (A) (A) (A) (A) (A) (A)
                 (A) (A) (A) (A) (A) (A) (A) (A) (A) (A) (A) (A)
                 (A) (A) (A) (A) (A) (A) (A) (A) (A) (A) (A) (A)
                 (A) (A) (A) (A) (A) (A) (A) (A) (A) (A) (A) (A)
                 (A) (A) (A) (A) (A) (A) (A) (A) (A) (A) (A) (A)
                 (A) (A) (A) (A) (A) (A) (A) (A) (A) (A) (A) (A)
                 (A) (A) (A) (A) (A) (A) (A) (A) (A) (A) (A) (A)
                 (A) (A) (A) (A) (A) (A) (A) (A) (A) (A) (A) (A)
                 (A) (A) (A) (A) (A) (A) (A) (A) (A) (A) (A) (A)
                 (A) (A) (A) (A) (A) (A) (A) (A) (A) (A) (A) (A)
                 (A) (A) (A) (A) (A) (A) (A) (A) (A) (A) (A) (A)
                 (A) (A) (A) (A) (A) (A) (A) (A) (A) (A) (A) (A)
                 (A) (A) (A) (A) (A) (A) (A) (A) (A) (A) (A) (A)
                 (A) (A) (A) (A) (A) (A) (A) (A) (A) (A) (A) (A)
                 (A) (A) (A) (A) (A) (A) (A) (A) (A) (A) (A) (A)
                 (A) (A) (A) (A) (A) (A) (A) (A) (A) (A) (A) (A)
                 (A) (A) (A) (A) (A) (A) (A) (A) (A) (A) (A) (A)
                 (A) (A) (A) (A) (A) (A) (A) (A) (A) (A) (A) (A)
                 (A) (A) (A) (A) (A) (A) (A) (A) (A) (A) (A) (A)
                 (A) (A) (A) (A) (A) (A) (A) (A) (A) (A) (A) (A)
                 (A) (A) (A) (A) (A) (A) (A) (A) (A) (A) (A) (A)
                 (A) (A) (A) (A) (A) (A) (A) (A) (A) (A) (A) (A)
                 (A) (A) (A) (A) (A) (A) (A) (A) (A) (A) (A)
 The electronic state is 1-A.
 Alpha  occ. eigenvalues --  -19.18917 -19.18469 -19.18269 -19.17700 -19.17512
 Alpha  occ. eigenvalues --  -19.16317 -19.16184 -19.16181 -19.14532 -19.13641
 Alpha  occ. eigenvalues --  -19.12987 -10.30692 -10.30225 -10.25981 -10.25311
 Alpha  occ. eigenvalues --  -10.25248 -10.25087 -10.24872 -10.24849 -10.24160
 Alpha  occ. eigenvalues --  -10.24105 -10.24025 -10.23931  -1.09924  -1.09312
 Alpha  occ. eigenvalues --   -1.05563  -1.04865  -1.03559  -1.03072  -1.02645
 Alpha  occ. eigenvalues --   -1.02216  -1.01265  -1.00161  -0.99429  -0.82277
 Alpha  occ. eigenvalues --   -0.80021  -0.79624  -0.78068  -0.71676  -0.69978
 Alpha  occ. eigenvalues --   -0.67278  -0.64523  -0.63496  -0.62114  -0.61349
 Alpha  occ. eigenvalues --   -0.60237  -0.56512  -0.55769  -0.55115  -0.54477
 Alpha  occ. eigenvalues --   -0.53759  -0.53705  -0.52708  -0.51495  -0.50956
 Alpha  occ. eigenvalues --   -0.50525  -0.49785  -0.49207  -0.48804  -0.46354
 Alpha  occ. eigenvalues --   -0.45822  -0.45186  -0.44210  -0.43802  -0.43136
 Alpha  occ. eigenvalues --   -0.42208  -0.41507  -0.40695  -0.40032  -0.39218
 Alpha  occ. eigenvalues --   -0.38866  -0.37811  -0.37053  -0.36480  -0.35427
 Alpha  occ. eigenvalues --   -0.34656  -0.34473  -0.33859  -0.33500  -0.33072
 Alpha  occ. eigenvalues --   -0.32807  -0.31624  -0.31130  -0.30351  -0.29613
 Alpha  occ. eigenvalues --   -0.29308  -0.28562  -0.28265  -0.27236  -0.26334
 Alpha  occ. eigenvalues --   -0.26294
 Alpha virt. eigenvalues --   -0.01812  -0.01685  -0.01614  -0.00087   0.00220
 Alpha virt. eigenvalues --    0.01030   0.02013   0.02308   0.02771   0.03496
 Alpha virt. eigenvalues --    0.03870   0.04400   0.04998   0.05382   0.05699
 Alpha virt. eigenvalues --    0.06079   0.06574   0.07642   0.08009   0.08168
 Alpha virt. eigenvalues --    0.08697   0.08906   0.09063   0.09508   0.10196
 Alpha virt. eigenvalues --    0.10681   0.11002   0.11930   0.12072   0.12200
 Alpha virt. eigenvalues --    0.12831   0.12847   0.13267   0.13744   0.13832
 Alpha virt. eigenvalues --    0.14087   0.14331   0.14903   0.15056   0.15376
 Alpha virt. eigenvalues --    0.15896   0.16558   0.16943   0.17115   0.17319
 Alpha virt. eigenvalues --    0.17658   0.17711   0.17784   0.18027   0.18512
 Alpha virt. eigenvalues --    0.19087   0.19251   0.19530   0.19883   0.20079
 Alpha virt. eigenvalues --    0.20735   0.20996   0.21210   0.21442   0.21665
 Alpha virt. eigenvalues --    0.21893   0.22523   0.22898   0.23086   0.23219
 Alpha virt. eigenvalues --    0.23663   0.23940   0.24110   0.24450   0.24910
 Alpha virt. eigenvalues --    0.25119   0.25395   0.25781   0.25971   0.26277
 Alpha virt. eigenvalues --    0.26567   0.26613   0.27004   0.27113   0.27329
 Alpha virt. eigenvalues --    0.27814   0.28105   0.28484   0.28648   0.28760
 Alpha virt. eigenvalues --    0.29200   0.29409   0.29933   0.30058   0.30678
 Alpha virt. eigenvalues --    0.30985   0.31251   0.31596   0.31887   0.32100
 Alpha virt. eigenvalues --    0.32962   0.33004   0.33401   0.33667   0.33728
 Alpha virt. eigenvalues --    0.34342   0.34804   0.35030   0.35501   0.35792
 Alpha virt. eigenvalues --    0.36240   0.36317   0.37117   0.37542   0.37632
 Alpha virt. eigenvalues --    0.38273   0.38337   0.39097   0.39231   0.39576
 Alpha virt. eigenvalues --    0.39793   0.40426   0.40760   0.41031   0.41616
 Alpha virt. eigenvalues --    0.42046   0.42583   0.42707   0.42946   0.44023
 Alpha virt. eigenvalues --    0.44286   0.44987   0.45617   0.46171   0.47171
 Alpha virt. eigenvalues --    0.47650   0.48125   0.48712   0.48943   0.49975
 Alpha virt. eigenvalues --    0.50393   0.51239   0.52802   0.57733   0.58299
 Alpha virt. eigenvalues --    0.59049   0.59912   0.60349   0.60917   0.61092
 Alpha virt. eigenvalues --    0.62361   0.63363   0.64563   0.65285   0.66222
 Alpha virt. eigenvalues --    0.66957   0.68080   0.68469   0.69307   0.69647
 Alpha virt. eigenvalues --    0.69837   0.70665   0.71711   0.72610   0.73027
 Alpha virt. eigenvalues --    0.73582   0.75076   0.75247   0.75646   0.76564
 Alpha virt. eigenvalues --    0.77203   0.78520   0.79168   0.80059   0.81459
 Alpha virt. eigenvalues --    0.81936   0.82482   0.83515   0.83734   0.85158
 Alpha virt. eigenvalues --    0.85647   0.87304   0.87928   0.88686   0.89408
 Alpha virt. eigenvalues --    0.89766   0.90127   0.90779   0.91627   0.92139
 Alpha virt. eigenvalues --    0.92329   0.92485   0.93119   0.93250   0.93707
 Alpha virt. eigenvalues --    0.94064   0.94636   0.95207   0.95643   0.96188
 Alpha virt. eigenvalues --    0.96414   0.97106   0.97613   0.98057   0.98152
 Alpha virt. eigenvalues --    0.98860   0.99372   1.00020   1.01256   1.02644
 Alpha virt. eigenvalues --    1.03511   1.03789   1.04139   1.05441   1.05587
 Alpha virt. eigenvalues --    1.06152   1.06321   1.07236   1.07622   1.07796
 Alpha virt. eigenvalues --    1.08346   1.08912   1.09435   1.10196   1.10878
 Alpha virt. eigenvalues --    1.11647   1.12176   1.12411   1.13333   1.13594
 Alpha virt. eigenvalues --    1.14334   1.14972   1.15549   1.16025   1.16333
 Alpha virt. eigenvalues --    1.16794   1.17916   1.18644   1.19066   1.19462
 Alpha virt. eigenvalues --    1.20071   1.20326   1.20871   1.22004   1.22707
 Alpha virt. eigenvalues --    1.22871   1.23620   1.24291   1.24451   1.24668
 Alpha virt. eigenvalues --    1.25429   1.26351   1.26973   1.27538   1.28008
 Alpha virt. eigenvalues --    1.28439   1.29181   1.29240   1.30086   1.30275
 Alpha virt. eigenvalues --    1.31378   1.32722   1.32848   1.33654   1.34284
 Alpha virt. eigenvalues --    1.34713   1.35306   1.35908   1.36366   1.36645
 Alpha virt. eigenvalues --    1.37586   1.38404   1.39302   1.39489   1.39832
 Alpha virt. eigenvalues --    1.40885   1.41210   1.41433   1.42902   1.44099
 Alpha virt. eigenvalues --    1.44777   1.45158   1.45979   1.46935   1.47173
 Alpha virt. eigenvalues --    1.47718   1.48240   1.48736   1.50245   1.51228
 Alpha virt. eigenvalues --    1.51574   1.52670   1.53818   1.54697   1.55182
 Alpha virt. eigenvalues --    1.56127   1.56335   1.57070   1.59253   1.59573
 Alpha virt. eigenvalues --    1.61070   1.61708   1.61919   1.62800   1.62930
 Alpha virt. eigenvalues --    1.64063   1.64673   1.65839   1.66562   1.67163
 Alpha virt. eigenvalues --    1.67563   1.68544   1.69718   1.71514   1.71863
 Alpha virt. eigenvalues --    1.72328   1.72753   1.74449   1.75438   1.76384
 Alpha virt. eigenvalues --    1.77544   1.77862   1.79166   1.79261   1.80677
 Alpha virt. eigenvalues --    1.81487   1.82701   1.84549   1.84695   1.85974
 Alpha virt. eigenvalues --    1.86558   1.87527   1.88633   1.89310   1.89996
 Alpha virt. eigenvalues --    1.91279   1.92270   1.93079   1.94892   1.95187
 Alpha virt. eigenvalues --    1.95748   1.96947   1.98500   1.99718   2.00883
 Alpha virt. eigenvalues --    2.01147   2.01960   2.03274   2.05198   2.05835
 Alpha virt. eigenvalues --    2.07001   2.08081   2.10653   2.11294   2.12799
 Alpha virt. eigenvalues --    2.13516   2.16420   2.17297   2.18286   2.19532
 Alpha virt. eigenvalues --    2.19709   2.21281   2.23499   2.25476   2.27078
 Alpha virt. eigenvalues --    2.27695   2.28481   2.30968   2.31523   2.34330
 Alpha virt. eigenvalues --    2.36253   2.36580   2.37878   2.41728   2.41909
 Alpha virt. eigenvalues --    2.44426   2.46523   2.47876   2.49072   2.50060
 Alpha virt. eigenvalues --    2.51549   2.53023   2.53419   2.53849   2.55556
 Alpha virt. eigenvalues --    2.55636   2.57035   2.58022   2.59666   2.59700
 Alpha virt. eigenvalues --    2.60659   2.62460   2.63651   2.64531   2.66106
 Alpha virt. eigenvalues --    2.66961   2.67544   2.68942   2.70778   2.72578
 Alpha virt. eigenvalues --    2.73451   2.74367   2.76188   2.77236   2.79064
 Alpha virt. eigenvalues --    2.79700   2.80815   2.81337   2.83126   2.83789
 Alpha virt. eigenvalues --    2.85573   2.85688   2.86462   2.87218   2.88424
 Alpha virt. eigenvalues --    2.88994   2.90105   2.91574   2.92620   2.93764
 Alpha virt. eigenvalues --    2.94552   2.96552   2.97129   2.97491   2.98198
 Alpha virt. eigenvalues --    2.99647   3.00360   3.01410   3.02121   3.02898
 Alpha virt. eigenvalues --    3.03793   3.04545   3.05836   3.05981   3.07486
 Alpha virt. eigenvalues --    3.09236   3.09793   3.10128   3.10775   3.11512
 Alpha virt. eigenvalues --    3.13760   3.14245   3.15679   3.17641   3.18151
 Alpha virt. eigenvalues --    3.18841   3.20850   3.21740   3.22615   3.24058
 Alpha virt. eigenvalues --    3.25342   3.25805   3.26077   3.26638   3.28507
 Alpha virt. eigenvalues --    3.28980   3.29754   3.31035   3.32023   3.32825
 Alpha virt. eigenvalues --    3.34499   3.36393   3.38198   3.38851   3.38994
 Alpha virt. eigenvalues --    3.40445   3.41107   3.42008   3.43722   3.44246
 Alpha virt. eigenvalues --    3.45607   3.46868   3.49281   3.49716   3.52329
 Alpha virt. eigenvalues --    3.54321   3.56064   3.57581   3.57821   3.60799
 Alpha virt. eigenvalues --    3.60875   3.64134   3.65468   3.66201   3.67382
 Alpha virt. eigenvalues --    3.68432   3.69884   3.71893   3.72703   3.73965
 Alpha virt. eigenvalues --    3.75639   3.77645   3.78318   3.79390   3.81326
 Alpha virt. eigenvalues --    3.82121   3.83083   3.83894   3.85578   3.86915
 Alpha virt. eigenvalues --    3.87434   3.87830   3.88934   3.89918   3.92077
 Alpha virt. eigenvalues --    3.93366   3.95352   3.97627   4.00015   4.02103
 Alpha virt. eigenvalues --    4.03528   4.05436   4.09353   4.09575   4.14229
 Alpha virt. eigenvalues --    4.14613   4.17459   4.18316   4.19633   4.20585
 Alpha virt. eigenvalues --    4.21580   4.22702   4.24346   4.25520   4.26563
 Alpha virt. eigenvalues --    4.27680   4.28963   4.29487   4.30168   4.30899
 Alpha virt. eigenvalues --    4.31830   4.32069   4.34075   4.34465   4.35170
 Alpha virt. eigenvalues --    4.36120   4.36907   4.37186   4.39237   4.39616
 Alpha virt. eigenvalues --    4.40431   4.40806   4.41663   4.41983   4.42567
 Alpha virt. eigenvalues --    4.44290   4.45361   4.45726   4.46680   4.47687
 Alpha virt. eigenvalues --    4.47934   4.48410   4.49431   4.50440   4.51445
 Alpha virt. eigenvalues --    4.51946   4.52488   4.53144   4.54933   4.55170
 Alpha virt. eigenvalues --    4.55772   4.56295   4.57022   4.57717   4.57874
 Alpha virt. eigenvalues --    4.59448   4.60514   4.60931   4.61697   4.62290
 Alpha virt. eigenvalues --    4.63274   4.63805   4.64346   4.65178   4.65516
 Alpha virt. eigenvalues --    4.66076   4.67042   4.67585   4.68212   4.68961
 Alpha virt. eigenvalues --    4.69469   4.70934   4.71524   4.71707   4.72304
 Alpha virt. eigenvalues --    4.72560   4.73498   4.74601   4.75147   4.75312
 Alpha virt. eigenvalues --    4.75625   4.75902   4.77592   4.78883   4.79683
 Alpha virt. eigenvalues --    4.79918   4.80926   4.81593   4.81761   4.82154
 Alpha virt. eigenvalues --    4.83405   4.84208   4.84811   4.85034   4.85438
 Alpha virt. eigenvalues --    4.87049   4.88913   4.90083   4.90314   4.91009
 Alpha virt. eigenvalues --    4.92329   4.93224   4.93356   4.94224   4.95841
 Alpha virt. eigenvalues --    4.96343   4.97734   4.99135   5.01165   5.01424
 Alpha virt. eigenvalues --    5.03233   5.03983   5.07401   5.07850   5.09368
 Alpha virt. eigenvalues --    5.11282   5.13573   5.14964   5.17387   5.17690
 Alpha virt. eigenvalues --    5.18805   5.19478   5.20698   5.21717   5.22770
 Alpha virt. eigenvalues --    5.24937   5.25327   5.27124   5.27575   5.29071
 Alpha virt. eigenvalues --    5.29260   5.31405   5.32231   5.32768   5.33605
 Alpha virt. eigenvalues --    5.34441   5.37989   5.38362   5.39396   5.40144
 Alpha virt. eigenvalues --    5.41299   5.41763   5.42264   5.42926   5.43629
 Alpha virt. eigenvalues --    5.44023   5.44960   5.45730   5.46626   5.47056
 Alpha virt. eigenvalues --    5.48437   5.49076   5.49893   5.50758   5.52180
 Alpha virt. eigenvalues --    5.54040   5.55138   5.56568   5.57021   5.57706
 Alpha virt. eigenvalues --    5.60351   5.60693   5.61933   5.63681   5.66834
 Alpha virt. eigenvalues --    5.68273   5.69160   5.70412   5.71704   5.75830
 Alpha virt. eigenvalues --    5.78383   5.79165   5.81441   5.82673   5.84130
 Alpha virt. eigenvalues --    5.85416   5.86333   5.87976   5.89382   5.90736
 Alpha virt. eigenvalues --    5.91389   5.92796   5.93403   5.94204   5.94821
 Alpha virt. eigenvalues --    5.95413   5.95782   5.96324   5.96751   5.99956
 Alpha virt. eigenvalues --    6.01711   6.02448   6.04474   6.06160   6.06481
 Alpha virt. eigenvalues --    6.07205   6.07791   6.09943   6.11554   6.12632
 Alpha virt. eigenvalues --    6.15450   6.16594   6.18363   6.19203   6.20514
 Alpha virt. eigenvalues --    6.24565   6.27202   6.27974   6.32927   6.36070
 Alpha virt. eigenvalues --    6.55350   6.65303   6.98321   7.04466   7.09475
 Alpha virt. eigenvalues --    7.16233   7.17345   7.27340   7.29948   7.30613
 Alpha virt. eigenvalues --    7.32473   7.38325   7.45764   7.57440   7.69940
 Alpha virt. eigenvalues --    7.86688   8.16503  12.04227  12.11292  12.25906
 Alpha virt. eigenvalues --   12.28721  12.44650  12.56936  12.81459  12.89295
 Alpha virt. eigenvalues --   12.97569  13.12906  13.28822  13.34250  13.42841
 Alpha virt. eigenvalues --   13.48155  13.51870  13.59642  13.63781  13.66292
 Alpha virt. eigenvalues --   13.70414  13.74780  13.98433  14.08407  14.23457
          Condensed to atoms (all electrons):
              1          2          3          4          5          6
     1  O    8.084761   0.262972  -0.082295  -0.015200   0.018394   0.028682
     2  C    0.262972   7.232840  -0.097617   0.023330  -0.061370  -1.132811
     3  C   -0.082295  -0.097617   6.462929   0.211444   0.003910   0.209185
     4  O   -0.015200   0.023330   0.211444   8.099877   0.240772  -0.105794
     5  H    0.018394  -0.061370   0.003910   0.240772   0.415259   0.019046
     6  C    0.028682  -1.132811   0.209185  -0.105794   0.019046   8.893986
     7  O   -0.000138   0.017206  -0.123004   0.006931  -0.000410   0.333870
     8  H    0.000005  -0.002664   0.013561  -0.000237   0.000010   0.005564
     9  C   -0.022483  -0.192363  -0.305220   0.007092  -0.003346   0.376636
    10  O   -0.048332   0.015781   0.002145  -0.000099  -0.000016  -0.002086
    11  H    0.002089  -0.001908  -0.001137   0.000001   0.000000  -0.000029
    12  C   -0.056446  -0.947721  -0.347534   0.026372   0.011645   0.662003
    13  O    0.002399  -0.024615  -0.024537  -0.002360   0.000014  -0.040862
    14  C   -0.012356   0.577915   0.022337  -0.001656   0.008907  -2.750852
    15  O    0.000098  -0.012515   0.002759   0.000537   0.000005  -0.029699
    16  C    0.001855   0.106558  -0.052161  -0.003635   0.000580  -0.423782
    17  C   -0.000166  -0.065114   0.024618   0.000184   0.000030   0.150883
    18  O    0.000018   0.007268  -0.000803  -0.000010   0.000000   0.004137
    19  H   -0.000037  -0.002342   0.003517   0.000004   0.000000   0.003563
    20  C    0.000062   0.008775  -0.008622  -0.000064   0.000001   0.065083
    21  O    0.000000   0.000057  -0.000056   0.000000   0.000000  -0.000330
    22  H    0.000000  -0.000002   0.000002   0.000000   0.000000  -0.000020
    23  C    0.000005   0.017288  -0.024169  -0.000091  -0.000010  -0.157465
    24  O    0.000007   0.000025  -0.004135   0.000031  -0.000002  -0.026751
    25  H    0.000000   0.000073   0.001905   0.000003   0.000000  -0.000595
    26  C   -0.000024  -0.018194  -0.006133   0.000439   0.000006  -0.043180
    27  O    0.000000   0.000018   0.000131   0.000001   0.000000   0.001951
    28  C    0.000003  -0.000020   0.001453   0.000009   0.000000  -0.018904
    29  O    0.000000   0.000002   0.000007   0.000000   0.000000  -0.000262
    30  H    0.000000   0.000000   0.000000   0.000000   0.000000   0.000009
    31  H    0.000000   0.000007   0.000002   0.000000   0.000000  -0.000157
    32  H    0.000000   0.000153   0.000028   0.000000   0.000000   0.000907
    33  H    0.000000   0.000020   0.000528   0.000000   0.000000   0.010579
    34  H   -0.000001  -0.002749   0.004746   0.000002   0.000000   0.031899
    35  H    0.000000   0.000004   0.000256   0.000000   0.000000  -0.005734
    36  H    0.000000  -0.000009   0.000038   0.000000   0.000000   0.002537
    37  H    0.000000   0.000236   0.000031  -0.000001   0.000000  -0.011438
    38  H    0.000100  -0.025692  -0.050141   0.000081   0.000003   0.074878
    39  H    0.000002  -0.008789  -0.128969   0.003413  -0.000176   0.427691
    40  H    0.000441  -0.014756   0.282832  -0.016710  -0.002536  -0.162486
    41  H   -0.012123   0.345887  -0.053744   0.002807  -0.000232  -0.038100
    42  H    0.274406   0.049134  -0.029396   0.000583  -0.001945   0.002222
    43  H    0.005736   0.063615  -0.058663   0.000993   0.000002  -0.052393
    44  H    0.003037  -0.030086   0.001922  -0.000025   0.000000   0.008848
    45  H   -0.001498  -0.001630  -0.000773   0.000014   0.000000  -0.001935
              7          8          9         10         11         12
     1  O   -0.000138   0.000005  -0.022483  -0.048332   0.002089  -0.056446
     2  C    0.017206  -0.002664  -0.192363   0.015781  -0.001908  -0.947721
     3  C   -0.123004   0.013561  -0.305220   0.002145  -0.001137  -0.347534
     4  O    0.006931  -0.000237   0.007092  -0.000099   0.000001   0.026372
     5  H   -0.000410   0.000010  -0.003346  -0.000016   0.000000   0.011645
     6  C    0.333870   0.005564   0.376636  -0.002086  -0.000029   0.662003
     7  O    8.115876   0.258301   0.000822  -0.000005   0.000000   0.006397
     8  H    0.258301   0.324978   0.000004   0.000000   0.000000  -0.002745
     9  C    0.000822   0.000004   8.000123  -0.021229  -0.014714  -1.005188
    10  O   -0.000005   0.000000  -0.021229   8.162688   0.227674   0.135115
    11  H    0.000000   0.000000  -0.014714   0.227674   0.439873   0.019668
    12  C    0.006397  -0.002745  -1.005188   0.135115   0.019668   9.234305
    13  O    0.002084  -0.000386  -0.085993   0.003369  -0.000539   0.058725
    14  C   -0.068770  -0.056439  -1.265687   0.016647  -0.004139  -1.379968
    15  O    0.008683   0.008909  -0.000216   0.000063   0.000001  -0.033974
    16  C    0.034954   0.024264  -0.159258  -0.000499  -0.000209  -0.154248
    17  C    0.000814   0.000863  -0.017738  -0.000253   0.000084  -0.142160
    18  O    0.000009  -0.000021  -0.005862  -0.000212   0.000005   0.002336
    19  H   -0.000060  -0.000003   0.003803   0.000053  -0.000002  -0.013633
    20  C    0.001369   0.000660   0.003414   0.000012   0.000003  -0.020139
    21  O   -0.000004   0.000000   0.000444   0.000000   0.000000  -0.000262
    22  H    0.000000   0.000000  -0.000002   0.000000   0.000000   0.000014
    23  C    0.019050   0.004014  -0.002353  -0.000016   0.000000  -0.005889
    24  O   -0.041691  -0.017291  -0.000453  -0.000001   0.000000   0.000896
    25  H    0.001857  -0.002870  -0.000024   0.000000   0.000000  -0.000606
    26  C   -0.036371  -0.015609   0.007852   0.000013   0.000000   0.044133
    27  O    0.000035  -0.000075   0.000002   0.000000   0.000000  -0.000335
    28  C    0.000185  -0.000112  -0.002055   0.000000   0.000000   0.000718
    29  O   -0.000003   0.000000  -0.000011   0.000000   0.000000   0.000101
    30  H    0.000000   0.000000   0.000000   0.000000   0.000000  -0.000002
    31  H    0.000000   0.000000  -0.000004   0.000000   0.000000   0.000038
    32  H    0.000001   0.000000  -0.000188   0.000000   0.000000   0.000185
    33  H   -0.000013   0.000000  -0.000239   0.000000   0.000000  -0.001780
    34  H   -0.001608  -0.000089   0.000306   0.000002   0.000000   0.001561
    35  H   -0.000077  -0.000005   0.000069   0.000000   0.000000   0.000661
    36  H   -0.000823   0.000378   0.000002   0.000000   0.000000   0.000158
    37  H    0.002186  -0.000021  -0.000002   0.000000   0.000000   0.000043
    38  H   -0.000247  -0.000127   0.045174   0.000182   0.000000   0.103574
    39  H   -0.032550  -0.003184   0.022365   0.000018   0.000000   0.094169
    40  H    0.005940  -0.000108   0.009010  -0.000455   0.000000   0.053736
    41  H    0.000572   0.000002  -0.083155  -0.001728  -0.000009  -0.031741
    42  H   -0.000009   0.000000   0.002456   0.002350  -0.000060  -0.035592
    43  H    0.000473   0.000004  -0.015394  -0.000883  -0.000240   0.096686
    44  H    0.000002   0.000000   0.505350  -0.042356  -0.004572  -0.137125
    45  H   -0.000004   0.000000   0.433200  -0.024563  -0.005787  -0.050139
             13         14         15         16         17         18
     1  O    0.002399  -0.012356   0.000098   0.001855  -0.000166   0.000018
     2  C   -0.024615   0.577915  -0.012515   0.106558  -0.065114   0.007268
     3  C   -0.024537   0.022337   0.002759  -0.052161   0.024618  -0.000803
     4  O   -0.002360  -0.001656   0.000537  -0.003635   0.000184  -0.000010
     5  H    0.000014   0.008907   0.000005   0.000580   0.000030   0.000000
     6  C   -0.040862  -2.750852  -0.029699  -0.423782   0.150883   0.004137
     7  O    0.002084  -0.068770   0.008683   0.034954   0.000814   0.000009
     8  H   -0.000386  -0.056439   0.008909   0.024264   0.000863  -0.000021
     9  C   -0.085993  -1.265687  -0.000216  -0.159258  -0.017738  -0.005862
    10  O    0.003369   0.016647   0.000063  -0.000499  -0.000253  -0.000212
    11  H   -0.000539  -0.004139   0.000001  -0.000209   0.000084   0.000005
    12  C    0.058725  -1.379968  -0.033974  -0.154248  -0.142160   0.002336
    13  O    7.897722   0.367482  -0.015676   0.005451   0.027553  -0.017819
    14  C    0.367482  10.827588   0.191141  -0.789930  -0.037252   0.008537
    15  O   -0.015676   0.191141   7.817926   0.286174   0.003067  -0.006995
    16  C    0.005451  -0.789930   0.286174  10.788043  -2.130050  -0.024817
    17  C    0.027553  -0.037252   0.003067  -2.130050   8.213036   0.300455
    18  O   -0.017819   0.008537  -0.006995  -0.024817   0.300455   8.092860
    19  H    0.027951  -0.006318   0.014854  -0.070787   0.026723   0.239891
    20  C   -0.017920  -0.129589   0.008716  -0.679239   0.064945  -0.087481
    21  O   -0.000098   0.000579  -0.000047   0.035089  -0.164164   0.008880
    22  H    0.000001  -0.000002   0.000005  -0.007998   0.029817  -0.000496
    23  C    0.004925   0.158743  -0.007517   0.442025  -0.415349   0.007983
    24  O   -0.000518   0.096826  -0.032932  -0.037115   0.004011  -0.000051
    25  H   -0.000017  -0.009354   0.002728  -0.004297  -0.000828   0.000000
    26  C   -0.022759  -0.364423  -0.103947  -2.058231   0.053585  -0.007564
    27  O    0.000154   0.010726   0.003468   0.077354   0.002328  -0.001031
    28  C    0.001381  -0.019794   0.006630   0.427813  -0.003722  -0.008693
    29  O    0.000026   0.001170  -0.000051   0.002140  -0.016647   0.000207
    30  H    0.000000  -0.000064  -0.000002  -0.002540   0.006581  -0.000014
    31  H    0.000013  -0.000059   0.000266   0.035065  -0.023652   0.000172
    32  H    0.000035  -0.011434   0.000472   0.052345  -0.137291   0.004271
    33  H   -0.001515   0.002563  -0.004400  -0.122382   0.316617  -0.029898
    34  H   -0.002359  -0.037536  -0.027072   0.118495   0.068200  -0.002333
    35  H   -0.000213   0.036747  -0.001043   0.037391  -0.056973   0.000017
    36  H    0.000040   0.008136   0.000230   0.008479   0.003906   0.000012
    37  H    0.000032   0.016337   0.004186   0.085256  -0.013003   0.000097
    38  H   -0.036769   0.157426  -0.024658  -0.005690  -0.002524  -0.001947
    39  H    0.005093  -0.088953  -0.011492  -0.030549  -0.000027   0.000131
    40  H    0.003558   0.081178   0.000335  -0.009442   0.001506   0.000057
    41  H    0.003479   0.130282  -0.000597  -0.002092   0.001332   0.000031
    42  H   -0.000727   0.000770  -0.000002   0.000193  -0.000055  -0.000001
    43  H   -0.033738   0.220915   0.000354   0.005281   0.008843  -0.000745
    44  H   -0.005561   0.012731  -0.000230  -0.003706   0.001684  -0.000103
    45  H   -0.003040  -0.013659  -0.000185   0.005544  -0.001703   0.000064
             19         20         21         22         23         24
     1  O   -0.000037   0.000062   0.000000   0.000000   0.000005   0.000007
     2  C   -0.002342   0.008775   0.000057  -0.000002   0.017288   0.000025
     3  C    0.003517  -0.008622  -0.000056   0.000002  -0.024169  -0.004135
     4  O    0.000004  -0.000064   0.000000   0.000000  -0.000091   0.000031
     5  H    0.000000   0.000001   0.000000   0.000000  -0.000010  -0.000002
     6  C    0.003563   0.065083  -0.000330  -0.000020  -0.157465  -0.026751
     7  O   -0.000060   0.001369  -0.000004   0.000000   0.019050  -0.041691
     8  H   -0.000003   0.000660   0.000000   0.000000   0.004014  -0.017291
     9  C    0.003803   0.003414   0.000444  -0.000002  -0.002353  -0.000453
    10  O    0.000053   0.000012   0.000000   0.000000  -0.000016  -0.000001
    11  H   -0.000002   0.000003   0.000000   0.000000   0.000000   0.000000
    12  C   -0.013633  -0.020139  -0.000262   0.000014  -0.005889   0.000896
    13  O    0.027951  -0.017920  -0.000098   0.000001   0.004925  -0.000518
    14  C   -0.006318  -0.129589   0.000579  -0.000002   0.158743   0.096826
    15  O    0.014854   0.008716  -0.000047   0.000005  -0.007517  -0.032932
    16  C   -0.070787  -0.679239   0.035089  -0.007998   0.442025  -0.037115
    17  C    0.026723   0.064945  -0.164164   0.029817  -0.415349   0.004011
    18  O    0.239891  -0.087481   0.008880  -0.000496   0.007983  -0.000051
    19  H    0.348882   0.015156  -0.000499   0.000011  -0.004132   0.000016
    20  C    0.015156   6.749013   0.264646  -0.021187   0.035887  -0.005133
    21  O   -0.000499   0.264646   8.093593   0.249304   0.001655   0.000002
    22  H    0.000011  -0.021187   0.249304   0.409451  -0.000146   0.000000
    23  C   -0.004132   0.035887   0.001655  -0.000146   6.190045   0.032425
    24  O    0.000016  -0.005133   0.000002   0.000000   0.032425   8.303684
    25  H    0.000000   0.000575   0.000000   0.000000  -0.024069   0.253862
    26  C    0.005468   0.231216  -0.000644   0.002367  -0.841173   0.074090
    27  O    0.000071  -0.116185   0.001267  -0.000518  -0.103531   0.003318
    28  C    0.002383  -0.537012  -0.004100  -0.013045  -0.071392   0.003558
    29  O    0.000001  -0.041351   0.006736   0.007297   0.010742  -0.000036
    30  H    0.000000  -0.021511  -0.002137  -0.000690  -0.000127  -0.000001
    31  H    0.000002  -0.090833   0.004622  -0.000163   0.001126   0.000041
    32  H   -0.000067   0.318923  -0.020440  -0.006536   0.007342   0.000026
    33  H   -0.002095   0.005519  -0.003542  -0.000156   0.005551   0.000003
    34  H    0.000457   0.035930  -0.000469   0.000009  -0.042060   0.000844
    35  H    0.000021  -0.019444   0.000134   0.000002   0.076611   0.001549
    36  H    0.000000  -0.000477  -0.000010   0.000000   0.388697  -0.017536
    37  H   -0.000001  -0.002085   0.000007   0.000000   0.581513  -0.062168
    38  H   -0.000153   0.009190   0.000010   0.000000   0.001594  -0.000084
    39  H   -0.000025   0.000219   0.000000   0.000000   0.003348   0.000432
    40  H   -0.000003  -0.000043   0.000000   0.000000   0.000483   0.000063
    41  H   -0.000018   0.000006   0.000000   0.000000   0.000094   0.000009
    42  H    0.000000   0.000000   0.000000   0.000000   0.000003   0.000000
    43  H    0.000040   0.000723  -0.000001   0.000000   0.000315  -0.000003
    44  H   -0.000008   0.000070   0.000000   0.000000  -0.000008   0.000000
    45  H    0.000779  -0.000423   0.000001   0.000000   0.000010   0.000000
             25         26         27         28         29         30
     1  O    0.000000  -0.000024   0.000000   0.000003   0.000000   0.000000
     2  C    0.000073  -0.018194   0.000018  -0.000020   0.000002   0.000000
     3  C    0.001905  -0.006133   0.000131   0.001453   0.000007   0.000000
     4  O    0.000003   0.000439   0.000001   0.000009   0.000000   0.000000
     5  H    0.000000   0.000006   0.000000   0.000000   0.000000   0.000000
     6  C   -0.000595  -0.043180   0.001951  -0.018904  -0.000262   0.000009
     7  O    0.001857  -0.036371   0.000035   0.000185  -0.000003   0.000000
     8  H   -0.002870  -0.015609  -0.000075  -0.000112   0.000000   0.000000
     9  C   -0.000024   0.007852   0.000002  -0.002055  -0.000011   0.000000
    10  O    0.000000   0.000013   0.000000   0.000000   0.000000   0.000000
    11  H    0.000000   0.000000   0.000000   0.000000   0.000000   0.000000
    12  C   -0.000606   0.044133  -0.000335   0.000718   0.000101  -0.000002
    13  O   -0.000017  -0.022759   0.000154   0.001381   0.000026   0.000000
    14  C   -0.009354  -0.364423   0.010726  -0.019794   0.001170  -0.000064
    15  O    0.002728  -0.103947   0.003468   0.006630  -0.000051  -0.000002
    16  C   -0.004297  -2.058231   0.077354   0.427813   0.002140  -0.002540
    17  C   -0.000828   0.053585   0.002328  -0.003722  -0.016647   0.006581
    18  O    0.000000  -0.007564  -0.001031  -0.008693   0.000207  -0.000014
    19  H    0.000000   0.005468   0.000071   0.002383   0.000001   0.000000
    20  C    0.000575   0.231216  -0.116185  -0.537012  -0.041351  -0.021511
    21  O    0.000000  -0.000644   0.001267  -0.004100   0.006736  -0.002137
    22  H    0.000000   0.002367  -0.000518  -0.013045   0.007297  -0.000690
    23  C   -0.024069  -0.841173  -0.103531  -0.071392   0.010742  -0.000127
    24  O    0.253862   0.074090   0.003318   0.003558  -0.000036  -0.000001
    25  H    0.390606   0.024145  -0.000813  -0.000564  -0.000004   0.000000
    26  C    0.024145   9.729207   0.095708  -0.503529  -0.023242  -0.001050
    27  O   -0.000813   0.095708   7.897204   0.255143  -0.061505   0.001599
    28  C   -0.000564  -0.503529   0.255143   5.733582   0.309723   0.007206
    29  O   -0.000004  -0.023242  -0.061505   0.309723   8.023524   0.267888
    30  H    0.000000  -0.001050   0.001599   0.007206   0.267888   0.410629
    31  H    0.000000   0.008261  -0.041891   0.401059  -0.018802  -0.008502
    32  H    0.000000   0.024676  -0.001054   0.012358  -0.002384   0.000114
    33  H    0.000000   0.074548  -0.000138  -0.032625   0.000463   0.000013
    34  H   -0.000035   0.078357   0.004192   0.004301  -0.000484   0.000003
    35  H   -0.000139   0.161484  -0.021460   0.042660  -0.000933   0.000020
    36  H   -0.011210  -0.050742  -0.006927  -0.002782  -0.000175   0.000000
    37  H    0.001071  -0.311614   0.003376   0.005520  -0.000136   0.000000
    38  H    0.000009   0.011847   0.000256  -0.000248  -0.000001   0.000000
    39  H   -0.000005  -0.006428   0.000000  -0.000012   0.000000   0.000000
    40  H    0.000000  -0.001145   0.000000  -0.000001   0.000000   0.000000
    41  H    0.000000  -0.000318   0.000000   0.000000   0.000000   0.000000
    42  H    0.000000  -0.000002   0.000000   0.000000   0.000000   0.000000
    43  H    0.000000  -0.001396   0.000001   0.000001   0.000000   0.000000
    44  H    0.000000  -0.000241   0.000000  -0.000001   0.000000   0.000000
    45  H    0.000000   0.000364   0.000000   0.000038   0.000000   0.000000
             31         32         33         34         35         36
     1  O    0.000000   0.000000   0.000000  -0.000001   0.000000   0.000000
     2  C    0.000007   0.000153   0.000020  -0.002749   0.000004  -0.000009
     3  C    0.000002   0.000028   0.000528   0.004746   0.000256   0.000038
     4  O    0.000000   0.000000   0.000000   0.000002   0.000000   0.000000
     5  H    0.000000   0.000000   0.000000   0.000000   0.000000   0.000000
     6  C   -0.000157   0.000907   0.010579   0.031899  -0.005734   0.002537
     7  O    0.000000   0.000001  -0.000013  -0.001608  -0.000077  -0.000823
     8  H    0.000000   0.000000   0.000000  -0.000089  -0.000005   0.000378
     9  C   -0.000004  -0.000188  -0.000239   0.000306   0.000069   0.000002
    10  O    0.000000   0.000000   0.000000   0.000002   0.000000   0.000000
    11  H    0.000000   0.000000   0.000000   0.000000   0.000000   0.000000
    12  C    0.000038   0.000185  -0.001780   0.001561   0.000661   0.000158
    13  O    0.000013   0.000035  -0.001515  -0.002359  -0.000213   0.000040
    14  C   -0.000059  -0.011434   0.002563  -0.037536   0.036747   0.008136
    15  O    0.000266   0.000472  -0.004400  -0.027072  -0.001043   0.000230
    16  C    0.035065   0.052345  -0.122382   0.118495   0.037391   0.008479
    17  C   -0.023652  -0.137291   0.316617   0.068200  -0.056973   0.003906
    18  O    0.000172   0.004271  -0.029898  -0.002333   0.000017   0.000012
    19  H    0.000002  -0.000067  -0.002095   0.000457   0.000021   0.000000
    20  C   -0.090833   0.318923   0.005519   0.035930  -0.019444  -0.000477
    21  O    0.004622  -0.020440  -0.003542  -0.000469   0.000134  -0.000010
    22  H   -0.000163  -0.006536  -0.000156   0.000009   0.000002   0.000000
    23  C    0.001126   0.007342   0.005551  -0.042060   0.076611   0.388697
    24  O    0.000041   0.000026   0.000003   0.000844   0.001549  -0.017536
    25  H    0.000000   0.000000   0.000000  -0.000035  -0.000139  -0.011210
    26  C    0.008261   0.024676   0.074548   0.078357   0.161484  -0.050742
    27  O   -0.041891  -0.001054  -0.000138   0.004192  -0.021460  -0.006927
    28  C    0.401059   0.012358  -0.032625   0.004301   0.042660  -0.002782
    29  O   -0.018802  -0.002384   0.000463  -0.000484  -0.000933  -0.000175
    30  H   -0.008502   0.000114   0.000013   0.000003   0.000020   0.000000
    31  H    0.585469   0.005485   0.002494  -0.000033   0.002469  -0.000042
    32  H    0.005485   0.606675   0.007477   0.002742  -0.000065  -0.000001
    33  H    0.002494   0.007477   0.648844   0.007296   0.002043   0.000005
    34  H   -0.000033   0.002742   0.007296   0.625978   0.005740   0.000380
    35  H    0.002469  -0.000065   0.002043   0.005740   0.595829  -0.002084
    36  H   -0.000042  -0.000001   0.000005   0.000380  -0.002084   0.572852
    37  H   -0.000011  -0.000055  -0.000016   0.004173   0.005653  -0.039090
    38  H    0.000000  -0.000005  -0.000025   0.007370  -0.000001  -0.000001
    39  H    0.000000   0.000000  -0.000003  -0.000011   0.000000   0.000000
    40  H    0.000000   0.000000   0.000000  -0.000002   0.000000   0.000000
    41  H    0.000000   0.000000   0.000000   0.000000   0.000000   0.000000
    42  H    0.000000   0.000000   0.000000   0.000000   0.000000   0.000000
    43  H    0.000000   0.000000  -0.000001  -0.000024   0.000000   0.000000
    44  H    0.000000   0.000000   0.000000   0.000000   0.000000   0.000000
    45  H    0.000000   0.000000   0.000000  -0.000001   0.000000   0.000000
             37         38         39         40         41         42
     1  O    0.000000   0.000100   0.000002   0.000441  -0.012123   0.274406
[...]
 012282,0.00014573,-0.00010722,-0.00141257,-0.00127224,-0.00075587,-0.0
 0017690,0.00039872,-0.00142421,-0.00007256,0.00014129,0.00032673,-0.00
 003738,-0.00003839,-0.00016141,-0.00003638,-0.00001794,0.00005728,0.00
 002472,0.00002049,0.00000861,-0.00001280,0.00003611,-0.00009749,0.0000
 2630,-0.00008674,0.00012981,-0.00000608,-0.00001425,0.00001037,-0.0000
 0400,0.00001481,-0.00001341,0.00000082,-0.00000106,0.00000136,-0.00000
 761,-0.00001000,0.00001518,-0.00004225,-0.00000636,-0.00008115,0.00001
 309,0.00000880,0.00000535,0.00001506,0.00000751,0.00001267,-0.00000774
 ,0.00000841,-0.00002427,0.00000976,-0.00000846,0.00002017,0.00000283,0
 .00000120,-0.00001545,0.00000148,-0.00000007,0.00000201,-0.00000244,0.
 00000043,-0.00000252,-0.00000196,0.00000058,0.00000073,-0.00000760,-0.
 00000499,-0.00000586,-0.00000039,0.00000129,-0.00000100,-0.00000303,-0
 .00000115,-0.00000344,0.00000202,-0.00000072,-0.00000604,-0.00000160,0
 .00000171,0.00000336,0.00000795,-0.00000762,-0.00002641,-0.00002593,0.
 00001407,0.00008731,0.00038637,0.00002706,-0.00008772,0.00098956,-0.00
 104121,-0.00241129,0.24778509,0.06879033,-0.02583304,-0.09579712,0.008
 24902,-0.00752245,-0.00702660,-0.00200606,-0.00115359,-0.00629457,-0.0
 0084221,0.00034254,0.00089434,0.00133150,-0.00152000,-0.00053256,0.000
 58201,-0.00106606,0.00051752,-0.00021450,-0.00027580,-0.00041048,0.000
 07242,-0.00010250,-0.00003487,0.00062325,0.00093910,0.00200256,0.00030
 086,-0.00010624,-0.00200664,-0.00004270,-0.00010762,-0.00009103,0.0002
 1518,0.00116683,0.00185767,0.00055350,-0.00079761,0.00133134,0.0000571
 2,-0.00015577,-0.00009095,0.00001176,0.00000459,0.00016779,0.00002753,
 0.00003029,-0.00010118,-0.00000557,0.00003264,0.00005103,-0.00000551,-
 0.00012889,0.00002624,0.00000260,0.00017817,-0.00010469,0.00000289,0.0
 0002561,-0.00002162,-0.00000266,-0.00004695,0.00001210,0.00000503,0.00
 000920,0.00000422,0.00000852,0.00001789,-0.00004158,-0.00001943,-0.000
 02335,0.00002574,0.00000143,0.00000662,-0.00001350,0.00000610,-0.00000
 149,-0.00001625,0.00000318,-0.00004105,0.00004012,-0.00000645,0.000047
 97,-0.00002634,-0.00000731,-0.00001592,0.00001619,0.00000004,0.0000044
 5,-0.00000173,0.00000161,-0.00000299,0.00000122,0.00000142,0.00000051,
 0.00000200,-0.00000557,-0.00000380,-0.00000593,-0.00000447,-0.00000019
 ,0.00000502,-0.00000068,0.00000121,0.00000106,0.00000077,-0.00000019,0
 .00000416,-0.00000099,-0.00000284,0.00000010,-0.00000208,0.00001804,0.
 00000052,-0.00015268,0.00000085,-0.00012157,-0.00042852,0.00032695,0.0
 0034163,0.00027429,0.00138781,0.00087041,-0.07735356,0.03472849,0.2067
 5258,-0.09795133,-0.28403486,0.02369901,-0.00552595,-0.02341714,-0.001
 97105,-0.00019340,-0.00257200,0.00015290,0.00091182,0.00019340,-0.0000
 9093,-0.00053794,0.00061507,0.00033378,-0.00044523,0.00021521,-0.00009
 682,0.00019418,0.00009049,-0.00001719,-0.00006518,-0.00009217,-0.00009
 564,0.00030951,-0.00102137,-0.00030164,-0.00088420,0.00038328,-0.00000
 525,-0.00013868,0.00045483,-0.00154837,-0.00205228,-0.00275065,-0.0003
 3062,0.00090518,-0.00041993,-0.00002146,-0.00010901,-0.00018213,0.0000
 5816,0.00000052,0.00030278,0.00004745,0.00005053,-0.00013586,-0.000030
 95,-0.00006193,-0.00006443,0.00002266,0.00004145,0.00015840,-0.0000349
 5,-0.00000973,-0.00012641,0.00001357,0.00003811,-0.00003642,0.00000660
 ,-0.00003882,0.00004986,-0.00000034,0.00000534,-0.00000976,0.00000508,
 -0.00000653,-0.00002221,0.00003124,0.00002764,0.00007086,-0.00001220,-
 0.00001677,-0.00000626,-0.00000765,-0.00002008,-0.00005133,0.00000434,
 -0.00001205,0.00007351,-0.00000391,0.00000816,-0.00008182,-0.00002576,
 0.00000305,0.00007025,0.00000046,-0.00000111,-0.00001372,0.00000301,-0
 .00000058,0.00000585,0.00000223,-0.00000316,-0.00000159,0.00001440,0.0
 0001138,0.00000890,-0.00000468,-0.00000613,0.00000355,0.00000160,0.000
 00225,0.00000433,0.00000092,0.00001018,0.00001155,0.00000415,-0.000005
 66,-0.00000840,-0.00000048,0.00001184,0.00000538,-0.00009625,-0.000020
 08,-0.00006981,-0.00027502,0.00041796,0.00011862,-0.00040504,0.0002121
 3,0.00370117,-0.22559207,0.10510831,0.30798153,0.00145626,0.00018994,0
 .00099493,-0.00899664,-0.00121202,0.00389600,-0.00036816,0.00147713,-0
 .00037129,0.00069496,0.00033613,-0.00014132,-0.00011478,0.00005665,0.0
 0006078,0.00009233,-0.00009386,-0.00013096,0.00014076,-0.00023495,-0.0
 0002567,-0.00000168,0.00001557,0.00002265,-0.00928560,0.00266091,0.002
 97681,0.00109269,0.00000642,0.00059847,0.00023601,-0.00001316,0.000058
 94,-0.32182370,0.01476320,0.08190281,-0.02519575,-0.00569284,-0.012027
 03,-0.00091122,0.00303832,0.00186617,0.00114039,0.00021077,-0.00014307
 ,-0.00014142,-0.00004599,0.00001406,0.00001333,0.00012803,0.00005212,0
 .00027285,0.00006559,-0.00044379,-0.00032532,-0.00043138,0.00083582,-0
 .00005553,-0.00003963,0.00000498,0.00002482,0.00001633,-0.00001114,-0.
 00000987,-0.00000465,-0.00000608,-0.00003205,-0.00000374,0.00001786,0.
 00001677,0.00000195,-0.00002314,-0.00000766,-0.00000029,-0.00000211,0.
 00002034,0.00000558,0.00000702,0.00001017,-0.00000025,-0.00003692,-0.0
 0000302,0.00000944,0.00002041,0.00001862,-0.00000265,-0.00003238,-0.00
 000045,-0.00000111,0.00000336,0.00000353,0.00000189,0.00000161,0.00001
 634,0.00000098,-0.00000948,0.00001499,0.00000148,0.00002667,0.00003609
 ,-0.00001412,-0.00005280,0.00000748,0.00000200,0.00000910,0.00000244,-
 0.00000403,-0.00000260,0.00000694,0.00000124,0.00000226,0.00121738,-0.
 00122906,-0.00085999,0.00007495,0.00021720,0.00007747,0.00116422,-0.00
 045454,-0.00049900,0.00069583,-0.00079996,0.00039118,0.00020121,0.0000
 7098,-0.00005267,0.35693035,0.00118506,0.00031573,-0.00108729,-0.02364
 461,-0.00214357,0.01079514,-0.00220350,-0.00012346,0.00126853,0.000615
 15,0.00011851,-0.00055758,-0.00009093,0.00009858,-0.00001092,0.0000355
 0,-0.00037795,-0.00020125,0.00014170,-0.00001220,0.00005507,-0.0000277
 3,-0.00000848,-0.00007558,0.03673155,-0.00875835,-0.00918876,-0.001644
 70,0.00210268,0.00119377,-0.00003252,0.00037434,0.00037812,0.01847135,
 -0.04429468,-0.00326301,-0.01290492,-0.00024682,-0.00439541,-0.0044817
 5,0.00050271,-0.00031319,0.00030660,-0.00020592,0.00006862,0.00007960,
 0.00002631,-0.00004337,-0.00000383,0.00011368,0.00011713,-0.00011426,-
 0.00002193,-0.00019511,0.00015208,-0.00012680,0.00016509,0.00001027,-0
 .00001627,-0.00000336,-0.00001388,-0.00000975,-0.00000876,0.00000626,0
 .00000100,0.00000645,-0.00000271,0.00001557,-0.00002831,0.00001679,-0.
 00000983,0.00005427,-0.00000522,-0.00000397,-0.00000444,0.00001239,-0.
 00000142,0.00000132,-0.00000092,-0.00002546,0.00001881,-0.00000178,0.0
 0004167,-0.00000502,-0.00000174,-0.00001122,-0.00000473,0.00000092,0.0
 0000040,0.00000111,-0.00000081,-0.00000485,-0.00000172,-0.00000458,0.0
 0000541,0.00000454,-0.00001671,-0.00002982,-0.00002096,0.00001035,0.00
 001929,-0.00004195,0.00000060,0.00000082,0.00000469,0.00000286,-0.0000
 0301,0.00000518,0.00000272,-0.00000316,-0.00000496,0.00028528,0.000239
 79,-0.00035111,0.00015368,0.00016376,0.00003105,0.00055507,-0.00030946
 ,0.00034788,-0.00047562,-0.00256210,0.00294498,0.00004144,0.00004853,-
 0.00027597,-0.01427723,0.05985047,-0.00143667,-0.00053484,0.00215832,0
 .02949315,0.00367010,-0.00832629,0.00132298,-0.00125105,0.00032117,-0.
 00085848,-0.00008692,0.00022094,0.00021465,-0.00007935,-0.00001728,0.0
 0034748,-0.00004854,-0.00037126,0.00005408,-0.00017084,0.00024061,-0.0
 0002285,0.00005121,-0.00000426,0.00788901,-0.00013937,-0.00005542,-0.0
 0033375,0.00038130,0.00046352,-0.00006726,0.00014137,0.00005017,0.0884
 7607,-0.00392881,-0.06590254,-0.04064788,-0.00621691,-0.00617594,-0.00
 542100,0.00181966,0.00141511,0.00034774,-0.00007269,-0.00032263,0.0000
 2024,-0.00005398,0.00019804,0.00001191,0.00000762,-0.00003569,0.000214
 54,0.00007025,-0.00007746,-0.00036458,-0.00034076,0.00047340,-0.000015
 66,-0.00001784,0.00001504,0.00000673,0.00002343,-0.00001126,-0.0000030
 3,-0.00000181,-0.00000274,-0.00000351,0.00001783,0.00000573,0.00000183
 ,-0.00001855,0.00001198,0.00000449,0.00000088,-0.00000527,0.00001155,0
 .00001486,0.00001862,-0.00000165,0.00000828,-0.00003434,0.00000775,-0.
 00001359,0.00001955,0.00000501,0.00000291,-0.00001638,0.00000080,-0.00
 000082,0.00000193,-0.00000110,0.00000180,-0.00000045,0.00000482,-0.000
 00026,-0.00000614,0.00001716,0.00001071,0.00002896,0.00003842,0.000004
 67,-0.00008277,0.00000148,0.00000262,0.00000628,0.00000042,-0.00000400
 ,-0.00000074,-0.00000006,0.00000028,0.00000051,0.00078958,0.00009404,-
 0.00038615,-0.00004146,0.00002422,-0.00019768,-0.00090029,0.00066023,0
 .00025499,0.00007353,0.00374424,-0.00362870,0.00002741,-0.00014994,0.0
 0057980,-0.07797356,0.00384489,0.07818763,0.00016895,0.00025667,-0.000
 01032,0.00040717,-0.00023571,0.00003334,0.00020341,-0.00001905,-0.0001
 1684,0.00003894,0.00017846,-0.00001527,-0.00002670,-0.00004142,0.00002
 463,-0.00003526,-0.00004545,-0.00008170,0.00003512,0.00001212,0.000059
 24,-0.00002427,-0.00000749,-0.00003469,-0.33568504,0.03877428,0.059068
 58,-0.01823657,-0.00459331,-0.01300908,0.00007451,0.00021146,-0.000489
 42,-0.00852445,0.00155300,0.00194051,0.00117606,0.00026587,0.00072308,
 0.00036485,0.00003967,0.00008431,0.00006233,0.00010162,0.00019561,-0.0
 0002119,0.00004047,-0.00004503,0.00000732,0.00003830,0.00002582,0.0001
 7897,-0.00010109,-0.00000088,-0.00029396,0.00014937,0.00004376,-0.0000
 2286,-0.00000067,-0.00000738,0.00002096,-0.00001206,0.00000603,-0.0000
 0588,-0.00000137,-0.00000392,-0.00000723,0.00000143,-0.00001117,0.0000
 2130,0.00000143,0.00002492,-0.00000853,-0.00000146,-0.00000279,-0.0000
 1543,-0.00001406,0.00000256,0.00001539,-0.00001100,0.00001628,-0.00001
 512,0.00002175,-0.00000561,0.00000916,-0.00000620,-0.00000454,-0.00000
 249,0.00000117,0.00000091,0.00000482,0.00000054,0.00000304,0.00001102,
 -0.00000231,-0.00000448,0.00001147,0.00001605,0.00002355,0.00001316,-0
 .00000822,0.00000193,0.00000634,0.00000267,0.00000511,0.00000004,-0.00
 000097,0.00000202,0.00000395,-0.00000059,-0.00000053,0.00006007,-0.000
 20826,-0.00014348,0.00002372,0.00002836,0.00000886,0.00007766,-0.00015
 592,-0.00003154,0.00008685,0.00070976,-0.00043594,-0.00018955,-0.00002
 922,-0.00006283,0.00082329,0.00125243,-0.00032264,0.36808395,-0.000061
 66,0.00013566,0.00050026,0.00039269,0.00247468,-0.00078961,0.00008961,
 -0.00004704,-0.00011274,-0.00019971,-0.00013980,0.00013653,0.00002972,
 -0.00003383,-0.00003110,0.00002298,0.00014277,0.00004932,-0.00004061,0
 .00000124,-0.00001195,0.00001538,0.00001585,0.00002600,0.03967081,-0.0
 5244694,-0.00218165,-0.01578123,0.00246939,-0.00597757,-0.00112417,0.0
 0065214,0.00044958,0.03693524,-0.00714329,-0.00733171,-0.00138549,0.00
 244092,0.00143758,0.00042902,0.00019357,0.00005361,-0.00022488,-0.0000
 7907,-0.00019847,-0.00001215,-0.00003856,0.00010690,0.00002834,-0.0000
 4627,-0.00004789,0.00003086,0.00008133,0.00005925,-0.00004583,-0.00009
 507,-0.00002242,-0.00000431,0.00000067,0.00000785,0.00000447,0.0000142
 0,-0.00000435,-0.00000310,-0.00000123,-0.00000243,0.00000446,0.0000054
 2,0.00001051,-0.00001308,-0.00000577,-0.00001714,0.00000562,0.00000284
 ,0.00000078,0.00000348,0.00001355,0.00000963,-0.00000460,0.00001017,-0
 .00002488,0.00000415,-0.00002356,0.00001515,0.00000284,0.00000565,-0.0
 0000671,-0.00000019,-0.00000007,0.00000103,-0.00000082,0.00000229,-0.0
 0000091,-0.00000066,-0.00000325,-0.00000052,0.00000370,0.00001612,0.00
 000843,0.00000350,0.00000124,0.00000758,-0.00000217,-0.00000149,-0.000
 00423,-0.00000158,-0.00000165,-0.00000266,-0.00000340,0.00000195,0.000
 00287,-0.00030701,0.00000572,0.00007331,-0.00003504,-0.00004922,-0.000
 00624,-0.00030359,0.00011390,0.00010384,-0.00065312,-0.00035249,0.0004
 6798,0.00008921,-0.00020530,0.00016044,0.00112709,-0.00640782,-0.00166
 751,-0.04082943,0.05396234,0.00024908,0.00018893,0.00014626,-0.0008554
 3,-0.00015687,-0.00010601,0.00000705,0.00014529,0.00005062,0.00000831,
 -0.00014423,0.00005037,-0.00002389,0.00001622,-0.00002851,0.00000348,0
 .00008827,0.00008672,-0.00001676,-0.00004129,-0.00007494,0.00002435,0.
 00001368,0.00005086,0.06109485,-0.00368183,-0.05378934,-0.04085559,-0.
 00243499,-0.00665817,0.00001689,0.00130626,0.00100528,0.00522757,-0.00
 056023,0.00044881,-0.00020245,0.00036920,0.00059408,0.00019756,0.00022
 504,0.00002735,-0.00012302,-0.00000561,-0.00016828,0.00001423,-0.00003
 809,0.00006044,-0.00002125,-0.00000462,0.00000851,-0.00020986,0.000058
 11,-0.00006328,0.00037378,-0.00011286,-0.00006198,0.00001502,-0.000008
 76,0.00001688,-0.00001894,0.00001996,-0.00001970,0.00000397,-0.0000006
 4,0.00000562,0.00000162,-0.00000286,0.00001285,-0.00001716,-0.00000284
 ,-0.00003493,0.00000545,0.00000377,0.00000395,0.00000871,0.00001011,0.
 00001479,-0.00001070,0.00001318,-0.00002584,0.00000897,-0.00001648,0.0
 0002336,0.00000116,0.00000415,-0.00001374,0.00000103,-0.00000107,0.000
 00208,-0.00000375,-0.00000069,-0.00000391,-0.00000958,0.00000380,0.000
 00571,-0.00001566,-0.00002882,-0.00003417,-0.00001016,0.00000815,0.000
 00247,-0.00000456,-0.00000358,-0.00000579,-0.00000042,-0.00000186,-0.0
 0000391,-0.00000298,0.00000279,0.00000213,-0.00011030,0.00000657,0.000
 01356,-0.00000536,-0.00001908,0.00000357,-0.00002495,0.00003705,-0.000
 02165,0.00004564,-0.00013564,0.00024030,-0.00013818,-0.00003068,-0.000
 06005,-0.00055821,-0.00161632,0.00030195,-0.05009700,0.01017757,0.0600
 6536,-0.00000655,0.00001462,0.00016607,0.00022200,0.00125926,0.0006318
 6,0.00038692,0.00015927,-0.00025579,-0.00008333,0.00018878,-0.00001149
 ,-0.00000859,-0.00000956,0.00001034,-0.00004278,0.00003032,0.00002283,
 0.00000048,-0.00001236,-0.00003421,0.00001107,0.00000763,0.00003469,-0
 .07845984,-0.05437328,0.08259809,0.00522253,0.00737688,-0.02548338,0.0
 0061461,0.00105537,0.00090423,0.00205423,0.00820564,-0.00662195,0.0000
 6727,-0.00090669,-0.00034834,0.00004823,0.00007239,0.00000309,-0.00007
 494,0.00000217,-0.00019571,0.00003444,-0.00005163,0.00015710,-0.000088
 71,-0.00018641,-0.00020585,-0.00013521,0.00041483,0.00035368,0.0000750
 9,-0.00064492,-0.00025123,0.00005809,0.00004267,0.00001085,-0.00001370
 ,0.00001929,0.00001565,0.00000351,0.00000187,-0.00000228,0.00000195,-0
 .00000893,0.00004071,-0.00000248,0.00001604,-0.00003549,0.00000152,-0.
 00000206,0.00000221,-0.00001409,0.00002364,-0.00002577,-0.00000854,0.0
 0003457,-0.00002158,0.00000112,-0.00007472,-0.00001002,-0.00001325,0.0
 0002114,0.00003270,-0.00000048,-0.00000123,-0.00000462,-0.00000240,0.0
 0000354,0.00000020,-0.00001205,0.00000007,-0.00000038,0.00002712,0.000
 01849,0.00002027,-0.00000807,0.00000643,-0.00000534,-0.00000235,-0.000
 00207,-0.00000088,-0.00000253,0.00000849,-0.00000303,-0.00000077,0.000
 00198,-0.00000042,-0.00003444,-0.00000957,-0.00001040,0.00000509,0.000
 00301,0.00000814,-0.00001525,-0.00006919,-0.00001940,0.00011258,0.0003
 8372,-0.00017479,-0.00015313,-0.00006318,-0.00007038,0.00084751,-0.000
 11968,-0.00096736,-0.00887628,-0.01785535,0.02602747,0.07826439,0.0001
 4326,0.00096131,0.00022875,0.00188780,-0.00449408,-0.00522409,-0.00084
 267,0.00021161,0.00178432,0.00036537,-0.00132081,0.00021448,-0.0001118
 4,0.00009835,-0.00016172,0.00000904,0.00023218,0.00047803,-0.00002863,
 -0.00003643,-0.00036594,0.00006231,-0.00001016,0.00016895,-0.05039895,
 -0.13752441,0.13483570,0.00037118,0.00866438,-0.01697292,0.00062990,0.
 00188153,-0.00057571,-0.01033334,-0.02125640,0.02746635,0.00035031,0.0
 0267253,0.00009162,0.00022025,-0.00021583,-0.00000650,0.00000176,0.000
 07552,-0.00030492,-0.00004842,-0.00006005,0.00016034,-0.00001493,-0.00
 034019,-0.00035454,0.00018911,0.00047888,0.00054286,-0.00047141,-0.000
 69542,-0.00043688,0.00002650,0.00009264,-0.00001603,0.00001336,-0.0000
 0952,0.00004661,-0.00000479,0.00000672,-0.00001222,-0.00002559,-0.0000
 5977,0.00009416,-0.00002036,0.00005016,-0.00015022,0.00000514,-0.00000
 286,0.00001608,-0.00000507,0.00000467,-0.00004883,-0.00000349,0.000059
 40,-0.00002109,0.00000309,-0.00011589,-0.00003209,-0.00001740,0.000031
 67,0.00005942,-0.00000148,-0.00000026,-0.00000941,0.00000026,0.0000099
 6,0.00000513,0.00000054,-0.00000957,-0.00000862,0.00006201,0.00007788,
 0.00007561,0.00001188,-0.00001188,-0.00001153,0.00000030,0.00000203,0.
 00000432,0.00000027,0.00002007,-0.00000970,0.00000657,0.00000239,0.000
 00028,0.00002076,-0.00004970,-0.00000246,-0.00000459,-0.00001811,-0.00
 002854,0.00013006,-0.00006732,-0.00008411,-0.00004950,0.00011162,-0.00
 004055,0.00003367,-0.00020465,-0.00004819,0.00015065,0.00167906,0.0002
 0096,0.00266840,0.00435809,-0.00364818,0.05501872,0.14472062,0.0001068
 0,0.00071561,0.00018619,-0.00033468,-0.00186782,-0.00072879,-0.0000419
 3,-0.00000542,0.00032383,0.00007459,-0.00023557,0.00012626,-0.00001637
 ,-0.00005898,-0.00004129,0.00001217,0.00001894,-0.00003944,0.00000512,
 -0.00002905,0.00002877,0.00000013,0.00001137,-0.00000329,0.07978604,0.
 13309358,-0.23071373,-0.00443833,0.00463333,-0.03695403,-0.00034427,0.
 00080243,0.00021517,-0.00092995,-0.00367771,0.00457644,0.00026872,-0.0
 0015972,0.00130878,-0.00002153,0.00010375,0.00026627,0.00001117,0.0000
 0511,0.00003766,0.00001222,0.00002385,0.00000304,0.00003599,0.00006025
 ,-0.00002963,-0.00001781,-0.00015709,-0.00016359,-0.00003994,0.0000980
 6,0.00014787,-0.00001373,-0.00001639,-0.00000920,-0.00000374,-0.000012
 69,-0.00001001,0.00000303,0.00000337,0.00000616,0.00000359,0.00001092,
 -0.00001126,-0.00000361,-0.00001345,0.00001089,0.00000116,0.00000381,-
 0.00000159,-0.00000070,0.00000410,0.00000819,-0.00000034,-0.00001529,0
 .00000045,-0.00000013,0.00002606,0.00001136,0.00000596,-0.00001021,-0.
 00001797,0.00000005,0.00000204,0.00000380,-0.00000025,-0.00000155,-0.0
 0000142,-0.00000006,0.00000120,0.00000256,-0.00000635,0.00000271,-0.00
 000016,-0.00000328,-0.00000031,-0.00000123,-0.00000089,-0.00000065,-0.
 00000119,-0.00000058,-0.00000362,-0.00000035,-0.00000169,0.00000038,0.
 00000126,0.00000987,0.00000572,-0.00001817,-0.00001075,0.00000375,0.00
 000641,0.00001365,-0.00001712,-0.00001574,0.00001766,-0.00005636,0.000
 06678,-0.00006163,-0.00036148,0.00007970,-0.00043829,0.00039245,0.0006
 8714,0.00264303,0.00457671,-0.00206970,-0.07628012,-0.13789899,0.26272
 682\\0.00222219,-0.01612269,-0.00103411,0.00252691,0.01609836,-0.00090
 100,0.00468338,-0.02206970,0.02615201,-0.00088021,0.00466356,0.0175838
 8,-0.00435047,-0.00423457,-0.03303940,-0.00502164,-0.01247250,-0.00431
 102,0.00531729,0.01861371,0.00422862,0.00097637,0.01030214,0.01572445,
 0.00381404,-0.00816617,0.02210822,-0.00841800,0.03363777,-0.00108106,0
 .00802105,-0.03171486,-0.00139669,0.00187003,0.00854985,-0.00682581,0.
 01042696,-0.00700964,0.01455892,-0.03990070,0.00634578,-0.03450262,0.0
 0402687,-0.01004433,-0.00373432,0.00229289,0.01853414,0.00127365,-0.02
 976271,0.01208658,0.02789709,0.01247482,-0.00126631,-0.00321814,0.0044
 0337,0.00222103,-0.02492935,0.01988281,0.02344523,-0.00299525,-0.00529
 598,0.00595014,-0.01102280,-0.00884505,-0.02185856,0.02908712,0.007998
 03,-0.03156184,-0.01067399,-0.01442146,-0.01926259,0.00413603,-0.00330
 663,0.03424457,-0.00965287,0.01436991,-0.01689167,0.02373193,-0.019567
 79,0.00798812,0.02323628,0.04582584,-0.02045643,-0.01586383,-0.0150950
 0,0.01551377,0.00654836,-0.00123153,-0.00134971,-0.00203230,-0.0186841
 6,-0.00111869,-0.00497502,0.02177114,-0.00288504,-0.00081305,-0.025859
 53,-0.00187859,-0.00313433,0.02048259,-0.00149994,-0.00007934,-0.01949
 732,-0.00014986,-0.00231618,0.00093653,-0.00953403,-0.01610135,0.01842
 855,0.00397207,0.00101971,0.01903901,0.00522270,-0.00569562,-0.0211236
 3,-0.00069145,0.00224456,0.02246856,0.00368522,-0.00247196,-0.01859075
 ,-0.00277670,0.00337963,0.00026699,0.00352844,-0.00119636,0.02273327,0
 .00151939,-0.00226798,-0.02078831,0.00287860,0.00061260,0.00338144,0.0
 0601473,-0.01725732\\\@


 THE PROBLEM WITH THE LADDER OF SUCCESS IS YOU CAN'T
 CLIMB IT WHILE YOU'RE TWIDDLING YOUR THUMBS.
 Job cpu time:  3 days 22 hours 58 minutes 28.1 seconds.
 File lengths (MBytes):  RWF=   2340 Int=      0 D2E=      0 Chk=     43 Scr=      1
 Normal termination of Gaussian 09 at Fri Feb  5 15:09:57 2016.
Gaussian '09 finished on node005 at Fri Feb  5 15:09:57 EST 2016.
