Gaussian '09 started on node023 at Fri Feb 12 12:39:32 EST 2016.
 Entering Gaussian System, Link 0=/usr/local/gaussian/g09/g09
 Initial command:
 /usr/local/gaussian/g09/l1.exe /home/srmcgrat/thesis/gaussian/cellobiose/550/5000/1/2dfp/gaussian30134/Gau-30170.inp -scrdir=/home/srmcgrat/thesis/gaussian/cellobiose/550/5000/1/2dfp/gaussian30134/
 Entering Link 1 = /usr/local/gaussian/g09/l1.exe PID=     30172.
  
 Copyright (c) 1988,1990,1992,1993,1995,1998,2003,2009,2010,
            Gaussian, Inc.  All Rights Reserved.
  
 This is part of the Gaussian(R) 09 program.  It is based on
 the Gaussian(R) 03 system (copyright 2003, Gaussian, Inc.),
 the Gaussian(R) 98 system (copyright 1998, Gaussian, Inc.),
 the Gaussian(R) 94 system (copyright 1995, Gaussian, Inc.),
 the Gaussian 92(TM) system (copyright 1992, Gaussian, Inc.),
 the Gaussian 90(TM) system (copyright 1990, Gaussian, Inc.),
 the Gaussian 88(TM) system (copyright 1988, Gaussian, Inc.),
 the Gaussian 86(TM) system (copyright 1986, Carnegie Mellon
 University), and the Gaussian 82(TM) system (copyright 1983,
 Carnegie Mellon University). Gaussian is a federally registered
 trademark of Gaussian, Inc.
  
 This software contains proprietary and confidential information,
 including trade secrets, belonging to Gaussian, Inc.
  
 This software is provided under written license and may be
 used, copied, transmitted, or stored only in accord with that
 written license.
  
 The following legend is applicable only to US Government
 contracts under FAR:
  
                    RESTRICTED RIGHTS LEGEND
  
 Use, reproduction and disclosure by the US Government is
 subject to restrictions as set forth in subparagraphs (a)
 and (c) of the Commercial Computer Software - Restricted
 Rights clause in FAR 52.227-19.
  
 Gaussian, Inc.
 340 Quinnipiac St., Bldg. 40, Wallingford CT 06492
  
  
 ---------------------------------------------------------------
 Warning -- This program may not be used in any manner that
 competes with the business of Gaussian, Inc. or will provide
 assistance to any competitor of Gaussian, Inc.  The licensee
 of this program is prohibited from giving any competitor of
 Gaussian, Inc. access to this program.  By using this program,
 the user acknowledges that Gaussian, Inc. is engaged in the
 business of creating and licensing software in the field of
 computational chemistry and represents and warrants to the
 licensee that it is not a competitor of Gaussian, Inc. and that
 it will not use this program in any manner prohibited above.
 ---------------------------------------------------------------
  

 Cite this work as:
 Gaussian 09, Revision B.01,
 M. J. Frisch, G. W. Trucks, H. B. Schlegel, G. E. Scuseria, 
 M. A. Robb, J. R. Cheeseman, G. Scalmani, V. Barone, B. Mennucci, 
 G. A. Petersson, H. Nakatsuji, M. Caricato, X. Li, H. P. Hratchian, 
 A. F. Izmaylov, J. Bloino, G. Zheng, J. L. Sonnenberg, M. Hada, 
 M. Ehara, K. Toyota, R. Fukuda, J. Hasegawa, M. Ishida, T. Nakajima, 
 Y. Honda, O. Kitao, H. Nakai, T. Vreven, J. A. Montgomery, Jr., 
 J. E. Peralta, F. Ogliaro, M. Bearpark, J. J. Heyd, E. Brothers, 
 K. N. Kudin, V. N. Staroverov, T. Keith, R. Kobayashi, J. Normand, 
 K. Raghavachari, A. Rendell, J. C. Burant, S. S. Iyengar, J. Tomasi, 
 M. Cossi, N. Rega, J. M. Millam, M. Klene, J. E. Knox, J. B. Cross, 
 V. Bakken, C. Adamo, J. Jaramillo, R. Gomperts, R. E. Stratmann, 
 O. Yazyev, A. J. Austin, R. Cammi, C. Pomelli, J. W. Ochterski, 
 R. L. Martin, K. Morokuma, V. G. Zakrzewski, G. A. Voth, 
 P. Salvador, J. J. Dannenberg, S. Dapprich, A. D. Daniels, 
 O. Farkas, J. B. Foresman, J. V. Ortiz, J. Cioslowski, 
 and D. J. Fox, Gaussian, Inc., Wallingford CT, 2010.
 
 ******************************************
 Gaussian 09:  EM64L-G09RevB.01 12-Aug-2010
                12-Feb-2016 
 ******************************************
 --------------------------------------------------
 # freq=raman b3lyp/6-31+g(2df,p) geom=connectivity
 --------------------------------------------------
 1/10=4,30=1,38=1,57=2/1,3;
 2/12=2,17=6,18=5,40=1/2;
 3/5=1,6=6,7=114,11=2,16=1,25=1,30=1,71=2,74=-5/1,2,3;
 4//1;
 5/5=2,38=5,98=1/2;
 8/6=4,10=90,11=11/1;
 10/13=10,15=4/2;
 11/6=3,8=1,9=11,15=111,16=1/1,2,10;
 10/6=1/2;
 6/7=2,8=2,9=2,10=2,18=1,28=1/1;
 7/8=1,10=1,25=1/1,2,3,16;
 1/10=4,30=1/3;
 99//99;
 ------------
 550 5000.com
 ------------
 Symbolic Z-matrix:
 Charge =  0 Multiplicity = 1
 O                     9.022     7.881     11.025 
 C                     9.904     7.606     12.123 
 C                     10.022    8.81      13.043 
 O                     10.217    9.965     12.214 
 H                     10.176    9.757     11.237 
 C                     10.898    8.621     14.272 
 O                     11.102    9.815     15.041 
 H                     11.663    10.418    14.473 
 C                     9.048     5.183     12.627 
 O                     8.726     4.058     13.458 
 H                     8.451     3.301     12.866 
 C                     9.388     6.581     13.119 
 O                     10.376    6.236     14.102 
 C                     10.424    7.366     14.986 
 O                     11.209    6.969     16.12 
 C                     10.623    7.052     17.427 
 C                     10.094    5.706     17.894 
 O                     9.338     4.859     17.016 
 H                     9.732     5.        16.107 
 C                     9.287     5.998     19.148 
 O                     8.377     5.001     19.634 
 H                     7.851     4.611     18.878 
 C                     12.255    8.887     18.219 
 O                     11.37     9.996     18.008 
 H                     10.953    9.892     17.105 
 C                     11.559    7.567     18.509 
 O                     10.823    7.741     19.728 
 C                     10.103    6.624     20.268 
 O                     9.372     6.956     21.457 
 H                     9.53926   8.07748   10.2405 
 H                     9.87926   4.87455   12.02803 
 H                     8.21779   5.30169   11.9625 
 H                     8.5328    6.98792   13.61695 
 H                     10.86989   7.31952   11.76261 
 H                     9.03902   8.93698   13.44614 
 H                     11.86714   8.37408   13.8916 
 H                     9.42815   7.55012   15.33138 
 H                     9.98775   7.15408   22.16638 
 H                     10.83417   5.89758   20.55543 
 H                     8.63772   6.79022   18.83861 
 H                     10.94645   5.13614   18.19977 
 H                     9.79364   7.72542   17.3673 
 H                     12.31155   6.82501   18.67641 
 H                     12.8585   8.76537   17.34385 
 H                     12.89625   9.11889   19.04358 
 

 GradGradGradGradGradGradGradGradGradGradGradGradGradGradGradGradGradGrad
 Berny optimization.
 Initialization pass.
 Trust Radius=3.00D-01 FncErr=1.00D-07 GrdErr=1.00D-07
 Number of steps in this run=      2 maximum allowed number of steps=      2.
 GradGradGradGradGradGradGradGradGradGradGradGradGradGradGradGradGradGrad

                          Input orientation:                          
 ---------------------------------------------------------------------
 Center     Atomic      Atomic             Coordinates (Angstroms)
 Number     Number       Type             X           Y           Z
 ---------------------------------------------------------------------
      1          8           0        9.022000    7.881000   11.025000
      2          6           0        9.904000    7.606000   12.123000
      3          6           0       10.022000    8.810000   13.043000
      4          8           0       10.217000    9.965000   12.214000
      5          1           0       10.176000    9.757000   11.237000
      6          6           0       10.898000    8.621000   14.272000
      7          8           0       11.102000    9.815000   15.041000
      8          1           0       11.663000   10.418000   14.473000
      9          6           0        9.048000    5.183000   12.627000
     10          8           0        8.726000    4.058000   13.458000
     11          1           0        8.451000    3.301000   12.866000
     12          6           0        9.388000    6.581000   13.119000
     13          8           0       10.376000    6.236000   14.102000
     14          6           0       10.424000    7.366000   14.986000
     15          8           0       11.209000    6.969000   16.120000
     16          6           0       10.623000    7.052000   17.427000
     17          6           0       10.094000    5.706000   17.894000
     18          8           0        9.338000    4.859000   17.016000
     19          1           0        9.732000    5.000000   16.107000
     20          6           0        9.287000    5.998000   19.148000
     21          8           0        8.377000    5.001000   19.634000
     22          1           0        7.851000    4.611000   18.878000
     23          6           0       12.255000    8.887000   18.219000
     24          8           0       11.370000    9.996000   18.008000
     25          1           0       10.953000    9.892000   17.105000
     26          6           0       11.559000    7.567000   18.509000
     27          8           0       10.823000    7.741000   19.728000
     28          6           0       10.103000    6.624000   20.268000
     29          8           0        9.372000    6.956000   21.457000
     30          1           0        9.539257    8.077482   10.240500
     31          1           0        9.879262    4.874550   12.028033
     32          1           0        8.217790    5.301692   11.962498
     33          1           0        8.532804    6.987917   13.616954
     34          1           0       10.869895    7.319523   11.762613
     35          1           0        9.039017    8.936979   13.446139
     36          1           0       11.867139    8.374079   13.891605
     37          1           0        9.428152    7.550119   15.331380
     38          1           0        9.987751    7.154077   22.166378
     39          1           0       10.834167    5.897585   20.555430
     40          1           0        8.637720    6.790219   18.838606
     41          1           0       10.946448    5.136141   18.199765
     42          1           0        9.793641    7.725424   17.367297
     43          1           0       12.311550    6.825014   18.676406
     44          1           0       12.858499    8.765367   17.343846
     45          1           0       12.896251    9.118887   19.043576
 ---------------------------------------------------------------------
                    Distance matrix (angstroms):
                    1          2          3          4          5
     1  O    0.000000
     2  C    1.434975   0.000000
     3  C    2.436260   1.519849   0.000000
     4  O    2.680448   2.381414   1.435023   0.000000
     5  H    2.212699   2.342174   2.045033   0.999737   0.000000
     6  C    3.822301   2.576133   1.521032   2.550581   3.320091
     7  O    4.918843   3.850923   2.483632   2.966084   3.915515
     8  H    5.029906   4.064963   2.706186   2.720148   3.622125
     9  C    3.137879   2.618717   3.778473   4.940107   4.911818
    10  O    4.541193   3.969662   4.943010   6.217979   6.286012
    11  H    4.969077   4.603942   5.731357   6.924793   6.878169
    12  C    2.491745   1.519506   2.318658   3.599684   3.774897
    13  O    3.742629   2.452779   2.805757   4.182734   4.543750
    14  C    4.233243   2.919721   2.453974   3.805474   4.453469
    15  O    5.619051   4.252623   3.777060   5.021645   5.716968
    16  C    6.651018   5.381105   4.761431   5.985464   6.770003
    17  C    7.284433   6.078696   5.759531   7.100465   7.793136
    18  O    6.717471   5.639842   5.644731   7.064211   7.621646
    19  H    5.884810   4.763725   4.897785   6.327867   6.822249
    20  C    8.342604   7.233048   6.761553   8.042533   8.803654
    21  O    9.100841   8.095238   7.788183   9.115004   9.816595
    22  H    8.586836   7.669085   7.509465   8.869733   9.501148
    23  C    7.950972   6.658031   5.637659   6.432383   7.336720
    24  O    7.664765   6.518779   5.279671   5.907690   6.879622
    25  H    6.688743   5.580907   4.305500   4.946606   5.920758
    26  C    7.908554   6.597086   5.812450   6.868653   7.719506
    27  O    8.888499   7.661515   6.817154   7.859619   8.750997
    28  C    9.390509   8.206397   7.548893   8.720217   9.559288
    29  O   10.478776   9.371717   8.640325   9.757108  10.627343
    30  H    0.960000   1.974623   2.936601   2.813674   2.054077
    31  H    3.283248   2.733212   4.066731   5.105030   4.955008
    32  H    2.859806   2.859878   4.090341   5.080014   4.920438
    33  H    2.784805   2.119931   2.422213   3.697002   4.004010
    34  H    2.067376   1.070000   2.140055   2.761986   2.588253
    35  H    2.641457   2.066494   1.070000   1.990638   2.616383
    36  H    4.068828   2.751694   2.077184   2.840483   3.437928
    37  H    4.338127   3.243956   2.678925   4.021441   4.711003
    38  H   11.206756  10.053889   9.272501  10.344257  11.236634
    39  H    9.901867   8.653887   8.098048   9.300764  10.107493
    40  H    7.898729   6.882465   6.291645   7.513905   8.303765
    41  H    7.919281   6.641835   6.398756   7.725242   8.392022
    42  H    6.390960   5.246818   4.464079   5.634839   6.469470
    43  H    8.395252   7.025195   6.396677   7.483939   8.276586
    44  H    7.445042   6.109864   5.152184   5.893383   6.743346
    45  H    8.991092   7.690043   6.660604   7.384944   8.291537
                    6          7          8          9         10
     6  C    0.000000
     7  O    1.434787   0.000000
     8  H    1.963373   1.000477   0.000000
     9  C    4.236552   5.612641   6.136055   0.000000
    10  O    5.118706   6.426065   7.078545   1.435225   0.000000
    11  H    6.022213   7.361428   7.971893   1.988832   0.999569
    12  C    2.787671   4.134082   4.661707   1.520549   2.630341
    13  O    2.447368   3.770681   4.391257   2.246779   2.807298
    14  C    1.519703   2.541714   3.333616   3.496247   4.020056
    15  O    2.498185   3.045555   3.848938   4.478925   4.661057
    16  C    3.534319   3.681930   4.597572   5.386445   5.321241
    17  C    4.718318   5.102897   6.030584   5.395270   4.925995
    18  O    4.910782   5.619098   6.540256   4.410487   3.698041
    19  H    4.223556   5.118347   5.979418   3.551302   2.986068
    20  C    5.766353   5.893315   6.858382   6.576077   6.037750
    21  O    6.943406   7.189984   8.171757   7.041407   6.257318
    22  H    6.824921   7.236932   8.225364   6.390226   5.517956
    23  C    4.182226   3.505749   4.089858   7.434711   7.644619
    24  O    4.008878   2.984573   3.572136   7.583654   7.934298
    25  H    3.105536   2.070803   2.776365   6.771720   7.231576
    26  C    4.415881   4.158050   4.942501   6.825430   6.771379
    27  O    5.527021   5.132961   5.957093   7.753592   7.568011
    28  C    6.369619   6.204999   7.100004   7.846935   7.406523
    29  O    7.531608   7.234075   8.124677   9.012070   8.532275
    30  H    4.288890   5.339094   5.282268   3.783483   5.212478
    31  H    4.484317   5.914483   6.315807   1.070000   2.010367
    32  H    4.851302   6.177847   6.659482   1.070000   2.010367
    33  H    2.947914   4.076895   4.721908   2.122065   2.940579
    34  H    2.826951   4.126632   4.192347   2.937890   4.255368
    35  H    2.058569   2.751437   3.183262   3.842320   4.889024
    36  H    1.070000   1.995695   2.134785   4.441819   5.355679
    37  H    2.104644   2.831214   3.735787   3.614061   4.024607
    38  H    8.080941   7.687202   8.523363   9.786113   9.328105
    39  H    6.848544   6.769550   7.623455   8.158494   7.629020
    40  H    5.414288   5.444611   6.432078   6.429271   6.035208
    41  H    5.251088   5.647452   6.503865   5.887445   5.345757
    42  H    3.406249   3.389660   4.372806   5.430499   5.465570
    43  H    4.962105   4.859960   5.567656   7.066985   6.909725
    44  H    3.647004   3.080604   3.521672   7.042862   7.371340
    45  H    5.197002   4.441230   4.909049   8.454152   8.614072
                   11         12         13         14         15
    11  H    0.000000
    12  C    3.420582   0.000000
    13  O    3.721229   1.435778   0.000000
    14  C    4.991128   2.274909   1.435500   0.000000
    15  O    5.625771   3.531655   2.302933   1.435197   0.000000
    16  C    6.292083   4.506210   3.432563   2.469145   1.434759
    17  C    5.810702   4.905577   3.839230   3.364664   2.446522
    18  O    4.520689   4.260797   3.385996   3.403725   2.958979
    19  H    3.877066   3.397947   2.441814   2.708036   2.461434
    20  C    6.887396   6.057964   5.167657   4.526195   3.715603
    21  O    6.978632   6.779657   6.010345   5.602440   4.923560
    22  H    6.182252   6.277687   5.641491   5.418304   4.943975
    23  C    8.621393   6.288666   5.244819   4.014759   3.029627
    24  O    8.932175   6.284335   5.512030   4.116345   3.571161
    25  H    8.226202   5.412961   4.766264   3.339263   3.095107
    26  C    7.726698   5.893856   4.753178   3.706772   2.487454
    27  O    8.510407   6.861757   5.840951   4.773509   3.709804
    28  C    8.280159   7.184795   6.184224   5.343513   4.306758
    29  O    9.381500   8.346444   7.458045   6.568763   5.644316
    30  H    5.558087   3.247783   4.359171   4.879420   6.211706
    31  H    2.284334   2.084111   2.530145   3.905590   4.785302
    32  H    2.207594   2.084111   3.179351   4.274377   5.386286
    33  H    3.763506   1.070000   2.048907   2.365133   3.664372
    34  H    4.818407   2.140377   2.625011   3.254413   4.384595
    35  H    5.696190   2.404047   3.084309   2.599485   3.966270
    36  H    6.201451   3.155658   2.615175   2.072818   2.715353
    37  H    5.008785   2.415663   2.033887   1.070000   2.032496
    38  H   10.183557   9.085327   8.125748   7.196739   6.171255
    39  H    8.458668   7.606507   6.478518   5.774342   4.578370
    40  H    6.919649   5.772399   5.075846   4.285428   3.746233
    41  H    6.167986   5.507318   4.280979   3.946329   2.784552
    42  H    6.452898   4.418403   3.635889   2.489401   2.032528
    43  H    7.815583   6.284222   5.001848   4.180264   2.787752
    44  H    8.326852   5.887712   4.803131   3.666668   2.728660
    45  H    9.579693   7.338208   6.251550   5.064441   4.002015
                   16         17         18         19         20
    16  C    0.000000
    17  C    1.519752   0.000000
    18  O    2.574761   1.435210   0.000000
    19  H    2.597496   1.955211   1.000699   0.000000
    20  C    2.420259   1.519549   2.417715   3.231363   0.000000
    21  O    3.757920   2.544153   2.792420   3.778327   1.434679
    22  H    3.968358   2.682970   2.395771   3.371635   2.014638
    23  C    2.580293   3.859314   5.116726   5.092626   4.244807
    24  O    3.092363   4.477195   5.612652   5.590784   4.649999
    25  H    2.877183   4.345457   5.286514   5.139894   4.702408
    26  C    1.520541   2.446992   3.807250   3.961947   2.834090
    27  O    2.410254   2.834823   4.226830   4.670653   2.394524
    28  C    2.919737   2.545325   3.778353   4.482068   1.520570
    29  O    4.220796   3.844314   4.911318   5.707717   2.501294
    30  H    7.339747   8.031670   7.503767   6.627508   9.150488
    31  H    5.868840   5.928490   5.017272   4.083552   7.232347
    32  H    6.221688   6.234288   5.195068   4.422754   7.297911
    33  H    4.346202   4.730091   4.090738   3.404440   5.669322
    34  H    5.676073   6.387439   5.999912   5.054571   7.667849
    35  H    4.680748   5.597828   5.428002   4.802105   6.419526
    36  H    3.974266   5.126581   5.339866   4.566312   6.319221
    37  H    2.463211   3.226631   3.176192   2.682725   4.122571
    38  H    4.782851   4.512364   5.675909   6.435955   3.307290
    39  H    3.341308   2.769072   3.980545   4.670006   2.093960
    40  H    2.449999   2.046598   2.746250   3.444416   1.070000
    41  H    2.091005   1.070000   2.016237   2.423445   2.096597
    42  H    1.070000   2.108483   2.923594   3.003345   2.532110
    43  H    2.112756   2.604204   3.932449   4.072665   3.170845
    44  H    2.817801   4.159910   5.268881   5.048047   4.865069
    45  H    3.471745   4.563106   5.909218   5.966674   4.772582
                   21         22         23         24         25
    21  O    0.000000
    22  H    1.000156   0.000000
    23  C    5.669401   6.173627   0.000000
    24  O    6.045821   6.491416   1.434443   0.000000
    25  H    6.078939   6.376119   1.986511   1.000057   0.000000
    26  C    4.239706   4.756402   1.520170   2.487320   2.782818
    27  O    3.674146   4.399112   2.375083   2.888362   3.394677
    28  C    2.452583   3.325022   3.735060   4.252443   4.626758
    29  O    2.852259   3.803118   4.746061   5.012904   5.482660
    30  H    9.952558   9.459023   8.466819   8.207702   7.239648
    31  H    7.753936   7.148801   7.750610   8.013211   7.218262
    32  H    7.679044   6.959581   8.264219   8.277745   7.416039
    33  H    6.338529   5.813191   6.216115   6.031544   5.143687
    34  H    8.576060   8.190150   6.786783   6.813111   5.930062
    35  H    7.363411   7.044898   5.755454   5.231213   4.238238
    36  H    7.518898   7.426592   4.374914   4.452245   3.669556
    37  H    5.110330   4.868711   4.256369   4.113078   3.309879
    38  H    3.693669   4.674010   4.870855   5.222954   5.834850
    39  H    2.773187   3.656276   4.051453   4.855257   5.279672
    40  H    1.975331   2.317213   4.226714   4.293284   4.241103
    41  H    2.945735   3.212098   3.972609   4.882049   4.880241
    42  H    3.816713   3.969346   2.851832   2.837415   2.471228
    43  H    4.441249   4.983874   2.112867   3.374676   3.704238
    44  H    6.284831   6.684867   1.070000   2.042348   2.226494
    45  H    6.142412   6.767793   1.070000   2.042348   2.851667
                   26         27         28         29         30
    26  C    0.000000
    27  O    1.434550   0.000000
    28  C    2.470479   1.434465   0.000000
    29  O    3.721155   2.389784   1.434680   0.000000
    30  H    8.526901   9.579868  10.147963  11.273667   0.000000
    31  H    7.216214   8.270228   8.426606   9.669290   3.683701
    32  H    7.691034   8.546366   8.618810   9.706416   3.523715
    33  H    5.781463   6.569400   6.843563   7.884896   3.687891
    34  H    6.786004   7.976668   8.568167   9.816159   2.159149
    35  H    5.818911   6.638881   7.281464   8.258877   3.356351
    36  H    4.697517   5.962761   6.843492   8.091469   4.340226
    37  H    3.825973   4.616526   5.067873   6.154621   5.119327
    38  H    4.001967   2.643446   1.974361   0.960000  11.969978
    39  H    2.738650   2.020630   1.070000   2.017673  10.621982
    40  H    3.040708   2.543709   2.053738   2.724452   8.740551
    41  H    2.525851   3.022587   2.683789   4.049735   8.601254
    42  H    2.108335   2.575410   3.118158   4.182758   7.140020
    43  H    1.070000   2.039770   2.729702   4.048434   8.967652
    44  H    2.117160   3.297996   4.552901   5.687488   7.870710
    45  H    2.117160   2.581740   3.940296   4.787802   9.478822
                   31         32         33         34         35
    31  H    0.000000
    32  H    1.716752   0.000000
    33  H    2.967143   2.383236   0.000000
    34  H    2.651357   3.338452   3.001756   0.000000
    35  H    4.384103   4.011348   2.020958   2.966906   0.000000
    36  H    4.435229   5.145752   3.621418   2.576662   2.917802
    37  H    4.274841   4.227265   2.014193   3.855890   2.372539
    38  H   10.392018  10.520611   8.673933  10.442407   8.951056
    39  H    8.641466   9.002167   7.391044   8.907121   7.937411
    40  H    7.182974   7.047902   5.226446   7.438578   5.817931
    41  H    6.268779   6.810029   5.500628   6.797790   6.378215
    42  H    6.053310   6.129408   4.024761   5.721500   4.172866
    43  H    7.343105   8.009741   6.316923   7.079791   6.521163
    44  H    7.229951   7.905198   5.980025   6.098785   5.459855
    45  H    8.736959   9.305947   7.282096   7.768928   6.800195
                   36         37         38         39         40
    36  H    0.000000
    37  H    2.949664   0.000000
    38  H    8.572769   6.869294   0.000000
    39  H    7.183775   5.656717   2.211412   0.000000
    40  H    6.116419   3.674625   3.609576   2.927227   0.000000
    41  H    5.467372   4.044768   4.552492   2.478217   2.911068
    42  H    4.098852   2.075880   4.836867   3.819408   2.091772
    43  H    5.048904   4.475373   4.205737   2.563887   3.677573
    44  H    3.613015   4.158622   5.839029   4.757769   4.893924
    45  H    5.306281   5.316874   4.698058   4.112746   4.857962
                   41         42         43         44         45
    41  H    0.000000
    42  H    2.954040   0.000000
    43  H    2.223282   2.977309   0.000000
    44  H    4.190444   3.236571   2.416576   0.000000
    45  H    4.513980   3.791812   2.395526   1.736514   0.000000
 Stoichiometry    C12H22O11
 Framework group  C1[X(C12H22O11)]
 Deg. of freedom   129
 Full point group                 C1      NOp   1
 Largest Abelian subgroup         C1      NOp   1
 Largest concise Abelian subgroup C1      NOp   1
                         Standard orientation:                         
 ---------------------------------------------------------------------
 Center     Atomic      Atomic             Coordinates (Angstroms)
 Number     Number       Type             X           Y           Z
 ---------------------------------------------------------------------
      1          8           0       -5.102284    0.190345   -0.834206
      2          6           0       -3.934902   -0.026673   -0.028429
      3          6           0       -3.128240   -1.207452   -0.543208
      4          8           0       -4.050823   -2.275086   -0.804529
      5          1           0       -5.004390   -2.013129   -0.657691
      6          6           0       -1.839172   -1.506208    0.206851
      7          8           0       -1.176758   -2.707769   -0.212758
      8          1           0       -1.766757   -3.463655    0.072713
      9          6           0       -3.252333    2.487595    0.236593
     10          8           0       -2.337811    3.585500    0.371219
     11          1           0       -2.869851    4.419031    0.517157
     12          6           0       -2.876890    1.059557   -0.126473
     13          8           0       -1.811144    0.864086    0.815565
     14          6           0       -1.037199   -0.217120    0.274580
     15          8           0        0.172054   -0.283931    1.044668
     16          6           0        1.429929   -0.172116    0.363653
     17          6           0        1.991946    1.237508    0.445765
     18          8           0        1.156946    2.384620    0.229572
     19          1           0        0.262464    2.135858    0.602959
     20          6           0        3.164764    1.265634   -0.520017
     21          8           0        3.690913    2.534491   -0.934112
     22          1           0        2.946787    3.163634   -1.159430
     23          6           0        2.135253   -2.588582    0.930331
     24          8           0        1.770027   -3.166229   -0.330843
     25          1           0        0.858812   -2.832231   -0.572186
     26          6           0        2.509420   -1.116475    0.868560
     27          8           0        3.662688   -1.013046    0.021678
     28          6           0        4.264675    0.274072   -0.174860
     29          8           0        5.373400    0.236237   -1.084587
     30          1           0       -5.871313   -0.170711   -0.387180
     31          1           0       -3.771201    2.424223    1.170220
     32          1           0       -3.971093    2.794807   -0.494095
     33          1           0       -2.469126    1.051959   -1.115700
     34          1           0       -4.211110   -0.184386    0.993205
     35          1           0       -2.795359   -0.902462   -1.513296
     36          1           0       -2.138840   -1.699438    1.215692
     37          1           0       -0.767880    0.046175   -0.726940
     38          1           0        6.094510   -0.259469   -0.689775
     39          1           0        4.660796    0.575425    0.772333
     40          1           0        2.745204    0.870115   -1.421368
     41          1           0        2.398292    1.343704    1.429892
     42          1           0        1.259606   -0.395635   -0.668785
     43          1           0        2.788946   -0.803719    1.852912
     44          1           0        1.311235   -2.699547    1.603816
     45          1           0        2.969088   -3.132745    1.322130
 ---------------------------------------------------------------------
 Rotational constants (GHZ):      0.3882606      0.1523465      0.1167561
 Standard basis: 6-31+G(2df,p) (6D, 7F)
 There are   846 symmetry adapted basis functions of A   symmetry.
 Integral buffers will be    131072 words long.
 Raffenetti 2 integral format.
 Two-electron integral symmetry is turned on.
   846 basis functions,  1258 primitive gaussians,   915 cartesian basis functions
    91 alpha electrons       91 beta electrons
       nuclear repulsion energy      2289.1130215375 Hartrees.
 NAtoms=   45 NActive=   45 NUniq=   45 SFac= 1.00D+00 NAtFMM=   50 NAOKFM=F Big=F
 One-electron integrals computed using PRISM.
 NBasis=   846 RedAO= T  NBF=   846
 NBsUse=   846 1.00D-06 NBFU=   846
 Harris functional with IExCor=  402 diagonalized for initial guess.
 ExpMin= 4.38D-02 ExpMax= 5.48D+03 ExpMxC= 8.25D+02 IAcc=2 IRadAn=         0 AccDes= 0.00D+00
 HarFok:  IExCor=  402 AccDes= 0.00D+00 IRadAn=         0 IDoV= 1
 ScaDFX=  1.000000  1.000000  1.000000  1.000000
 FoFCou: FMM=F IPFlag=           0 FMFlag=      100000 FMFlg1=           0
         NFxFlg=           0 DoJE=T BraDBF=F KetDBF=T FulRan=T
         Omega=  0.000000  0.000000  1.000000  0.000000  0.000000 ICntrl=     500 IOpCl=  0
         NMat0=    1 NMatS0=    1 NMatT0=    0 NMatD0=    1 NMtDS0=    0 NMtDT0=    0
         I1Cent=           4 NGrid=           0.
 Petite list used in FoFCou.
 Initial guess orbital symmetries:
       Occupied  (A) (A) (A) (A) (A) (A) (A) (A) (A) (A) (A) (A)
                 (A) (A) (A) (A) (A) (A) (A) (A) (A) (A) (A) (A)
                 (A) (A) (A) (A) (A) (A) (A) (A) (A) (A) (A) (A)
                 (A) (A) (A) (A) (A) (A) (A) (A) (A) (A) (A) (A)
                 (A) (A) (A) (A) (A) (A) (A) (A) (A) (A) (A) (A)
                 (A) (A) (A) (A) (A) (A) (A) (A) (A) (A) (A) (A)
                 (A) (A) (A) (A) (A) (A) (A) (A) (A) (A) (A) (A)
                 (A) (A) (A) (A) (A) (A) (A)
       Virtual   (A) (A) (A) (A) (A) (A) (A) (A) (A) (A) (A) (A)
                 (A) (A) (A) (A) (A) (A) (A) (A) (A) (A) (A) (A)
                 (A) (A) (A) (A) (A) (A) (A) (A) (A) (A) (A) (A)
                 (A) (A) (A) (A) (A) (A) (A) (A) (A) (A) (A) (A)
                 (A) (A) (A) (A) (A) (A) (A) (A) (A) (A) (A) (A)
                 (A) (A) (A) (A) (A) (A) (A) (A) (A) (A) (A) (A)
                 (A) (A) (A) (A) (A) (A) (A) (A) (A) (A) (A) (A)
                 (A) (A) (A) (A) (A) (A) (A) (A) (A) (A) (A) (A)
                 (A) (A) (A) (A) (A) (A) (A) (A) (A) (A) (A) (A)
                 (A) (A) (A) (A) (A) (A) (A) (A) (A) (A) (A) (A)
                 (A) (A) (A) (A) (A) (A) (A) (A) (A) (A) (A) (A)
                 (A) (A) (A) (A) (A) (A) (A) (A) (A) (A) (A) (A)
                 (A) (A) (A) (A) (A) (A) (A) (A) (A) (A) (A) (A)
                 (A) (A) (A) (A) (A) (A) (A) (A) (A) (A) (A) (A)
                 (A) (A) (A) (A) (A) (A) (A) (A) (A) (A) (A) (A)
                 (A) (A) (A) (A) (A) (A) (A) (A) (A) (A) (A) (A)
                 (A) (A) (A) (A) (A) (A) (A) (A) (A) (A) (A) (A)
                 (A) (A) (A) (A) (A) (A) (A) (A) (A) (A) (A) (A)
                 (A) (A) (A) (A) (A) (A) (A) (A) (A) (A) (A) (A)
                 (A) (A) (A) (A) (A) (A) (A) (A) (A) (A) (A) (A)
                 (A) (A) (A) (A) (A) (A) (A) (A) (A) (A) (A) (A)
                 (A) (A) (A) (A) (A) (A) (A) (A) (A) (A) (A) (A)
                 (A) (A) (A) (A) (A) (A) (A) (A) (A) (A) (A) (A)
                 (A) (A) (A) (A) (A) (A) (A) (A) (A) (A) (A) (A)
                 (A) (A) (A) (A) (A) (A) (A) (A) (A) (A) (A) (A)
                 (A) (A) (A) (A) (A) (A) (A) (A) (A) (A) (A) (A)
                 (A) (A) (A) (A) (A) (A) (A) (A) (A) (A) (A) (A)
                 (A) (A) (A) (A) (A) (A) (A) (A) (A) (A) (A) (A)
                 (A) (A) (A) (A) (A) (A) (A) (A) (A) (A) (A) (A)
                 (A) (A) (A) (A) (A) (A) (A) (A) (A) (A) (A) (A)
                 (A) (A) (A) (A) (A) (A) (A) (A) (A) (A) (A) (A)
                 (A) (A) (A) (A) (A) (A) (A) (A) (A) (A) (A) (A)
                 (A) (A) (A) (A) (A) (A) (A) (A) (A) (A) (A) (A)
                 (A) (A) (A) (A) (A) (A) (A) (A) (A) (A) (A) (A)
                 (A) (A) (A) (A) (A) (A) (A) (A) (A) (A) (A) (A)
                 (A) (A) (A) (A) (A) (A) (A) (A) (A) (A) (A) (A)
                 (A) (A) (A) (A) (A) (A) (A) (A) (A) (A) (A) (A)
                 (A) (A) (A) (A) (A) (A) (A) (A) (A) (A) (A) (A)
                 (A) (A) (A) (A) (A) (A) (A) (A) (A) (A) (A) (A)
                 (A) (A) (A) (A) (A) (A) (A) (A) (A) (A) (A) (A)
                 (A) (A) (A) (A) (A) (A) (A) (A) (A) (A) (A) (A)
                 (A) (A) (A) (A) (A) (A) (A) (A) (A) (A) (A) (A)
                 (A) (A) (A) (A) (A) (A) (A) (A) (A) (A) (A) (A)
                 (A) (A) (A) (A) (A) (A) (A) (A) (A) (A) (A) (A)
                 (A) (A) (A) (A) (A) (A) (A) (A) (A) (A) (A) (A)
                 (A) (A) (A) (A) (A) (A) (A) (A) (A) (A) (A) (A)
                 (A) (A) (A) (A) (A) (A) (A) (A) (A) (A) (A) (A)
                 (A) (A) (A) (A) (A) (A) (A) (A) (A) (A) (A) (A)
                 (A) (A) (A) (A) (A) (A) (A) (A) (A) (A) (A) (A)
                 (A) (A) (A) (A) (A) (A) (A) (A) (A) (A) (A) (A)
                 (A) (A) (A) (A) (A) (A) (A) (A) (A) (A) (A) (A)
                 (A) (A) (A) (A) (A) (A) (A) (A) (A) (A) (A) (A)
                 (A) (A) (A) (A) (A) (A) (A) (A) (A) (A) (A) (A)
                 (A) (A) (A) (A) (A) (A) (A) (A) (A) (A) (A) (A)
                 (A) (A) (A) (A) (A) (A) (A) (A) (A) (A) (A) (A)
                 (A) (A) (A) (A) (A) (A) (A) (A) (A) (A) (A) (A)
                 (A) (A) (A) (A) (A) (A) (A) (A) (A) (A) (A) (A)
                 (A) (A) (A) (A) (A) (A) (A) (A) (A) (A) (A) (A)
                 (A) (A) (A) (A) (A) (A) (A) (A) (A) (A) (A) (A)
                 (A) (A) (A) (A) (A) (A) (A) (A) (A) (A) (A) (A)
                 (A) (A) (A) (A) (A) (A) (A) (A) (A) (A) (A) (A)
                 (A) (A) (A) (A) (A) (A) (A) (A) (A) (A) (A) (A)
                 (A) (A) (A) (A) (A) (A) (A) (A) (A) (A) (A)
 The electronic state of the initial guess is 1-A.
 Requested convergence on RMS density matrix=1.00D-08 within 128 cycles.
 Requested convergence on MAX density matrix=1.00D-06.
 Requested convergence on             energy=1.00D-06.
 No special actions if energy rises.
 SCF Done:  E(RB3LYP) =  -1297.97600850     A.U. after   14 cycles
             Convg  =    0.1601D-08             -V/T =  2.0067
 Range of M.O.s used for correlation:     1   846
 NBasis=   846 NAE=    91 NBE=    91 NFC=     0 NFV=     0
 NROrb=    846 NOA=    91 NOB=    91 NVA=   755 NVB=   755

 **** Warning!!: The largest alpha MO coefficient is  0.95262728D+02

          Differentiating once with respect to electric field.
                with respect to dipole field.
          Electric field/nuclear overlap derivatives assumed to be zero.
          There are     3 degrees of freedom in the 1st order CPHF.  IDoFFX=0.
      3 vectors produced by pass  0 Test12= 2.29D-12 3.33D-08 XBig12= 1.25D+02 1.24D+00.
 AX will form     3 AO Fock derivatives at one time.
      3 vectors produced by pass  1 Test12= 2.29D-12 3.33D-08 XBig12= 2.60D+01 4.92D-01.
      3 vectors produced by pass  2 Test12= 2.29D-12 3.33D-08 XBig12= 9.71D+00 2.41D-01.
      3 vectors produced by pass  3 Test12= 2.29D-12 3.33D-08 XBig12= 1.21D+00 9.29D-02.
      3 vectors produced by pass  4 Test12= 2.29D-12 3.33D-08 XBig12= 2.78D-01 3.72D-02.
      3 vectors produced by pass  5 Test12= 2.29D-12 3.33D-08 XBig12= 6.48D-02 2.34D-02.
      3 vectors produced by pass  6 Test12= 2.29D-12 3.33D-08 XBig12= 1.80D-02 1.67D-02.
      3 vectors produced by pass  7 Test12= 2.29D-12 3.33D-08 XBig12= 3.65D-03 7.76D-03.
      3 vectors produced by pass  8 Test12= 2.29D-12 3.33D-08 XBig12= 6.83D-04 2.94D-03.
      3 vectors produced by pass  9 Test12= 2.29D-12 3.33D-08 XBig12= 1.59D-04 1.52D-03.
      3 vectors produced by pass 10 Test12= 2.29D-12 3.33D-08 XBig12= 3.89D-05 8.55D-04.
      3 vectors produced by pass 11 Test12= 2.29D-12 3.33D-08 XBig12= 7.64D-06 4.13D-04.
      3 vectors produced by pass 12 Test12= 2.29D-12 3.33D-08 XBig12= 1.93D-06 1.86D-04.
      3 vectors produced by pass 13 Test12= 2.29D-12 3.33D-08 XBig12= 2.85D-07 5.08D-05.
      3 vectors produced by pass 14 Test12= 2.29D-12 3.33D-08 XBig12= 8.02D-08 3.71D-05.
      3 vectors produced by pass 15 Test12= 2.29D-12 3.33D-08 XBig12= 1.23D-08 1.03D-05.
      3 vectors produced by pass 16 Test12= 2.29D-12 3.33D-08 XBig12= 1.31D-09 2.99D-06.
      3 vectors produced by pass 17 Test12= 2.29D-12 3.33D-08 XBig12= 1.38D-10 1.17D-06.
      3 vectors produced by pass 18 Test12= 2.29D-12 3.33D-08 XBig12= 2.43D-11 4.14D-07.
      3 vectors produced by pass 19 Test12= 2.29D-12 3.33D-08 XBig12= 1.47D-11 3.20D-07.
      3 vectors produced by pass 20 Test12= 2.29D-12 3.33D-08 XBig12= 6.65D-12 1.75D-07.
      3 vectors produced by pass 21 Test12= 2.29D-12 3.33D-08 XBig12= 2.38D-12 1.46D-07.
      2 vectors produced by pass 22 Test12= 2.29D-12 3.33D-08 XBig12= 5.41D-13 4.63D-08.
 Inverted reduced A of dimension    68 with in-core refinement.
 End of Minotr Frequency-dependent properties file   721 does not exist.
 End of Minotr Frequency-dependent properties file   722 does not exist.
 Symmetrizing basis deriv contribution to polar:
 IMax=3 JMax=2 DiffMx= 0.00D+00
 G2DrvN: will do     8 centers at a time, making    6 passes doing MaxLOS=3.
 Calling FoFCou, ICntrl=  3107 FMM=F I1Cent=   0 AccDes= 0.00D+00.
 Calling FoFCou, ICntrl=  3107 FMM=F I1Cent=   0 AccDes= 0.00D+00.
 Calling FoFCou, ICntrl=  3107 FMM=F I1Cent=   0 AccDes= 0.00D+00.
 Calling FoFCou, ICntrl=  3107 FMM=F I1Cent=   0 AccDes= 0.00D+00.
 Calling FoFCou, ICntrl=  3107 FMM=F I1Cent=   0 AccDes= 0.00D+00.
 Calling FoFCou, ICntrl=  3107 FMM=F I1Cent=   0 AccDes= 0.00D+00.
 FoFDir/FoFCou used for L=0 through L=3.
 End of G2Drv Frequency-dependent properties file   721 does not exist.
 End of G2Drv Frequency-dependent properties file   722 does not exist.
          IDoAtm=111111111111111111111111111111111111111111111
          Differentiating once with respect to electric field.
                with respect to dipole field.
          Differentiating once with respect to nuclear coordinates.
          There are   138 degrees of freedom in the 1st order CPHF.  IDoFFX=5.
 Will reuse    3 saved solutions.
    135 vectors produced by pass  0 Test12= 6.87D-14 1.00D-09 XBig12= 2.06D-01 7.83D-02.
 AX will form    27 AO Fock derivatives at one time.
    135 vectors produced by pass  1 Test12= 6.87D-14 1.00D-09 XBig12= 2.20D-02 1.25D-02.
    132 vectors produced by pass  2 Test12= 6.87D-14 1.00D-09 XBig12= 1.78D-04 1.46D-03.
    132 vectors produced by pass  3 Test12= 6.87D-14 1.00D-09 XBig12= 1.05D-06 8.24D-05.
    132 vectors produced by pass  4 Test12= 6.87D-14 1.00D-09 XBig12= 2.41D-09 3.49D-06.
    132 vectors produced by pass  5 Test12= 6.87D-14 1.00D-09 XBig12= 6.84D-12 1.57D-07.
    101 vectors produced by pass  6 Test12= 6.87D-14 1.00D-09 XBig12= 3.46D-13 2.74D-08.
      5 vectors produced by pass  7 Test12= 6.87D-14 1.00D-09 XBig12= 2.74D-15 2.49D-09.
 Inverted reduced A of dimension   904 with in-core refinement.
 Isotropic polarizability for W=    0.000000      191.31 Bohr**3.
 End of Minotr Frequency-dependent properties file   721 does not exist.
 End of Minotr Frequency-dependent properties file   722 does not exist.

 **********************************************************************

            Population analysis using the SCF density.

 **********************************************************************

 Orbital symmetries:
       Occupied  (A) (A) (A) (A) (A) (A) (A) (A) (A) (A) (A) (A)
                 (A) (A) (A) (A) (A) (A) (A) (A) (A) (A) (A) (A)
                 (A) (A) (A) (A) (A) (A) (A) (A) (A) (A) (A) (A)
                 (A) (A) (A) (A) (A) (A) (A) (A) (A) (A) (A) (A)
                 (A) (A) (A) (A) (A) (A) (A) (A) (A) (A) (A) (A)
                 (A) (A) (A) (A) (A) (A) (A) (A) (A) (A) (A) (A)
                 (A) (A) (A) (A) (A) (A) (A) (A) (A) (A) (A) (A)
                 (A) (A) (A) (A) (A) (A) (A)
       Virtual   (A) (A) (A) (A) (A) (A) (A) (A) (A) (A) (A) (A)
                 (A) (A) (A) (A) (A) (A) (A) (A) (A) (A) (A) (A)
                 (A) (A) (A) (A) (A) (A) (A) (A) (A) (A) (A) (A)
                 (A) (A) (A) (A) (A) (A) (A) (A) (A) (A) (A) (A)
                 (A) (A) (A) (A) (A) (A) (A) (A) (A) (A) (A) (A)
                 (A) (A) (A) (A) (A) (A) (A) (A) (A) (A) (A) (A)
                 (A) (A) (A) (A) (A) (A) (A) (A) (A) (A) (A) (A)
                 (A) (A) (A) (A) (A) (A) (A) (A) (A) (A) (A) (A)
                 (A) (A) (A) (A) (A) (A) (A) (A) (A) (A) (A) (A)
                 (A) (A) (A) (A) (A) (A) (A) (A) (A) (A) (A) (A)
                 (A) (A) (A) (A) (A) (A) (A) (A) (A) (A) (A) (A)
                 (A) (A) (A) (A) (A) (A) (A) (A) (A) (A) (A) (A)
                 (A) (A) (A) (A) (A) (A) (A) (A) (A) (A) (A) (A)
                 (A) (A) (A) (A) (A) (A) (A) (A) (A) (A) (A) (A)
                 (A) (A) (A) (A) (A) (A) (A) (A) (A) (A) (A) (A)
                 (A) (A) (A) (A) (A) (A) (A) (A) (A) (A) (A) (A)
                 (A) (A) (A) (A) (A) (A) (A) (A) (A) (A) (A) (A)
                 (A) (A) (A) (A) (A) (A) (A) (A) (A) (A) (A) (A)
                 (A) (A) (A) (A) (A) (A) (A) (A) (A) (A) (A) (A)
                 (A) (A) (A) (A) (A) (A) (A) (A) (A) (A) (A) (A)
                 (A) (A) (A) (A) (A) (A) (A) (A) (A) (A) (A) (A)
                 (A) (A) (A) (A) (A) (A) (A) (A) (A) (A) (A) (A)
                 (A) (A) (A) (A) (A) (A) (A) (A) (A) (A) (A) (A)
                 (A) (A) (A) (A) (A) (A) (A) (A) (A) (A) (A) (A)
                 (A) (A) (A) (A) (A) (A) (A) (A) (A) (A) (A) (A)
                 (A) (A) (A) (A) (A) (A) (A) (A) (A) (A) (A) (A)
                 (A) (A) (A) (A) (A) (A) (A) (A) (A) (A) (A) (A)
                 (A) (A) (A) (A) (A) (A) (A) (A) (A) (A) (A) (A)
                 (A) (A) (A) (A) (A) (A) (A) (A) (A) (A) (A) (A)
                 (A) (A) (A) (A) (A) (A) (A) (A) (A) (A) (A) (A)
                 (A) (A) (A) (A) (A) (A) (A) (A) (A) (A) (A) (A)
                 (A) (A) (A) (A) (A) (A) (A) (A) (A) (A) (A) (A)
                 (A) (A) (A) (A) (A) (A) (A) (A) (A) (A) (A) (A)
                 (A) (A) (A) (A) (A) (A) (A) (A) (A) (A) (A) (A)
                 (A) (A) (A) (A) (A) (A) (A) (A) (A) (A) (A) (A)
                 (A) (A) (A) (A) (A) (A) (A) (A) (A) (A) (A) (A)
                 (A) (A) (A) (A) (A) (A) (A) (A) (A) (A) (A) (A)
                 (A) (A) (A) (A) (A) (A) (A) (A) (A) (A) (A) (A)
                 (A) (A) (A) (A) (A) (A) (A) (A) (A) (A) (A) (A)
                 (A) (A) (A) (A) (A) (A) (A) (A) (A) (A) (A) (A)
                 (A) (A) (A) (A) (A) (A) (A) (A) (A) (A) (A) (A)
                 (A) (A) (A) (A) (A) (A) (A) (A) (A) (A) (A) (A)
                 (A) (A) (A) (A) (A) (A) (A) (A) (A) (A) (A) (A)
                 (A) (A) (A) (A) (A) (A) (A) (A) (A) (A) (A) (A)
                 (A) (A) (A) (A) (A) (A) (A) (A) (A) (A) (A) (A)
                 (A) (A) (A) (A) (A) (A) (A) (A) (A) (A) (A) (A)
                 (A) (A) (A) (A) (A) (A) (A) (A) (A) (A) (A) (A)
                 (A) (A) (A) (A) (A) (A) (A) (A) (A) (A) (A) (A)
                 (A) (A) (A) (A) (A) (A) (A) (A) (A) (A) (A) (A)
                 (A) (A) (A) (A) (A) (A) (A) (A) (A) (A) (A) (A)
                 (A) (A) (A) (A) (A) (A) (A) (A) (A) (A) (A) (A)
                 (A) (A) (A) (A) (A) (A) (A) (A) (A) (A) (A) (A)
                 (A) (A) (A) (A) (A) (A) (A) (A) (A) (A) (A) (A)
                 (A) (A) (A) (A) (A) (A) (A) (A) (A) (A) (A) (A)
                 (A) (A) (A) (A) (A) (A) (A) (A) (A) (A) (A) (A)
                 (A) (A) (A) (A) (A) (A) (A) (A) (A) (A) (A) (A)
                 (A) (A) (A) (A) (A) (A) (A) (A) (A) (A) (A) (A)
                 (A) (A) (A) (A) (A) (A) (A) (A) (A) (A) (A) (A)
                 (A) (A) (A) (A) (A) (A) (A) (A) (A) (A) (A) (A)
                 (A) (A) (A) (A) (A) (A) (A) (A) (A) (A) (A) (A)
                 (A) (A) (A) (A) (A) (A) (A) (A) (A) (A) (A) (A)
                 (A) (A) (A) (A) (A) (A) (A) (A) (A) (A) (A) (A)
                 (A) (A) (A) (A) (A) (A) (A) (A) (A) (A) (A)
 The electronic state is 1-A.
 Alpha  occ. eigenvalues --  -19.20561 -19.20127 -19.19549 -19.18576 -19.18102
 Alpha  occ. eigenvalues --  -19.16921 -19.16259 -19.15909 -19.15701 -19.14395
 Alpha  occ. eigenvalues --  -19.13687 -10.32277 -10.28974 -10.28516 -10.27596
 Alpha  occ. eigenvalues --  -10.27428 -10.26788 -10.25585 -10.24831 -10.24733
 Alpha  occ. eigenvalues --  -10.24253 -10.23566 -10.22636  -1.11061  -1.08553
 Alpha  occ. eigenvalues --   -1.06744  -1.06230  -1.05176  -1.03829  -1.03148
 Alpha  occ. eigenvalues --   -1.02786  -1.01463  -1.00170  -0.99860  -0.83973
 Alpha  occ. eigenvalues --   -0.82682  -0.79648  -0.77989  -0.72602  -0.70089
 Alpha  occ. eigenvalues --   -0.68009  -0.65112  -0.64373  -0.63270  -0.61484
 Alpha  occ. eigenvalues --   -0.60326  -0.58237  -0.56751  -0.55403  -0.54179
 Alpha  occ. eigenvalues --   -0.54042  -0.53645  -0.53362  -0.52529  -0.51759
 Alpha  occ. eigenvalues --   -0.50346  -0.50164  -0.49384  -0.48490  -0.47419
 Alpha  occ. eigenvalues --   -0.47020  -0.45185  -0.44614  -0.44410  -0.44083
 Alpha  occ. eigenvalues --   -0.43381  -0.42993  -0.40930  -0.40362  -0.40050
 Alpha  occ. eigenvalues --   -0.39341  -0.38390  -0.37337  -0.37267  -0.36365
 Alpha  occ. eigenvalues --   -0.35938  -0.34855  -0.34828  -0.34085  -0.33692
 Alpha  occ. eigenvalues --   -0.32776  -0.32333  -0.31095  -0.30729  -0.30388
 Alpha  occ. eigenvalues --   -0.29823  -0.29215  -0.28694  -0.27187  -0.26461
 Alpha  occ. eigenvalues --   -0.26302
 Alpha virt. eigenvalues --   -0.04935  -0.02183  -0.01628  -0.00678   0.00542
 Alpha virt. eigenvalues --    0.00881   0.01561   0.02057   0.02556   0.03311
 Alpha virt. eigenvalues --    0.03541   0.04403   0.04639   0.05000   0.05635
 Alpha virt. eigenvalues --    0.06136   0.06321   0.06578   0.07089   0.07441
 Alpha virt. eigenvalues --    0.07718   0.08315   0.09117   0.09594   0.10045
 Alpha virt. eigenvalues --    0.10260   0.10687   0.10911   0.11098   0.11319
 Alpha virt. eigenvalues --    0.12018   0.12401   0.12631   0.12771   0.13596
 Alpha virt. eigenvalues --    0.13838   0.13876   0.14042   0.14482   0.14847
 Alpha virt. eigenvalues --    0.15217   0.15444   0.15763   0.15982   0.16353
 Alpha virt. eigenvalues --    0.16764   0.17271   0.17411   0.18074   0.18346
 Alpha virt. eigenvalues --    0.18468   0.18683   0.18937   0.19036   0.19632
 Alpha virt. eigenvalues --    0.20010   0.20430   0.20483   0.20895   0.21237
 Alpha virt. eigenvalues --    0.21579   0.21787   0.22138   0.22371   0.22730
 Alpha virt. eigenvalues --    0.22949   0.23522   0.23737   0.23932   0.24179
 Alpha virt. eigenvalues --    0.24436   0.24536   0.25206   0.25365   0.25671
 Alpha virt. eigenvalues --    0.25978   0.26326   0.26462   0.26655   0.27099
 Alpha virt. eigenvalues --    0.27383   0.27975   0.28056   0.28663   0.28885
 Alpha virt. eigenvalues --    0.28930   0.29194   0.29448   0.29856   0.30080
 Alpha virt. eigenvalues --    0.30110   0.30789   0.31138   0.31396   0.31771
 Alpha virt. eigenvalues --    0.31863   0.32284   0.32751   0.33370   0.33414
 Alpha virt. eigenvalues --    0.34077   0.34524   0.34667   0.35078   0.35240
 Alpha virt. eigenvalues --    0.35825   0.36031   0.36318   0.36596   0.37318
 Alpha virt. eigenvalues --    0.37594   0.37846   0.37971   0.38350   0.38699
 Alpha virt. eigenvalues --    0.39205   0.39893   0.40006   0.40405   0.40929
 Alpha virt. eigenvalues --    0.41641   0.42114   0.42179   0.42771   0.42949
 Alpha virt. eigenvalues --    0.43665   0.44019   0.44713   0.45569   0.46522
 Alpha virt. eigenvalues --    0.46860   0.46969   0.47879   0.49256   0.49440
 Alpha virt. eigenvalues --    0.50536   0.51700   0.52755   0.56424   0.56813
 Alpha virt. eigenvalues --    0.57735   0.58379   0.59185   0.60119   0.60661
 Alpha virt. eigenvalues --    0.61730   0.61968   0.62834   0.64220   0.65952
 Alpha virt. eigenvalues --    0.66613   0.67173   0.67967   0.68601   0.68667
 Alpha virt. eigenvalues --    0.70036   0.70617   0.71014   0.71940   0.73124
 Alpha virt. eigenvalues --    0.74320   0.74724   0.74957   0.75346   0.76390
 Alpha virt. eigenvalues --    0.77044   0.77064   0.77902   0.79096   0.79981
 Alpha virt. eigenvalues --    0.81064   0.81895   0.82474   0.83186   0.84240
 Alpha virt. eigenvalues --    0.85356   0.85889   0.87077   0.87304   0.88026
 Alpha virt. eigenvalues --    0.88458   0.88976   0.89932   0.90636   0.91166
 Alpha virt. eigenvalues --    0.91395   0.92054   0.92531   0.92619   0.92825
 Alpha virt. eigenvalues --    0.93620   0.94056   0.94193   0.94990   0.95380
 Alpha virt. eigenvalues --    0.95926   0.96262   0.96725   0.97396   0.97587
 Alpha virt. eigenvalues --    0.98338   0.99048   0.99784   1.00476   1.01216
 Alpha virt. eigenvalues --    1.01797   1.02577   1.03383   1.03704   1.03905
 Alpha virt. eigenvalues --    1.05160   1.05538   1.05749   1.06039   1.06974
 Alpha virt. eigenvalues --    1.07885   1.08652   1.09107   1.10238   1.10483
 Alpha virt. eigenvalues --    1.10980   1.11893   1.12203   1.13246   1.13364
 Alpha virt. eigenvalues --    1.13471   1.14082   1.14805   1.15781   1.16079
 Alpha virt. eigenvalues --    1.16526   1.16985   1.17534   1.17829   1.18675
 Alpha virt. eigenvalues --    1.18891   1.19291   1.20122   1.20908   1.21700
 Alpha virt. eigenvalues --    1.22057   1.22897   1.23061   1.23877   1.23933
 Alpha virt. eigenvalues --    1.24789   1.25208   1.25316   1.26332   1.26721
 Alpha virt. eigenvalues --    1.27247   1.28546   1.28686   1.29432   1.29698
 Alpha virt. eigenvalues --    1.31140   1.31639   1.32183   1.32712   1.33407
 Alpha virt. eigenvalues --    1.33580   1.34029   1.34918   1.35241   1.36405
 Alpha virt. eigenvalues --    1.36518   1.37394   1.38491   1.39093   1.39179
 Alpha virt. eigenvalues --    1.40127   1.40640   1.41050   1.41697   1.42406
 Alpha virt. eigenvalues --    1.42600   1.42782   1.43476   1.45266   1.45510
 Alpha virt. eigenvalues --    1.46517   1.46874   1.47293   1.47988   1.49315
 Alpha virt. eigenvalues --    1.49763   1.50158   1.51542   1.51948   1.52291
 Alpha virt. eigenvalues --    1.54170   1.54798   1.55644   1.57054   1.57890
 Alpha virt. eigenvalues --    1.58613   1.59201   1.60583   1.61914   1.62213
 Alpha virt. eigenvalues --    1.64473   1.65381   1.65970   1.66816   1.67271
 Alpha virt. eigenvalues --    1.68291   1.68793   1.70006   1.70208   1.71569
 Alpha virt. eigenvalues --    1.71807   1.72807   1.73339   1.74085   1.74895
 Alpha virt. eigenvalues --    1.77029   1.78524   1.79394   1.80575   1.81678
 Alpha virt. eigenvalues --    1.82082   1.82846   1.83352   1.85187   1.85295
 Alpha virt. eigenvalues --    1.86725   1.87004   1.87823   1.89734   1.90417
 Alpha virt. eigenvalues --    1.90761   1.91180   1.93596   1.93902   1.94431
 Alpha virt. eigenvalues --    1.95974   1.97211   1.98820   1.99397   2.00496
 Alpha virt. eigenvalues --    2.01306   2.02838   2.03886   2.04559   2.06326
 Alpha virt. eigenvalues --    2.06518   2.07369   2.09617   2.11973   2.12755
 Alpha virt. eigenvalues --    2.13341   2.16758   2.17520   2.18636   2.19163
 Alpha virt. eigenvalues --    2.19653   2.20555   2.22084   2.22374   2.23401
 Alpha virt. eigenvalues --    2.25233   2.26130   2.28036   2.29429   2.29733
 Alpha virt. eigenvalues --    2.32568   2.33368   2.35493   2.36689   2.37307
 Alpha virt. eigenvalues --    2.39713   2.43058   2.46517   2.47636   2.49694
 Alpha virt. eigenvalues --    2.50804   2.51385   2.53208   2.53738   2.54216
 Alpha virt. eigenvalues --    2.54311   2.54519   2.56343   2.56790   2.58399
 Alpha virt. eigenvalues --    2.58991   2.59633   2.59915   2.61666   2.62606
 Alpha virt. eigenvalues --    2.63320   2.64161   2.65597   2.67674   2.69113
 Alpha virt. eigenvalues --    2.70224   2.72024   2.72928   2.74643   2.74916
 Alpha virt. eigenvalues --    2.76101   2.78575   2.79529   2.80168   2.81403
 Alpha virt. eigenvalues --    2.83028   2.83765   2.84785   2.86424   2.87545
 Alpha virt. eigenvalues --    2.88871   2.90080   2.90767   2.92038   2.92621
 Alpha virt. eigenvalues --    2.93182   2.94294   2.96097   2.96795   2.98264
 Alpha virt. eigenvalues --    2.99265   3.00197   3.00419   3.02319   3.02869
 Alpha virt. eigenvalues --    3.03879   3.04287   3.04900   3.05192   3.06083
 Alpha virt. eigenvalues --    3.06549   3.07177   3.08973   3.09238   3.09795
 Alpha virt. eigenvalues --    3.11692   3.13313   3.14628   3.15538   3.16927
 Alpha virt. eigenvalues --    3.18058   3.18408   3.20536   3.21382   3.23820
 Alpha virt. eigenvalues --    3.24503   3.24983   3.26496   3.27223   3.27782
 Alpha virt. eigenvalues --    3.28704   3.30286   3.30768   3.31683   3.32688
 Alpha virt. eigenvalues --    3.33461   3.34354   3.35267   3.35922   3.36841
 Alpha virt. eigenvalues --    3.39345   3.39953   3.40746   3.42267   3.42972
 Alpha virt. eigenvalues --    3.43736   3.44664   3.49596   3.50271   3.52090
 Alpha virt. eigenvalues --    3.53064   3.54731   3.55766   3.56756   3.58196
 Alpha virt. eigenvalues --    3.59069   3.60206   3.61488   3.62918   3.65043
 Alpha virt. eigenvalues --    3.66516   3.69360   3.69929   3.70717   3.72008
 Alpha virt. eigenvalues --    3.73434   3.75019   3.76933   3.77482   3.80077
 Alpha virt. eigenvalues --    3.82157   3.82642   3.83165   3.85063   3.85673
 Alpha virt. eigenvalues --    3.87221   3.88822   3.90421   3.90778   3.91925
 Alpha virt. eigenvalues --    3.93795   3.97001   3.99041   4.00363   4.00773
 Alpha virt. eigenvalues --    4.05027   4.06794   4.10062   4.11146   4.12437
 Alpha virt. eigenvalues --    4.13446   4.14584   4.15154   4.15320   4.17450
 Alpha virt. eigenvalues --    4.19748   4.20471   4.22450   4.22767   4.24718
 Alpha virt. eigenvalues --    4.25229   4.26417   4.26788   4.27524   4.28605
 Alpha virt. eigenvalues --    4.29949   4.31057   4.31907   4.33797   4.34337
 Alpha virt. eigenvalues --    4.35625   4.35886   4.36651   4.37694   4.38541
 Alpha virt. eigenvalues --    4.39367   4.39927   4.40711   4.41853   4.42131
 Alpha virt. eigenvalues --    4.42913   4.43951   4.44835   4.45835   4.46122
 Alpha virt. eigenvalues --    4.46563   4.47389   4.48513   4.50026   4.50758
 Alpha virt. eigenvalues --    4.51174   4.51706   4.52201   4.53664   4.54426
 Alpha virt. eigenvalues --    4.54595   4.55434   4.55910   4.56833   4.57483
 Alpha virt. eigenvalues --    4.58461   4.58592   4.59553   4.59887   4.61432
 Alpha virt. eigenvalues --    4.61499   4.62431   4.62846   4.63946   4.64400
 Alpha virt. eigenvalues --    4.65098   4.65158   4.66529   4.66676   4.67525
 Alpha virt. eigenvalues --    4.68160   4.69545   4.70322   4.71166   4.71291
 Alpha virt. eigenvalues --    4.72166   4.73225   4.73301   4.74235   4.74627
 Alpha virt. eigenvalues --    4.75191   4.76041   4.76822   4.77384   4.77617
 Alpha virt. eigenvalues --    4.77791   4.78980   4.79843   4.80299   4.81281
 Alpha virt. eigenvalues --    4.81546   4.82350   4.83857   4.84612   4.85546
 Alpha virt. eigenvalues --    4.86352   4.86569   4.87073   4.87757   4.89108
 Alpha virt. eigenvalues --    4.90600   4.91312   4.92949   4.94167   4.94774
 Alpha virt. eigenvalues --    4.96236   4.98291   4.99174   4.99359   5.02026
 Alpha virt. eigenvalues --    5.03370   5.03845   5.05305   5.07701   5.09309
 Alpha virt. eigenvalues --    5.10927   5.12169   5.15207   5.16155   5.18745
 Alpha virt. eigenvalues --    5.19329   5.19892   5.20710   5.21729   5.23466
 Alpha virt. eigenvalues --    5.24320   5.25868   5.27094   5.27298   5.28126
 Alpha virt. eigenvalues --    5.28762   5.30738   5.31068   5.32368   5.33465
 Alpha virt. eigenvalues --    5.34502   5.35454   5.36090   5.37387   5.38030
 Alpha virt. eigenvalues --    5.39475   5.39954   5.40277   5.40473   5.41202
 Alpha virt. eigenvalues --    5.42076   5.44028   5.44691   5.45083   5.46124
 Alpha virt. eigenvalues --    5.47010   5.48271   5.48507   5.50111   5.51721
 Alpha virt. eigenvalues --    5.52425   5.53362   5.54939   5.55437   5.56708
 Alpha virt. eigenvalues --    5.58359   5.60887   5.61095   5.64188   5.66970
 Alpha virt. eigenvalues --    5.67521   5.67613   5.69857   5.74146   5.75843
 Alpha virt. eigenvalues --    5.77039   5.78745   5.79490   5.80496   5.82089
 Alpha virt. eigenvalues --    5.83075   5.84652   5.86505   5.87795   5.89048
 Alpha virt. eigenvalues --    5.89794   5.91018   5.92743   5.93546   5.93967
 Alpha virt. eigenvalues --    5.95087   5.96014   5.97176   5.98298   5.98793
 Alpha virt. eigenvalues --    6.00595   6.01265   6.02086   6.02455   6.04050
 Alpha virt. eigenvalues --    6.07093   6.07941   6.08617   6.09228   6.11657
 Alpha virt. eigenvalues --    6.12374   6.13497   6.16174   6.17951   6.20665
 Alpha virt. eigenvalues --    6.21769   6.27374   6.29087   6.29403   6.34043
 Alpha virt. eigenvalues --    6.50158   6.56903   7.00973   7.07591   7.09538
 Alpha virt. eigenvalues --    7.11893   7.14633   7.16735   7.16964   7.18949
 Alpha virt. eigenvalues --    7.28009   7.30940   7.43807   7.60323   7.70459
 Alpha virt. eigenvalues --    8.18569   8.33023  11.99236  12.12554  12.18925
 Alpha virt. eigenvalues --   12.20198  12.45125  12.55425  12.79879  12.86454
 Alpha virt. eigenvalues --   13.02953  13.15561  13.31638  13.33199  13.39556
 Alpha virt. eigenvalues --   13.42255  13.47669  13.49310  13.49992  13.56614
 Alpha virt. eigenvalues --   13.64712  13.66665  13.94422  14.04247  14.12064
          Condensed to atoms (all electrons):
              1          2          3          4          5          6
     1  O    8.070470   0.236489  -0.028825  -0.038154   0.025308   0.067008
     2  C    0.236489   7.796625  -0.069113   0.052756  -0.052329  -1.495307
     3  C   -0.028825  -0.069113   6.833103   0.317532   0.012985  -1.105432
     4  O   -0.038154   0.052756   0.317532   8.130763   0.226165  -0.238397
     5  H    0.025308  -0.052329   0.012985   0.226165   0.444995  -0.012144
     6  C    0.067008  -1.495307  -1.105432  -0.238397  -0.012144  10.296302
     7  O   -0.000492   0.026651  -0.087574   0.011943  -0.001439   0.245672
     8  H   -0.000053   0.000395  -0.035653   0.007505  -0.000014  -0.013282
     9  C   -0.027272   0.266379  -0.570264   0.012615  -0.004698   0.317428
    10  O   -0.000565   0.001188   0.004715   0.000031   0.000004  -0.007856
    11  H    0.000006  -0.000627   0.000409   0.000001   0.000000  -0.000299
    12  C   -0.112476  -1.827362  -0.095224  -0.041571   0.034749   1.245389
    13  O    0.004064  -0.021285  -0.007751  -0.001822  -0.000286  -0.074460
    14  C   -0.025524   0.959247   0.524046   0.069252   0.000227  -2.872954
    15  O    0.000085  -0.018507  -0.001591  -0.000138   0.000018  -0.007123
    16  C    0.002696   0.104598   0.023817  -0.003216  -0.000270  -0.103949
    17  C    0.000030  -0.039534   0.018038   0.000238   0.000021  -0.060145
    18  O    0.000003   0.000901  -0.003878   0.000000   0.000000   0.009103
    19  H   -0.000006  -0.003062   0.001621   0.000001   0.000000   0.004521
    20  C    0.000039   0.010290  -0.002018  -0.000007   0.000002  -0.029092
    21  O    0.000000  -0.000016   0.000077   0.000000   0.000000  -0.000470
    22  H    0.000000   0.000016  -0.000040   0.000000   0.000000   0.000085
    23  C    0.000131   0.018945  -0.036100  -0.000330  -0.000065  -0.002094
    24  O   -0.000005   0.000564  -0.009154   0.000248  -0.000001  -0.002577
    25  H    0.000001  -0.000137  -0.010974   0.000000   0.000000   0.030064
    26  C   -0.000213  -0.039933   0.147159   0.000438   0.000021  -0.291753
    27  O    0.000000  -0.000075   0.000275  -0.000001   0.000000  -0.001038
    28  C   -0.000005  -0.000886  -0.000086   0.000006   0.000000  -0.000787
    29  O    0.000000  -0.000005   0.000005   0.000000   0.000000   0.000029
    30  H    0.262406   0.024136  -0.035130  -0.004083   0.002353  -0.004788
    31  H   -0.000272   0.048150  -0.020584   0.000140  -0.000004   0.012353
    32  H    0.002128   0.005118  -0.006259  -0.000004  -0.000002  -0.005804
    33  H    0.002367   0.088959  -0.053374   0.002080  -0.000019  -0.067160
    34  H   -0.015927   0.329996  -0.021195  -0.000248   0.000832  -0.049398
    35  H   -0.005188  -0.056387   0.330611  -0.024166   0.003796  -0.122510
    36  H   -0.000242   0.013082  -0.090328   0.003100  -0.000028   0.412437
    37  H    0.000200  -0.043909  -0.012772  -0.000435  -0.000010   0.052772
    38  H    0.000000   0.000000   0.000000   0.000000   0.000000   0.000006
    39  H    0.000000  -0.000005   0.000004   0.000000   0.000000   0.000042
    40  H    0.000000   0.000052   0.000414   0.000000   0.000000   0.002204
    41  H    0.000000   0.000342  -0.000021   0.000000   0.000000   0.002962
    42  H    0.000000   0.000125   0.000419   0.000002   0.000000  -0.004880
    43  H    0.000000   0.000141  -0.000653   0.000000   0.000000  -0.003119
    44  H    0.000000   0.000031   0.002161  -0.000006   0.000000   0.005547
    45  H    0.000000   0.000051  -0.000613   0.000000   0.000000  -0.000211
              7          8          9         10         11         12
     1  O   -0.000492  -0.000053  -0.027272  -0.000565   0.000006  -0.112476
     2  C    0.026651   0.000395   0.266379   0.001188  -0.000627  -1.827362
     3  C   -0.087574  -0.035653  -0.570264   0.004715   0.000409  -0.095224
     4  O    0.011943   0.007505   0.012615   0.000031   0.000001  -0.041571
     5  H   -0.001439  -0.000014  -0.004698   0.000004   0.000000   0.034749
     6  C    0.245672  -0.013282   0.317428  -0.007856  -0.000299   1.245389
     7  O    8.078476   0.254278  -0.002522  -0.000012   0.000000  -0.043475
     8  H    0.254278   0.387250   0.000550   0.000000   0.000000   0.002543
     9  C   -0.002522   0.000550   7.641464   0.181041  -0.051380  -1.684060
    10  O   -0.000012   0.000000   0.181041   8.103892   0.249896  -0.011191
    11  H    0.000000   0.000000  -0.051380   0.249896   0.421237   0.035686
    12  C   -0.043475   0.002543  -1.684060  -0.011191   0.035686  10.217868
    13  O    0.002802  -0.000293  -0.016166   0.005078   0.000838  -0.000933
    14  C   -0.047216   0.036611  -0.694513  -0.010948   0.002012  -1.425866
    15  O    0.005669   0.000322   0.000388  -0.001413   0.000043  -0.026838
    16  C    0.044762  -0.004814  -0.053634   0.014795  -0.000159  -0.308657
    17  C   -0.004412  -0.000366  -0.021709  -0.002963   0.000241  -0.119740
    18  O   -0.000043  -0.000002  -0.000699   0.000531   0.000200  -0.006267
    19  H   -0.000092   0.000000   0.003739   0.002812  -0.000066  -0.007713
    20  C   -0.001896  -0.000095  -0.008389   0.001021  -0.000087  -0.023989
    21  O    0.000011   0.000000   0.000138   0.000002   0.000000   0.001015
    22  H    0.000000   0.000000  -0.000010   0.000005   0.000000   0.000079
    23  C   -0.017115  -0.002339  -0.000795   0.000103  -0.000001  -0.037138
    24  O   -0.020515   0.002257   0.000327   0.000000   0.000000   0.002377
    25  H    0.015385  -0.000471   0.000091   0.000000   0.000000   0.000105
    26  C    0.014521   0.002899  -0.005293   0.001035   0.000016   0.066522
    27  O    0.000363  -0.000003  -0.000091   0.000001   0.000000   0.000330
    28  C    0.001180   0.000035   0.001679   0.000154  -0.000002   0.007657
    29  O    0.000000   0.000000   0.000004   0.000000   0.000000  -0.000001
    30  H   -0.000031   0.000001   0.006447  -0.000009   0.000000   0.004300
    31  H    0.000010   0.000000   0.649432  -0.048803  -0.002538  -0.358814
    32  H   -0.000003   0.000000   0.430490  -0.037659  -0.007005  -0.071223
    33  H    0.000644   0.000003   0.098707  -0.000244  -0.000068  -0.036441
    34  H    0.000606   0.000012  -0.049450   0.000046   0.000001  -0.027105
    35  H    0.003835   0.000056   0.016234   0.000100   0.000000   0.074867
    36  H   -0.028261  -0.007921   0.018447  -0.000022   0.000000   0.062848
    37  H   -0.000427  -0.000247   0.029257  -0.000240  -0.000001   0.069410
    38  H    0.000000   0.000000   0.000000   0.000000   0.000000   0.000001
    39  H    0.000003   0.000000   0.000012   0.000000   0.000000   0.000034
    40  H    0.000055   0.000000   0.000048   0.000004   0.000000   0.000471
    41  H   -0.000016   0.000000  -0.000387   0.000012   0.000000  -0.000791
    42  H   -0.002867  -0.000004  -0.000675   0.000017   0.000000   0.004719
    43  H    0.000039   0.000000   0.000094   0.000000   0.000000   0.000374
    44  H   -0.002488  -0.000026  -0.000089   0.000000   0.000000  -0.001018
    45  H   -0.000119   0.000003   0.000008   0.000000   0.000000   0.000008
             13         14         15         16         17         18
     1  O    0.004064  -0.025524   0.000085   0.002696   0.000030   0.000003
     2  C   -0.021285   0.959247  -0.018507   0.104598  -0.039534   0.000901
     3  C   -0.007751   0.524046  -0.001591   0.023817   0.018038  -0.003878
     4  O   -0.001822   0.069252  -0.000138  -0.003216   0.000238   0.000000
     5  H   -0.000286   0.000227   0.000018  -0.000270   0.000021   0.000000
     6  C   -0.074460  -2.872954  -0.007123  -0.103949  -0.060145   0.009103
     7  O    0.002802  -0.047216   0.005669   0.044762  -0.004412  -0.000043
     8  H   -0.000293   0.036611   0.000322  -0.004814  -0.000366  -0.000002
     9  C   -0.016166  -0.694513   0.000388  -0.053634  -0.021709  -0.000699
    10  O    0.005078  -0.010948  -0.001413   0.014795  -0.002963   0.000531
    11  H    0.000838   0.002012   0.000043  -0.000159   0.000241   0.000200
    12  C   -0.000933  -1.425866  -0.026838  -0.308657  -0.119740  -0.006267
    13  O    7.809361   0.343021   0.009565   0.037511  -0.005296  -0.006497
    14  C    0.343021  10.589213   0.296363  -0.735348  -0.329780   0.064901
    15  O    0.009565   0.296363   7.865971   0.048042  -0.007579  -0.013110
    16  C    0.037511  -0.735348   0.048042  15.006025  -2.755055   0.043798
    17  C   -0.005296  -0.329780  -0.007579  -2.755055   8.819653   0.185104
    18  O   -0.006497   0.064901  -0.013110   0.043798   0.185104   8.099965
    19  H    0.007409   0.001582   0.021472  -0.083285   0.049225   0.242895
    20  C   -0.008835  -0.184667  -0.013572  -1.741624   0.596156  -0.109591
    21  O    0.000074  -0.005888  -0.000589  -0.009274  -0.044493  -0.003684
    22  H   -0.000016   0.005472   0.000142   0.004111  -0.053558   0.011022
    23  C   -0.001216  -0.106240  -0.068736   0.862731  -0.190322   0.016938
    24  O   -0.000035   0.015426  -0.002447   0.003796   0.030833   0.000197
    25  H   -0.000251  -0.020116   0.000349   0.084443   0.004321   0.000032
    26  C    0.017660  -0.911253   0.081705  -5.706606   0.469434  -0.065966
    27  O    0.000235  -0.000634   0.002354   0.118247  -0.033715  -0.001208
    28  C    0.001900   0.085662   0.009258   0.806446  -0.407840   0.012545
    29  O    0.000001  -0.001566  -0.000060  -0.049006   0.035197  -0.000074
    30  H   -0.000502   0.001689   0.000002   0.000029   0.000005   0.000000
    31  H    0.004053   0.010544   0.000313   0.000156  -0.000298  -0.000002
    32  H    0.001752   0.003949  -0.000135   0.001568   0.000195  -0.000052
    33  H   -0.021280   0.190477   0.003044   0.023509   0.003941  -0.000171
    34  H    0.000614   0.093734  -0.000143  -0.001891   0.000547  -0.000001
    35  H    0.003485   0.017941  -0.000886  -0.020458   0.001889   0.000031
    36  H    0.003682  -0.128742  -0.011902  -0.017839   0.003884   0.000030
    37  H   -0.027707   0.132637  -0.024182   0.024817  -0.002667  -0.000806
    38  H    0.000000   0.000375   0.000007   0.017736  -0.002144  -0.000003
    39  H    0.000005  -0.000428   0.000162   0.037870  -0.051279   0.001342
    40  H    0.000047  -0.028019   0.000817   0.175688  -0.268261   0.007643
    41  H   -0.000410  -0.009358  -0.002321  -0.091373   0.182146  -0.019408
    42  H    0.000227  -0.006053  -0.024579   0.068646   0.001011  -0.001242
    43  H   -0.000123   0.030080  -0.003477   0.085305  -0.016431   0.000443
    44  H    0.000177  -0.014626   0.004070   0.024579   0.004334   0.000029
    45  H   -0.000003   0.004024  -0.001727   0.154018  -0.002200   0.000031
             19         20         21         22         23         24
     1  O   -0.000006   0.000039   0.000000   0.000000   0.000131  -0.000005
     2  C   -0.003062   0.010290  -0.000016   0.000016   0.018945   0.000564
     3  C    0.001621  -0.002018   0.000077  -0.000040  -0.036100  -0.009154
     4  O    0.000001  -0.000007   0.000000   0.000000  -0.000330   0.000248
     5  H    0.000000   0.000002   0.000000   0.000000  -0.000065  -0.000001
     6  C    0.004521  -0.029092  -0.000470   0.000085  -0.002094  -0.002577
     7  O   -0.000092  -0.001896   0.000011   0.000000  -0.017115  -0.020515
     8  H    0.000000  -0.000095   0.000000   0.000000  -0.002339   0.002257
     9  C    0.003739  -0.008389   0.000138  -0.000010  -0.000795   0.000327
    10  O    0.002812   0.001021   0.000002   0.000005   0.000103   0.000000
    11  H   -0.000066  -0.000087   0.000000   0.000000  -0.000001   0.000000
    12  C   -0.007713  -0.023989   0.001015   0.000079  -0.037138   0.002377
    13  O    0.007409  -0.008835   0.000074  -0.000016  -0.001216  -0.000035
    14  C    0.001582  -0.184667  -0.005888   0.005472  -0.106240   0.015426
    15  O    0.021472  -0.013572  -0.000589   0.000142  -0.068736  -0.002447
    16  C   -0.083285  -1.741624  -0.009274   0.004111   0.862731   0.003796
    17  C    0.049225   0.596156  -0.044493  -0.053558  -0.190322   0.030833
    18  O    0.242895  -0.109591  -0.003684   0.011022   0.016938   0.000197
    19  H    0.370873   0.007541   0.000085  -0.000177  -0.001854  -0.000005
    20  C    0.007541   7.103043   0.246019   0.024299   0.015411   0.002757
    21  O    0.000085   0.246019   8.113343   0.244899  -0.002025  -0.000104
    22  H   -0.000177   0.024299   0.244899   0.402783   0.000284  -0.000001
    23  C   -0.001854   0.015411  -0.002025   0.000284   6.478364   0.277841
    24  O   -0.000005   0.002757  -0.000104  -0.000001   0.277841   7.997146
    25  H   -0.000001  -0.000169  -0.000001   0.000000  -0.018476   0.270984
    26  C    0.007247   0.814902   0.043353  -0.012466  -1.656884  -0.112036
    27  O   -0.000075  -0.031611   0.002277  -0.000211  -0.069488   0.001610
    28  C   -0.001012  -0.687110  -0.104032   0.020309  -0.046607  -0.004786
    29  O    0.000004  -0.067536  -0.003315   0.000040   0.001798   0.000494
    30  H    0.000000   0.000000   0.000000   0.000000  -0.000002   0.000000
    31  H   -0.000003  -0.000024   0.000000   0.000000   0.000006   0.000000
    32  H    0.000013   0.000042   0.000000   0.000000   0.000006   0.000000
    33  H    0.000008   0.000702  -0.000002   0.000000   0.000301  -0.000007
    34  H   -0.000001   0.000016   0.000000   0.000000   0.000081   0.000000
    35  H   -0.000001   0.000016   0.000000   0.000000  -0.000238   0.000040
    36  H    0.000001   0.000022   0.000000   0.000000   0.004504  -0.000347
    37  H   -0.001279   0.006781   0.000086   0.000000  -0.000436  -0.001059
    38  H    0.000000   0.018569  -0.000471   0.000016  -0.000537   0.000024
    39  H   -0.000003  -0.152550   0.007249  -0.000283   0.015492  -0.000085
    40  H   -0.000156   0.219022  -0.025446  -0.003961   0.018380   0.000351
    41  H   -0.000678   0.048789   0.001084   0.000048   0.019551  -0.000025
    42  H    0.000330   0.064718  -0.000164   0.000003  -0.027450   0.001173
    43  H    0.000015  -0.046945   0.000117  -0.000002   0.018621   0.005178
    44  H    0.000000   0.001650  -0.000004   0.000000   0.517058  -0.030417
    45  H    0.000000  -0.002534  -0.000002   0.000000   0.488837  -0.037721
             25         26         27         28         29         30
     1  O    0.000001  -0.000213   0.000000  -0.000005   0.000000   0.262406
     2  C   -0.000137  -0.039933  -0.000075  -0.000886  -0.000005   0.024136
     3  C   -0.010974   0.147159   0.000275  -0.000086   0.000005  -0.035130
     4  O    0.000000   0.000438  -0.000001   0.000006   0.000000  -0.004083
     5  H    0.000000   0.000021   0.000000   0.000000   0.000000   0.002353
     6  C    0.030064  -0.291753  -0.001038  -0.000787   0.000029  -0.004788
     7  O    0.015385   0.014521   0.000363   0.001180   0.000000  -0.000031
     8  H   -0.000471   0.002899  -0.000003   0.000035   0.000000   0.000001
     9  C    0.000091  -0.005293  -0.000091   0.001679   0.000004   0.006447
    10  O    0.000000   0.001035   0.000001   0.000154   0.000000  -0.000009
    11  H    0.000000   0.000016   0.000000  -0.000002   0.000000   0.000000
    12  C    0.000105   0.066522   0.000330   0.007657  -0.000001   0.004300
    13  O   -0.000251   0.017660   0.000235   0.001900   0.000001  -0.000502
    14  C   -0.020116  -0.911253  -0.000634   0.085662  -0.001566   0.001689
    15  O    0.000349   0.081705   0.002354   0.009258  -0.000060   0.000002
    16  C    0.084443  -5.706606   0.118247   0.806446  -0.049006   0.000029
    17  C    0.004321   0.469434  -0.033715  -0.407840   0.035197   0.000005
    18  O    0.000032  -0.065966  -0.001208   0.012545  -0.000074   0.000000
    19  H   -0.000001   0.007247  -0.000075  -0.001012   0.000004   0.000000
    20  C   -0.000169   0.814902  -0.031611  -0.687110  -0.067536   0.000000
    21  O   -0.000001   0.043353   0.002277  -0.104032  -0.003315   0.000000
    22  H    0.000000  -0.012466  -0.000211   0.020309   0.000040   0.000000
    23  C   -0.018476  -1.656884  -0.069488  -0.046607   0.001798  -0.000002
    24  O    0.270984  -0.112036   0.001610  -0.004786   0.000494   0.000000
    25  H    0.368167  -0.090179  -0.001349  -0.001649   0.000006   0.000000
    26  C   -0.090179  13.608149   0.131022  -0.597612   0.009431   0.000003
    27  O   -0.001349   0.131022   7.893353   0.166554  -0.012125   0.000000
    28  C   -0.001649  -0.597612   0.166554   5.814533   0.317309   0.000000
    29  O    0.000006   0.009431  -0.012125   0.317309   7.970263   0.000000
    30  H    0.000000   0.000003   0.000000   0.000000   0.000000   0.412576
    31  H    0.000000  -0.000112   0.000000   0.000005   0.000000  -0.000096
    32  H    0.000000   0.000056   0.000000  -0.000001   0.000000  -0.000001
    33  H   -0.000001   0.000020   0.000001  -0.000033   0.000000  -0.000254
    34  H    0.000000  -0.000414   0.000000   0.000001   0.000000  -0.011171
    35  H   -0.000005  -0.001424  -0.000001   0.000010   0.000000   0.000185
    36  H    0.000127  -0.007660   0.000020  -0.000070   0.000000   0.000028
    37  H    0.000105   0.036474   0.000502  -0.000475   0.000006   0.000001
    38  H    0.000000  -0.017756   0.004429  -0.029913   0.260188   0.000000
    39  H    0.000000   0.024382  -0.060170   0.453546  -0.032812   0.000000
    40  H   -0.000008   0.050004  -0.001273   0.058724  -0.002938   0.000000
    41  H   -0.000001   0.094979   0.001777  -0.013037   0.000209   0.000000
    42  H    0.000091   0.158877   0.002019   0.000507  -0.000449   0.000000
    43  H   -0.000020   0.142934  -0.034255   0.058598  -0.000856   0.000000
    44  H   -0.006466  -0.190837   0.004994   0.001772  -0.000005   0.000000
    45  H    0.005451  -0.271947   0.000356  -0.001915   0.000082   0.000000
             31         32         33         34         35         36
     1  O   -0.000272   0.002128   0.002367  -0.015927  -0.005188  -0.000242
     2  C    0.048150   0.005118   0.088959   0.329996  -0.056387   0.013082
     3  C   -0.020584  -0.006259  -0.053374  -0.021195   0.330611  -0.090328
     4  O    0.000140  -0.000004   0.002080  -0.000248  -0.024166   0.003100
     5  H   -0.000004  -0.000002  -0.000019   0.000832   0.003796  -0.000028
     6  C    0.012353  -0.005804  -0.067160  -0.049398  -0.122510   0.412437
     7  O    0.000010  -0.000003   0.000644   0.000606   0.003835  -0.028261
     8  H    0.000000   0.000000   0.000003   0.000012   0.000056  -0.007921
     9  C    0.649432   0.430490   0.098707  -0.049450   0.016234   0.018447
    10  O   -0.048803  -0.037659  -0.000244   0.000046   0.000100  -0.000022
    11  H   -0.002538  -0.007005  -0.000068   0.000001   0.000000   0.000000
    12  C   -0.358814  -0.071223  -0.036441  -0.027105   0.074867   0.062848
    13  O    0.004053   0.001752  -0.021280   0.000614   0.003485   0.003682
    14  C    0.010544   0.003949   0.190477   0.093734   0.017941  -0.128742
    15  O    0.000313  -0.000135   0.003044  -0.000143  -0.000886  -0.011902
    16  C    0.000156   0.001568   0.023509  -0.001891  -0.020458  -0.017839
    17  C   -0.000298   0.000195   0.003941   0.000547   0.001889   0.003884
    18  O   -0.000002  -0.000052  -0.000171  -0.000001   0.000031   0.000030
    19  H   -0.000003   0.000013   0.000008  -0.000001  -0.000001   0.000001
    20  C   -0.000024   0.000042   0.000702   0.000016   0.000016   0.000022
    21  O    0.000000   0.000000  -0.000002   0.000000   0.000000   0.000000
    22  H    0.000000   0.000000   0.000000   0.000000   0.000000   0.000000
    23  C    0.000006   0.000006   0.000301   0.000081  -0.000238   0.004504
    24  O    0.000000   0.000000  -0.000007   0.000000   0.000040  -0.000347
    25  H    0.000000   0.000000  -0.000001   0.000000  -0.000005   0.000127
    26  C   -0.000112   0.000056   0.000020  -0.000414  -0.001424  -0.007660
    27  O    0.000000   0.000000   0.000001   0.000000  -0.000001   0.000020
    28  C    0.000005  -0.000001  -0.000033   0.000001   0.000010  -0.000070
    29  O    0.000000   0.000000   0.000000   0.000000   0.000000   0.000000
    30  H   -0.000096  -0.000001  -0.000254  -0.011171   0.000185   0.000028
    31  H    0.608367  -0.047660   0.006918   0.002886  -0.000006  -0.000019
    32  H   -0.047660   0.586484  -0.004284  -0.000027  -0.000042   0.000000
    33  H    0.006918  -0.004284   0.622743   0.005956   0.004855  -0.000021
    34  H    0.002886  -0.000027   0.005956   0.590217   0.006297   0.002576
    35  H   -0.000006  -0.000042   0.004855   0.006297   0.633048   0.008286
    36  H   -0.000019   0.000000  -0.000021   0.002576   0.008286   0.624586
    37  H   -0.000030   0.000011   0.004055  -0.000067   0.003943   0.006444
    38  H    0.000000   0.000000   0.000000   0.000000   0.000000   0.000000
    39  H    0.000000   0.000000   0.000000   0.000000   0.000000   0.000000
    40  H    0.000000   0.000000   0.000000   0.000000   0.000000   0.000000
    41  H    0.000000   0.000000  -0.000001   0.000000   0.000000   0.000000
    42  H    0.000000   0.000000  -0.000026   0.000000   0.000000  -0.000025
    43  H    0.000000   0.000000   0.000000   0.000000   0.000000   0.000001
    44  H    0.000000   0.000000   0.000000   0.000000   0.000000   0.000052
    45  H    0.000000   0.000000   0.000000   0.000000   0.000000  -0.000001
             37         38         39         40         41         42
[...]
 9,-0.00000031,-0.00004462,0.00007285,0.00003981,0.00039342,-0.00025447
 ,-0.00006733,-0.00013699,0.00026535,-0.00449504,-0.01536174,0.00958130
 ,0.01201891,-0.22366272,0.14889468,-0.02068247,0.00739231,-0.00769313,
 0.00153110,0.00071897,0.00114768,0.00041225,-0.00014408,0.00005984,-0.
 00014003,0.00058880,-0.00177574,0.00086516,0.00005421,-0.00016208,0.00
 008025,-0.00008801,0.00008607,0.00003185,-0.00067552,0.00216197,-0.000
 18240,0.00215379,-0.00008847,0.00061088,-0.00065897,-0.00124114,0.0006
 9490,-0.02072620,0.01528921,-0.00479710,0.00281182,-0.00043150,0.00188
 428,0.00002540,-0.00042834,0.00012656,0.00005122,0.00000886,-0.0000437
 8,0.00000096,0.00000315,0.00000282,-0.00000089,0.00000061,-0.00000286,
 0.00001116,0.00001693,0.00001062,0.00002920,0.00001238,0.00004249,0.00
 000198,-0.00000260,-0.00000701,0.00002916,0.00000347,0.00001613,0.0000
 5265,0.00011262,-0.00018292,0.00164315,-0.00024371,0.00032054,0.000005
 19,0.00003175,-0.00000717,-0.00019486,0.00007091,0.00019107,0.00009649
 ,-0.00107125,0.00026001,-0.00031013,-0.00167319,0.00130363,0.24706565,
 -0.00000037,-0.00001892,0.00002046,-0.00001899,0.00003015,-0.00001190,
 0.00011992,0.00012367,-0.00005935,-0.00003149,-0.00003184,-0.00002504,
 -0.00000634,0.00001768,-0.00000691,-0.00050668,0.00019584,-0.00014715,
 -0.00012466,-0.00028582,-0.00007444,0.00000573,0.00000107,-0.00000214,
 -0.00000930,-0.00003640,0.00000149,-0.00001940,0.00003682,-0.00000211,
 0.00000548,-0.00001079,0.00000079,0.00002188,-0.00000919,-0.00016921,-
 0.00021024,0.00015408,0.00044368,0.00093799,0.00123155,0.00153062,0.00
 144015,0.00202507,-0.00345789,0.15028128,-0.16708584,0.01428209,0.0247
 1641,-0.02488640,0.00951229,-0.00121324,0.00220127,-0.00126913,0.00025
 004,-0.00026277,-0.00019914,0.00295829,-0.00145507,-0.00176470,-0.0004
 0410,0.00118632,-0.00052585,0.00007613,-0.00021076,-0.00002323,-0.0000
 7256,0.00015320,0.00040246,-0.00001530,-0.00035731,0.00020413,-0.00054
 384,-0.00053383,0.00007569,-0.01031075,0.00909246,-0.00248173,0.000024
 58,0.00043298,0.00167433,0.00015696,0.00012932,0.00009552,-0.00003483,
 0.00006700,0.00005332,0.00000120,0.00000144,-0.00000416,-0.00000507,0.
 00001061,0.00000592,0.00000441,0.00000459,-0.00000407,-0.00002652,0.00
 000651,-0.00002353,-0.00000519,-0.00000465,0.00001077,-0.00002486,0.00
 001626,0.00000277,-0.00004902,-0.00014360,0.00008888,-0.00094102,0.000
 31008,-0.00063377,-0.00000284,0.00000260,0.00000489,-0.00023407,-0.000
 03254,-0.00025523,-0.00151261,0.00149883,0.00045402,-0.00214843,-0.004
 67649,0.00234121,-0.16116806,0.18180350,-0.00000540,0.00001866,-0.0000
 3329,-0.00002809,-0.00003502,0.00002792,0.00004594,0.00003467,-0.00000
 548,-0.00001933,0.00002782,-0.00000681,-0.00000516,-0.00000288,-0.0000
 0084,0.00012737,-0.00001364,-0.00044627,-0.00003118,0.00015317,0.00006
 560,-0.00001476,-0.00000520,0.00002836,-0.00003157,0.00005589,-0.00002
 235,-0.00001590,-0.00002666,0.00002076,0.00000076,0.00000565,0.0000000
 7,-0.00002070,0.00000697,-0.00006551,-0.00102306,0.00021265,-0.0001868
 4,0.00729155,-0.00328868,0.00247697,0.03192969,-0.02045267,-0.02038904
 ,-0.02508288,0.01677856,-0.04088939,-0.00645656,0.00620302,-0.00066402
 ,0.00077320,0.00028107,0.00081861,0.00028288,0.00011969,-0.00016982,-0
 .00066215,0.00314882,-0.00052758,0.00001774,-0.00059837,-0.00015098,-0
 .00007576,0.00002067,0.00007724,0.00015688,0.00090430,0.00012202,0.000
 90009,-0.00047084,0.00033942,-0.00006186,-0.00016895,0.00025054,-0.019
 53456,0.01421187,-0.00256664,0.00062582,-0.00007814,0.00195140,-0.0003
 6264,0.00038976,-0.00060860,0.00011677,-0.00009132,-0.00011814,-0.0000
 0135,0.00000298,0.00000006,0.00000765,0.00000981,0.00001352,-0.0000085
 5,-0.00002719,-0.00000714,-0.00008947,0.00001476,-0.00007671,-0.000000
 38,0.00000174,0.00001556,-0.00005529,0.00001626,-0.00004706,-0.0001521
 2,-0.00004453,0.00010936,-0.00114038,0.00027440,-0.00087526,-0.0000007
 1,0.00002421,-0.00000544,0.00024694,-0.00018108,0.00017510,0.00103703,
 0.00068124,-0.00045553,0.00079620,0.00157425,-0.00056348,0.01283997,-0
 .01812668,0.06549431,-0.00000316,0.00000826,-0.00002584,0.00000225,-0.
 00001388,0.00002506,-0.00000022,0.00000224,0.00005183,0.00000826,0.000
 03082,-0.00003963,-0.00000401,0.00000102,0.00000230,-0.00004058,-0.000
 13815,-0.00002809,0.00007073,0.00011750,0.00011373,-0.00001458,-0.0000
 0860,-0.00001509,-0.00000614,0.00004447,-0.00002088,0.00000736,-0.0000
 3806,0.00001293,-0.00000552,0.00000776,-0.00000003,0.00003962,-0.00002
 118,0.00005255,-0.00000988,-0.00009662,-0.00029980,0.00016605,-0.00013
 033,-0.00004041,0.00051815,-0.00043066,-0.00086487,-0.01866375,0.01477
 685,-0.00725134,-0.00069749,0.00270160,-0.00092708,0.00109077,-0.00027
 934,0.00051513,-0.00004579,0.00015108,-0.00009490,-0.00009546,-0.00008
 420,0.00039060,-0.00014785,-0.00034382,-0.00012724,-0.00008003,0.00001
 075,0.00005378,0.01085471,-0.00959614,0.00160331,-0.00006939,-0.004504
 49,0.00105332,-0.00027372,-0.00034963,-0.00020964,-0.18880771,0.144441
 62,-0.04278572,-0.01898159,0.01268825,0.01488542,0.00119407,0.00392751
 ,-0.00223547,0.00012224,-0.00068945,0.00046511,-0.00000218,0.00000347,
 0.00000462,0.00000168,-0.00000555,-0.00000160,-0.00000616,-0.00001344,
 -0.00000007,0.00000686,0.00000296,0.00000129,0.00000248,0.00000038,-0.
 00000699,0.00001278,-0.00000537,0.00000144,0.00001660,0.00003226,-0.00
 001998,0.00019834,-0.00005215,0.00016873,-0.00001213,0.00014001,-0.000
 11347,-0.00011039,-0.00112986,0.00049935,0.00042170,-0.00011843,-0.000
 06935,0.00053588,-0.00166553,0.00030117,-0.00195305,-0.00164621,-0.002
 40820,0.21363129,0.00000732,0.00002260,0.00001970,0.00000929,-0.000033
 92,-0.00000613,0.00000159,0.00004293,0.00002502,-0.00000633,0.00001786
 ,0.00001336,0.00000463,-0.00000016,-0.00000454,0.00001269,-0.00022219,
 -0.00012107,-0.00000073,0.00017859,0.00025902,0.00001548,-0.00000832,-
 0.00000690,0.00001154,-0.00001178,-0.00000321,-0.00001102,0.00001597,0
 .00000041,0.00000709,-0.00000321,-0.00000032,0.00001458,-0.00000746,0.
 00002645,0.00003176,0.00001673,-0.00002218,-0.00007388,0.00001248,0.00
 016687,0.00006875,0.00008673,0.00107151,-0.00876094,0.00582232,-0.0034
 9385,-0.00174253,0.00052079,-0.00116465,-0.00017838,-0.00000758,0.0002
 0863,0.00008569,-0.00002372,0.00004253,-0.00048260,-0.00011218,-0.0003
 2326,0.00006150,0.00009308,0.00011842,0.00003891,-0.00001680,-0.000040
 15,0.02218144,-0.01845514,0.00544575,-0.00268953,-0.00592087,0.0016073
 4,-0.00028959,-0.00006778,-0.00068052,0.14789181,-0.19326868,0.0422878
 6,0.00597546,-0.00000455,-0.00625109,-0.00172934,0.00115028,0.00022426
 ,0.00017895,-0.00003809,-0.00021791,0.00000205,-0.00000545,-0.00000536
 ,-0.00000283,0.00000076,0.00000387,-0.00000272,0.00000041,-0.00000127,
 -0.00000424,0.00000281,0.00000058,-0.00000237,0.00000204,0.00000431,-0
 .00000804,-0.00000480,-0.00000426,-0.00001159,0.00003596,0.00003612,0.
 00002430,-0.00001079,-0.00006618,0.00004515,-0.00006833,0.00010465,0.0
 0103906,0.00081685,-0.00058610,0.00007103,-0.00023742,0.00019953,-0.00
 056660,0.00021559,-0.00077147,-0.00142800,-0.00067272,-0.00147414,-0.1
 5943822,0.20827977,-0.00001777,-0.00000935,-0.00004568,0.00000522,0.00
 001962,0.00002861,-0.00000406,-0.00005901,0.00003740,0.00000554,0.0000
 1737,-0.00004555,-0.00000228,-0.00000066,0.00000694,0.00005573,0.00006
 724,0.00011463,0.00003218,-0.00002191,-0.00013006,-0.00000915,-0.00001
 681,-0.00000390,0.00000929,0.00004254,-0.00000790,-0.00000068,-0.00004
 587,0.00001029,-0.00000230,0.00000835,-0.00000099,0.00003286,0.0000137
 5,0.00007278,0.00010978,-0.00018373,-0.00018505,-0.00018364,0.00022908
 ,0.00004718,0.00099606,-0.00063117,0.00152660,-0.02240641,0.01608152,-
 0.00441653,0.00025160,0.00234442,-0.00015441,0.00057000,-0.00038850,0.
 00017515,-0.00009328,0.00014321,-0.00004694,0.00002423,0.00038746,-0.0
 0038078,0.00006598,0.00008930,0.00029357,0.00004802,0.00006476,-0.0000
 2625,-0.00645311,0.00319303,-0.00038953,0.00093551,0.00223204,0.000657
 42,0.00002733,-0.00044273,0.00035580,-0.04282050,0.04335912,-0.0496780
 0,0.03475558,-0.02287724,-0.01050261,-0.00080849,-0.00576415,0.0034508
 6,-0.00014068,0.00076504,-0.00067916,-0.00000171,0.00000554,0.00000984
 ,-0.00000037,-0.00000698,-0.00000258,-0.00000435,-0.00000764,0.0000011
 2,0.00001222,0.00000379,0.00000544,0.00000243,0.,-0.00000774,0.0000141
 6,-0.00000384,0.00000530,0.00002254,0.00001939,-0.00004829,0.00031245,
 -0.00007071,0.00005032,0.00005127,-0.00008472,0.00007834,-0.00106880,0
 .00098157,-0.00006251,0.00013024,-0.00005473,-0.00020418,0.00030950,-0
 .00064742,0.00072522,-0.00281638,-0.00199351,-0.00312242,0.03771044,-0
 .03630388,0.06210875,0.00005177,-0.00000184,0.00010954,-0.00000873,-0.
 00003328,-0.00007086,-0.00005651,0.00008187,-0.00008352,0.00002363,-0.
 00007030,0.00011998,0.00000520,0.00000367,-0.00001377,-0.00020213,-0.0
 0017977,-0.00033036,0.00063082,-0.00032300,0.00038305,0.00001530,0.000
 15348,-0.00006702,-0.00001589,-0.00006307,0.00002079,0.00003001,0.0000
 5929,-0.00001406,-0.00000795,-0.00001172,0.00000013,-0.00012580,0.0000
 0948,-0.00006254,0.00017514,0.00011297,0.00021020,-0.00047963,-0.00005
 075,-0.00080330,0.00121287,0.00074978,-0.00033863,-0.00061257,0.000319
 28,0.00146057,0.00014781,-0.00000319,0.00014020,0.00000377,0.00000755,
 -0.00022892,-0.00007634,-0.00011523,0.00003709,0.00008260,0.00016551,0
 .00010190,-0.00000995,-0.00007967,-0.00011009,-0.00003383,0.00000363,0
 .00003269,-0.13504202,0.01006566,0.13762591,-0.02098401,0.01796114,0.0
 1386595,0.00047057,0.00041798,0.00177833,-0.00939405,0.00028735,0.0153
 3938,-0.00111263,-0.00363241,0.00102842,0.00042153,0.00080332,0.000238
 89,-0.00026441,-0.00016020,0.00032473,0.00000080,-0.00000341,-0.000019
 29,0.,0.00000584,-0.00000531,0.00001403,0.00001719,0.00000661,0.000005
 11,-0.00000735,0.00000843,0.00000188,-0.00000050,-0.00000002,0.0000265
 5,0.00000187,0.00001701,0.00000785,-0.00000961,-0.00010345,0.00011342,
 -0.00003543,0.00006812,-0.00002989,0.00000312,-0.00006150,-0.00002528,
 -0.00013487,0.00001771,0.00000227,0.00000840,-0.00000686,-0.00002273,-
 0.00000466,-0.00000128,0.00002793,0.00003796,-0.00004560,0.00058534,-0
 .00044902,-0.00025574,0.15174753,0.00000592,-0.00001149,0.00002344,-0.
 00000896,0.00001692,-0.00002748,0.00000384,-0.00003793,-0.00006571,-0.
 00001461,-0.00003024,0.00004542,0.00000701,-0.00000027,-0.00000109,-0.
 00000828,0.00022285,0.00010928,-0.00051694,-0.00017629,-0.00004570,0.0
 0018190,-0.00003189,0.00023231,-0.00000854,-0.00002744,0.00001471,0.00
 001177,0.00002426,-0.00000786,-0.00000346,-0.00000617,0.00000090,-0.00
 004587,0.00001005,-0.00004593,0.00004737,0.00002764,0.00011559,-0.0000
 9732,-0.00000532,-0.00054844,0.00003060,-0.00028896,-0.00059631,-0.000
 06018,0.00059385,0.00031044,-0.00002641,0.00000872,0.00032686,0.000059
 85,0.00005913,-0.00020417,-0.00003844,-0.00007978,0.00000299,0.0001533
 0,0.00000598,0.00031295,-0.00012335,-0.00014538,-0.00020199,-0.0000433
 5,-0.00002128,0.00004082,0.01071499,-0.04388391,-0.02283519,0.02930241
 ,-0.01627081,-0.01940041,-0.00123250,0.00069752,-0.00151959,-0.0143541
 5,0.00578978,0.02223441,-0.00518611,-0.00710020,0.00311038,0.00008269,
 0.00165675,0.00008123,-0.00064586,-0.00032022,0.00092259,0.00000102,-0
 .00000175,-0.00000580,-0.00000042,0.00000381,-0.00000285,0.00000685,0.
 00000793,0.00000201,0.00000075,-0.00000431,0.00000742,-0.00000059,0.00
 000161,0.00000200,-0.00000625,-0.00000158,0.00000576,0.00001919,0.0000
 3397,-0.00001799,0.00004120,-0.00004339,0.00004544,-0.00004019,-0.0000
 2126,-0.00013673,-0.00000684,-0.00020811,0.00004498,-0.00004450,0.0000
 1132,-0.00002775,0.00000678,0.00002417,0.00000842,-0.00008979,-0.00007
 361,-0.00008209,0.00109168,0.00110471,-0.00005389,-0.02385704,0.058007
 64,0.00001665,0.00001979,0.00004425,0.00000753,-0.00004996,-0.00001875
 ,0.00000111,0.00010059,0.00000420,-0.00001401,-0.00001119,0.00003826,0
 .00000973,0.00000417,-0.00000693,-0.00003155,-0.00024155,-0.00014517,0
 .00020045,0.00023277,0.00054745,0.00001201,0.00006606,0.00000320,0.000
 00759,-0.00000396,-0.00001515,-0.00000858,0.00001217,0.00000994,0.0000
 0504,-0.00000349,-0.00000095,-0.00000242,-0.00001932,-0.00001569,-0.00
 003872,0.00006376,-0.00002940,-0.00006444,-0.00023915,0.00027600,-0.00
 129349,-0.00098313,-0.00014555,0.00038287,0.00024544,-0.00086592,0.000
 11604,-0.00006759,0.00003648,0.00003101,0.00012337,0.00012520,0.000034
 52,0.00001371,-0.00002807,-0.00010064,0.00000916,-0.00016809,0.0001110
 1,0.00013881,0.00009557,0.00001524,0.00000039,-0.00002196,0.14308347,-
 0.02398721,-0.26267357,-0.00421360,0.00096873,0.01028720,-0.00081037,-
 0.00048500,0.00141965,0.00244243,-0.00243039,-0.00514559,0.00079551,0.
 00193389,-0.00016571,-0.00029584,-0.00072643,0.00079849,0.00012715,0.0
 0005308,-0.00021426,0.00000387,-0.00000274,-0.00000842,-0.00000382,0.0
 0000114,0.00000450,0.00000018,-0.00000081,0.00000089,-0.00000327,0.000
 00137,-0.00000032,-0.00000329,0.00000244,0.00000514,-0.00000441,-0.000
 00339,-0.00000047,-0.00003146,0.00004219,-0.00005344,-0.00004214,0.000
 03173,-0.00007546,-0.00000672,-0.00005057,0.00008391,0.00000356,0.0001
 1650,-0.00003475,-0.00000781,0.00000219,-0.00000413,-0.00001614,0.0000
 1286,-0.00001191,-0.00006036,0.00000315,-0.00000980,-0.00003506,0.0007
 1311,-0.00004819,-0.15467935,0.02560775,0.27523375,-0.00001323,-0.0000
 0785,-0.00002806,0.00000003,0.00001769,0.00001508,0.00000554,-0.000045
 95,-0.00000984,0.00000174,0.00000176,-0.00002158,-0.00000086,-0.000003
 18,0.00000508,-0.00005180,0.00012595,0.00000339,0.00021906,-0.00018445
 ,-0.00029227,-0.00000900,0.00000727,-0.00007346,0.00000119,0.00000660,
 0.00000573,-0.00000440,-0.00001322,-0.00000459,0.00000138,0.00000443,-
 0.00000123,0.00001287,0.00000452,0.00001972,0.00001632,-0.00002894,-0.
 00002377,-0.00008594,0.00003891,-0.00006024,0.00064359,0.00045607,-0.0
 0008491,0.00002890,-0.00272653,0.00229927,-0.00034416,0.00007335,-0.00
 091078,-0.00026141,-0.00042827,0.00004098,-0.00002478,0.00004125,0.000
 08622,0.00009461,0.00011167,-0.00028018,0.00003694,0.00006601,0.000165
 56,0.00005098,0.00001970,-0.00003732,-0.14920357,-0.04352725,-0.140022
 09,-0.01582307,0.00311273,-0.02081377,-0.00283470,0.00267140,0.0013309
 8,-0.01117994,-0.00858840,-0.01401530,0.00166356,0.00167774,-0.0008284
 8,-0.00012205,-0.00026809,0.00032505,0.00011094,0.00009573,-0.00003456
 ,-0.00000041,0.00000264,0.00000675,0.00000174,-0.00000149,-0.00000158,
 -0.00000218,-0.00000056,-0.00000172,0.00000303,0.00000033,0.00000046,0
 .00000061,-0.00000084,-0.00000391,0.00001223,0.00000138,0.00000911,0.0
 0001172,-0.00004141,-0.00006000,0.00002967,-0.00001402,0.00002766,-0.0
 0004957,-0.00007384,0.00006958,-0.00000377,0.00006015,-0.00002148,0.00
 001386,0.00000615,0.00000576,-0.00000149,-0.00002904,-0.00001620,0.000
 20793,0.00024758,0.00013713,0.00054363,0.00009844,0.00059951,0.0127006
 1,0.00469082,0.01436053,0.16360367,0.00000975,0.00004029,-0.00000855,-
 0.00000153,-0.00005819,0.00002966,0.00002527,0.00006907,0.00005816,0.0
 0000149,0.00005301,-0.00002570,-0.00000357,0.00000090,-0.00000377,-0.0
 0012115,-0.00038126,-0.00017347,-0.00003435,0.00030664,0.00049264,-0.0
 0002165,0.00003740,0.00005254,-0.00001407,-0.00000990,0.00000974,-0.00
 000078,0.00000677,-0.00002695,0.00000170,0.00000609,-0.00000370,0.0000
 5574,-0.00004276,0.00006421,-0.00007039,0.00006878,-0.00023422,0.00032
 008,-0.00028531,0.00061450,0.00011341,0.00047862,-0.00016694,-0.001859
 23,-0.00450645,0.00364277,-0.00064948,0.00061737,-0.00164169,-0.000452
 48,-0.00098928,-0.00001056,-0.00002579,0.00011176,0.00020844,0.0002321
 5,0.00011193,-0.00033377,-0.00006574,0.00002048,0.00021130,0.00008451,
 0.00002240,-0.00005057,-0.04844736,-0.05903172,-0.06386075,0.02236143,
 0.00056121,0.02736672,0.00479043,-0.00353625,-0.00011299,-0.01921102,-
 0.01014669,-0.02370576,0.00219575,0.00199519,-0.00057265,-0.00012116,-
 0.00019311,0.00018432,0.00009273,0.00004090,0.00000839,-0.00000162,-0.
 00000193,-0.00000100,0.00000684,0.00000038,-0.00000478,-0.00000858,-0.
 00000642,-0.00000920,-0.00000202,-0.00000339,-0.00000310,0.00000003,0.
 00000222,-0.00000228,-0.00000129,-0.00000927,-0.00000640,-0.00000451,0
 .00006401,0.00004398,-0.00002049,-0.00000470,-0.00001330,-0.00004251,-
 0.00001267,0.00003806,0.00001656,0.00003384,-0.00000331,0.00001531,0.0
 0001547,0.00001855,0.00005833,-0.00006944,0.00002574,-0.00011263,0.000
 05562,-0.00000483,0.00061884,0.00076269,-0.00039968,-0.00205003,0.0004
 8297,-0.00121443,0.04234307,0.07332275,-0.00003365,-0.00000955,-0.0000
 7544,0.00000507,0.00003629,0.00004645,0.00001740,-0.00007497,0.0000512
 0,-0.00000194,0.00003587,-0.00008014,-0.00000731,-0.00000412,0.0000110
 1,0.00011507,0.00019919,0.00019604,-0.00018856,0.00002580,-0.00025319,
 -0.00002436,-0.00009349,0.00002659,0.00000718,0.00004037,-0.00000730,-
 0.00001238,-0.00004106,0.00000650,0.00000154,0.00000869,0.00000086,0.0
 0006121,0.00000458,0.00004073,-0.00006944,-0.00008790,-0.00010157,0.00
 017905,0.00013093,0.00029499,-0.00076068,-0.00052184,0.00021720,0.0016
 2959,0.00133503,-0.00106236,0.00014494,-0.00006652,0.00034384,0.000092
 10,0.00019630,0.00005530,0.00002742,0.00004408,-0.00003930,0.00001379,
 0.00003102,-0.00008074,-0.00004268,-0.00005829,0.00003273,0.00000539,0
 .00001122,0.00000288,-0.14552058,-0.06024825,-0.23708116,-0.00381687,0
 .00435259,-0.00191309,-0.00006511,0.00014764,0.00207090,0.00614477,0.0
 0372781,0.00457529,-0.00023587,0.00003233,0.00121430,0.00013586,0.0002
 1889,0.00015453,-0.00006753,-0.00006897,0.00006661,-0.00000185,0.00000
 451,0.00001525,0.00000207,-0.00000470,0.00000085,-0.00000692,-0.000009
 03,-0.00000227,0.00000108,0.00000401,-0.00000453,0.00000048,-0.0000016
 1,-0.00000328,-0.00000365,0.00000271,-0.00000592,0.00000439,-0.0000211
 0,0.00001488,-0.00001457,0.00002080,-0.00003042,0.00000507,0.00001705,
 -0.00002921,0.00000176,-0.00004784,0.00001184,0.00000486,-0.00002396,0
 .00000633,-0.00001145,-0.00000958,0.00000586,0.00007712,0.00005241,0.0
 0002760,-0.00029138,-0.00103083,0.00042771,-0.01563418,-0.00778114,-0.
 01910642,0.15813376,0.05952463,0.24995808\\0.00013461,0.00663385,-0.01
 376759,0.00439293,0.00486265,-0.01300315,0.02597665,-0.02662815,0.0315
 2587,-0.02427922,-0.00800242,0.00815173,0.00145136,-0.00177084,-0.0380
 0962,-0.04306611,-0.00753234,0.02958988,0.00179196,-0.00319296,0.01369
 511,0.02040868,0.01776616,-0.01912435,0.01332012,0.01416303,0.04454204
 ,0.00471384,0.00282486,-0.00764493,-0.00965850,-0.02944769,-0.01745449
 ,0.00735484,0.07576390,-0.01242018,-0.00654401,-0.05304001,-0.01338612
 ,-0.01257558,0.01517550,-0.04335368,-0.00922762,-0.00904141,0.01769100
 ,0.01562358,0.00432619,0.02204969,-0.00428473,0.02621764,-0.01535814,-
 0.01361050,-0.03049486,0.02508998,0.01339141,0.00987475,-0.02238077,0.
 05570274,-0.01142824,-0.00685478,-0.00520570,0.01956513,0.01738721,-0.
 02215988,-0.01528321,-0.01933926,0.02422810,-0.00875959,0.01063084,0.0
 0848342,0.01146067,0.01834911,-0.01655984,-0.00558127,-0.02442113,0.00
 876479,-0.00957368,-0.01040218,0.01286548,-0.00797114,-0.00807595,-0.0
 1473404,0.00972229,-0.01153994,0.00018095,-0.00269199,0.03985759,-0.00
 063632,0.00456939,0.00212979,-0.01770091,0.00314894,0.01306340,0.01368
 275,-0.00468589,0.01657489,0.01569136,-0.00678023,-0.00818204,-0.01558
 049,0.00757166,0.00716827,0.02195016,-0.00728214,-0.00522431,-0.021995
 56,0.00905246,0.00526344,0.02006545,-0.00130346,-0.00923879,-0.0056474
 7,-0.00028498,0.00153811,-0.01769380,0.01526911,-0.00827368,0.01494173
 ,-0.01986688,0.00551278,-0.01963733,0.01426201,-0.00206532,0.01337162,
 -0.01403297,0.00097133,-0.01830750,0.01374995,-0.00157352,-0.01297077,
 0.00511397,0.01377038,-0.00641264,-0.00641777,-0.01345849\\\@


 THE ONLY DIFFERENCE BETWEEN ECCENTRICS AND JOGGERS
 IS THAT JOGGERS WEAR SWEATBANDS WHEN THEY RUN IN THE RAIN.
 Job cpu time:  4 days  3 hours  1 minutes 45.9 seconds.
 File lengths (MBytes):  RWF=   2340 Int=      0 D2E=      0 Chk=     43 Scr=      1
 Normal termination of Gaussian 09 at Tue Feb 16 15:43:20 2016.
Gaussian '09 finished on node023 at Tue Feb 16 15:43:20 EST 2016.
