Gaussian '09 started on node005 at Mon Feb 29 14:22:30 EST 2016.
 Entering Gaussian System, Link 0=/usr/local/gaussian/g09/g09
 Initial command:
 /usr/local/gaussian/g09/l1.exe /home/srmcgrat/thesis/gaussian/cellobiose/320/5000/2/gdp/gaussian25468/Gau-25504.inp -scrdir=/home/srmcgrat/thesis/gaussian/cellobiose/320/5000/2/gdp/gaussian25468/
 Entering Link 1 = /usr/local/gaussian/g09/l1.exe PID=     25506.
  
 Copyright (c) 1988,1990,1992,1993,1995,1998,2003,2009,2010,
            Gaussian, Inc.  All Rights Reserved.
  
 This is part of the Gaussian(R) 09 program.  It is based on
 the Gaussian(R) 03 system (copyright 2003, Gaussian, Inc.),
 the Gaussian(R) 98 system (copyright 1998, Gaussian, Inc.),
 the Gaussian(R) 94 system (copyright 1995, Gaussian, Inc.),
 the Gaussian 92(TM) system (copyright 1992, Gaussian, Inc.),
 the Gaussian 90(TM) system (copyright 1990, Gaussian, Inc.),
 the Gaussian 88(TM) system (copyright 1988, Gaussian, Inc.),
 the Gaussian 86(TM) system (copyright 1986, Carnegie Mellon
 University), and the Gaussian 82(TM) system (copyright 1983,
 Carnegie Mellon University). Gaussian is a federally registered
 trademark of Gaussian, Inc.
  
 This software contains proprietary and confidential information,
 including trade secrets, belonging to Gaussian, Inc.
  
 This software is provided under written license and may be
 used, copied, transmitted, or stored only in accord with that
 written license.
  
 The following legend is applicable only to US Government
 contracts under FAR:
  
                    RESTRICTED RIGHTS LEGEND
  
 Use, reproduction and disclosure by the US Government is
 subject to restrictions as set forth in subparagraphs (a)
 and (c) of the Commercial Computer Software - Restricted
 Rights clause in FAR 52.227-19.
  
 Gaussian, Inc.
 340 Quinnipiac St., Bldg. 40, Wallingford CT 06492
  
  
 ---------------------------------------------------------------
 Warning -- This program may not be used in any manner that
 competes with the business of Gaussian, Inc. or will provide
 assistance to any competitor of Gaussian, Inc.  The licensee
 of this program is prohibited from giving any competitor of
 Gaussian, Inc. access to this program.  By using this program,
 the user acknowledges that Gaussian, Inc. is engaged in the
 business of creating and licensing software in the field of
 computational chemistry and represents and warrants to the
 licensee that it is not a competitor of Gaussian, Inc. and that
 it will not use this program in any manner prohibited above.
 ---------------------------------------------------------------
  

 Cite this work as:
 Gaussian 09, Revision B.01,
 M. J. Frisch, G. W. Trucks, H. B. Schlegel, G. E. Scuseria, 
 M. A. Robb, J. R. Cheeseman, G. Scalmani, V. Barone, B. Mennucci, 
 G. A. Petersson, H. Nakatsuji, M. Caricato, X. Li, H. P. Hratchian, 
 A. F. Izmaylov, J. Bloino, G. Zheng, J. L. Sonnenberg, M. Hada, 
 M. Ehara, K. Toyota, R. Fukuda, J. Hasegawa, M. Ishida, T. Nakajima, 
 Y. Honda, O. Kitao, H. Nakai, T. Vreven, J. A. Montgomery, Jr., 
 J. E. Peralta, F. Ogliaro, M. Bearpark, J. J. Heyd, E. Brothers, 
 K. N. Kudin, V. N. Staroverov, T. Keith, R. Kobayashi, J. Normand, 
 K. Raghavachari, A. Rendell, J. C. Burant, S. S. Iyengar, J. Tomasi, 
 M. Cossi, N. Rega, J. M. Millam, M. Klene, J. E. Knox, J. B. Cross, 
 V. Bakken, C. Adamo, J. Jaramillo, R. Gomperts, R. E. Stratmann, 
 O. Yazyev, A. J. Austin, R. Cammi, C. Pomelli, J. W. Ochterski, 
 R. L. Martin, K. Morokuma, V. G. Zakrzewski, G. A. Voth, 
 P. Salvador, J. J. Dannenberg, S. Dapprich, A. D. Daniels, 
 O. Farkas, J. B. Foresman, J. V. Ortiz, J. Cioslowski, 
 and D. J. Fox, Gaussian, Inc., Wallingford CT, 2010.
 
 ******************************************
 Gaussian 09:  EM64L-G09RevB.01 12-Aug-2010
                29-Feb-2016 
 ******************************************
 ------------------------------------------------
 # freq=raman b3lyp/6-31+g(d,p) geom=connectivity
 ------------------------------------------------
 1/10=4,30=1,38=1,57=2/1,3;
 2/12=2,17=6,18=5,40=1/2;
 3/5=1,6=6,7=111,11=2,16=1,25=1,30=1,71=2,74=-5/1,2,3;
 4//1;
 5/5=2,38=5,98=1/2;
 8/6=4,10=90,11=11/1;
 10/13=10,15=4/2;
 11/6=3,8=1,9=11,15=111,16=1/1,2,10;
 10/6=1/2;
 6/7=2,8=2,9=2,10=2,18=1,28=1/1;
 7/8=1,10=1,25=1/1,2,3,16;
 1/10=4,30=1/3;
 99//99;
 ------------
 320 5000.com
 ------------
 Symbolic Z-matrix:
 Charge =  0 Multiplicity = 1
 O                     7.831     7.667     22.764 
 C                     8.528     7.87      24.002 
 C                     8.197     9.278     24.471 
 O                     8.436     10.315    23.509 
 H                     8.184     9.97      22.604 
 C                     8.654     9.676     25.865 
 O                     7.996     10.932    26.087 
 H                     8.109     11.151    27.056 
 C                     8.529     5.498     24.826 
 O                     8.162     4.814     23.619 
 H                     8.237     3.855     23.894 
 C                     8.132     6.933     25.131 
 O                     8.662     7.286     26.417 
 C                     8.217     8.586     26.83 
 O                     9.066     8.8       27.967 
 C                     8.336     8.438     29.148 
 C                     8.951     7.106     29.546 
 O                     8.529     6.047     28.675 
 H                     8.719     6.376     27.749 
 C                     8.487     6.826     30.966 
 O                     9.073     5.625     31.49 
 H                     8.799     5.431     32.432 
 C                     7.858     10.774    29.863 
 O                     8.331     11.608    28.795 
 H                     8.237     12.586    28.98 
 C                     8.657     9.518     30.169 
 O                     8.315     9.149     31.513 
 C                     8.931     7.92      31.923 
 O                     8.133     7.693     33.095 
 H                     8.70763   7.54677   33.85 
 H                     8.46677   7.55061   22.05418 
 H                     8.15611   4.90404   25.63412 
 H                     9.59711   5.46317   24.87911 
 H                     7.06509   6.96089   25.20732 
 H                     9.58145   7.79242   23.83135 
 H                     7.13066   9.26004   24.55756 
 H                     9.71668   9.79834   25.8903 
 H                     7.17593   8.62248   27.07441 
 H                     7.82669   11.36737   30.75285 
 H                     6.85736   10.47669   29.62802 
 H                     9.70143   9.7458    30.12232 
 H                     7.28568   8.35773   28.96013 
 H                     10.01802   7.18331   29.52601 
 H                     7.42039   6.74312   30.98555 
 H                     9.98421   7.97721   32.10295 
 

 GradGradGradGradGradGradGradGradGradGradGradGradGradGradGradGradGradGrad
 Berny optimization.
 Initialization pass.
 Trust Radius=3.00D-01 FncErr=1.00D-07 GrdErr=1.00D-07
 Number of steps in this run=      2 maximum allowed number of steps=      2.
 GradGradGradGradGradGradGradGradGradGradGradGradGradGradGradGradGradGrad

                          Input orientation:                          
 ---------------------------------------------------------------------
 Center     Atomic      Atomic             Coordinates (Angstroms)
 Number     Number       Type             X           Y           Z
 ---------------------------------------------------------------------
      1          8           0        7.831000    7.667000   22.764000
      2          6           0        8.528000    7.870000   24.002000
      3          6           0        8.197000    9.278000   24.471000
      4          8           0        8.436000   10.315000   23.509000
      5          1           0        8.184000    9.970000   22.604000
      6          6           0        8.654000    9.676000   25.865000
      7          8           0        7.996000   10.932000   26.087000
      8          1           0        8.109000   11.151000   27.056000
      9          6           0        8.529000    5.498000   24.826000
     10          8           0        8.162000    4.814000   23.619000
     11          1           0        8.237000    3.855000   23.894000
     12          6           0        8.132000    6.933000   25.131000
     13          8           0        8.662000    7.286000   26.417000
     14          6           0        8.217000    8.586000   26.830000
     15          8           0        9.066000    8.800000   27.967000
     16          6           0        8.336000    8.438000   29.148000
     17          6           0        8.951000    7.106000   29.546000
     18          8           0        8.529000    6.047000   28.675000
     19          1           0        8.719000    6.376000   27.749000
     20          6           0        8.487000    6.826000   30.966000
     21          8           0        9.073000    5.625000   31.490000
     22          1           0        8.799000    5.431000   32.432000
     23          6           0        7.858000   10.774000   29.863000
     24          8           0        8.331000   11.608000   28.795000
     25          1           0        8.237000   12.586000   28.980000
     26          6           0        8.657000    9.518000   30.169000
     27          8           0        8.315000    9.149000   31.513000
     28          6           0        8.931000    7.920000   31.923000
     29          8           0        8.133000    7.693000   33.095000
     30          1           0        8.707626    7.546768   33.849997
     31          1           0        8.466775    7.550608   22.054181
     32          1           0        8.156108    4.904040   25.634123
     33          1           0        9.597113    5.463173   24.879114
     34          1           0        7.065090    6.960891   25.207325
     35          1           0        9.581452    7.792423   23.831351
     36          1           0        7.130658    9.260044   24.557555
     37          1           0        9.716682    9.798343   25.890298
     38          1           0        7.175927    8.622483   27.074409
     39          1           0        7.826685   11.367366   30.752852
     40          1           0        6.857355   10.476687   29.628021
     41          1           0        9.701427    9.745799   30.122316
     42          1           0        7.285684    8.357731   28.960135
     43          1           0       10.018016    7.183307   29.526010
     44          1           0        7.420394    6.743120   30.985547
     45          1           0        9.984206    7.977215   32.102955
 ---------------------------------------------------------------------
                    Distance matrix (angstroms):
                    1          2          3          4          5
     1  O    0.000000
     2  C    1.435152   0.000000
     3  C    2.375526   1.520522   0.000000
     4  O    2.816550   2.495904   1.434550   0.000000
     5  H    2.335384   2.546123   1.991161   1.000777   0.000000
     6  C    3.785447   2.597745   1.520029   2.450833   3.307787
     7  O    4.661521   3.742472   2.321115   2.687075   3.618298
     8  H    5.535052   4.501937   3.193446   3.658830   4.606592
     9  C    3.073046   2.511048   3.811122   4.994660   5.005506
    10  O    2.996697   3.101577   4.544714   5.508918   5.255002
    11  H    3.996634   4.026980   5.453756   6.474521   6.249811
    12  C    2.496407   1.519680   2.436976   3.763140   3.951177
    13  O    3.765651   2.488220   2.823332   4.205042   4.687356
    14  C    4.186396   2.933762   2.458484   3.750526   4.446979
    15  O    5.466271   4.107988   3.633959   4.750357   5.559550
    16  C    6.450188   5.180811   4.753867   5.944026   6.722653
    17  C    6.896713   5.612358   5.571510   6.856258   7.548652
    18  O    6.168592   5.016000   5.312551   6.701644   7.236435
    19  H    5.225462   4.038382   4.409010   5.794257   6.298737
    20  C    8.271059   7.041940   6.948484   8.233017   8.938657
    21  O    9.047398   7.836274   7.961039   9.278913   9.931281
    22  H    9.970303   8.779924   8.862242  10.178662  10.842985
    23  C    7.749192   6.575214   5.605943   6.396724   7.310662
    24  O    7.221803   6.081472   4.913637   5.442855   6.405711
    25  H    7.937257   6.863368   5.592454   5.926962   6.891998
    26  C    7.677402   6.384703   5.721574   6.711159   7.593238
    27  O    8.886821   7.622095   7.044170   8.089389   8.947708
    28  C    9.228287   7.931403   7.610205   8.762217   9.571012
    29  O   10.335446   9.103296   8.768677   9.942741  10.735381
    30  H   11.121253   9.854938   9.551099  10.708553  11.516019
    31  H    0.960000   1.974781   2.982897   3.123989   2.497142
    32  H    3.997155   3.405738   4.526152   5.820050   5.903082
    33  H    3.528415   2.775814   4.084088   5.173550   5.242568
    34  H    2.656133   2.102235   2.681863   4.001718   4.133279
    35  H    2.054033   1.070000   2.129036   2.789151   2.863757
    36  H    2.499022   2.047787   1.070000   1.978969   2.330224
    37  H    4.227547   2.949091   2.143501   2.752755   3.630198
    38  H    4.463373   3.440063   2.872287   4.143011   4.776670
    39  H    8.804231   7.635274   6.630554   7.345211   8.275512
    40  H    7.480449   6.421681   5.461352   6.321446   7.166142
    41  H    7.871767   6.507981   5.866814   6.757310   7.673195
    42  H    6.258320   5.134621   4.672229   5.904998   6.618673
    43  H    7.123326   5.762498   5.766885   6.965248   7.683977
    44  H    8.283477   7.160069   7.033353   8.347966   9.013667
    45  H    9.588983   8.231494   7.945620   9.039814   9.871275
                    6          7          8          9         10
     6  C    0.000000
     7  O    1.435195   0.000000
     8  H    1.972595   0.999845   0.000000
     9  C    4.307067   5.603799   6.091446   0.000000
    10  O    5.378255   6.599129   7.209254   1.435059   0.000000
    11  H    6.159770   7.412912   7.952751   1.911370   1.000465
    12  C    2.887090   4.113932   4.636559   1.519822   2.603307
    13  O    2.452930   3.720991   3.956306   2.397064   3.766907
    14  C    1.519965   2.470750   2.577201   3.694469   4.953941
    15  O    2.314201   3.037223   2.696845   4.588840   5.967455
    16  C    3.523047   3.962998   3.433418   5.230730   6.613130
    17  C    4.499208   5.245473   4.824012   5.004213   6.403524
    18  O    4.591445   5.553833   5.371069   3.887956   5.217098
    19  H    3.800484   4.903275   4.863432   3.057926   4.450505
    20  C    5.845562   6.395698   5.842654   6.282113   7.624446
    21  O    6.944551   7.649614   7.150268   6.687373   7.964941
    22  H    7.820904   8.435925   7.880094   7.611086   8.857507
    23  C    4.221756   3.781823   2.843304   7.325148   8.637219
    24  O    3.524465   2.811132   1.811699   7.288639   8.542715
    25  H    4.283131   3.341144   2.403619   8.220750   9.441924
    26  C    4.306900   4.370245   3.557775   6.687633   8.079303
    27  O    5.682654   5.720343   4.890326   7.621782   9.007268
    28  C    6.313448   6.633646   5.899384   7.509667   8.899158
    29  O    7.515093   7.721525   6.959013   8.564532   9.903740
    30  H    8.264181   8.498843   7.714094   9.255371  10.603727
    31  H    4.367458   5.283850   6.173250   3.449645   3.167108
    32  H    4.803416   6.047069   6.406908   1.070000   2.017142
    33  H    4.428244   5.824999   6.269345   1.070000   2.017142
    34  H    3.213874   4.172545   4.697272   2.104398   2.887062
    35  H    2.922970   4.178343   4.883289   2.713182   3.306198
    36  H    2.050123   2.425583   3.282544   4.022487   4.659599
    37  H    1.070000   2.069931   2.402745   4.586531   5.693813
    38  H    2.181117   2.642228   2.695248   4.080263   5.236099
    39  H    5.237964   4.689178   3.713924   8.370799   9.692826
    40  H    4.246100   3.747353   2.938810   7.116258   8.359214
    41  H    4.384828   4.538649   3.729974   6.889800   8.305757
    42  H    3.631801   3.922539   3.479357   5.178317   6.469442
    43  H    4.634334   5.474307   5.048552   5.210329   6.629569
    44  H    6.028563   6.470997   5.945160   6.381172   7.650981
    45  H    6.600560   6.991096   6.249885   7.824206   9.236008
                   11         12         13         14         15
    11  H    0.000000
    12  C    3.318927   0.000000
    13  O    4.279943   1.435028   0.000000
    14  C    5.568021   2.371969   1.434780   0.000000
    15  O    6.459845   3.521497   2.204067   1.435049   0.000000
    16  C    6.972676   4.294523   2.981902   2.325766   1.434819
    17  C    6.559261   4.493653   3.147469   3.178964   2.318642
    18  O    5.267645   3.674580   2.579026   3.154028   2.892861
    19  H    4.631284   2.740208   1.614179   2.445540   2.458396
    20  C    7.674798   5.846768   4.575547   4.502999   3.636746
    21  O    7.844171   6.559971   5.353800   5.587115   4.742595
    22  H    8.700406   7.483682   6.296032   6.455630   5.599792
    23  C    9.145773   6.100834   4.968649   3.757035   2.991781
    24  O    9.172658   5.943073   4.944100   3.606481   3.018389
    25  H   10.104343   6.839754   5.902507   4.541244   4.005896
    26  C    8.462954   5.686765   4.365702   3.494445   2.351937
    27  O    9.278021   6.758259   5.436947   4.717739   3.641417
    28  C    9.026112   6.909691   5.548906   5.185750   4.054943
    29  O    9.969928   8.000181   6.711272   6.328881   5.328445
    30  H   10.628853   8.759507   7.437710   7.113444   6.025669
    31  H    4.134640   3.155999   4.375194   4.893146   6.073013
    32  H    2.033484   2.090549   2.557842   3.871778   4.631277
    33  H    2.325205   2.090549   2.561685   3.932266   4.577285
    34  H    3.569979   1.070000   2.029564   2.569232   3.873212
    35  H    4.161103   2.128052   2.790598   3.388715   4.287714
    36  H    5.556870   2.597434   3.114385   2.607390   3.947341
    37  H    6.441893   3.361241   2.775182   2.145194   2.394319
    38  H    5.828359   2.746865   2.103993   1.070000   2.097762
    39  H   10.180759   7.166731   6.012895   4.824636   3.986005
    40  H    8.867308   5.865632   4.873180   3.640364   3.232396
    41  H    8.697010   5.940385   4.567317   3.793152   2.437968
    42  H    6.844364   4.172336   3.083892   2.336007   2.086011
    43  H    6.780058   4.789136   3.393416   3.532659   2.439373
    44  H    7.700528   5.900692   4.765284   4.615123   4.006295
    45  H    9.350525   7.288978   5.878443   5.594434   4.315808
                   16         17         18         19         20
    16  C    0.000000
    17  C    1.520149   0.000000
    18  O    2.444966   1.434645   0.000000
    19  H    2.521058   1.953441   1.000908   0.000000
    20  C    2.434434   1.519900   2.420183   3.256595   0.000000
    21  O    3.733779   2.446913   2.897973   3.832023   1.435400
    22  H    4.476726   3.340318   3.816727   4.778066   2.047566
    23  C    2.489298   3.840490   4.919971   4.955070   4.147162
    24  O    3.189598   4.606127   5.565818   5.349625   5.254056
    25  H    4.152581   5.555227   6.552619   6.349156   6.097893
    26  C    1.520487   2.508448   3.781040   3.966410   2.812645
    27  O    2.469653   2.906447   4.209803   4.692594   2.392723
    28  C    2.884956   2.512593   3.770840   4.455464   1.519810
    29  O    4.021821   3.689051   4.733131   5.536931   2.325865
    30  H    4.800123   4.333347   5.390900   6.212326   2.980876
    31  H    7.150303   7.520605   6.789695   5.820162   8.941252
    32  H    4.986840   4.558867   3.269914   2.637465   5.677353
    33  H    5.353820   4.989606   3.986286   3.136970   6.335601
    34  H    4.396133   4.733056   3.873371   3.088305   5.933158
    35  H    5.498606   5.790152   5.255006   4.254180   7.282514
    36  H    4.816720   5.730457   5.406697   4.585397   6.988018
    37  H    3.790704   4.604251   4.820552   4.020270   6.009133
    38  H    2.383187   3.399907   3.320513   2.807638   4.482270
    39  H    3.378777   4.569443   5.754738   5.893478   4.594067
    40  H    2.563797   3.968829   4.829572   4.879762   4.215856
    41  H    2.126975   2.804250   4.141307   4.237138   3.272898
    42  H    1.070000   2.164104   2.639435   2.729194   2.795149
    43  H    2.132211   1.070000   2.057324   2.344558   2.131959
    44  H    2.662242   2.132307   2.655602   3.506621   1.070000
    45  H    3.414771   2.892153   4.194547   4.808488   2.204447
                   21         22         23         24         25
    21  O    0.000000
    22  H    1.000038   0.000000
    23  C    5.534939   6.002740   0.000000
    24  O    6.603778   7.183462   1.435238   0.000000
    25  H    7.446779   7.964055   2.051018   0.999772   0.000000
    26  C    4.132015   4.673853   1.519728   2.522350   3.317039
    27  O    3.604673   3.860355   2.360503   3.665305   4.270263
    28  C    2.339803   2.543939   3.679707   4.872959   5.560076
    29  O    2.781411   2.449443   4.473702   5.818628   6.394176
    30  H    3.065335   2.548635   5.199331   6.495264   7.023690
    31  H    9.649361  10.597275   8.469860   7.868895   8.565917
    32  H    5.970910   6.848513   7.240767   7.413826   8.379377
    33  H    6.633604   7.595006   7.487891   7.395681   8.330776
    34  H    6.729660   7.585707   6.069911   6.005794   6.873740
    35  H    7.975659   8.953195   6.945565   6.384361   7.162019
    36  H    8.065050   8.913576   5.564965   4.990957   5.643048
    37  H    7.013400   7.918944   4.493213   3.692190   4.416644
    38  H    5.664029   6.443889   3.587546   3.634273   4.524005
    39  H    5.922115   6.245428   1.070000   2.036031   2.190076
    40  H    5.649328   6.090257   1.070000   2.036031   2.602413
    41  H    4.387079   4.976596   2.126656   2.666014   3.393549
    42  H    4.130682   4.786411   2.642171   3.418216   4.334011
    43  H    2.679297   3.605740   4.203844   4.791483   5.714826
    44  H    2.058099   2.390489   4.207090   5.412463   6.231237
    45  H    2.595944   2.827754   4.166552   5.182495   5.834936
                   26         27         28         29         30
    26  C    0.000000
    27  O    1.435082   0.000000
    28  C    2.388555   1.434572   0.000000
    29  O    3.488076   2.157727   1.435938   0.000000
    30  H    4.175891   2.860570   1.975479   0.960000   0.000000
    31  H    8.352072   9.594121   9.886635  11.046781  11.798276
    32  H    6.488808   7.253008   7.017581   7.965144   8.648050
    33  H    6.731146   7.696595   7.489729   8.638087   9.252530
    34  H    5.804413   6.790555   7.035752   7.993237   8.816857
    35  H    6.633100   7.902653   8.118752   9.376731  10.059681
    36  H    5.821046   7.056430   7.699788   8.737750   9.579751
    37  H    4.416877   5.831049   6.367021   7.671261   8.333342
    38  H    3.545704   4.612569   5.204094   6.166639   7.029357
    39  H    2.109611   2.395292   3.804351   4.368117   4.996532
    40  H    2.109611   2.727751   4.012926   4.625594   5.461960
    41  H    1.070000   2.052401   2.677604   3.938375   4.440607
    42  H    2.165199   2.864039   3.417198   4.272812   5.156582
    43  H    2.777875   3.272971   2.733108   4.068263   4.532780
    44  H    3.145775   2.620455   2.132087   2.420717   3.241588
    45  H    2.806363   2.123058   1.070000   2.119409   2.206150
                   31         32         33         34         35
    31  H    0.000000
    32  H    4.462827   0.000000
    33  H    3.689891   1.720223   0.000000
    34  H    3.500686   2.367090   2.960071   0.000000
    35  H    2.111709   3.691118   2.554106   2.986105   0.000000
    36  H    3.312743   4.602752   4.539056   2.390106   2.947486
    37  H    4.618482   5.143463   4.453143   3.943161   2.877718
    38  H    5.293194   4.106337   4.545625   2.501835   4.122254
    39  H    9.520727   8.251333   8.514382   7.123898   7.985399
    40  H    8.277393   6.977992   7.429247   5.652126   6.944592
    41  H    8.452102   6.780451   6.770741   6.234030   6.588346
    42  H    7.052562   4.873190   5.511434   4.010413   5.647525
    43  H    7.639993   4.879400   4.972893   5.236438   5.743757
    44  H    9.028635   5.706245   6.607943   5.793231   7.546769
    45  H   10.171649   7.391355   7.658598   7.556710   8.283464
                   36         37         38         39         40
    36  H    0.000000
    37  H    2.958630   0.000000
    38  H    2.596746   3.039770   0.000000
    39  H    6.580802   5.447784   4.635602   0.000000
    40  H    5.221546   4.754626   3.171828   1.731518   0.000000
    41  H    6.149095   4.232371   4.114575   2.557677   2.977796
    42  H    4.496767   4.172410   1.907380   3.544632   2.262633
    43  H    6.110255   4.488609   4.019831   4.879899   4.565800
    44  H    6.909265   6.369371   4.346121   4.647888   4.012407
    45  H    8.168319   6.479597   5.795608   4.239198   4.706363
                   41         42         43         44         45
    41  H    0.000000
    42  H    3.018810   0.000000
    43  H    2.649938   3.027396   0.000000
    44  H    3.868380   2.593726   3.011919   0.000000
    45  H    2.670353   4.159823   2.696679   3.056914   0.000000
 Stoichiometry    C12H22O11
 Framework group  C1[X(C12H22O11)]
 Deg. of freedom   129
 Full point group                 C1      NOp   1
 Largest Abelian subgroup         C1      NOp   1
 Largest concise Abelian subgroup C1      NOp   1
                         Standard orientation:                         
 ---------------------------------------------------------------------
 Center     Atomic      Atomic             Coordinates (Angstroms)
 Number     Number       Type             X           Y           Z
 ---------------------------------------------------------------------
      1          8           0        4.939031   -0.308747   -0.433016
      2          6           0        3.669125   -0.191984    0.225289
      3          6           0        3.161659    1.216999   -0.037830
      4          8           0        4.075395    2.269442    0.301849
      5          1           0        5.001244    1.971962    0.065496
      6          6           0        1.737842    1.537858    0.386771
      7          8           0        1.494883    2.824017   -0.201913
      8          1           0        0.514955    3.002270   -0.114400
      9          6           0        2.933056   -2.586264    0.049255
     10          8           0        4.177219   -3.204400   -0.310412
     11          1           0        3.934887   -4.175057   -0.304873
     12          6           0        2.590854   -1.140631   -0.271529
     13          8           0        1.273795   -0.865502    0.227434
     14          6           0        0.830487    0.444760   -0.153727
     15          8           0       -0.344670    0.566498    0.660860
     16          6           0       -1.483374    0.210395   -0.136166
     17          6           0       -1.855164   -1.170119    0.380369
     18          8           0       -0.930745   -2.170387   -0.070317
     19          1           0       -0.025199   -1.822341    0.175994
     20          6           0       -3.245531   -1.469154   -0.155870
     21          8           0       -3.746854   -2.721506    0.334702
     22          1           0       -4.670164   -2.930216    0.012189
     23          6           0       -2.264953    2.545760   -0.499224
     24          8           0       -1.246720    3.384789    0.065700
     25          1           0       -1.463737    4.359836    0.024086
     26          6           0       -2.554562    1.232759    0.209103
     27          8           0       -3.870359    0.839961   -0.207851
     28          6           0       -4.257940   -0.438285    0.315469
     29          8           0       -5.390044   -0.655191   -0.540807
     30          1           0       -6.160232   -0.862637   -0.006600
     31          1           0        5.628255   -0.440095    0.222208
     32          1           0        2.161794   -3.183191   -0.390896
     33          1           0        2.841172   -2.689256    1.110316
     34          1           0        2.553686   -1.049062   -1.336955
     35          1           0        3.802811   -0.329048    1.278019
     36          1           0        3.115931    1.262451   -1.105886
     37          1           0        1.668186    1.592928    1.453081
     38          1           0        0.624181    0.537539   -1.199542
     39          1           0       -3.174126    3.109119   -0.529728
     40          1           0       -1.981830    2.319478   -1.505970
     41          1           0       -2.555510    1.396618    1.266482
     42          1           0       -1.253380    0.202087   -1.181122
     43          1           0       -1.878108   -1.158689    1.450062
     44          1           0       -3.221956   -1.486152   -1.225475
     45          1           0       -4.479299   -0.452882    1.362220
 ---------------------------------------------------------------------
 Rotational constants (GHZ):      0.4095348      0.1522361      0.1136403
 Standard basis: 6-31+G(d,p) (6D, 7F)
 There are   547 symmetry adapted basis functions of A   symmetry.
 Integral buffers will be    131072 words long.
 Raffenetti 2 integral format.
 Two-electron integral symmetry is turned on.
   547 basis functions,   890 primitive gaussians,   547 cartesian basis functions
    91 alpha electrons       91 beta electrons
       nuclear repulsion energy      2309.4100193547 Hartrees.
 NAtoms=   45 NActive=   45 NUniq=   45 SFac= 1.00D+00 NAtFMM=   50 NAOKFM=F Big=F
 One-electron integrals computed using PRISM.
 NBasis=   547 RedAO= T  NBF=   547
 NBsUse=   547 1.00D-06 NBFU=   547
 Harris functional with IExCor=  402 diagonalized for initial guess.
 ExpMin= 4.38D-02 ExpMax= 5.48D+03 ExpMxC= 8.25D+02 IAcc=2 IRadAn=         0 AccDes= 0.00D+00
 HarFok:  IExCor=  402 AccDes= 0.00D+00 IRadAn=         0 IDoV= 1
 ScaDFX=  1.000000  1.000000  1.000000  1.000000
 FoFCou: FMM=F IPFlag=           0 FMFlag=      100000 FMFlg1=           0
         NFxFlg=           0 DoJE=T BraDBF=F KetDBF=T FulRan=T
         Omega=  0.000000  0.000000  1.000000  0.000000  0.000000 ICntrl=     500 IOpCl=  0
         NMat0=    1 NMatS0=    1 NMatT0=    0 NMatD0=    1 NMtDS0=    0 NMtDT0=    0
         I1Cent=           4 NGrid=           0.
 Petite list used in FoFCou.
 Initial guess orbital symmetries:
       Occupied  (A) (A) (A) (A) (A) (A) (A) (A) (A) (A) (A) (A)
                 (A) (A) (A) (A) (A) (A) (A) (A) (A) (A) (A) (A)
                 (A) (A) (A) (A) (A) (A) (A) (A) (A) (A) (A) (A)
                 (A) (A) (A) (A) (A) (A) (A) (A) (A) (A) (A) (A)
                 (A) (A) (A) (A) (A) (A) (A) (A) (A) (A) (A) (A)
                 (A) (A) (A) (A) (A) (A) (A) (A) (A) (A) (A) (A)
                 (A) (A) (A) (A) (A) (A) (A) (A) (A) (A) (A) (A)
                 (A) (A) (A) (A) (A) (A) (A)
       Virtual   (A) (A) (A) (A) (A) (A) (A) (A) (A) (A) (A) (A)
                 (A) (A) (A) (A) (A) (A) (A) (A) (A) (A) (A) (A)
                 (A) (A) (A) (A) (A) (A) (A) (A) (A) (A) (A) (A)
                 (A) (A) (A) (A) (A) (A) (A) (A) (A) (A) (A) (A)
                 (A) (A) (A) (A) (A) (A) (A) (A) (A) (A) (A) (A)
                 (A) (A) (A) (A) (A) (A) (A) (A) (A) (A) (A) (A)
                 (A) (A) (A) (A) (A) (A) (A) (A) (A) (A) (A) (A)
                 (A) (A) (A) (A) (A) (A) (A) (A) (A) (A) (A) (A)
                 (A) (A) (A) (A) (A) (A) (A) (A) (A) (A) (A) (A)
                 (A) (A) (A) (A) (A) (A) (A) (A) (A) (A) (A) (A)
                 (A) (A) (A) (A) (A) (A) (A) (A) (A) (A) (A) (A)
                 (A) (A) (A) (A) (A) (A) (A) (A) (A) (A) (A) (A)
                 (A) (A) (A) (A) (A) (A) (A) (A) (A) (A) (A) (A)
                 (A) (A) (A) (A) (A) (A) (A) (A) (A) (A) (A) (A)
                 (A) (A) (A) (A) (A) (A) (A) (A) (A) (A) (A) (A)
                 (A) (A) (A) (A) (A) (A) (A) (A) (A) (A) (A) (A)
                 (A) (A) (A) (A) (A) (A) (A) (A) (A) (A) (A) (A)
                 (A) (A) (A) (A) (A) (A) (A) (A) (A) (A) (A) (A)
                 (A) (A) (A) (A) (A) (A) (A) (A) (A) (A) (A) (A)
                 (A) (A) (A) (A) (A) (A) (A) (A) (A) (A) (A) (A)
                 (A) (A) (A) (A) (A) (A) (A) (A) (A) (A) (A) (A)
                 (A) (A) (A) (A) (A) (A) (A) (A) (A) (A) (A) (A)
                 (A) (A) (A) (A) (A) (A) (A) (A) (A) (A) (A) (A)
                 (A) (A) (A) (A) (A) (A) (A) (A) (A) (A) (A) (A)
                 (A) (A) (A) (A) (A) (A) (A) (A) (A) (A) (A) (A)
                 (A) (A) (A) (A) (A) (A) (A) (A) (A) (A) (A) (A)
                 (A) (A) (A) (A) (A) (A) (A) (A) (A) (A) (A) (A)
                 (A) (A) (A) (A) (A) (A) (A) (A) (A) (A) (A) (A)
                 (A) (A) (A) (A) (A) (A) (A) (A) (A) (A) (A) (A)
                 (A) (A) (A) (A) (A) (A) (A) (A) (A) (A) (A) (A)
                 (A) (A) (A) (A) (A) (A) (A) (A) (A) (A) (A) (A)
                 (A) (A) (A) (A) (A) (A) (A) (A) (A) (A) (A) (A)
                 (A) (A) (A) (A) (A) (A) (A) (A) (A) (A) (A) (A)
                 (A) (A) (A) (A) (A) (A) (A) (A) (A) (A) (A) (A)
                 (A) (A) (A) (A) (A) (A) (A) (A) (A) (A) (A) (A)
                 (A) (A) (A) (A) (A) (A) (A) (A) (A) (A) (A) (A)
                 (A) (A) (A) (A) (A) (A) (A) (A) (A) (A) (A) (A)
                 (A) (A) (A) (A) (A) (A) (A) (A) (A) (A) (A) (A)
 The electronic state of the initial guess is 1-A.
 Requested convergence on RMS density matrix=1.00D-08 within 128 cycles.
 Requested convergence on MAX density matrix=1.00D-06.
 Requested convergence on             energy=1.00D-06.
 No special actions if energy rises.
 SCF Done:  E(RB3LYP) =  -1297.92745331     A.U. after   13 cycles
             Convg  =    0.8993D-08             -V/T =  2.0085
 Range of M.O.s used for correlation:     1   547
 NBasis=   547 NAE=    91 NBE=    91 NFC=     0 NFV=     0
 NROrb=    547 NOA=    91 NOB=    91 NVA=   456 NVB=   456

 **** Warning!!: The largest alpha MO coefficient is  0.67295267D+02

          Differentiating once with respect to electric field.
                with respect to dipole field.
          Electric field/nuclear overlap derivatives assumed to be zero.
          There are     3 degrees of freedom in the 1st order CPHF.  IDoFFX=0.
      3 vectors produced by pass  0 Test12= 1.38D-12 3.33D-08 XBig12= 1.19D+02 1.16D+00.
 AX will form     3 AO Fock derivatives at one time.
      3 vectors produced by pass  1 Test12= 1.38D-12 3.33D-08 XBig12= 2.33D+01 3.86D-01.
      3 vectors produced by pass  2 Test12= 1.38D-12 3.33D-08 XBig12= 1.01D+01 2.33D-01.
      3 vectors produced by pass  3 Test12= 1.38D-12 3.33D-08 XBig12= 1.05D+00 8.07D-02.
      3 vectors produced by pass  4 Test12= 1.38D-12 3.33D-08 XBig12= 3.59D-01 4.42D-02.
      3 vectors produced by pass  5 Test12= 1.38D-12 3.33D-08 XBig12= 5.92D-02 2.13D-02.
      3 vectors produced by pass  6 Test12= 1.38D-12 3.33D-08 XBig12= 2.24D-02 1.76D-02.
      3 vectors produced by pass  7 Test12= 1.38D-12 3.33D-08 XBig12= 2.27D-03 6.03D-03.
      3 vectors produced by pass  8 Test12= 1.38D-12 3.33D-08 XBig12= 5.50D-04 2.46D-03.
      3 vectors produced by pass  9 Test12= 1.38D-12 3.33D-08 XBig12= 1.28D-04 1.20D-03.
      3 vectors produced by pass 10 Test12= 1.38D-12 3.33D-08 XBig12= 2.85D-05 4.87D-04.
      3 vectors produced by pass 11 Test12= 1.38D-12 3.33D-08 XBig12= 6.18D-06 2.93D-04.
      3 vectors produced by pass 12 Test12= 1.38D-12 3.33D-08 XBig12= 1.17D-06 9.11D-05.
      3 vectors produced by pass 13 Test12= 1.38D-12 3.33D-08 XBig12= 4.04D-07 4.51D-05.
      3 vectors produced by pass 14 Test12= 1.38D-12 3.33D-08 XBig12= 3.14D-08 1.68D-05.
      3 vectors produced by pass 15 Test12= 1.38D-12 3.33D-08 XBig12= 7.31D-09 7.43D-06.
      3 vectors produced by pass 16 Test12= 1.38D-12 3.33D-08 XBig12= 9.25D-10 3.14D-06.
      3 vectors produced by pass 17 Test12= 1.38D-12 3.33D-08 XBig12= 8.31D-11 6.81D-07.
      3 vectors produced by pass 18 Test12= 1.38D-12 3.33D-08 XBig12= 2.63D-11 4.40D-07.
      3 vectors produced by pass 19 Test12= 1.38D-12 3.33D-08 XBig12= 1.71D-11 3.42D-07.
      3 vectors produced by pass 20 Test12= 1.38D-12 3.33D-08 XBig12= 5.79D-12 2.10D-07.
      2 vectors produced by pass 21 Test12= 1.38D-12 3.33D-08 XBig12= 1.42D-12 7.75D-08.
      1 vectors produced by pass 22 Test12= 1.38D-12 3.33D-08 XBig12= 3.20D-13 3.96D-08.
 Inverted reduced A of dimension    66 with in-core refinement.
 End of Minotr Frequency-dependent properties file   721 does not exist.
 End of Minotr Frequency-dependent properties file   722 does not exist.
 Symmetrizing basis deriv contribution to polar:
 IMax=3 JMax=2 DiffMx= 0.00D+00
 G2DrvN: will do    23 centers at a time, making    2 passes doing MaxLOS=2.
 Calling FoFCou, ICntrl=  3107 FMM=F I1Cent=   0 AccDes= 0.00D+00.
 Calling FoFCou, ICntrl=  3107 FMM=F I1Cent=   0 AccDes= 0.00D+00.
 FoFDir/FoFCou used for L=0 through L=2.
 End of G2Drv Frequency-dependent properties file   721 does not exist.
 End of G2Drv Frequency-dependent properties file   722 does not exist.
          IDoAtm=111111111111111111111111111111111111111111111
          Differentiating once with respect to electric field.
                with respect to dipole field.
          Differentiating once with respect to nuclear coordinates.
          There are   138 degrees of freedom in the 1st order CPHF.  IDoFFX=5.
 Will reuse    3 saved solutions.
    135 vectors produced by pass  0 Test12= 4.15D-14 1.00D-09 XBig12= 2.32D-01 8.69D-02.
 AX will form    68 AO Fock derivatives at one time.
    135 vectors produced by pass  1 Test12= 4.15D-14 1.00D-09 XBig12= 3.42D-02 1.39D-02.
    132 vectors produced by pass  2 Test12= 4.15D-14 1.00D-09 XBig12= 2.27D-04 1.74D-03.
    132 vectors produced by pass  3 Test12= 4.15D-14 1.00D-09 XBig12= 7.51D-07 7.89D-05.
    132 vectors produced by pass  4 Test12= 4.15D-14 1.00D-09 XBig12= 1.26D-09 2.33D-06.
    132 vectors produced by pass  5 Test12= 4.15D-14 1.00D-09 XBig12= 3.85D-12 1.73D-07.
     78 vectors produced by pass  6 Test12= 4.15D-14 1.00D-09 XBig12= 1.31D-13 2.53D-08.
 Inverted reduced A of dimension   876 with in-core refinement.
 Isotropic polarizability for W=    0.000000      186.50 Bohr**3.
 End of Minotr Frequency-dependent properties file   721 does not exist.
 End of Minotr Frequency-dependent properties file   722 does not exist.

 **********************************************************************

            Population analysis using the SCF density.

 **********************************************************************

 Orbital symmetries:
       Occupied  (A) (A) (A) (A) (A) (A) (A) (A) (A) (A) (A) (A)
                 (A) (A) (A) (A) (A) (A) (A) (A) (A) (A) (A) (A)
                 (A) (A) (A) (A) (A) (A) (A) (A) (A) (A) (A) (A)
                 (A) (A) (A) (A) (A) (A) (A) (A) (A) (A) (A) (A)
                 (A) (A) (A) (A) (A) (A) (A) (A) (A) (A) (A) (A)
                 (A) (A) (A) (A) (A) (A) (A) (A) (A) (A) (A) (A)
                 (A) (A) (A) (A) (A) (A) (A) (A) (A) (A) (A) (A)
                 (A) (A) (A) (A) (A) (A) (A)
       Virtual   (A) (A) (A) (A) (A) (A) (A) (A) (A) (A) (A) (A)
                 (A) (A) (A) (A) (A) (A) (A) (A) (A) (A) (A) (A)
                 (A) (A) (A) (A) (A) (A) (A) (A) (A) (A) (A) (A)
                 (A) (A) (A) (A) (A) (A) (A) (A) (A) (A) (A) (A)
                 (A) (A) (A) (A) (A) (A) (A) (A) (A) (A) (A) (A)
                 (A) (A) (A) (A) (A) (A) (A) (A) (A) (A) (A) (A)
                 (A) (A) (A) (A) (A) (A) (A) (A) (A) (A) (A) (A)
                 (A) (A) (A) (A) (A) (A) (A) (A) (A) (A) (A) (A)
                 (A) (A) (A) (A) (A) (A) (A) (A) (A) (A) (A) (A)
                 (A) (A) (A) (A) (A) (A) (A) (A) (A) (A) (A) (A)
                 (A) (A) (A) (A) (A) (A) (A) (A) (A) (A) (A) (A)
                 (A) (A) (A) (A) (A) (A) (A) (A) (A) (A) (A) (A)
                 (A) (A) (A) (A) (A) (A) (A) (A) (A) (A) (A) (A)
                 (A) (A) (A) (A) (A) (A) (A) (A) (A) (A) (A) (A)
                 (A) (A) (A) (A) (A) (A) (A) (A) (A) (A) (A) (A)
                 (A) (A) (A) (A) (A) (A) (A) (A) (A) (A) (A) (A)
                 (A) (A) (A) (A) (A) (A) (A) (A) (A) (A) (A) (A)
                 (A) (A) (A) (A) (A) (A) (A) (A) (A) (A) (A) (A)
                 (A) (A) (A) (A) (A) (A) (A) (A) (A) (A) (A) (A)
                 (A) (A) (A) (A) (A) (A) (A) (A) (A) (A) (A) (A)
                 (A) (A) (A) (A) (A) (A) (A) (A) (A) (A) (A) (A)
                 (A) (A) (A) (A) (A) (A) (A) (A) (A) (A) (A) (A)
                 (A) (A) (A) (A) (A) (A) (A) (A) (A) (A) (A) (A)
                 (A) (A) (A) (A) (A) (A) (A) (A) (A) (A) (A) (A)
                 (A) (A) (A) (A) (A) (A) (A) (A) (A) (A) (A) (A)
                 (A) (A) (A) (A) (A) (A) (A) (A) (A) (A) (A) (A)
                 (A) (A) (A) (A) (A) (A) (A) (A) (A) (A) (A) (A)
                 (A) (A) (A) (A) (A) (A) (A) (A) (A) (A) (A) (A)
                 (A) (A) (A) (A) (A) (A) (A) (A) (A) (A) (A) (A)
                 (A) (A) (A) (A) (A) (A) (A) (A) (A) (A) (A) (A)
                 (A) (A) (A) (A) (A) (A) (A) (A) (A) (A) (A) (A)
                 (A) (A) (A) (A) (A) (A) (A) (A) (A) (A) (A) (A)
                 (A) (A) (A) (A) (A) (A) (A) (A) (A) (A) (A) (A)
                 (A) (A) (A) (A) (A) (A) (A) (A) (A) (A) (A) (A)
                 (A) (A) (A) (A) (A) (A) (A) (A) (A) (A) (A) (A)
                 (A) (A) (A) (A) (A) (A) (A) (A) (A) (A) (A) (A)
                 (A) (A) (A) (A) (A) (A) (A) (A) (A) (A) (A) (A)
                 (A) (A) (A) (A) (A) (A) (A) (A) (A) (A) (A) (A)
 The electronic state is 1-A.
 Alpha  occ. eigenvalues --  -19.21111 -19.19564 -19.19072 -19.18399 -19.18163
 Alpha  occ. eigenvalues --  -19.18104 -19.17583 -19.16043 -19.15263 -19.14581
 Alpha  occ. eigenvalues --  -19.13816 -10.31570 -10.30740 -10.26662 -10.25917
 Alpha  occ. eigenvalues --  -10.25731 -10.25654 -10.25513 -10.24663 -10.24561
 Alpha  occ. eigenvalues --  -10.24386 -10.24078 -10.23548  -1.11703  -1.09342
 Alpha  occ. eigenvalues --   -1.05792  -1.05222  -1.04681  -1.03364  -1.02880
 Alpha  occ. eigenvalues --   -1.02087  -1.01755  -1.00101  -0.99767  -0.82444
 Alpha  occ. eigenvalues --   -0.80808  -0.79135  -0.78238  -0.71767  -0.69942
 Alpha  occ. eigenvalues --   -0.67369  -0.65622  -0.63562  -0.63042  -0.61438
 Alpha  occ. eigenvalues --   -0.60298  -0.56776  -0.56336  -0.55256  -0.54665
 Alpha  occ. eigenvalues --   -0.54188  -0.53353  -0.52941  -0.51741  -0.51499
 Alpha  occ. eigenvalues --   -0.50398  -0.50010  -0.49742  -0.48433  -0.46681
 Alpha  occ. eigenvalues --   -0.46183  -0.45114  -0.44344  -0.43720  -0.42743
 Alpha  occ. eigenvalues --   -0.42357  -0.41401  -0.41071  -0.40299  -0.39632
 Alpha  occ. eigenvalues --   -0.38963  -0.38427  -0.37643  -0.36818  -0.36348
 Alpha  occ. eigenvalues --   -0.36032  -0.34627  -0.34335  -0.34165  -0.33860
 Alpha  occ. eigenvalues --   -0.32801  -0.31285  -0.30852  -0.29968  -0.29703
 Alpha  occ. eigenvalues --   -0.29204  -0.28944  -0.27821  -0.27585  -0.26516
 Alpha  occ. eigenvalues --   -0.26236
 Alpha virt. eigenvalues --   -0.02000  -0.01952  -0.01781  -0.00448   0.00068
 Alpha virt. eigenvalues --    0.00925   0.01806   0.02287   0.03047   0.03493
 Alpha virt. eigenvalues --    0.03870   0.04225   0.05069   0.05444   0.05712
 Alpha virt. eigenvalues --    0.06201   0.06488   0.06933   0.07738   0.08017
 Alpha virt. eigenvalues --    0.08546   0.08651   0.08842   0.09631   0.10167
 Alpha virt. eigenvalues --    0.10429   0.10701   0.11206   0.12107   0.12278
 Alpha virt. eigenvalues --    0.12507   0.12970   0.13459   0.13701   0.14014
 Alpha virt. eigenvalues --    0.14297   0.14441   0.14954   0.15104   0.15427
 Alpha virt. eigenvalues --    0.15705   0.16248   0.16533   0.17237   0.17385
 Alpha virt. eigenvalues --    0.17489   0.17818   0.17850   0.18166   0.18569
 Alpha virt. eigenvalues --    0.18922   0.19170   0.19859   0.20033   0.20352
 Alpha virt. eigenvalues --    0.20500   0.21147   0.21372   0.21595   0.21822
 Alpha virt. eigenvalues --    0.22257   0.22623   0.22642   0.23102   0.23323
 Alpha virt. eigenvalues --    0.23668   0.24209   0.24478   0.24600   0.24814
 Alpha virt. eigenvalues --    0.25030   0.25397   0.25592   0.25836   0.26084
 Alpha virt. eigenvalues --    0.26150   0.26488   0.27035   0.27182   0.27599
 Alpha virt. eigenvalues --    0.27948   0.28226   0.28463   0.28694   0.29089
 Alpha virt. eigenvalues --    0.29265   0.29602   0.30134   0.30755   0.30907
 Alpha virt. eigenvalues --    0.31201   0.31835   0.31944   0.32255   0.32482
 Alpha virt. eigenvalues --    0.32673   0.33364   0.33802   0.33838   0.34049
 Alpha virt. eigenvalues --    0.34349   0.34794   0.35186   0.35729   0.36278
 Alpha virt. eigenvalues --    0.36816   0.37298   0.37547   0.37870   0.38295
 Alpha virt. eigenvalues --    0.38446   0.38814   0.39045   0.39435   0.39801
 Alpha virt. eigenvalues --    0.40601   0.41050   0.41157   0.42194   0.42651
 Alpha virt. eigenvalues --    0.42677   0.43650   0.43774   0.44237   0.44677
 Alpha virt. eigenvalues --    0.45086   0.45710   0.45841   0.46767   0.47065
 Alpha virt. eigenvalues --    0.47794   0.48205   0.48883   0.49265   0.50632
 Alpha virt. eigenvalues --    0.51212   0.52742   0.54648   0.62302   0.64897
 Alpha virt. eigenvalues --    0.65650   0.66189   0.68069   0.68752   0.69910
 Alpha virt. eigenvalues --    0.70397   0.72109   0.72908   0.73351   0.73938
 Alpha virt. eigenvalues --    0.74729   0.76332   0.76988   0.78174   0.78858
 Alpha virt. eigenvalues --    0.79598   0.81460   0.82802   0.83125   0.83442
 Alpha virt. eigenvalues --    0.85699   0.85836   0.87666   0.88631   0.90011
 Alpha virt. eigenvalues --    0.91309   0.92092   0.94563   0.94872   0.95798
 Alpha virt. eigenvalues --    0.96152   0.96560   0.98146   0.99600   1.00567
 Alpha virt. eigenvalues --    1.01979   1.02629   1.03222   1.04294   1.05313
 Alpha virt. eigenvalues --    1.05725   1.06697   1.06931   1.07356   1.07679
 Alpha virt. eigenvalues --    1.07933   1.08802   1.09790   1.11140   1.11648
 Alpha virt. eigenvalues --    1.12161   1.12329   1.13552   1.14773   1.15674
 Alpha virt. eigenvalues --    1.16793   1.18368   1.19579   1.21104   1.21719
 Alpha virt. eigenvalues --    1.22618   1.22801   1.23409   1.25279   1.25459
 Alpha virt. eigenvalues --    1.26892   1.27215   1.28014   1.28389   1.29352
 Alpha virt. eigenvalues --    1.29644   1.30149   1.30473   1.31285   1.31572
 Alpha virt. eigenvalues --    1.31841   1.32918   1.33813   1.34694   1.34758
 Alpha virt. eigenvalues --    1.35514   1.35983   1.36518   1.38108   1.39114
 Alpha virt. eigenvalues --    1.39589   1.39899   1.42046   1.42572   1.43311
 Alpha virt. eigenvalues --    1.44966   1.45164   1.46183   1.46609   1.48205
 Alpha virt. eigenvalues --    1.48783   1.49308   1.51184   1.52639   1.53720
 Alpha virt. eigenvalues --    1.54289   1.54827   1.56155   1.56442   1.57588
 Alpha virt. eigenvalues --    1.58451   1.58897   1.60275   1.60696   1.61671
 Alpha virt. eigenvalues --    1.62007   1.63163   1.64065   1.64846   1.66117
 Alpha virt. eigenvalues --    1.66423   1.67586   1.68988   1.69922   1.70616
 Alpha virt. eigenvalues --    1.70815   1.72881   1.73114   1.73971   1.74535
 Alpha virt. eigenvalues --    1.74873   1.76177   1.76978   1.77585   1.78336
 Alpha virt. eigenvalues --    1.79520   1.80924   1.82275   1.82967   1.83392
 Alpha virt. eigenvalues --    1.84061   1.84287   1.86585   1.86994   1.87445
 Alpha virt. eigenvalues --    1.88695   1.89340   1.89582   1.90360   1.90898
 Alpha virt. eigenvalues --    1.91426   1.91740   1.92814   1.93855   1.94782
 Alpha virt. eigenvalues --    1.96117   1.97526   1.98240   1.98632   1.99439
 Alpha virt. eigenvalues --    1.99754   2.00488   2.01043   2.01778   2.02333
 Alpha virt. eigenvalues --    2.03515   2.04019   2.05587   2.06061   2.06754
 Alpha virt. eigenvalues --    2.07079   2.09436   2.10125   2.11192   2.13438
 Alpha virt. eigenvalues --    2.13643   2.14789   2.15319   2.15401   2.15783
 Alpha virt. eigenvalues --    2.17886   2.18363   2.18647   2.20060   2.21248
 Alpha virt. eigenvalues --    2.22531   2.24684   2.26130   2.26709   2.28234
 Alpha virt. eigenvalues --    2.30462   2.31663   2.32007   2.32561   2.35449
 Alpha virt. eigenvalues --    2.36959   2.38163   2.38847   2.39595   2.40511
 Alpha virt. eigenvalues --    2.40883   2.42760   2.43696   2.44151   2.45457
 Alpha virt. eigenvalues --    2.45893   2.48193   2.48807   2.50265   2.50994
 Alpha virt. eigenvalues --    2.52488   2.54386   2.55320   2.56343   2.57461
 Alpha virt. eigenvalues --    2.57819   2.59828   2.60062   2.60412   2.60709
 Alpha virt. eigenvalues --    2.62154   2.62697   2.63269   2.64495   2.65066
 Alpha virt. eigenvalues --    2.66582   2.67012   2.67723   2.69152   2.70278
 Alpha virt. eigenvalues --    2.71058   2.72222   2.74016   2.74197   2.75344
 Alpha virt. eigenvalues --    2.76149   2.77111   2.79020   2.79743   2.81438
 Alpha virt. eigenvalues --    2.82224   2.83131   2.83892   2.85189   2.86273
 Alpha virt. eigenvalues --    2.86497   2.87195   2.88304   2.89168   2.89682
 Alpha virt. eigenvalues --    2.91055   2.91296   2.92016   2.92309   2.93597
 Alpha virt. eigenvalues --    2.94006   2.97150   2.97873   2.99250   3.00003
 Alpha virt. eigenvalues --    3.01889   3.03063   3.04005   3.05596   3.07245
 Alpha virt. eigenvalues --    3.08392   3.09037   3.09704   3.11930   3.13752
 Alpha virt. eigenvalues --    3.17013   3.18268   3.26045   3.27178   3.30491
 Alpha virt. eigenvalues --    3.33977   3.36229   3.36875   3.39671   3.41626
 Alpha virt. eigenvalues --    3.43502   3.45761   3.46446   3.48123   3.49036
 Alpha virt. eigenvalues --    3.50241   3.52076   3.52187   3.53084   3.53784
 Alpha virt. eigenvalues --    3.57489   3.57936   3.60248   3.60416   3.63932
 Alpha virt. eigenvalues --    3.66020   3.70305   3.74937   4.29883   4.33944
 Alpha virt. eigenvalues --    4.35588   4.39469   4.41672   4.44275   4.46800
 Alpha virt. eigenvalues --    4.46915   4.50205   4.53439   4.56117   4.58004
 Alpha virt. eigenvalues --    4.59368   4.63593   4.64695   4.67645   4.76095
 Alpha virt. eigenvalues --    4.83447   4.84729   4.86335   4.90125   4.91948
 Alpha virt. eigenvalues --    4.93879
          Condensed to atoms (all electrons):
              1          2          3          4          5          6
     1  O    8.283964   0.271047  -0.148707  -0.018731   0.034973   0.125016
     2  C    0.271047  10.056811  -2.771164  -0.003037  -0.080018  -3.320767
     3  C   -0.148707  -2.771164  10.975366   0.214965  -0.003449   0.531598
     4  O   -0.018731  -0.003037   0.214965   8.257712   0.195007  -0.108983
     5  H    0.034973  -0.080018  -0.003449   0.195007   0.428528   0.058569
     6  C    0.125016  -3.320767   0.531598  -0.108983   0.058569  13.357844
     7  O   -0.002887   0.141224  -0.219508   0.007030  -0.000857   0.114138
     8  H    0.000046  -0.022193   0.005663  -0.000985   0.000016   0.089662
     9  C   -0.029464  -0.073104  -0.273113   0.009064  -0.003655   0.253925
    10  O    0.003085   0.030725   0.037858   0.000067  -0.000037  -0.009105
    11  H    0.000779  -0.013471  -0.003601   0.000003   0.000000   0.000173
    12  C   -0.152799  -1.202597  -0.566285   0.033567   0.013350   0.370265
    13  O    0.003951  -0.070591   0.085812  -0.002274  -0.000100  -0.098675
    14  C   -0.008275   1.844232  -0.800082  -0.023073   0.008376  -4.442067
    15  O    0.000518  -0.034525  -0.045805   0.000217   0.000077   0.244136
    16  C    0.003342   0.380284  -0.565767  -0.000881   0.002028  -0.632527
    17  C    0.000577  -0.034725  -0.059112   0.000689   0.000104   0.280861
    18  O    0.000007   0.010448  -0.000137  -0.000017   0.000000  -0.011516
    19  H   -0.000020  -0.003517   0.006094  -0.000006   0.000000   0.012145
    20  C    0.000144   0.008870  -0.036502  -0.000073   0.000008   0.165954
    21  O    0.000000   0.000013  -0.000040   0.000000   0.000000  -0.001007
    22  H    0.000000   0.000003   0.000002   0.000000   0.000000  -0.000063
    23  C    0.000030   0.015649  -0.020490   0.000041   0.000020  -0.122107
    24  O    0.000001   0.005955  -0.008557  -0.000268  -0.000004  -0.065505
    25  H    0.000000  -0.000112   0.001163   0.000007   0.000000   0.002699
    26  C   -0.000279   0.065730  -0.115873   0.000265  -0.000010  -0.586833
    27  O    0.000000  -0.000270   0.000833   0.000000   0.000000   0.006470
    28  C   -0.000003   0.002674  -0.000451   0.000013   0.000000  -0.029548
    29  O    0.000000  -0.000012   0.000087   0.000000   0.000000  -0.000556
    30  H    0.000000   0.000000   0.000000   0.000000   0.000000   0.000000
    31  H    0.234145   0.068242  -0.033878   0.001928  -0.003840  -0.004588
    32  H    0.000175  -0.007649  -0.004003   0.000022   0.000000   0.001334
    33  H    0.000933  -0.017765   0.004547  -0.000038   0.000000   0.017684
    34  H    0.005030   0.018071  -0.044425  -0.000272   0.000001  -0.005092
    35  H   -0.052069   0.455751  -0.096916   0.000961  -0.000360  -0.034572
    36  H   -0.012226   0.199237   0.189333  -0.052217  -0.003702  -0.387479
    37  H   -0.001111   0.133892  -0.214848   0.008905  -0.000076   0.165359
    38  H   -0.000041   0.050633  -0.050445  -0.000264   0.000008  -0.075853
    39  H    0.000000   0.000040   0.000009   0.000000   0.000000   0.000716
    40  H    0.000000  -0.000053   0.000065   0.000002   0.000000   0.000252
    41  H    0.000000  -0.000347   0.001796  -0.000001   0.000000   0.007431
    42  H   -0.000003   0.000307   0.004092   0.000006   0.000000   0.019791
    43  H    0.000000  -0.000116   0.001362   0.000000   0.000000  -0.000079
    44  H    0.000000   0.000108   0.000045   0.000000   0.000000   0.000140
    45  H    0.000000  -0.000010   0.000016   0.000000   0.000000   0.000279
              7          8          9         10         11         12
     1  O   -0.002887   0.000046  -0.029464   0.003085   0.000779  -0.152799
     2  C    0.141224  -0.022193  -0.073104   0.030725  -0.013471  -1.202597
     3  C   -0.219508   0.005663  -0.273113   0.037858  -0.003601  -0.566285
     4  O    0.007030  -0.000985   0.009064   0.000067   0.000003   0.033567
     5  H   -0.000857   0.000016  -0.003655  -0.000037   0.000000   0.013350
     6  C    0.114138   0.089662   0.253925  -0.009105   0.000173   0.370265
     7  O    8.289584   0.188239   0.001649   0.000034   0.000000   0.022853
     8  H    0.188239   0.364780   0.000906   0.000000   0.000000   0.007091
     9  C    0.001649   0.000906   8.145127   0.027484   0.032357  -2.136560
    10  O    0.000034   0.000000   0.027484   8.330346   0.186924   0.006383
    11  H    0.000000   0.000000   0.032357   0.186924   0.448761   0.016708
    12  C    0.022853   0.007091  -2.136560   0.006383   0.016708  11.395726
    13  O    0.007101  -0.000120   0.050344  -0.002002  -0.000285  -0.191961
    14  C    0.040159  -0.031531  -0.722169   0.009185  -0.006065  -1.136190
    15  O   -0.017991   0.010804  -0.001186  -0.000072   0.000009   0.040171
    16  C   -0.003110  -0.034687  -0.318493  -0.003954   0.000179  -0.140836
    17  C    0.002610  -0.002025   0.000633   0.000579  -0.000185  -0.226992
    18  O   -0.000080  -0.000008   0.012429  -0.000039   0.000020  -0.032730
    19  H    0.000030  -0.000003  -0.010748   0.000020  -0.000010   0.018125
    20  C    0.001259   0.000722   0.008359   0.000109   0.000009  -0.092441
    21  O   -0.000005   0.000000   0.000254   0.000000   0.000000  -0.000157
    22  H    0.000000   0.000000  -0.000001   0.000000   0.000000   0.000085
    23  C   -0.003294   0.015197   0.003708  -0.000011  -0.000001  -0.018149
    24  O   -0.023030  -0.000835   0.000066  -0.000001   0.000000   0.001996
    25  H    0.002291  -0.000920  -0.000009   0.000000   0.000000  -0.000510
    26  C    0.004670  -0.011887   0.015390  -0.000034   0.000002   0.094781
    27  O    0.000022  -0.000134  -0.000102   0.000000   0.000000   0.000782
    28  C    0.000098  -0.000550  -0.004567  -0.000001   0.000001   0.013364
    29  O   -0.000002   0.000000  -0.000006   0.000000   0.000000   0.000209
    30  H    0.000000   0.000000   0.000000   0.000000   0.000000  -0.000005
    31  H   -0.000009   0.000000  -0.006997  -0.001905   0.000002  -0.006802
    32  H   -0.000011   0.000000   0.413308  -0.043124  -0.014555  -0.041757
    33  H   -0.000008   0.000000   0.653838  -0.065426  -0.001739  -0.306335
    34  H   -0.000386   0.000002   0.037631   0.005455  -0.000120   0.166576
    35  H   -0.000038   0.000004   0.016556  -0.000432   0.000011  -0.141600
    36  H    0.009882  -0.000073   0.028690   0.000158   0.000001  -0.022976
    37  H   -0.032738  -0.005844   0.009376   0.000024   0.000000   0.005543
    38  H    0.003264  -0.001704   0.002952   0.000069   0.000000  -0.019751
    39  H   -0.000399   0.000231  -0.000008   0.000000   0.000000  -0.000060
    40  H    0.000516   0.000332   0.000132   0.000000   0.000000   0.002258
    41  H   -0.000169  -0.000007   0.000150   0.000000   0.000000   0.001504
    42  H   -0.000343  -0.000035  -0.000096   0.000002   0.000000   0.005039
    43  H   -0.000039   0.000003  -0.000284   0.000000   0.000000   0.003956
    44  H   -0.000001   0.000000  -0.000175   0.000000   0.000000   0.000809
    45  H   -0.000001   0.000000   0.000005   0.000000   0.000000   0.000043
             13         14         15         16         17         18
     1  O    0.003951  -0.008275   0.000518   0.003342   0.000577   0.000007
     2  C   -0.070591   1.844232  -0.034525   0.380284  -0.034725   0.010448
     3  C    0.085812  -0.800082  -0.045805  -0.565767  -0.059112  -0.000137
     4  O   -0.002274  -0.023073   0.000217  -0.000881   0.000689  -0.000017
     5  H   -0.000100   0.008376   0.000077   0.002028   0.000104   0.000000
     6  C   -0.098675  -4.442067   0.244136  -0.632527   0.280861  -0.011516
     7  O    0.007101   0.040159  -0.017991  -0.003110   0.002610  -0.000080
     8  H   -0.000120  -0.031531   0.010804  -0.034687  -0.002025  -0.000008
     9  C    0.050344  -0.722169  -0.001186  -0.318493   0.000633   0.012429
    10  O   -0.002002   0.009185  -0.000072  -0.003954   0.000579  -0.000039
    11  H   -0.000285  -0.006065   0.000009   0.000179  -0.000185   0.000020
    12  C   -0.191961  -1.136190   0.040171  -0.140836  -0.226992  -0.032730
    13  O    8.551059   0.243591  -0.055735   0.060410  -0.118462   0.038539
    14  C    0.243591  13.613833   0.038198  -2.248362  -0.095250  -0.064259
    15  O   -0.055735   0.038198   8.254670   0.046699  -0.021419  -0.008154
    16  C    0.060410  -2.248362   0.046699  15.988531  -3.805605  -0.071941
    17  C   -0.118462  -0.095250  -0.021419  -3.805605   9.774951   0.312878
    18  O    0.038539  -0.064259  -0.008154  -0.071941   0.312878   8.237073
    19  H    0.001476  -0.030048   0.015417  -0.061648   0.050761   0.175841
    20  C   -0.017616  -0.699534   0.034914  -1.893684   0.233649  -0.099899
    21  O    0.000435   0.000688  -0.000448   0.041573  -0.140237   0.006687
    22  H   -0.000008  -0.000221   0.000032  -0.012872   0.019832  -0.000360
    23  C    0.009139   0.024515   0.027467   0.257238  -0.369142   0.002347
    24  O    0.000118   0.136552  -0.010364   0.017880  -0.015044   0.000178
    25  H    0.000016  -0.012439   0.001674  -0.001498   0.000790   0.000003
    26  C    0.002536  -0.593675  -0.105817  -3.636073   0.769903   0.063844
    27  O    0.000029   0.036292   0.006486   0.095864  -0.102224   0.002180
    28  C    0.006522   0.022405  -0.012640   1.274691  -0.634227   0.015443
    29  O    0.000031   0.003642   0.000059   0.021561  -0.032672  -0.000326
    30  H    0.000000   0.000144  -0.000005  -0.009163   0.020254  -0.000053
    31  H   -0.000633   0.001881  -0.000010   0.000340  -0.000083   0.000000
    32  H    0.000656   0.010241  -0.000027   0.004987   0.001783  -0.001794
    33  H    0.009168  -0.003801  -0.000373  -0.008910   0.002246   0.000494
    34  H   -0.043761   0.097218  -0.000810  -0.005937   0.008381   0.000566
    35  H    0.011295   0.072890  -0.000380  -0.001061   0.001717   0.000112
    36  H    0.004977   0.218292  -0.000172   0.020774   0.001083   0.000116
    37  H    0.014280   0.112697  -0.013633   0.031571   0.001153   0.000219
    38  H   -0.055671   0.319949  -0.053505   0.045889   0.033388   0.000216
    39  H    0.000018  -0.002453   0.000573   0.016268  -0.003952   0.000028
    40  H   -0.000090   0.035358   0.001562  -0.016621  -0.003854  -0.000053
    41  H   -0.000823   0.091972   0.003366   0.003761  -0.004382  -0.000697
    42  H    0.000133   0.044670  -0.060029   0.359981   0.056913  -0.003126
    43  H    0.003454   0.067028  -0.010847   0.083211   0.377397  -0.042207
    44  H    0.000552   0.003915  -0.001030   0.210719  -0.170767   0.005206
    45  H   -0.000003   0.008145  -0.000131   0.115936   0.001643  -0.000863
             19         20         21         22         23         24
     1  O   -0.000020   0.000144   0.000000   0.000000   0.000030   0.000001
     2  C   -0.003517   0.008870   0.000013   0.000003   0.015649   0.005955
     3  C    0.006094  -0.036502  -0.000040   0.000002  -0.020490  -0.008557
     4  O   -0.000006  -0.000073   0.000000   0.000000   0.000041  -0.000268
     5  H    0.000000   0.000008   0.000000   0.000000   0.000020  -0.000004
     6  C    0.012145   0.165954  -0.001007  -0.000063  -0.122107  -0.065505
     7  O    0.000030   0.001259  -0.000005   0.000000  -0.003294  -0.023030
     8  H   -0.000003   0.000722   0.000000   0.000000   0.015197  -0.000835
     9  C   -0.010748   0.008359   0.000254  -0.000001   0.003708   0.000066
    10  O    0.000020   0.000109   0.000000   0.000000  -0.000011  -0.000001
    11  H   -0.000010   0.000009   0.000000   0.000000  -0.000001   0.000000
    12  C    0.018125  -0.092441  -0.000157   0.000085  -0.018149   0.001996
    13  O    0.001476  -0.017616   0.000435  -0.000008   0.009139   0.000118
    14  C   -0.030048  -0.699534   0.000688  -0.000221   0.024515   0.136552
    15  O    0.015417   0.034914  -0.000448   0.000032   0.027467  -0.010364
    16  C   -0.061648  -1.893684   0.041573  -0.012872   0.257238   0.017880
    17  C    0.050761   0.233649  -0.140237   0.019832  -0.369142  -0.015044
    18  O    0.175841  -0.099899   0.006687  -0.000360   0.002347   0.000178
    19  H    0.361201   0.024359  -0.001055   0.000016  -0.004778  -0.000050
    20  C    0.024359   9.643516   0.158364  -0.003153   0.032877  -0.007964
    21  O   -0.001055   0.158364   8.280448   0.198563   0.002922   0.000046
    22  H    0.000016  -0.003153   0.198563   0.432829  -0.000352   0.000000
    23  C   -0.004778   0.032877   0.002922  -0.000352   6.178227  -0.000947
    24  O   -0.000050  -0.007964   0.000046   0.000000  -0.000947   8.503071
    25  H    0.000000  -0.000018   0.000000   0.000000  -0.004182   0.214951
    26  C    0.008321   0.480392   0.017513   0.007500  -1.031435  -0.027556
    27  O   -0.000001  -0.326979   0.012762   0.000106  -0.065431   0.007223
    28  C   -0.005048  -1.454716  -0.019591  -0.006338   0.010424   0.007215
    29  O    0.000043  -0.101706  -0.002702   0.024184  -0.002242   0.000089
    30  H    0.000000  -0.026473  -0.003144  -0.003078   0.001229  -0.000001
    31  H    0.000000   0.000001   0.000000   0.000000   0.000003   0.000000
    32  H    0.001290  -0.001696  -0.000004   0.000000   0.000009   0.000000
    33  H   -0.000353   0.000684   0.000001   0.000000   0.000006   0.000000
    34  H    0.000304   0.001875   0.000000   0.000000   0.000442   0.000016
    35  H   -0.000020   0.000101   0.000000   0.000000   0.000092   0.000007
    36  H   -0.000009   0.000142   0.000000   0.000000   0.001417   0.000229
    37  H   -0.000054   0.001164   0.000001   0.000000   0.007131   0.001539
    38  H    0.000285   0.020490  -0.000004   0.000000   0.015652   0.001684
    39  H    0.000000   0.003108  -0.000012   0.000000   0.433354  -0.034355
    40  H    0.000003  -0.003267  -0.000006   0.000000   0.573431  -0.073330
    41  H    0.000032  -0.042702  -0.000024   0.000004   0.036367   0.007619
    42  H   -0.000573  -0.016483  -0.000598   0.000011   0.008323   0.001992
    43  H   -0.006767  -0.203380   0.004644  -0.000091   0.011062   0.000132
    44  H   -0.000146   0.259263  -0.034164  -0.006290   0.013507   0.000021
    45  H    0.000006  -0.140701   0.002784  -0.000725   0.000796   0.000027
             25         26         27         28         29         30
     1  O    0.000000  -0.000279   0.000000  -0.000003   0.000000   0.000000
     2  C   -0.000112   0.065730  -0.000270   0.002674  -0.000012   0.000000
     3  C    0.001163  -0.115873   0.000833  -0.000451   0.000087   0.000000
     4  O    0.000007   0.000265   0.000000   0.000013   0.000000   0.000000
     5  H    0.000000  -0.000010   0.000000   0.000000   0.000000   0.000000
     6  C    0.002699  -0.586833   0.006470  -0.029548  -0.000556   0.000000
     7  O    0.002291   0.004670   0.000022   0.000098  -0.000002   0.000000
     8  H   -0.000920  -0.011887  -0.000134  -0.000550   0.000000   0.000000
     9  C   -0.000009   0.015390  -0.000102  -0.004567  -0.000006   0.000000
    10  O    0.000000  -0.000034   0.000000  -0.000001   0.000000   0.000000
    11  H    0.000000   0.000002   0.000000   0.000001   0.000000   0.000000
    12  C   -0.000510   0.094781   0.000782   0.013364   0.000209  -0.000005
    13  O    0.000016   0.002536   0.000029   0.006522   0.000031   0.000000
    14  C   -0.012439  -0.593675   0.036292   0.022405   0.003642   0.000144
    15  O    0.001674  -0.105817   0.006486  -0.012640   0.000059  -0.000005
    16  C   -0.001498  -3.636073   0.095864   1.274691   0.021561  -0.009163
    17  C    0.000790   0.769903  -0.102224  -0.634227  -0.032672   0.020254
    18  O    0.000003   0.063844   0.002180   0.015443  -0.000326  -0.000053
    19  H    0.000000   0.008321  -0.000001  -0.005048   0.000043   0.000000
    20  C   -0.000018   0.480392  -0.326979  -1.454716  -0.101706  -0.026473
    21  O    0.000000   0.017513   0.012762  -0.019591  -0.002702  -0.003144
    22  H    0.000000   0.007500   0.000106  -0.006338   0.024184  -0.003078
    23  C   -0.004182  -1.031435  -0.065431   0.010424  -0.002242   0.001229
    24  O    0.214951  -0.027556   0.007223   0.007215   0.000089  -0.000001
    25  H    0.386808   0.020448  -0.000488  -0.000685  -0.000002   0.000000
    26  C    0.020448  11.927159   0.139004  -0.746126  -0.049437   0.002333
    27  O   -0.000488   0.139004   8.459027   0.197742  -0.113578  -0.000280
    28  C   -0.000685  -0.746126   0.197742   6.153673   0.355120   0.025669
    29  O   -0.000002  -0.049437  -0.113578   0.355120   8.310419   0.223334
    30  H    0.000000   0.002333  -0.000280   0.025669   0.223334   0.416771
    31  H    0.000000  -0.000005   0.000000   0.000000   0.000000   0.000000
    32  H    0.000000   0.000038   0.000000   0.000033   0.000000   0.000000
    33  H    0.000000   0.000041   0.000000  -0.000039   0.000000   0.000000
    34  H    0.000000  -0.000137  -0.000001  -0.000094   0.000000   0.000000
    35  H    0.000000   0.000201   0.000000  -0.000009   0.000000   0.000000
    36  H    0.000000   0.002314   0.000000  -0.000020   0.000000   0.000000
    37  H    0.000007   0.008382  -0.000011   0.000019   0.000000   0.000000
    38  H    0.000014  -0.008644   0.000077  -0.001272  -0.000008   0.000000
    39  H   -0.012081  -0.066091  -0.009490  -0.000056  -0.000642  -0.000001
    40  H    0.001283  -0.244000   0.009685   0.002114  -0.000031   0.000000
    41  H   -0.000154   0.147647  -0.031780   0.024494  -0.000973   0.000026
    42  H   -0.000017  -0.209392   0.008351   0.015983  -0.000504   0.000001
    43  H    0.000000  -0.094631   0.005717   0.045369  -0.000297   0.000003
    44  H    0.000000  -0.076794   0.008826   0.046840  -0.009522   0.000472
    45  H    0.000000  -0.071806  -0.046315   0.428539  -0.048385  -0.006059
             31         32         33         34         35         36
     1  O    0.234145   0.000175   0.000933   0.005030  -0.052069  -0.012226
     2  C    0.068242  -0.007649  -0.017765   0.018071   0.455751   0.199237
     3  C   -0.033878  -0.004003   0.004547  -0.044425  -0.096916   0.189333
     4  O    0.001928   0.000022  -0.000038  -0.000272   0.000961  -0.052217
     5  H   -0.003840   0.000000   0.000000   0.000001  -0.000360  -0.003702
     6  C   -0.004588   0.001334   0.017684  -0.005092  -0.034572  -0.387479
     7  O   -0.000009  -0.000011  -0.000008  -0.000386  -0.000038   0.009882
     8  H    0.000000   0.000000   0.000000   0.000002   0.000004  -0.000073
     9  C   -0.006997   0.413308   0.653838   0.037631   0.016556   0.028690
    10  O   -0.001905  -0.043124  -0.065426   0.005455  -0.000432   0.000158
    11  H    0.000002  -0.014555  -0.001739  -0.000120   0.000011   0.000001
    12  C   -0.006802  -0.041757  -0.306335   0.166576  -0.141600  -0.022976
    13  O   -0.000633   0.000656   0.009168  -0.043761   0.011295   0.004977
    14  C    0.001881   0.010241  -0.003801   0.097218   0.072890   0.218292
    15  O   -0.000010  -0.000027  -0.000373  -0.000810  -0.000380  -0.000172
    16  C    0.000340   0.004987  -0.008910  -0.005937  -0.001061   0.020774
    17  C   -0.000083   0.001783   0.002246   0.008381   0.001717   0.001083
    18  O    0.000000  -0.001794   0.000494   0.000566   0.000112   0.000116
    19  H    0.000000   0.001290  -0.000353   0.000304  -0.000020  -0.000009
    20  C    0.000001  -0.001696   0.000684   0.001875   0.000101   0.000142
    21  O    0.000000  -0.000004   0.000001   0.000000   0.000000   0.000000
    22  H    0.000000   0.000000   0.000000   0.000000   0.000000   0.000000
    23  C    0.000003   0.000009   0.000006   0.000442   0.000092   0.001417
    24  O    0.000000   0.000000   0.000000   0.000016   0.000007   0.000229
    25  H    0.000000   0.000000   0.000000   0.000000   0.000000   0.000000
    26  C   -0.000005   0.000038   0.000041  -0.000137   0.000201   0.002314
    27  O    0.000000   0.000000   0.000000  -0.000001   0.000000   0.000000
    28  C    0.000000   0.000033  -0.000039  -0.000094  -0.000009  -0.000020
    29  O    0.000000   0.000000   0.000000   0.000000   0.000000   0.000000
    30  H    0.000000   0.000000   0.000000   0.000000   0.000000   0.000000
    31  H    0.390278  -0.000021   0.000028  -0.000097  -0.010468   0.000479
    32  H   -0.000021   0.606305  -0.052295  -0.010199   0.000038   0.000003
    33  H    0.000028  -0.052295   0.616121   0.007354   0.004772   0.000000
    34  H   -0.000097  -0.010199   0.007354   0.609482   0.006714   0.004803
    35  H   -0.010468   0.000038   0.004772   0.006714   0.624450   0.007868
    36  H    0.000479   0.000003   0.000000   0.004803   0.007868   0.649859
    37  H    0.000018   0.000001  -0.000009   0.000028   0.002460   0.007986
    38  H    0.000001  -0.000004  -0.000006   0.004688   0.000003   0.003294
    39  H    0.000000   0.000000   0.000000   0.000000   0.000000   0.000000
    40  H    0.000000   0.000000   0.000000   0.000000   0.000000  -0.000001
    41  H    0.000000   0.000000   0.000000   0.000000   0.000000   0.000000
    42  H    0.000000   0.000000   0.000000  -0.000019   0.000000  -0.000005
    43  H    0.000000   0.000000   0.000000  -0.000001   0.000000   0.000000
    44  H    0.000000   0.000000   0.000000   0.000000   0.000000   0.000000
    45  H    0.000000   0.000000   0.000000   0.000000   0.000000   0.000000
             37         38         39         40         41         42
     1  O   -0.001111  -0.000041   0.000000   0.000000   0.000000  -0.000003
     2  C    0.133892   0.050633   0.000040  -0.000053  -0.000347   0.000307
     3  C   -0.214848  -0.050445   0.000009   0.000065   0.001796   0.004092
     4  O    0.008905  -0.000264   0.000000   0.000002  -0.000001   0.000006
     5  H   -0.000076   0.000008   0.000000   0.000000   0.000000   0.000000
     6  C    0.165359  -0.075853   0.000716   0.000252   0.007431   0.019791
     7  O   -0.032738   0.003264  -0.000399   0.000516  -0.000169  -0.000343
     8  H   -0.005844  -0.001704   0.000231   0.000332  -0.000007  -0.000035
     9  C    0.009376   0.002952  -0.000008   0.000132   0.000150  -0.000096
    10  O    0.000024   0.000069   0.000000   0.000000   0.000000   0.000002
    11  H    0.000000   0.000000   0.000000   0.000000   0.000000   0.000000
    12  C    0.005543  -0.019751  -0.000060   0.002258   0.001504   0.005039
    13  O    0.014280  -0.055671   0.000018  -0.000090  -0.000823   0.000133
    14  C    0.112697   0.319949  -0.002453   0.035358   0.091972   0.044670
    15  O   -0.013633  -0.053505   0.000573   0.001562   0.003366  -0.060029
    16  C    0.031571   0.045889   0.016268  -0.016621   0.003761   0.359981
    17  C    0.001153   0.033388  -0.003952  -0.003854  -0.004382   0.056913
    18  O    0.000219   0.000216   0.000028  -0.000053  -0.000697  -0.003126
    19  H   -0.000054   0.000285   0.000000   0.000003   0.000032  -0.000573
    20  C    0.001164   0.020490   0.003108  -0.003267  -0.042702  -0.016483
    21  O    0.000001  -0.000004  -0.000012  -0.000006  -0.000024  -0.000598
    22  H    0.000000   0.000000   0.000000   0.000000   0.000004   0.000011
    23  C    0.007131   0.015652   0.433354   0.573431   0.036367   0.008323
    24  O    0.001539   0.001684  -0.034355  -0.073330   0.007619   0.001992
    25  H    0.000007   0.000014  -0.012081   0.001283  -0.000154  -0.000017
    26  C    0.008382  -0.008644  -0.066091  -0.244000   0.147647  -0.209392
    27  O   -0.000011   0.000077  -0.009490   0.009685  -0.031780   0.008351
    28  C    0.000019  -0.001272  -0.000056   0.002114   0.024494   0.015983
    29  O    0.000000  -0.000008  -0.000642  -0.000031  -0.000973  -0.000504
    30  H    0.000000   0.000000  -0.000001   0.000000   0.000026   0.000001
    31  H    0.000018   0.000001   0.000000   0.000000   0.000000   0.000000
    32  H    0.000001  -0.000004   0.000000   0.000000   0.000000   0.000000
    33  H   -0.000009  -0.000006   0.000000   0.000000   0.000000   0.000000
    34  H    0.000028   0.004688   0.000000   0.000000   0.000000  -0.000019
    35  H    0.002460   0.000003   0.000000   0.000000   0.000000   0.000000
    36  H    0.007986   0.003294   0.000000  -0.000001   0.000000  -0.000005
    37  H    0.603641   0.004503   0.000001  -0.000008  -0.000026  -0.000002
    38  H    0.004503   0.613146   0.000005  -0.000080  -0.000016   0.012875
    39  H    0.000001   0.000005   0.576283  -0.038795  -0.003298   0.000321
    40  H   -0.000008  -0.000080  -0.038795   0.604833   0.005982   0.006283
    41  H   -0.000026  -0.000016  -0.003298   0.005982   0.597453   0.005704
    42  H   -0.000002   0.012875   0.000321   0.006283   0.005704   0.613510
    43  H   -0.000016  -0.000077   0.000007  -0.000001   0.001471   0.004817
    44  H    0.000000  -0.000032   0.000005  -0.000019  -0.000006   0.001585
    45  H    0.000000   0.000000  -0.000035  -0.000006   0.004141  -0.000026
             43         44         45
     1  O    0.000000   0.000000   0.000000
     2  C   -0.000116   0.000108  -0.000010
     3  C    0.001362   0.000045   0.000016
     4  O    0.000000   0.000000   0.000000
     5  H    0.000000   0.000000   0.000000
     6  C   -0.000079   0.000140   0.000279
     7  O   -0.000039  -0.000001  -0.000001
     8  H    0.000003   0.000000   0.000000
     9  C   -0.000284  -0.000175   0.000005
    10  O    0.000000   0.000000   0.000000
    11  H    0.000000   0.000000   0.000000
    12  C    0.003956   0.000809   0.000043
    13  O    0.003454   0.000552  -0.000003
    14  C    0.067028   0.003915   0.008145
    15  O   -0.010847  -0.001030  -0.000131
    16  C    0.083211   0.210719   0.115936
    17  C    0.377397  -0.170767   0.001643
    18  O   -0.042207   0.005206  -0.000863
    19  H   -0.006767  -0.000146   0.000006
    20  C   -0.203380   0.259263  -0.140701
    21  O    0.004644  -0.034164   0.002784
    22  H   -0.000091  -0.006290  -0.000725
    23  C    0.011062   0.013507   0.000796
    24  O    0.000132   0.000021   0.000027
    25  H    0.000000   0.000000   0.000000
    26  C   -0.094631  -0.076794  -0.071806
    27  O    0.005717   0.008826  -0.046315
    28  C    0.045369   0.046840   0.428539
    29  O   -0.000297  -0.009522  -0.048385
    30  H    0.000003   0.000472  -0.006059
    31  H    0.000000   0.000000   0.000000
    32  H    0.000000   0.000000   0.000000
    33  H    0.000000   0.000000   0.000000
    34  H   -0.000001   0.000000   0.000000
    35  H    0.000000   0.000000   0.000000
    36  H    0.000000   0.000000   0.000000
    37  H   -0.000016   0.000000   0.000000
    38  H   -0.000077  -0.000032   0.000000
    39  H    0.000007   0.000005  -0.000035
    40  H   -0.000001  -0.000019  -0.000006
    41  H    0.001471  -0.000006   0.004141
    42  H    0.004817   0.001585  -0.000026
    43  H    0.599222   0.005932   0.001602
    44  H    0.005932   0.585283   0.003775
    45  H    0.001602   0.003775   0.602569
 Mulliken atomic charges:
              1
     1  O   -0.541146
     2  C   -0.103903
     3  C    0.022452
     4  O   -0.519352
     5  H    0.355043
     6  C    0.110482
     7  O   -0.531746
     8  H    0.429844
     9  C   -0.143594
    10  O   -0.512367
    11  H    0.354093
    12  C    0.216311
    13  O   -0.446832
    14  C   -0.186573
    15  O   -0.271942
    16  C    0.389913
    17  C   -0.114416
    18  O   -0.546617
    19  H    0.449086
    20  C    0.088655
    21  O   -0.524500
    22  H    0.350384
    23  C   -0.040061
    24  O   -0.640798
    25  H    0.400959
    26  C   -0.101882
    27  O   -0.300393
    28  C    0.267536
    29  O   -0.575176
    30  H    0.358027
    31  H    0.371991
    32  H    0.136918
    33  H    0.139181
    34  H    0.136716
    35  H    0.131922
    36  H    0.127945
    37  H    0.148474
    38  H    0.134290
    39  H    0.140761
    40  H    0.136124
    41  H    0.144486
    42  H    0.120560
    43  H    0.142442
    44  H    0.151942
    45  H    0.144760
 Sum of Mulliken atomic charges =   0.00000
 Mulliken charges with hydrogens summed into heavy atoms:
              1
     1  O   -0.169155
     2  C    0.028020
     3  C    0.150396
     4  O   -0.164309
     6  C    0.258956
     7  O   -0.101903
     9  C    0.132505
    10  O   -0.158273
    12  C    0.353028
    13  O   -0.446832
    14  C   -0.052283
    15  O   -0.271942
    16  C    0.510473
    17  C    0.028026
    18  O   -0.097530
    20  C    0.240596
    21  O   -0.174117
    23  C    0.236824
    24  O   -0.239840
    26  C    0.042605
    27  O   -0.300393
    28  C    0.412296
    29  O   -0.217149
 Sum of Mulliken charges with hydrogens summed into heavy atoms =   0.00000
 APT atomic charges:
              1
     1  O   -0.625891
     2  C    0.389623
     3  C    0.414953
     4  O   -0.637752
     5  H    0.261030
     6  C    0.378759
     7  O   -0.677493
     8  H    0.419642
     9  C    0.459613
    10  O   -0.592799
    11  H    0.250821
    12  C    0.436868
    13  O   -0.846727
    14  C    0.845034
    15  O   -0.795278
    16  C    0.364695
    17  C    0.405497
    18  O   -0.756556
    19  H    0.469235
    20  C    0.392545
    21  O   -0.638932
    22  H    0.252131
    23  C    0.453873
    24  O   -0.671776
    25  H    0.260954
    26  C    0.430428
    27  O   -0.762121
    28  C    0.860015
    29  O   -0.647106
    30  H    0.251611
    31  H    0.268145
    32  H   -0.050497
    33  H   -0.056638
    34  H   -0.051697
    35  H   -0.053872
    36  H   -0.060562
    37  H   -0.032178
    38  H   -0.041577
    39  H   -0.026796
    40  H   -0.034857
    41  H   -0.045277
    42  H   -0.024778
    43  H   -0.042448
    44  H   -0.029683
    45  H   -0.062185
 Sum of APT charges=   0.00000
 APT Atomic charges with hydrogens summed into heavy atoms:
              1
[...]
 .00004188,0.00013605,0.00008919,0.00029425,0.00013806,0.00010566,-0.00
 064734,-0.00039784,-0.00572145,-0.01702598,-0.00284772,0.00691888,-0.3
 4852836,-0.02081010,-0.05793868,-0.01128930,-0.00143715,-0.00369913,0.
 00236307,-0.00132972,0.00066625,-0.00053217,0.00016911,0.00023320,-0.0
 0093510,0.00006853,0.00083627,0.00050173,-0.00004944,-0.00011785,-0.00
 004204,0.00007040,-0.00010315,0.00043356,0.00140223,0.00061625,0.00005
 391,0.00011315,-0.00010285,0.00008291,-0.00002096,-0.00001941,-0.00449
 131,-0.00027407,-0.00066916,0.00056684,0.00019652,-0.00104807,-0.00002
 993,-0.00021096,0.00010040,0.00007410,0.00003781,-0.00009019,0.0000072
 4,-0.00000459,0.00000112,-0.00000247,-0.00000147,-0.00000104,-0.000000
 09,0.00001439,-0.00000422,0.00001412,-0.00000277,-0.00000815,0.0000360
 5,0.00001628,0.00003748,0.00001058,-0.00000134,-0.00001276,0.00001764,
 -0.00000611,0.00003326,0.00010113,0.00026812,-0.00038177,0.00248275,0.
 00042043,0.00002469,0.00045691,0.00021186,0.00006785,0.00072737,-0.000
 10153,0.00025633,0.00038002,0.00007654,-0.00018350,0.37336056,0.000002
 63,-0.00002310,0.00003250,-0.00000062,0.00003999,-0.00002345,0.0000489
 2,0.00006062,-0.00001157,-0.00000218,-0.00003435,-0.00002004,-0.000005
 55,0.00001257,-0.00000736,-0.00014018,0.00000728,-0.00010776,0.0001851
 3,-0.00011070,-0.00013991,-0.00017402,-0.00006317,0.00015346,0.0000310
 3,-0.00002459,-0.00000554,-0.00001308,0.00002932,0.00002929,0.00000827
 ,-0.00000479,-0.00000274,-0.00003884,0.00004734,-0.00004500,0.00028389
 ,0.00000745,0.00034469,-0.00138545,0.00162636,-0.00118398,-0.01008315,
 -0.00105908,0.00200111,-0.01838380,-0.04610624,-0.00387500,0.03031349,
 0.00205273,0.00688422,-0.00224429,0.00378532,0.00027259,0.00052336,-0.
 00030267,-0.00044126,0.00122647,0.00072385,-0.00146482,-0.00043896,-0.
 00032439,0.00030640,-0.00012142,-0.00009323,0.00006686,-0.00335276,0.0
 0065624,-0.00025522,0.00054376,0.00015915,-0.00018734,0.00002041,-0.00
 005107,-0.00000445,-0.02335692,-0.00361156,-0.00470274,0.00131394,0.00
 108958,-0.00016122,0.00037750,-0.00087240,-0.00003784,-0.00005089,0.00
 016965,0.00003896,-0.00001151,0.00001291,-0.00001245,0.00000206,0.0000
 0086,-0.00000394,0.00000596,-0.00002045,0.00000077,-0.00001224,-0.0000
 0334,0.00000542,-0.00001132,0.00002001,-0.00001386,-0.00000151,-0.0000
 1055,0.00000347,0.00000951,0.00000872,0.00001493,0.00009319,0.00000626
 ,-0.00002208,0.00026271,0.00073168,0.00068432,0.00025786,0.00027861,0.
 00014519,0.00124119,-0.00066091,-0.00007072,-0.00084352,-0.00292855,-0
 .00282921,0.02292896,0.04952019,-0.00000981,-0.00002850,-0.00002692,-0
 .00001018,0.00004136,0.00001931,0.00004305,0.00005303,0.00009003,-0.00
 003261,-0.00002073,-0.00003441,-0.00000120,0.00000806,-0.00000411,0.00
 071300,-0.00001456,-0.00036895,-0.00028687,-0.00000298,0.00009253,0.00
 012383,-0.00006479,-0.00005275,-0.00004624,0.00002385,-0.00003540,0.00
 000330,-0.00002538,0.00000443,0.00000112,-0.00000256,-0.00000576,0.000
 02763,-0.00010932,-0.00014964,-0.00093294,-0.00042741,-0.00004387,0.00
 963591,0.00216615,-0.00067824,0.03037789,0.00498643,-0.00954258,-0.068
 83197,-0.00495127,-0.05535195,-0.01019549,-0.00332738,-0.00042641,0.00
 165363,-0.00043085,0.00061054,0.00018830,0.00021560,-0.00012477,-0.001
 06937,-0.00022412,0.00046970,0.00028867,0.00012675,-0.00002022,0.00001
 916,-0.00002207,-0.00002750,-0.00130968,0.00141461,0.00054251,0.000297
 25,0.00005206,0.00002758,-0.00000608,0.00000644,0.00002114,-0.02277521
 ,-0.00277449,-0.00169336,0.00140986,0.00065621,0.00119298,-0.00021376,
 -0.00010711,0.00007591,0.00010164,0.00007394,-0.00020481,0.00001639,0.
 00000356,0.00000478,-0.00000135,0.00000260,0.00000189,-0.00000345,-0.0
 0001577,0.00000061,-0.00000100,0.00000858,0.00000045,-0.00003163,-0.00
 002291,-0.00006931,-0.00000750,0.00000635,0.00001149,-0.00007286,-0.00
 001310,-0.00005731,-0.00035402,0.00003829,-0.00014616,-0.00031241,0.00
 078671,-0.00269221,0.00014647,0.00023915,-0.00001145,0.00089147,-0.000
 24347,0.00030133,-0.00037253,-0.00286674,-0.00273693,0.06089068,0.0025
 9927,0.07168790,0.00001105,0.00003547,-0.00003496,-0.00003015,-0.00004
 074,0.00001595,-0.00001871,-0.00006655,0.00000706,0.00001309,0.0000461
 7,0.00000933,-0.00000461,-0.00001471,0.00000837,0.00005636,0.00003507,
 0.00004012,0.00004354,0.00006967,0.00002416,-0.00004692,-0.00000113,-0
 .00003871,-0.00004710,-0.00004627,0.00012333,0.00001967,-0.00001109,-0
 .00008740,-0.00001714,0.00001673,0.00002350,0.00000877,0.00006314,0.00
 005467,-0.00006746,0.00074571,-0.00045996,0.00018748,-0.00086450,-0.00
 056516,0.00246789,-0.00144371,0.00145090,-0.01400593,-0.00034913,0.002
 17669,-0.35829125,-0.01330264,0.01323808,-0.00645827,-0.01003629,-0.00
 935441,0.00005772,-0.00112637,0.00130773,-0.01009671,0.00103962,0.0011
 6070,0.00143903,-0.00019257,-0.00011441,0.00014712,-0.00006648,-0.0000
 2444,0.00025124,0.00043304,0.00025558,0.00004479,-0.00000145,-0.000003
 10,-0.00000299,0.00000010,-0.00001295,-0.00080845,-0.00068774,-0.00056
 711,0.00026177,0.00033984,0.00016337,-0.00086726,-0.00070119,-0.000438
 39,0.00049276,0.00007973,0.00012756,-0.00002231,0.00001510,0.00013369,
 -0.00000714,-0.00000490,0.00000453,0.00002749,0.00006144,-0.00000700,0
 .00001096,0.00000044,-0.00000893,0.00001347,-0.00001611,0.00002534,0.0
 0000871,0.00000158,-0.00001030,0.00000961,-0.00000160,0.00000279,0.000
 00898,0.00002780,-0.00004789,0.00013420,0.00001700,0.00034735,-0.00000
 858,0.00012126,-0.00000319,0.00020978,-0.00021553,0.00002388,0.0006871
 5,0.00061112,0.00026383,-0.00006611,0.00156265,-0.00027648,0.38324071,
 0.00000001,0.00003229,-0.00007253,-0.00003701,-0.00005115,0.00003803,0
 .00002053,-0.00001898,-0.00000996,-0.00000536,0.00005040,-0.00003066,0
 .00000346,-0.00001215,0.00000286,-0.00014689,-0.00007359,-0.00005374,-
 0.00004587,0.00009082,0.00006463,0.00004233,-0.00001552,-0.00008838,-0
 .00007028,-0.00002643,0.00015070,0.00002576,-0.00004103,-0.00010755,-0
 .00002175,0.00002121,0.00002126,0.00007338,0.00011467,0.00012149,-0.00
 001365,0.00068495,-0.00056589,0.00051810,-0.00025617,-0.00008840,-0.00
 025698,0.00194165,-0.00180336,0.03108213,-0.00094477,0.00035706,-0.015
 68580,-0.04029887,0.00414052,-0.03142249,-0.01233359,-0.01217843,-0.00
 022907,-0.00044441,0.00203077,-0.00842547,0.00082474,0.00150602,-0.000
 12114,0.00071563,-0.00107793,0.00013618,0.00004128,-0.00016165,0.00030
 784,-0.00001769,0.00006115,-0.00007302,-0.00007520,0.00010486,-0.00001
 298,0.00002155,0.00000177,0.00058977,0.00180690,0.00040179,-0.00020320
 ,-0.00031958,-0.00035279,0.00061405,-0.00005709,-0.00021276,0.00011146
 ,-0.00005190,0.00016851,0.00001098,0.00007643,0.00005964,-0.00000739,0
 .00000172,0.00000749,0.00001395,0.00007531,-0.00000038,0.00002503,0.00
 001174,-0.00002156,-0.00000242,-0.00003668,0.00000501,0.00000430,0.000
 00680,-0.00000684,-0.00000223,-0.00000018,-0.00000496,-0.00001585,-0.0
 0003237,0.00004048,-0.00032547,0.00001492,0.00004498,-0.00014469,-0.00
 005612,-0.00002344,-0.00030564,-0.00006562,-0.00008353,-0.00023654,-0.
 00057145,-0.00027363,0.00130463,-0.00459276,0.00178760,0.02338432,0.05
 346006,0.00001426,0.00001730,-0.00001675,-0.00003582,-0.00001721,0.000
 00503,-0.00000524,-0.00003312,0.00000355,0.00001229,0.00002027,0.00000
 057,-0.00000281,-0.00000569,0.00000429,-0.00007742,0.00001961,0.000027
 74,0.00005358,0.00001125,-0.00001406,-0.00003180,0.00000711,0.00002195
 ,-0.00008518,-0.00005450,0.00009326,0.00004185,0.00000366,-0.00004642,
 -0.00002003,0.00000702,0.00001719,0.00000032,0.00004536,-0.00000331,0.
 00026599,0.00041217,-0.00047536,-0.00057471,-0.00022475,-0.00045751,-0
 .00092186,-0.00056150,0.00109299,-0.01125671,0.00344551,0.00021190,0.0
 1533771,0.00329929,-0.04261836,-0.02581863,-0.01357220,-0.00562761,-0.
 00117177,-0.00058312,0.00164190,0.03518469,0.00143198,-0.00224599,-0.0
 0163403,-0.00101156,0.00222168,-0.00015072,-0.00026315,0.00030033,0.00
 001833,0.00015297,0.00014863,0.00001232,-0.00000257,-0.00001587,0.0000
 0610,-0.00001340,-0.00000322,0.00027731,-0.00015169,-0.00045093,-0.000
 16528,-0.00041850,-0.00006074,0.00124332,0.00069807,0.00086021,-0.0005
 0624,-0.00002661,-0.00014076,-0.00010802,-0.00012854,-0.00007352,-0.00
 000510,-0.00000201,-0.00000172,0.00001259,0.00005429,-0.00000112,0.000
 03697,0.00000132,-0.00002725,0.00002841,-0.00001159,0.00004146,0.00001
 220,0.00000060,-0.00001478,0.00001410,0.00000106,0.00000792,0.00003030
 ,0.00003908,-0.00002785,0.00020081,-0.00000083,-0.00006587,0.00001921,
 0.00010347,0.00000604,0.00008129,-0.00004480,-0.00000423,0.00016109,0.
 00003881,0.00011292,-0.00064115,0.00157276,-0.00039977,-0.01068438,0.0
 0479914,0.05209791,0.00000092,-0.00000773,-0.00002045,-0.00000552,0.00
 000535,0.00001341,-0.00000700,-0.00000925,0.00002588,0.00000939,0.0000
 0691,-0.00002214,-0.00000384,0.00000031,0.00000246,0.00001565,-0.00000
 058,0.00000871,0.00001859,-0.00000004,-0.00002587,-0.00001186,-0.00000
 412,0.00002826,-0.00001849,0.00001204,0.00000449,0.00001287,-0.0000138
 1,-0.00000776,-0.00000803,0.00000294,0.00000049,-0.00000832,0.00001161
 ,0.00002727,0.00001618,-0.00003739,-0.00008314,-0.00001913,0.00003188,
 0.00015743,0.00051378,-0.00003983,-0.00002339,-0.00067201,0.00066437,-
 0.00027338,-0.01030040,-0.00298784,0.00057999,0.00155823,0.00048481,-0
 .00033717,0.00015061,0.00006958,-0.00002999,-0.36000317,-0.03488663,0.
 00961593,-0.01206274,0.01112977,-0.00592231,0.00019350,0.00041621,0.00
 044228,-0.00010184,-0.00010542,-0.00001237,0.00005065,0.00007227,-0.00
 005158,-0.00000631,-0.00001176,-0.00000236,-0.00021814,-0.00045465,0.0
 0018013,0.00221687,0.00031014,0.00078718,-0.01032218,-0.00013288,0.001
 09202,0.00165531,0.00045316,0.00136100,0.00042614,0.00043368,0.0004765
 1,-0.00000217,0.00000323,0.00000252,-0.00000676,0.00000278,-0.00000070
 ,0.00001008,0.00000048,-0.00000614,0.00000836,-0.00000349,0.00000380,0
 .00000516,0.00000048,-0.00000540,0.00000556,-0.00000032,-0.00000048,-0
 .00000013,0.00000720,-0.00000867,0.00002686,-0.00001824,0.00003981,0.0
 0002090,-0.00000887,0.00001385,0.00006104,-0.00002446,0.00002296,0.000
 06595,0.00013625,-0.00003674,0.00070446,-0.00047229,0.00019567,0.00048
 326,-0.00054968,0.00127058,0.38532433,0.00000175,-0.00000445,0.0000150
 5,0.00000431,0.00000604,-0.00000949,-0.00000222,0.00000869,-0.00000599
 ,0.00000160,-0.00001127,0.00000682,-0.00000079,0.00000323,-0.00000213,
 -0.00000251,0.00000997,-0.00001083,0.00001218,-0.00001951,-0.00000858,
 -0.00000773,0.00000592,0.00001200,0.00000644,0.00000255,-0.00002365,-0
 .00000451,0.00000924,0.00002088,0.00000627,-0.00000440,-0.00000488,-0.
 00000665,-0.00001315,-0.00002438,0.00002354,-0.00007080,0.00006729,-0.
 00003648,0.00008264,-0.00001078,0.00009618,-0.00003480,-0.00012021,-0.
 00102649,0.00011853,0.00025583,-0.00617893,0.00064984,0.00040144,0.000
 92438,0.00044078,0.00039903,-0.00005269,-0.00000711,-0.00013350,-0.034
 74760,-0.04298435,-0.00141821,0.03929660,-0.01184273,0.00714119,0.0006
 6329,0.00112441,-0.00087856,-0.00012096,-0.00002725,-0.00000265,0.0000
 4324,0.00000228,-0.00001631,-0.00000199,-0.00000388,0.00000428,-0.0001
 5062,-0.00021702,0.00016660,0.00059130,0.00197118,-0.00012148,-0.02650
 095,-0.00362355,-0.00079459,0.00096571,0.00112286,0.00215624,0.0000758
 1,0.00008873,0.00035978,0.00000107,-0.00000016,-0.00000237,0.00000003,
 -0.00000996,0.00000140,-0.00000219,-0.00000347,0.00000240,0.00000136,0
 .00000507,0.00000242,-0.00000023,-0.00000105,0.00000047,0.00000013,0.0
 0000109,0.00000149,0.00000240,0.00000202,-0.00000356,0.00001971,0.0000
 0025,0.00001544,0.00000903,-0.00001891,-0.00000189,0.00005413,-0.00003
 474,0.00003436,0.00009185,0.00012677,-0.00005089,0.00008789,-0.0000959
 2,0.00041864,0.00006592,0.00026728,0.00129411,0.02607137,0.05577627,-0
 .00000563,-0.00000736,-0.00000022,0.00000480,0.00000661,0.00000009,0.0
 0001176,0.00001315,0.00000139,-0.00000419,-0.00000592,-0.00000721,0.00
 000150,0.00000293,-0.00000214,-0.00000215,-0.00002297,-0.00000521,-0.0
 0001614,-0.00000018,-0.00000040,0.00000783,-0.00000869,-0.00000178,0.0
 0002035,0.00001665,-0.00001923,-0.00001327,-0.00000678,0.00000852,0.00
 000697,-0.00000102,-0.00000612,0.00002213,-0.00000817,0.00001483,-0.00
 000760,-0.00017777,0.00012319,0.00005688,0.00017138,0.00013743,-0.0006
 5291,-0.00000672,-0.00012451,0.00085045,-0.00048906,0.00060792,0.03442
 655,0.00411904,-0.00221158,-0.00174230,0.00016762,0.00303409,-0.000125
 46,0.00032455,0.00004380,0.01391657,-0.00110119,-0.04456014,-0.0148935
 4,0.00784093,0.00025457,-0.00115549,-0.00028862,0.00055168,0.00002745,
 0.00004749,0.00009357,-0.00000947,-0.00002105,0.00000872,-0.00000361,-
 0.00000011,0.00000570,0.00004411,0.00015222,-0.00036235,0.00138026,0.0
 0140593,0.00062738,-0.02268015,-0.00571620,-0.00167034,-0.00052506,0.0
 0045418,0.00134786,-0.00010354,0.00004316,0.00027079,0.00000114,0.0000
 0162,0.00000028,-0.00000214,-0.00001159,0.00000233,-0.00000918,0.00000
 176,0.00000710,-0.00001301,0.00000402,-0.00001631,-0.00000409,-0.00000
 069,0.00000470,-0.00000299,0.00000021,0.00000019,-0.00000274,-0.000010
 84,0.00001306,-0.00004025,0.00000746,-0.00004887,-0.00002145,0.0000247
 2,0.00000535,-0.00001092,0.00002610,-0.00000091,-0.00007137,-0.0000578
 5,-0.00011770,-0.00034856,0.00044991,-0.00031076,0.00121477,0.00121222
 ,-0.00569978,-0.00889114,-0.00633900,0.05051012,0.00000159,-0.00000748
 ,-0.00001594,-0.00000736,0.00000641,0.00000762,-0.00000035,-0.00000260
 ,0.00001605,0.00000690,0.00000188,-0.00001997,-0.00000294,0.00000102,0
 .00000200,-0.00002786,0.00001475,0.00000487,0.00002046,-0.00002230,-0.
 00004865,-0.00000580,0.00001313,0.00006876,-0.00001311,0.00000964,-0.0
 0000087,0.00000753,-0.00001084,-0.00000349,-0.00000436,0.00000298,-0.0
 0000053,0.00000339,0.00000150,0.00001661,0.00001598,-0.00005179,-0.000
 04531,0.00002440,0.00006296,0.00008112,0.00006113,-0.00005805,-0.00023
 409,-0.00005435,0.00025023,0.00008453,-0.00050408,-0.00035718,0.000213
 32,0.00037417,0.00004247,-0.00001581,-0.00004836,-0.00000493,-0.000066
 26,-0.00603417,0.00243839,-0.00088900,0.00215654,0.00013083,0.00136781
 ,-0.00041583,-0.00013552,-0.00002342,0.00028275,-0.00003453,-0.0001387
 2,-0.00000904,0.00021634,-0.00015537,-0.00001881,-0.00001583,-0.000029
 62,-0.00008852,-0.00032376,0.00100214,-0.00711299,0.00911949,-0.004739
 78,-0.35559054,-0.02955537,-0.05633655,-0.01250333,-0.00336436,0.00353
 411,0.00027756,0.00025657,0.00042061,-0.00000293,0.00000228,0.00000302
 ,-0.00000259,-0.00000043,0.00000045,0.00000619,-0.00000005,-0.00000227
 ,0.00000313,-0.00000071,-0.00000148,0.00000411,-0.00000069,-0.00000302
 ,0.00000393,0.00000081,0.00000073,0.00000453,-0.00000165,-0.00000154,0
 .00000667,-0.00000233,0.00000160,0.00002688,-0.00008178,0.00001269,0.0
 0005792,-0.00012104,0.00008937,0.00007638,0.00042101,-0.00103960,0.000
 04243,-0.00009838,0.00012974,0.00053045,0.00009265,-0.00043870,0.00022
 335,-0.00027396,-0.00063517,0.37822894,0.00000447,0.00001827,0.0000103
 7,-0.00000295,-0.00002029,-0.00000624,-0.00000656,-0.00000023,-0.00001
 678,-0.00000407,0.00000902,0.00001778,0.00000132,-0.00000329,-0.000001
 11,0.00002653,-0.00005233,-0.00001211,-0.00001517,0.00006996,0.0000895
 1,-0.00000646,-0.00004395,-0.00014191,-0.00000319,-0.00001812,0.000019
 48,0.00000421,0.00000995,-0.00000880,-0.00000397,0.00000059,0.00000428
 ,-0.00000610,0.00002305,0.00000091,-0.00001622,0.00019059,-0.00003724,
 -0.00007950,-0.00012563,-0.00015049,0.00002052,0.00040872,0.00033708,-
 0.00025191,-0.00097307,0.00019089,-0.00078260,-0.00034747,0.00141209,0
 .00042143,0.00000692,-0.00076568,0.00010545,-0.00021763,0.00014430,-0.
 02102996,0.00099406,-0.00441670,0.00067401,0.00307136,0.00041292,-0.00
 035052,-0.00015262,0.00007285,-0.00027476,0.00018187,-0.00001676,-0.00
 004955,-0.00038159,0.00029877,-0.00000061,0.00003141,0.00005592,0.0027
 3529,0.00189584,-0.00442449,0.03353685,-0.00734660,0.01188530,-0.02819
 876,-0.04587811,-0.00564738,-0.00608125,0.00228676,0.00116175,-0.00026
 983,0.00043462,-0.00066598,0.00000009,-0.00000357,-0.00000235,0.000005
 66,0.00001078,-0.00000169,0.00000012,0.00000049,-0.00000071,0.00000057
 ,-0.00000355,0.00000234,-0.00000043,0.00000150,0.00000065,0.00000035,-
 0.00000131,0.00000131,-0.00000260,0.00000595,-0.00000605,0.00000352,-0
 .00000117,0.00000670,-0.00001240,0.00010021,0.00001702,-0.00012466,0.0
 0009065,-0.00007098,-0.00130440,0.00010177,0.00018404,0.00003763,-0.00
 005287,-0.00001975,0.00041779,0.00013294,-0.00034886,-0.00055757,-0.00
 279719,-0.00221208,0.02144022,0.04834331,-0.00000276,-0.00000288,-0.00
 003144,-0.00000800,0.00000221,0.00001909,0.00000589,-0.00000520,0.0000
 2355,0.00000441,0.00001192,-0.00003065,-0.00000103,-0.00000113,0.00000
 269,-0.00001619,-0.00001600,-0.00000271,0.00001113,0.00000944,-0.00003
 062,-0.00000513,-0.00000391,0.00003856,-0.00000905,0.00001430,0.000017
 09,0.00000176,-0.00002011,-0.00002225,-0.00000224,0.00000503,0.0000031
 8,0.00001589,0.00001705,0.00004608,-0.00000133,-0.00000811,-0.00010824
 ,0.00005636,0.00005021,0.00009868,0.00011444,0.00004147,-0.00034431,-0
 .00010541,-0.00015751,0.00000768,-0.00128636,0.00032080,0.00172177,0.0
 0054148,-0.00013242,-0.00039799,0.00005292,-0.00004803,0.00008215,-0.0
 2180017,0.00038162,0.00018089,0.00215576,0.00128810,0.00141854,0.00019
 903,-0.00044141,-0.00007743,0.00010371,-0.00000196,0.00007595,0.000039
 91,0.00014871,-0.00011823,-0.00000011,-0.00001222,-0.00001284,-0.00149
 734,-0.00095929,0.00285995,-0.01028117,0.00570067,-0.00172145,-0.06367
 122,-0.00998603,-0.05964779,0.03538043,0.00420406,-0.00446843,0.001154
 84,-0.00007469,0.00341648,-0.00000233,0.00000198,0.00000448,0.00000191
 ,0.00000555,-0.00000109,0.00000262,-0.00000112,-0.00000153,-0.00000054
 ,-0.00000177,-0.00000263,0.00000272,-0.00000028,-0.00000349,0.00000358
 ,0.00000058,0.00000031,0.00000090,0.00000148,-0.00000505,0.00000601,-0
 .00000513,0.00000859,0.00002111,-0.00004341,-0.00000012,0.00011058,-0.
 00007992,0.00000388,0.00080826,-0.00017109,-0.00003826,0.00012231,0.00
 002338,0.00006045,0.00053585,0.00009038,-0.00042469,-0.00059142,-0.002
 79322,-0.00250910,0.05782799,0.00264788,0.05991027\\0.00597397,0.00195
 510,-0.01254692,-0.01040919,-0.02888705,-0.00414757,0.01614697,-0.0133
 2415,0.01916386,-0.01272162,0.01385955,0.02007851,-0.00389918,-0.00663
 712,-0.02959585,0.02453407,-0.01341132,0.03532427,-0.00595765,0.011573
 54,-0.03146956,-0.00035214,-0.00044685,0.01743945,-0.01237906,0.016905
 50,-0.01421600,0.00715065,0.01351078,-0.00714546,0.00429464,-0.0286826
 8,0.01523002,0.01909855,0.02358151,0.03310812,0.00449609,-0.00606756,0
 .03811866,-0.07263969,-0.01211619,-0.00881344,0.04971271,-0.01117060,0
 .01008208,-0.05159634,0.00828973,-0.01457929,0.03047233,0.02764994,-0.
 01140348,-0.00633007,-0.01336979,0.00266348,0.00490986,0.01193157,-0.0
 1930019,-0.03431661,0.02111464,-0.01253808,-0.00149105,0.01593176,-0.0
 1118543,0.00000663,-0.01338259,0.03075484,0.00230447,-0.01835844,-0.00
 458847,-0.00950549,-0.01987405,0.00352597,-0.00044171,0.03372685,-0.00
 017793,0.00958815,-0.00743809,0.00057876,-0.01513182,-0.00837114,0.017
 16249,0.08150680,-0.01378126,-0.00417343,-0.02125647,0.01026534,-0.006
 00929,-0.00250424,-0.00215119,-0.00716247,-0.00300410,0.00622068,0.001
 05513,0.00482304,0.00735295,-0.01854015,-0.02227298,-0.00141879,-0.004
 50975,0.02227720,-0.00194405,-0.00009761,-0.02027900,0.00396415,0.0031
 5611,0.02499274,0.00258234,-0.00414616,-0.01879875,0.00070101,-0.00577
 309,0.01656006,0.00225744,-0.00042302,0.00114753,-0.00642458,-0.016497
 51,0.01907986,0.00368004,0.00242463,-0.02030934,-0.00308645,0.00357245
 ,0.01519949,0.00248540,-0.00043379,-0.01967283,-0.00418960,0.00073434,
 0.01809337,-0.00263638,-0.00200419,-0.01709986,-0.00236992,-0.00269504
 \\\@


 TERRY FORSTER, PORTLY ATLANTA BRAVES RELIEVER,
 ANNOUNCING THAT HE WAS GOING TO A FAT FARM:
 "A WAIST IS A TERRIBLE THING TO MIND."
 Job cpu time:  0 days 13 hours  8 minutes  9.3 seconds.
 File lengths (MBytes):  RWF=   1324 Int=      0 D2E=      0 Chk=     19 Scr=      1
 Normal termination of Gaussian 09 at Tue Mar  1 03:31:47 2016.
Gaussian '09 finished on node005 at Tue Mar  1 03:31:47 EST 2016.
