Gaussian '09 started on node006 at Wed Jan 20 15:58:15 EST 2016.
 Entering Gaussian System, Link 0=/usr/local/gaussian/g09/g09
 Initial command:
 /usr/local/gaussian/g09/l1.exe /home/srmcgrat/thesis/gaussian/cellobiose/320/5000/gaussian30904/Gau-30940.inp -scrdir=/home/srmcgrat/thesis/gaussian/cellobiose/320/5000/gaussian30904/
 Entering Link 1 = /usr/local/gaussian/g09/l1.exe PID=     30942.
  
 Copyright (c) 1988,1990,1992,1993,1995,1998,2003,2009,2010,
            Gaussian, Inc.  All Rights Reserved.
  
 This is part of the Gaussian(R) 09 program.  It is based on
 the Gaussian(R) 03 system (copyright 2003, Gaussian, Inc.),
 the Gaussian(R) 98 system (copyright 1998, Gaussian, Inc.),
 the Gaussian(R) 94 system (copyright 1995, Gaussian, Inc.),
 the Gaussian 92(TM) system (copyright 1992, Gaussian, Inc.),
 the Gaussian 90(TM) system (copyright 1990, Gaussian, Inc.),
 the Gaussian 88(TM) system (copyright 1988, Gaussian, Inc.),
 the Gaussian 86(TM) system (copyright 1986, Carnegie Mellon
 University), and the Gaussian 82(TM) system (copyright 1983,
 Carnegie Mellon University). Gaussian is a federally registered
 trademark of Gaussian, Inc.
  
 This software contains proprietary and confidential information,
 including trade secrets, belonging to Gaussian, Inc.
  
 This software is provided under written license and may be
 used, copied, transmitted, or stored only in accord with that
 written license.
  
 The following legend is applicable only to US Government
 contracts under FAR:
  
                    RESTRICTED RIGHTS LEGEND
  
 Use, reproduction and disclosure by the US Government is
 subject to restrictions as set forth in subparagraphs (a)
 and (c) of the Commercial Computer Software - Restricted
 Rights clause in FAR 52.227-19.
  
 Gaussian, Inc.
 340 Quinnipiac St., Bldg. 40, Wallingford CT 06492
  
  
 ---------------------------------------------------------------
 Warning -- This program may not be used in any manner that
 competes with the business of Gaussian, Inc. or will provide
 assistance to any competitor of Gaussian, Inc.  The licensee
 of this program is prohibited from giving any competitor of
 Gaussian, Inc. access to this program.  By using this program,
 the user acknowledges that Gaussian, Inc. is engaged in the
 business of creating and licensing software in the field of
 computational chemistry and represents and warrants to the
 licensee that it is not a competitor of Gaussian, Inc. and that
 it will not use this program in any manner prohibited above.
 ---------------------------------------------------------------
  

 Cite this work as:
 Gaussian 09, Revision B.01,
 M. J. Frisch, G. W. Trucks, H. B. Schlegel, G. E. Scuseria, 
 M. A. Robb, J. R. Cheeseman, G. Scalmani, V. Barone, B. Mennucci, 
 G. A. Petersson, H. Nakatsuji, M. Caricato, X. Li, H. P. Hratchian, 
 A. F. Izmaylov, J. Bloino, G. Zheng, J. L. Sonnenberg, M. Hada, 
 M. Ehara, K. Toyota, R. Fukuda, J. Hasegawa, M. Ishida, T. Nakajima, 
 Y. Honda, O. Kitao, H. Nakai, T. Vreven, J. A. Montgomery, Jr., 
 J. E. Peralta, F. Ogliaro, M. Bearpark, J. J. Heyd, E. Brothers, 
 K. N. Kudin, V. N. Staroverov, T. Keith, R. Kobayashi, J. Normand, 
 K. Raghavachari, A. Rendell, J. C. Burant, S. S. Iyengar, J. Tomasi, 
 M. Cossi, N. Rega, J. M. Millam, M. Klene, J. E. Knox, J. B. Cross, 
 V. Bakken, C. Adamo, J. Jaramillo, R. Gomperts, R. E. Stratmann, 
 O. Yazyev, A. J. Austin, R. Cammi, C. Pomelli, J. W. Ochterski, 
 R. L. Martin, K. Morokuma, V. G. Zakrzewski, G. A. Voth, 
 P. Salvador, J. J. Dannenberg, S. Dapprich, A. D. Daniels, 
 O. Farkas, J. B. Foresman, J. V. Ortiz, J. Cioslowski, 
 and D. J. Fox, Gaussian, Inc., Wallingford CT, 2010.
 
 ******************************************
 Gaussian 09:  EM64L-G09RevB.01 12-Aug-2010
                20-Jan-2016 
 ******************************************
 ------------------------------------------------
 # freq=raman b3lyp/6-31+g(d,p) geom=connectivity
 ------------------------------------------------
 1/10=4,30=1,38=1,57=2/1,3;
 2/12=2,17=6,18=5,40=1/2;
 3/5=1,6=6,7=111,11=2,16=1,25=1,30=1,71=2,74=-5/1,2,3;
 4//1;
 5/5=2,38=5,98=1/2;
 8/6=4,10=90,11=11/1;
 10/13=10,15=4/2;
 11/6=3,8=1,9=11,15=111,16=1/1,2,10;
 10/6=1/2;
 6/7=2,8=2,9=2,10=2,18=1,28=1/1;
 7/8=1,10=1,25=1/1,2,3,16;
 1/10=4,30=1/3;
 99//99;
 ------------
 320 5000.com
 ------------
 Symbolic Z-matrix:
 Charge =  0 Multiplicity = 1
 O                     7.791     7.706     12.379 
 C                     8.335     8.003     13.673 
 C                     7.904     9.383     14.144 
 O                     8.439     10.406    13.292 
 H                     8.145     10.12     12.381 
 C                     8.424     9.699     15.537 
 O                     7.84      10.819    16.218 
 H                     8.352     11.113    17.026 
 C                     8.309     5.638     14.351 
 O                     7.879     4.978     13.151 
 H                     8.191     4.033     13.246 
 C                     7.796     7.025     14.704 
 O                     8.445     7.291     15.956 
 C                     8.122     8.574     16.513 
 O                     9.02      8.787     17.611 
 C                     8.432     8.496     18.888 
 C                     8.946     7.141     19.346 
 O                     8.874     6.077     18.387 
 H                     9.173     6.561     17.565 
 C                     8.482     6.691     20.722 
 O                     9.155     5.57      21.313 
 H                     8.755     5.305     22.19 
 C                     8.527     11.       19.66 
 O                     8.905     11.804    18.534 
 H                     8.815     12.77     18.775 
 C                     8.876     9.54      19.9 
 O                     8.222     9.154     21.117 
 C                     8.68      7.894     21.63 
 O                     7.831     7.667     22.764 
 H                     8.37124   7.51124   23.54213 
 H                     9.70183   7.96536   21.93931 
 H                     7.43628   6.47      20.67167 
 H                     9.99663   7.30094   19.47047 
 H                     7.36482   8.48227   18.81162 
 H                     9.93422   9.45824   20.03562 
 H                     8.03185   10.50821   18.84891 
 H                     9.59325   11.02871   19.74472 
 H                     8.50719   7.56299   11.75592 
 H                     8.05887   4.99462   15.16856 
 H                     9.37629   5.70089   14.30804 
 H                     6.7294    7.05709   14.78289 
 H                     9.40302   7.94634   13.64108 
 H                     6.8356    9.4415    14.1418 
 H                     9.48357   9.83906   15.48607 
 H                     7.10318   8.60858   16.83814 
 

 GradGradGradGradGradGradGradGradGradGradGradGradGradGradGradGradGradGrad
 Berny optimization.
 Initialization pass.
 Trust Radius=3.00D-01 FncErr=1.00D-07 GrdErr=1.00D-07
 Number of steps in this run=      2 maximum allowed number of steps=      2.
 GradGradGradGradGradGradGradGradGradGradGradGradGradGradGradGradGradGrad

                          Input orientation:                          
 ---------------------------------------------------------------------
 Center     Atomic      Atomic             Coordinates (Angstroms)
 Number     Number       Type             X           Y           Z
 ---------------------------------------------------------------------
      1          8           0        7.791000    7.706000   12.379000
      2          6           0        8.335000    8.003000   13.673000
      3          6           0        7.904000    9.383000   14.144000
      4          8           0        8.439000   10.406000   13.292000
      5          1           0        8.145000   10.120000   12.381000
      6          6           0        8.424000    9.699000   15.537000
      7          8           0        7.840000   10.819000   16.218000
      8          1           0        8.352000   11.113000   17.026000
      9          6           0        8.309000    5.638000   14.351000
     10          8           0        7.879000    4.978000   13.151000
     11          1           0        8.191000    4.033000   13.246000
     12          6           0        7.796000    7.025000   14.704000
     13          8           0        8.445000    7.291000   15.956000
     14          6           0        8.122000    8.574000   16.513000
     15          8           0        9.020000    8.787000   17.611000
     16          6           0        8.432000    8.496000   18.888000
     17          6           0        8.946000    7.141000   19.346000
     18          8           0        8.874000    6.077000   18.387000
     19          1           0        9.173000    6.561000   17.565000
     20          6           0        8.482000    6.691000   20.722000
     21          8           0        9.155000    5.570000   21.313000
     22          1           0        8.755000    5.305000   22.190000
     23          6           0        8.527000   11.000000   19.660000
     24          8           0        8.905000   11.804000   18.534000
     25          1           0        8.815000   12.770000   18.775000
     26          6           0        8.876000    9.540000   19.900000
     27          8           0        8.222000    9.154000   21.117000
     28          6           0        8.680000    7.894000   21.630000
     29          8           0        7.831000    7.667000   22.764000
     30          1           0        8.371236    7.511237   23.542128
     31          1           0        9.701828    7.965357   21.939315
     32          1           0        7.436281    6.470004   20.671668
     33          1           0        9.996632    7.300940   19.470466
     34          1           0        7.364818    8.482267   18.811617
     35          1           0        9.934216    9.458237   20.035623
     36          1           0        8.031851   10.508213   18.848906
     37          1           0        9.593254   11.028710   19.744723
     38          1           0        8.507188    7.562991   11.755924
     39          1           0        8.058873    4.994624   15.168560
     40          1           0        9.376286    5.700894   14.308038
     41          1           0        6.729395    7.057086   14.782895
     42          1           0        9.403022    7.946338   13.641081
     43          1           0        6.835603    9.441501   14.141797
     44          1           0        9.483570    9.839062   15.486069
     45          1           0        7.103184    8.608585   16.838144
 ---------------------------------------------------------------------
                    Distance matrix (angstroms):
                    1          2          3          4          5
     1  O    0.000000
     2  C    1.434776   0.000000
     3  C    2.437278   1.520527   0.000000
     4  O    2.922922   2.435238   1.434802   0.000000
     5  H    2.439819   2.487379   1.925985   0.999076   0.000000
     6  C    3.787572   2.521673   1.520100   2.353741   3.196157
     7  O    4.942782   3.827781   2.523424   3.015103   3.912058
     8  H    5.789385   4.573292   3.391095   3.801338   4.754463
     9  C    2.904089   2.460403   3.772519   4.885919   4.898583
    10  O    2.836496   3.103392   4.515606   5.458632   5.206133
    11  H    3.795078   3.995493   5.432428   6.377989   6.148326
    12  C    2.422687   1.519857   2.425990   3.719994   3.885506
    13  O    3.659900   2.393978   2.820016   4.098799   4.568793
    14  C    4.237091   2.904653   2.512800   3.719080   4.411810
    15  O    5.482046   4.073294   3.690632   4.648923   5.467670
    16  C    6.588024   5.239149   4.855007   5.912983   6.712734
    17  C    7.084655   5.770554   5.759612   6.896970   7.617563
    18  O    6.318433   5.120722   5.465673   6.699887   7.276629
    19  H    5.487763   4.234297   4.612731   5.794938   6.371587
    20  C    8.432873   7.171566   7.130991   8.307104   9.024627
    21  O    9.286514   8.059869   8.215749   9.393402  10.074881
    22  H   10.146419   8.943986   9.060486  10.261309  10.944076
    23  C    8.025278   6.697988   5.781788   6.396249   7.341946
    24  O    7.477876   6.196920   5.112274   5.445193   6.424396
    25  H    8.222012   6.998935   5.809290   5.982739   6.953750
    26  C    7.817047   6.436659   5.839603   6.678816   7.576683
    27  O    8.867644   7.533306   6.984003   7.927498   8.789584
    28  C    9.295519   7.965222   7.671994   8.711514   9.528132
    29  O   10.385150   9.111158   8.789447   9.878794  10.673448
    30  H   11.179894   9.881439   9.594093  10.651261  11.464188
    31  H    9.752854   8.378639   8.124582   9.073452   9.921068
    32  H    8.391772   7.220742   7.163431   8.423598   9.086249
    33  H    7.437592   6.071616   6.089772   7.088093   7.850871
    34  H    6.493287   5.251317   4.784212   5.943129   6.681593
    35  H    8.141718   6.719983   6.232067   6.972114   7.888756
    36  H    7.054792   5.758298   4.839276   5.572739   6.480534
    37  H    8.279033   6.899561   6.077009   6.584657   7.559604
    38  H    0.960000   1.974446   3.062544   3.232163   2.657103
    39  H    3.899354   3.370945   4.509052   5.740119   5.835014
    40  H    3.202307   2.605233   3.968934   4.903964   4.975745
    41  H    2.706807   2.169006   2.682864   4.044841   4.141796
    42  H    2.061365   1.070000   2.136350   2.664795   2.809845
    43  H    2.651829   2.130081   1.070000   2.055066   2.296799
    44  H    4.131419   2.824457   2.122306   2.495292   3.392955
    45  H    4.601273   3.449962   2.915379   4.194072   4.820362
                    6          7          8          9         10
     6  C    0.000000
     7  O    1.434997   0.000000
     8  H    2.054678   1.000722   0.000000
     9  C    4.232203   5.527062   6.093693   0.000000
    10  O    5.317693   6.597370   7.271697   1.435444   0.000000
    11  H    6.116087   7.416588   8.027498   1.952172   0.999697
    12  C    2.870287   4.085164   4.734191   1.520377   2.570779
    13  O    2.444272   3.589074   3.970042   2.308014   3.679450
    14  C    1.519673   2.281792   2.600498   3.650933   4.928824
    15  O    2.342741   2.731643   2.489724   4.587954   5.975112
    16  C    3.560404   3.588272   3.212808   5.363549   6.752429
    17  C    4.617827   4.953312   4.638105   5.254979   6.647938
    18  O    4.630754   5.316040   5.242719   4.098932   5.441831
    19  H    3.810621   4.660672   4.656744   3.453726   4.864537
    20  C    5.994635   6.143172   5.764668   6.459751   7.785757
    21  O    7.137589   7.432379   7.053228   7.013543   8.282324
    22  H    7.979925   8.179621   7.782170   7.858736   9.087234
    23  C    4.324620   3.514555   2.642224   7.548778   8.891089
    24  O    3.693832   2.732820   1.748529   7.474775   8.753493
    25  H    4.479795   3.360844   2.453369   8.407927   9.655089
    26  C    4.389232   4.033145   3.317948   6.807238   8.207000
    27  O    5.610190   5.188290   4.537716   7.625522   9.000766
    28  C    6.359891   6.208943   5.627287   7.629615   9.002116
    29  O    7.530618   7.265349   6.713494   8.667404   9.982124
    30  H    8.298865   8.053965   7.445333   9.380284  10.706780
    31  H    6.754850   6.659064   5.989187   8.058479   9.459465
    32  H    6.145471   6.237941   5.973847   6.434649   7.680008
    33  H    4.867856   5.254174   4.817886   5.641135   7.058050
    34  H    3.650400   3.523204   3.329221   5.373866   6.677339
    35  H    4.751455   4.561980   3.781465   7.039209   8.467258
    36  H    3.431811   2.656137   1.947113   6.635280   7.941836
    37  H    4.565108   3.944065   2.989861   7.733131   9.111912
    38  H    4.343500   5.563889   6.356127   3.237173   3.003837
    39  H    4.732887   5.922211   6.400823   1.070000   2.025630
    40  H    4.289761   5.674781   6.142261   1.070000   2.025630
    41  H    3.228013   4.176717   4.910682   2.166908   2.882234
    42  H    2.761307   4.163621   4.752901   2.651281   3.372514
    43  H    2.129766   2.686436   3.662240   4.084273   4.689690
    44  H    1.070000   2.048737   2.296684   4.507430   5.626466
    45  H    2.150938   2.411102   2.804804   4.057616   5.232405
                   11         12         13         14         15
    11  H    0.000000
    12  C    3.351694   0.000000
    13  O    4.245372   1.435082   0.000000
    14  C    5.594527   2.403780   1.435502   0.000000
    15  O    6.506995   3.612958   2.303837   1.434356   0.000000
    16  C    7.197820   4.480423   3.169987   2.396416   1.435672
    17  C    6.887648   4.783735   3.430102   3.279993   2.392701
    18  O    5.574433   3.952882   2.750927   3.211291   2.822692
    19  H    5.099889   3.208854   1.910959   2.502693   2.231726
    20  C    7.939787   6.066175   4.803762   4.625037   3.789589
    21  O    8.268504   6.902375   5.671278   5.755963   4.906334
    22  H    9.051586   7.740690   6.550042   6.581442   5.758627
    23  C    9.475831   6.395070   5.242425   3.994134   3.055948
    24  O    9.426621   6.223955   5.217744   3.889785   3.157126
    25  H   10.358300   7.114522   6.172771   4.816981   4.154661
    26  C    8.664409   5.872822   4.560581   3.601866   2.413973
    27  O    9.390327   6.770575   5.491486   4.641467   3.614350
    28  C    9.243262   7.036057   5.710789   5.192057   4.131030
    29  O   10.194502   8.085604   6.845965   6.323158   5.405694
    30  H   10.869263   8.870165   7.589683   7.113384   6.101372
    31  H    9.660215   7.540970   6.150970   5.684294   4.458060
    32  H    7.851696   6.004205   4.891735   4.710788   4.152628
    33  H    7.258355   5.257198   3.841762   3.725793   2.572897
    34  H    7.173189   4.379733   3.277263   2.421854   2.067358
    35  H    8.864027   6.238494   4.853658   4.058925   2.676779
    36  H    8.564244   5.419285   4.346269   3.034100   2.339107
    37  H    9.650890   6.683465   5.444574   4.316738   3.147484
    38  H    3.844625   3.079996   4.209333   4.878553   6.003590
    39  H    2.153698   2.099368   2.458150   3.824060   4.612092
    40  H    2.305363   2.099368   2.472146   3.832731   4.534374
    41  H    3.693702   1.070000   2.091457   2.689543   4.029597
    42  H    4.115738   2.135692   2.589618   3.206695   4.075988
    43  H    5.647250   2.660434   3.241319   2.833722   4.151546
    44  H    6.356021   3.373199   2.791431   2.123404   2.416002
    45  H    5.918008   2.746325   2.077180   1.070000   2.074445
                   16         17         18         19         20
    16  C    0.000000
    17  C    1.519863   0.000000
    18  O    2.509567   1.434211   0.000000
    19  H    2.458381   1.886767   0.999670   0.000000
    20  C    2.573729   1.520254   2.445994   3.234352   0.000000
    21  O    3.868440   2.526027   2.982865   3.876843   1.434870
    22  H    4.603261   3.390533   3.882390   4.810705   2.037290
    23  C    2.622027   3.894360   5.096751   4.950865   4.438170
    24  O    3.360344   4.733349   5.728970   5.338524   5.577548
    25  H    4.292614   5.659403   6.704497   6.335925   6.391865
    26  C    1.520268   2.463132   3.779093   3.796693   2.991274
    27  O    2.333561   2.777190   4.164845   4.499417   2.507986
    28  C    2.818239   2.419591   3.722388   4.306293   1.520157
    29  O    4.008967   3.633542   4.772219   5.482135   2.355025
    30  H    4.757558   4.251461   5.374491   6.105066   2.939078
    31  H    3.347323   2.824203   4.107327   4.624555   2.143320
    32  H    2.877079   2.118226   2.727855   3.560317   1.070000
    33  H    2.053170   1.070000   1.982986   2.203788   2.057297
    34  H    1.070000   2.141191   2.871104   2.918020   2.847156
    35  H    2.121224   2.611845   3.908296   3.882964   3.199632
    36  H    2.051987   3.524329   4.534117   4.304779   4.275773
    37  H    2.914980   3.961339   5.184609   4.988811   4.583196
    38  H    7.193238   7.614453   6.805431   5.932340   9.008414
    39  H    5.121825   4.779637   3.492038   3.072090   5.822150
    40  H    5.447967   5.257386   4.126945   3.374745   6.551257
    41  H    4.671319   5.073688   4.306910   3.735962   6.203113
    42  H    5.364249   5.779579   5.128161   4.167638   7.250073
    43  H    5.095969   6.068757   5.787632   5.047676   7.319491
    44  H    3.805621   4.739999   4.789582   3.894111   6.190995
    45  H    2.445473   3.440802   3.455961   3.000843   4.545613
                   21         22         23         24         25
    21  O    0.000000
    22  H    0.999677   0.000000
    23  C    5.710665   6.235857   0.000000
    24  O    6.829941   7.458273   1.434286   0.000000
    25  H    7.641796   8.209266   1.999767   0.999668   0.000000
    26  C    4.223187   4.816011   1.520198   2.644332   3.420855
    27  O    3.708633   4.031156   2.371411   3.763094   4.348801
    28  C    2.393134   2.649933   3.681242   4.992388   5.651958
    29  O    2.873288   2.600442   4.607399   6.013414   6.551411
    30  H    3.058055   2.615914   5.221748   6.617708   7.111752
    31  H    2.535552   2.834930   3.972978   5.192907   5.820992
    32  H    2.043357   2.324131   4.768019   5.931127   6.722214
    33  H    2.664475   3.594620   3.984819   4.727174   5.638310
    34  H    4.235914   4.841602   2.899897   3.671940   4.526480
    35  H    4.166204   4.825067   2.120939   2.969303   3.716126
    36  H    5.631978   6.225695   1.070000   1.593932   2.394674
    37  H    5.696409   6.280359   1.070000   1.593932   2.139657
    38  H    9.784139  10.678477   8.619040   8.005419   8.745005
    39  H    6.267910   7.062687   7.513769   7.642625   8.604337
    40  H    7.009678   7.916315   7.579268   7.438331   8.380993
    41  H    7.123009   7.876426   6.524117   6.429404   7.274891
    42  H    8.035349   8.971099   6.805854   6.250619   7.068989
    43  H    8.473151   9.250314   5.978320   5.399561   6.038501
    44  H    7.230905   8.125960   4.436722   3.672276   4.455833
    45  H    5.785091   6.502656   3.963457   4.041429   4.898888
                   26         27         28         29         30
    26  C    0.000000
    27  O    1.434504   0.000000
    28  C    2.395962   1.435456   0.000000
    29  O    3.578079   2.253144   1.434673   0.000000
    30  H    4.199496   2.932949   1.974355   0.960000   0.000000
    31  H    2.705605   2.068566   1.070000   2.066185   2.132067
    32  H    3.477519   2.831874   2.119670   2.442633   3.193407
    33  H    2.540414   3.048642   2.597850   3.958702   4.389142
    34  H    2.141739   2.549662   3.165288   4.062428   4.932901
    35  H    1.070000   2.047833   2.561627   3.882794   4.304567
    36  H    1.659766   2.648452   3.871523   4.841569   5.578833
    37  H    1.659766   2.697781   3.770240   4.850017   5.318480
    38  H    8.388716   9.499599   9.881134  11.029315  11.787102
    39  H    6.611707   7.260232   7.109317   8.055075   8.749146
    40  H    6.801401   7.721287   7.675002   8.817980   9.463397
    41  H    6.079271   6.837090   7.168552   8.079825   8.923343
    42  H    6.480091   7.664374   8.021741   9.261584   9.964167
    43  H    6.109814   7.117459   7.865733   8.859010   9.718555
    44  H    4.465576   5.811046   6.494373   7.772846   8.459087
    45  H    3.658603   4.456213   5.094984   6.044176   6.910538
                   31         32         33         34         35
    31  H    0.000000
    32  H    2.995949   0.000000
    33  H    2.573630   2.947666   0.000000
    34  H    3.938440   2.741186   2.959064   0.000000
    35  H    2.430378   3.946361   2.230969   3.008739   0.000000
    36  H    4.336539   4.470380   3.812256   2.133256   2.475831
    37  H    3.769901   5.127724   3.759548   3.510126   1.633176
    38  H   10.261117   9.046101   7.861379   7.206447   8.612884
    39  H    7.574146   5.731367   5.251705   5.090897   6.865060
    40  H    7.966816   6.697083   5.440188   5.662531   6.872709
    41  H    7.802222   5.960033   5.719058   4.320359   6.605115
    42  H    8.303634   7.448273   5.894968   5.583541   6.592281
    43  H    8.437745   7.199293   6.555061   4.796605   6.658744
    44  H    6.723303   6.514014   4.751918   4.170045   4.587652
    45  H    5.760958   4.402316   4.124451   1.994744   4.354368
                   36         37         38         39         40
    36  H    0.000000
    37  H    1.873869   0.000000
    38  H    7.694847   8.775629   0.000000
    39  H    6.629129   7.726952   4.294599   0.000000
    40  H    6.748133   7.615132   3.276587   1.724787   0.000000
    41  H    5.489910   6.971027   3.546694   2.483949   3.011773
    42  H    5.963619   6.840442   2.122096   3.585044   2.342555
    43  H    4.972501   6.443342   3.466321   4.724970   4.524914
    44  H    3.723429   4.423056   4.477477   5.059561   4.303917
    45  H    2.917906   4.528317   5.375263   4.094089   4.474716
                   41         42         43         44         45
    41  H    0.000000
    42  H    3.040195   0.000000
    43  H    2.471380   3.012950   0.000000
    44  H    3.977351   2.644404   2.996140   0.000000
    45  H    2.602098   3.993624   2.834720   3.001403   0.000000
 Stoichiometry    C12H22O11
 Framework group  C1[X(C12H22O11)]
 Deg. of freedom   129
 Full point group                 C1      NOp   1
 Largest Abelian subgroup         C1      NOp   1
 Largest concise Abelian subgroup C1      NOp   1
                         Standard orientation:                         
 ---------------------------------------------------------------------
 Center     Atomic      Atomic             Coordinates (Angstroms)
 Number     Number       Type             X           Y           Z
 ---------------------------------------------------------------------
      1          8           0       -5.030838   -0.356026    0.294092
      2          6           0       -3.695115   -0.099323   -0.162558
      3          6           0       -3.209317    1.263311    0.305662
      4          8           0       -3.991167    2.315074   -0.278431
      5          1           0       -4.928179    2.057771   -0.046145
      6          6           0       -1.775821    1.535721   -0.120466
      7          8           0       -1.098950    2.631202    0.512768
      8          1           0       -0.250125    2.900537    0.056260
      9          6           0       -3.096525   -2.485104   -0.104899
     10          8           0       -4.342680   -3.107291    0.242206
     11          1           0       -4.257821   -4.053862   -0.067949
     12          6           0       -2.733560   -1.111918    0.437468
     13          8           0       -1.433842   -0.884501   -0.126867
     14          6           0       -0.858311    0.378748    0.238691
     15          8           0        0.302430    0.558980   -0.584458
     16          6           0        1.528166    0.224901    0.084208
     17          6           0        1.975133   -1.142554   -0.405968
     18          8           0        0.979825   -2.175177   -0.402490
     19          1           0        0.195136   -1.663860   -0.752004
     20          6           0        3.302627   -1.638355    0.144589
     21          8           0        3.900166   -2.775728   -0.494302
     22          1           0        4.740120   -3.070267   -0.039243
     23          6           0        2.384694    2.702889    0.053231
     24          8           0        1.312261    3.544133   -0.393280
     25          1           0        1.577725    4.501530   -0.282568
     26          6           0        2.600063    1.237016   -0.287111
     27          8           0        3.758587    0.809716    0.442984
     28          6           0        4.259787   -0.464750    0.012789
     29          8           0        5.327861   -0.731074    0.932886
     30          1           0        6.134309   -0.910206    0.443853
     31          1           0        4.637511   -0.400155   -0.986236
     32          1           0        3.176829   -1.860971    1.183587
     33          1           0        2.173231   -0.983346   -1.445348
     34          1           0        1.381632    0.210213    1.144025
     35          1           0        2.802027    1.154312   -1.334618
     36          1           0        1.527540    2.236026    0.491667
     37          1           0        2.539966    2.732274   -1.005035
     38          1           0       -5.609924   -0.476483   -0.462049
     39          1           0       -2.318178   -3.155412    0.194707
     40          1           0       -3.067433   -2.417417   -1.172360
     41          1           0       -2.723722   -1.085836    1.507105
     42          1           0       -3.658798   -0.151484   -1.230669
     43          1           0       -3.279631    1.318412    1.371927
     44          1           0       -1.752706    1.680769   -1.180337
     45          1           0       -0.599669    0.399509    1.276753
 ---------------------------------------------------------------------
 Rotational constants (GHZ):      0.4024231      0.1484812      0.1117080
 Standard basis: 6-31+G(d,p) (6D, 7F)
 There are   547 symmetry adapted basis functions of A   symmetry.
 Integral buffers will be    131072 words long.
 Raffenetti 2 integral format.
 Two-electron integral symmetry is turned on.
   547 basis functions,   890 primitive gaussians,   547 cartesian basis functions
    91 alpha electrons       91 beta electrons
       nuclear repulsion energy      2298.4977686988 Hartrees.
 NAtoms=   45 NActive=   45 NUniq=   45 SFac= 1.00D+00 NAtFMM=   50 NAOKFM=F Big=F
 One-electron integrals computed using PRISM.
 NBasis=   547 RedAO= T  NBF=   547
 NBsUse=   547 1.00D-06 NBFU=   547
 Harris functional with IExCor=  402 diagonalized for initial guess.
 ExpMin= 4.38D-02 ExpMax= 5.48D+03 ExpMxC= 8.25D+02 IAcc=2 IRadAn=         0 AccDes= 0.00D+00
 HarFok:  IExCor=  402 AccDes= 0.00D+00 IRadAn=         0 IDoV= 1
 ScaDFX=  1.000000  1.000000  1.000000  1.000000
 FoFCou: FMM=F IPFlag=           0 FMFlag=      100000 FMFlg1=           0
         NFxFlg=           0 DoJE=T BraDBF=F KetDBF=T FulRan=T
         Omega=  0.000000  0.000000  1.000000  0.000000  0.000000 ICntrl=     500 IOpCl=  0
         NMat0=    1 NMatS0=    1 NMatT0=    0 NMatD0=    1 NMtDS0=    0 NMtDT0=    0
         I1Cent=           4 NGrid=           0.
 Petite list used in FoFCou.
 Initial guess orbital symmetries:
       Occupied  (A) (A) (A) (A) (A) (A) (A) (A) (A) (A) (A) (A)
                 (A) (A) (A) (A) (A) (A) (A) (A) (A) (A) (A) (A)
                 (A) (A) (A) (A) (A) (A) (A) (A) (A) (A) (A) (A)
                 (A) (A) (A) (A) (A) (A) (A) (A) (A) (A) (A) (A)
                 (A) (A) (A) (A) (A) (A) (A) (A) (A) (A) (A) (A)
                 (A) (A) (A) (A) (A) (A) (A) (A) (A) (A) (A) (A)
                 (A) (A) (A) (A) (A) (A) (A) (A) (A) (A) (A) (A)
                 (A) (A) (A) (A) (A) (A) (A)
       Virtual   (A) (A) (A) (A) (A) (A) (A) (A) (A) (A) (A) (A)
                 (A) (A) (A) (A) (A) (A) (A) (A) (A) (A) (A) (A)
                 (A) (A) (A) (A) (A) (A) (A) (A) (A) (A) (A) (A)
                 (A) (A) (A) (A) (A) (A) (A) (A) (A) (A) (A) (A)
                 (A) (A) (A) (A) (A) (A) (A) (A) (A) (A) (A) (A)
                 (A) (A) (A) (A) (A) (A) (A) (A) (A) (A) (A) (A)
                 (A) (A) (A) (A) (A) (A) (A) (A) (A) (A) (A) (A)
                 (A) (A) (A) (A) (A) (A) (A) (A) (A) (A) (A) (A)
                 (A) (A) (A) (A) (A) (A) (A) (A) (A) (A) (A) (A)
                 (A) (A) (A) (A) (A) (A) (A) (A) (A) (A) (A) (A)
                 (A) (A) (A) (A) (A) (A) (A) (A) (A) (A) (A) (A)
                 (A) (A) (A) (A) (A) (A) (A) (A) (A) (A) (A) (A)
                 (A) (A) (A) (A) (A) (A) (A) (A) (A) (A) (A) (A)
                 (A) (A) (A) (A) (A) (A) (A) (A) (A) (A) (A) (A)
                 (A) (A) (A) (A) (A) (A) (A) (A) (A) (A) (A) (A)
                 (A) (A) (A) (A) (A) (A) (A) (A) (A) (A) (A) (A)
                 (A) (A) (A) (A) (A) (A) (A) (A) (A) (A) (A) (A)
                 (A) (A) (A) (A) (A) (A) (A) (A) (A) (A) (A) (A)
                 (A) (A) (A) (A) (A) (A) (A) (A) (A) (A) (A) (A)
                 (A) (A) (A) (A) (A) (A) (A) (A) (A) (A) (A) (A)
                 (A) (A) (A) (A) (A) (A) (A) (A) (A) (A) (A) (A)
                 (A) (A) (A) (A) (A) (A) (A) (A) (A) (A) (A) (A)
                 (A) (A) (A) (A) (A) (A) (A) (A) (A) (A) (A) (A)
                 (A) (A) (A) (A) (A) (A) (A) (A) (A) (A) (A) (A)
                 (A) (A) (A) (A) (A) (A) (A) (A) (A) (A) (A) (A)
                 (A) (A) (A) (A) (A) (A) (A) (A) (A) (A) (A) (A)
                 (A) (A) (A) (A) (A) (A) (A) (A) (A) (A) (A) (A)
                 (A) (A) (A) (A) (A) (A) (A) (A) (A) (A) (A) (A)
                 (A) (A) (A) (A) (A) (A) (A) (A) (A) (A) (A) (A)
                 (A) (A) (A) (A) (A) (A) (A) (A) (A) (A) (A) (A)
                 (A) (A) (A) (A) (A) (A) (A) (A) (A) (A) (A) (A)
                 (A) (A) (A) (A) (A) (A) (A) (A) (A) (A) (A) (A)
                 (A) (A) (A) (A) (A) (A) (A) (A) (A) (A) (A) (A)
                 (A) (A) (A) (A) (A) (A) (A) (A) (A) (A) (A) (A)
                 (A) (A) (A) (A) (A) (A) (A) (A) (A) (A) (A) (A)
                 (A) (A) (A) (A) (A) (A) (A) (A) (A) (A) (A) (A)
                 (A) (A) (A) (A) (A) (A) (A) (A) (A) (A) (A) (A)
                 (A) (A) (A) (A) (A) (A) (A) (A) (A) (A) (A) (A)
 The electronic state of the initial guess is 1-A.
 Requested convergence on RMS density matrix=1.00D-08 within 128 cycles.
 Requested convergence on MAX density matrix=1.00D-06.
 Requested convergence on             energy=1.00D-06.
 No special actions if energy rises.
 SCF Done:  E(RB3LYP) =  -1297.64001060     A.U. after   15 cycles
             Convg  =    0.6403D-08             -V/T =  2.0081
 Range of M.O.s used for correlation:     1   547
 NBasis=   547 NAE=    91 NBE=    91 NFC=     0 NFV=     0
 NROrb=    547 NOA=    91 NOB=    91 NVA=   456 NVB=   456

 **** Warning!!: The largest alpha MO coefficient is  0.78842028D+02

          Differentiating once with respect to electric field.
                with respect to dipole field.
          Electric field/nuclear overlap derivatives assumed to be zero.
          There are     3 degrees of freedom in the 1st order CPHF.  IDoFFX=0.
      3 vectors produced by pass  0 Test12= 1.38D-12 3.33D-08 XBig12= 1.39D+02 2.61D+00.
 AX will form     3 AO Fock derivatives at one time.
      3 vectors produced by pass  1 Test12= 1.38D-12 3.33D-08 XBig12= 2.91D+01 1.16D+00.
      3 vectors produced by pass  2 Test12= 1.38D-12 3.33D-08 XBig12= 1.24D+01 1.05D+00.
      3 vectors produced by pass  3 Test12= 1.38D-12 3.33D-08 XBig12= 2.37D+00 6.13D-01.
      3 vectors produced by pass  4 Test12= 1.38D-12 3.33D-08 XBig12= 8.61D-01 3.61D-01.
      3 vectors produced by pass  5 Test12= 1.38D-12 3.33D-08 XBig12= 2.62D-01 1.22D-01.
      3 vectors produced by pass  6 Test12= 1.38D-12 3.33D-08 XBig12= 9.48D-02 6.52D-02.
      3 vectors produced by pass  7 Test12= 1.38D-12 3.33D-08 XBig12= 1.30D-02 1.46D-02.
      3 vectors produced by pass  8 Test12= 1.38D-12 3.33D-08 XBig12= 4.53D-03 9.50D-03.
      3 vectors produced by pass  9 Test12= 1.38D-12 3.33D-08 XBig12= 1.02D-03 4.70D-03.
      3 vectors produced by pass 10 Test12= 1.38D-12 3.33D-08 XBig12= 2.02D-04 1.72D-03.
      3 vectors produced by pass 11 Test12= 1.38D-12 3.33D-08 XBig12= 3.82D-05 8.77D-04.
      3 vectors produced by pass 12 Test12= 1.38D-12 3.33D-08 XBig12= 8.90D-06 4.88D-04.
      3 vectors produced by pass 13 Test12= 1.38D-12 3.33D-08 XBig12= 2.65D-06 2.06D-04.
      3 vectors produced by pass 14 Test12= 1.38D-12 3.33D-08 XBig12= 2.84D-07 7.50D-05.
      3 vectors produced by pass 15 Test12= 1.38D-12 3.33D-08 XBig12= 5.87D-08 3.16D-05.
      3 vectors produced by pass 16 Test12= 1.38D-12 3.33D-08 XBig12= 7.42D-09 1.28D-05.
      3 vectors produced by pass 17 Test12= 1.38D-12 3.33D-08 XBig12= 7.56D-10 3.75D-06.
      3 vectors produced by pass 18 Test12= 1.38D-12 3.33D-08 XBig12= 9.35D-11 7.99D-07.
      3 vectors produced by pass 19 Test12= 1.38D-12 3.33D-08 XBig12= 3.72D-11 7.36D-07.
      3 vectors produced by pass 20 Test12= 1.38D-12 3.33D-08 XBig12= 1.22D-11 3.67D-07.
      3 vectors produced by pass 21 Test12= 1.38D-12 3.33D-08 XBig12= 8.34D-12 3.04D-07.
      2 vectors produced by pass 22 Test12= 1.38D-12 3.33D-08 XBig12= 2.26D-12 1.22D-07.
      1 vectors produced by pass 23 Test12= 1.38D-12 3.33D-08 XBig12= 3.13D-13 4.98D-08.
 Inverted reduced A of dimension    69 with in-core refinement.
 End of Minotr Frequency-dependent properties file   721 does not exist.
 End of Minotr Frequency-dependent properties file   722 does not exist.
 Symmetrizing basis deriv contribution to polar:
 IMax=3 JMax=2 DiffMx= 0.00D+00
 G2DrvN: will do    23 centers at a time, making    2 passes doing MaxLOS=2.
 Calling FoFCou, ICntrl=  3107 FMM=F I1Cent=   0 AccDes= 0.00D+00.
 Calling FoFCou, ICntrl=  3107 FMM=F I1Cent=   0 AccDes= 0.00D+00.
 FoFDir/FoFCou used for L=0 through L=2.
 End of G2Drv Frequency-dependent properties file   721 does not exist.
 End of G2Drv Frequency-dependent properties file   722 does not exist.
          IDoAtm=111111111111111111111111111111111111111111111
          Differentiating once with respect to electric field.
                with respect to dipole field.
          Differentiating once with respect to nuclear coordinates.
          There are   138 degrees of freedom in the 1st order CPHF.  IDoFFX=5.
 Will reuse    3 saved solutions.
    135 vectors produced by pass  0 Test12= 4.15D-14 1.00D-09 XBig12= 2.83D-01 2.04D-01.
 AX will form    68 AO Fock derivatives at one time.
    135 vectors produced by pass  1 Test12= 4.15D-14 1.00D-09 XBig12= 3.33D-02 1.29D-02.
    132 vectors produced by pass  2 Test12= 4.15D-14 1.00D-09 XBig12= 2.91D-04 1.82D-03.
    132 vectors produced by pass  3 Test12= 4.15D-14 1.00D-09 XBig12= 1.09D-06 9.39D-05.
    132 vectors produced by pass  4 Test12= 4.15D-14 1.00D-09 XBig12= 1.77D-09 3.52D-06.
    132 vectors produced by pass  5 Test12= 4.15D-14 1.00D-09 XBig12= 6.31D-12 2.32D-07.
     80 vectors produced by pass  6 Test12= 4.15D-14 1.00D-09 XBig12= 2.24D-13 3.01D-08.
 Inverted reduced A of dimension   878 with in-core refinement.
 Isotropic polarizability for W=    0.000000      196.49 Bohr**3.
 End of Minotr Frequency-dependent properties file   721 does not exist.
 End of Minotr Frequency-dependent properties file   722 does not exist.

 **********************************************************************

            Population analysis using the SCF density.

 **********************************************************************

 Orbital symmetries:
       Occupied  (A) (A) (A) (A) (A) (A) (A) (A) (A) (A) (A) (A)
                 (A) (A) (A) (A) (A) (A) (A) (A) (A) (A) (A) (A)
                 (A) (A) (A) (A) (A) (A) (A) (A) (A) (A) (A) (A)
                 (A) (A) (A) (A) (A) (A) (A) (A) (A) (A) (A) (A)
                 (A) (A) (A) (A) (A) (A) (A) (A) (A) (A) (A) (A)
                 (A) (A) (A) (A) (A) (A) (A) (A) (A) (A) (A) (A)
                 (A) (A) (A) (A) (A) (A) (A) (A) (A) (A) (A) (A)
                 (A) (A) (A) (A) (A) (A) (A)
       Virtual   (A) (A) (A) (A) (A) (A) (A) (A) (A) (A) (A) (A)
                 (A) (A) (A) (A) (A) (A) (A) (A) (A) (A) (A) (A)
                 (A) (A) (A) (A) (A) (A) (A) (A) (A) (A) (A) (A)
                 (A) (A) (A) (A) (A) (A) (A) (A) (A) (A) (A) (A)
                 (A) (A) (A) (A) (A) (A) (A) (A) (A) (A) (A) (A)
                 (A) (A) (A) (A) (A) (A) (A) (A) (A) (A) (A) (A)
                 (A) (A) (A) (A) (A) (A) (A) (A) (A) (A) (A) (A)
                 (A) (A) (A) (A) (A) (A) (A) (A) (A) (A) (A) (A)
                 (A) (A) (A) (A) (A) (A) (A) (A) (A) (A) (A) (A)
                 (A) (A) (A) (A) (A) (A) (A) (A) (A) (A) (A) (A)
                 (A) (A) (A) (A) (A) (A) (A) (A) (A) (A) (A) (A)
                 (A) (A) (A) (A) (A) (A) (A) (A) (A) (A) (A) (A)
                 (A) (A) (A) (A) (A) (A) (A) (A) (A) (A) (A) (A)
                 (A) (A) (A) (A) (A) (A) (A) (A) (A) (A) (A) (A)
                 (A) (A) (A) (A) (A) (A) (A) (A) (A) (A) (A) (A)
                 (A) (A) (A) (A) (A) (A) (A) (A) (A) (A) (A) (A)
                 (A) (A) (A) (A) (A) (A) (A) (A) (A) (A) (A) (A)
                 (A) (A) (A) (A) (A) (A) (A) (A) (A) (A) (A) (A)
                 (A) (A) (A) (A) (A) (A) (A) (A) (A) (A) (A) (A)
                 (A) (A) (A) (A) (A) (A) (A) (A) (A) (A) (A) (A)
                 (A) (A) (A) (A) (A) (A) (A) (A) (A) (A) (A) (A)
                 (A) (A) (A) (A) (A) (A) (A) (A) (A) (A) (A) (A)
                 (A) (A) (A) (A) (A) (A) (A) (A) (A) (A) (A) (A)
                 (A) (A) (A) (A) (A) (A) (A) (A) (A) (A) (A) (A)
                 (A) (A) (A) (A) (A) (A) (A) (A) (A) (A) (A) (A)
                 (A) (A) (A) (A) (A) (A) (A) (A) (A) (A) (A) (A)
                 (A) (A) (A) (A) (A) (A) (A) (A) (A) (A) (A) (A)
                 (A) (A) (A) (A) (A) (A) (A) (A) (A) (A) (A) (A)
                 (A) (A) (A) (A) (A) (A) (A) (A) (A) (A) (A) (A)
                 (A) (A) (A) (A) (A) (A) (A) (A) (A) (A) (A) (A)
                 (A) (A) (A) (A) (A) (A) (A) (A) (A) (A) (A) (A)
                 (A) (A) (A) (A) (A) (A) (A) (A) (A) (A) (A) (A)
                 (A) (A) (A) (A) (A) (A) (A) (A) (A) (A) (A) (A)
                 (A) (A) (A) (A) (A) (A) (A) (A) (A) (A) (A) (A)
                 (A) (A) (A) (A) (A) (A) (A) (A) (A) (A) (A) (A)
                 (A) (A) (A) (A) (A) (A) (A) (A) (A) (A) (A) (A)
                 (A) (A) (A) (A) (A) (A) (A) (A) (A) (A) (A) (A)
                 (A) (A) (A) (A) (A) (A) (A) (A) (A) (A) (A) (A)
 The electronic state is 1-A.
 Alpha  occ. eigenvalues --  -19.21269 -19.21037 -19.19919 -19.19526 -19.18903
 Alpha  occ. eigenvalues --  -19.18180 -19.17915 -19.17052 -19.16585 -19.15544
 Alpha  occ. eigenvalues --  -19.15121 -10.31597 -10.31393 -10.31187 -10.27141
 Alpha  occ. eigenvalues --  -10.26520 -10.25941 -10.25867 -10.25263 -10.25198
 Alpha  occ. eigenvalues --  -10.25099 -10.24337 -10.20734  -1.11402  -1.10101
 Alpha  occ. eigenvalues --   -1.08591  -1.06275  -1.05071  -1.04449  -1.03323
 Alpha  occ. eigenvalues --   -1.02967  -1.02626  -1.01723  -1.01014  -0.85237
 Alpha  occ. eigenvalues --   -0.81683  -0.80936  -0.79124  -0.74397  -0.70612
 Alpha  occ. eigenvalues --   -0.67892  -0.65829  -0.64489  -0.63139  -0.62951
 Alpha  occ. eigenvalues --   -0.61314  -0.58551  -0.56996  -0.56193  -0.55594
 Alpha  occ. eigenvalues --   -0.54696  -0.54618  -0.53508  -0.52610  -0.52212
 Alpha  occ. eigenvalues --   -0.51768  -0.50326  -0.49918  -0.49185  -0.48464
 Alpha  occ. eigenvalues --   -0.46339  -0.45816  -0.44582  -0.44455  -0.43683
 Alpha  occ. eigenvalues --   -0.43588  -0.42661  -0.42066  -0.41199  -0.39874
 Alpha  occ. eigenvalues --   -0.39675  -0.38463  -0.37915  -0.36712  -0.36355
 Alpha  occ. eigenvalues --   -0.36220  -0.35306  -0.34926  -0.33896  -0.33805
 Alpha  occ. eigenvalues --   -0.32088  -0.31947  -0.31525  -0.30358  -0.29730
 Alpha  occ. eigenvalues --   -0.29107  -0.28705  -0.28059  -0.27290  -0.26618
 Alpha  occ. eigenvalues --   -0.21337
 Alpha virt. eigenvalues --   -0.09574  -0.02200  -0.02165  -0.00481  -0.00250
 Alpha virt. eigenvalues --    0.00537   0.01210   0.01381   0.01995   0.03027
 Alpha virt. eigenvalues --    0.03598   0.03981   0.04484   0.04558   0.05024
 Alpha virt. eigenvalues --    0.05686   0.06064   0.06855   0.06959   0.07585
 Alpha virt. eigenvalues --    0.08205   0.08401   0.08745   0.08973   0.09524
 Alpha virt. eigenvalues --    0.10027   0.10681   0.11105   0.11275   0.11678
 Alpha virt. eigenvalues --    0.11986   0.12316   0.12484   0.13091   0.13380
 Alpha virt. eigenvalues --    0.13500   0.13967   0.14134   0.14362   0.14990
 Alpha virt. eigenvalues --    0.15458   0.15948   0.16466   0.16732   0.16872
 Alpha virt. eigenvalues --    0.17114   0.17221   0.17399   0.18046   0.18250
 Alpha virt. eigenvalues --    0.18499   0.18590   0.18830   0.19348   0.19714
 Alpha virt. eigenvalues --    0.20173   0.20408   0.20461   0.20848   0.21073
 Alpha virt. eigenvalues --    0.21538   0.21678   0.21894   0.22124   0.22971
 Alpha virt. eigenvalues --    0.23389   0.23464   0.23526   0.24039   0.24187
 Alpha virt. eigenvalues --    0.24591   0.24781   0.25150   0.25565   0.25690
 Alpha virt. eigenvalues --    0.26090   0.26229   0.26490   0.27037   0.27298
 Alpha virt. eigenvalues --    0.27509   0.27596   0.27798   0.28009   0.29042
 Alpha virt. eigenvalues --    0.29273   0.29421   0.29659   0.29912   0.30429
 Alpha virt. eigenvalues --    0.30803   0.31117   0.31583   0.32158   0.32280
 Alpha virt. eigenvalues --    0.32607   0.32843   0.32992   0.33198   0.33433
 Alpha virt. eigenvalues --    0.33722   0.34096   0.34943   0.35234   0.35536
 Alpha virt. eigenvalues --    0.36228   0.36289   0.36479   0.36822   0.37206
 Alpha virt. eigenvalues --    0.37828   0.38047   0.38162   0.38681   0.39523
 Alpha virt. eigenvalues --    0.39891   0.40324   0.40748   0.41401   0.41832
 Alpha virt. eigenvalues --    0.42224   0.42375   0.42676   0.43103   0.43882
 Alpha virt. eigenvalues --    0.44660   0.44941   0.45562   0.46678   0.47189
 Alpha virt. eigenvalues --    0.47775   0.48290   0.49107   0.49273   0.49793
 Alpha virt. eigenvalues --    0.50690   0.52643   0.55162   0.62828   0.63726
 Alpha virt. eigenvalues --    0.64905   0.66691   0.68440   0.68717   0.69512
 Alpha virt. eigenvalues --    0.70156   0.71401   0.71735   0.73437   0.73914
 Alpha virt. eigenvalues --    0.75722   0.76375   0.77022   0.77681   0.78628
 Alpha virt. eigenvalues --    0.79376   0.80349   0.81746   0.82106   0.82860
 Alpha virt. eigenvalues --    0.84659   0.85926   0.86704   0.88276   0.88799
 Alpha virt. eigenvalues --    0.89413   0.90818   0.91092   0.93027   0.93251
 Alpha virt. eigenvalues --    0.95127   0.96223   0.98367   0.99456   1.00431
 Alpha virt. eigenvalues --    1.01050   1.02368   1.02546   1.02988   1.03697
 Alpha virt. eigenvalues --    1.04616   1.04978   1.06005   1.06289   1.07019
 Alpha virt. eigenvalues --    1.08113   1.08934   1.09496   1.09627   1.10631
 Alpha virt. eigenvalues --    1.11725   1.12129   1.12373   1.13752   1.14231
 Alpha virt. eigenvalues --    1.15605   1.16529   1.18203   1.19189   1.19732
 Alpha virt. eigenvalues --    1.20234   1.22306   1.22827   1.23608   1.24322
 Alpha virt. eigenvalues --    1.25287   1.26070   1.26581   1.27108   1.27518
 Alpha virt. eigenvalues --    1.28125   1.29000   1.29607   1.30354   1.31299
 Alpha virt. eigenvalues --    1.31981   1.32919   1.33541   1.33897   1.34983
 Alpha virt. eigenvalues --    1.35213   1.36062   1.37103   1.37140   1.38414
 Alpha virt. eigenvalues --    1.39173   1.39773   1.40254   1.41347   1.42186
 Alpha virt. eigenvalues --    1.43264   1.44704   1.45137   1.46121   1.46719
 Alpha virt. eigenvalues --    1.47612   1.48147   1.50354   1.50925   1.51888
 Alpha virt. eigenvalues --    1.52749   1.54263   1.54750   1.55756   1.56519
 Alpha virt. eigenvalues --    1.57198   1.57420   1.58423   1.59121   1.60511
 Alpha virt. eigenvalues --    1.61024   1.62504   1.62865   1.63873   1.64880
 Alpha virt. eigenvalues --    1.66213   1.66720   1.67100   1.67835   1.69345
 Alpha virt. eigenvalues --    1.70609   1.70973   1.71643   1.72209   1.72745
 Alpha virt. eigenvalues --    1.74337   1.75184   1.75810   1.76654   1.77077
 Alpha virt. eigenvalues --    1.77709   1.78850   1.79222   1.79683   1.80895
 Alpha virt. eigenvalues --    1.81509   1.82809   1.84596   1.84984   1.85369
 Alpha virt. eigenvalues --    1.87081   1.87902   1.88354   1.89531   1.90618
 Alpha virt. eigenvalues --    1.91830   1.92944   1.93356   1.94160   1.95044
 Alpha virt. eigenvalues --    1.95755   1.96280   1.96630   1.97587   1.98107
 Alpha virt. eigenvalues --    1.98608   1.99494   2.00684   2.01562   2.02760
 Alpha virt. eigenvalues --    2.02859   2.04002   2.04578   2.05352   2.05400
 Alpha virt. eigenvalues --    2.06733   2.08014   2.09521   2.10889   2.11301
 Alpha virt. eigenvalues --    2.12418   2.14136   2.14575   2.15296   2.17668
 Alpha virt. eigenvalues --    2.17762   2.18520   2.18849   2.19444   2.20937
 Alpha virt. eigenvalues --    2.22765   2.24755   2.25778   2.27588   2.30156
 Alpha virt. eigenvalues --    2.30414   2.32359   2.33177   2.34619   2.35752
 Alpha virt. eigenvalues --    2.36431   2.37013   2.38827   2.40562   2.40656
 Alpha virt. eigenvalues --    2.42091   2.42229   2.43517   2.43746   2.45760
 Alpha virt. eigenvalues --    2.46300   2.47204   2.48501   2.48964   2.49358
 Alpha virt. eigenvalues --    2.49579   2.50587   2.51617   2.54165   2.56673
 Alpha virt. eigenvalues --    2.57484   2.57612   2.58394   2.59943   2.61269
 Alpha virt. eigenvalues --    2.61637   2.63064   2.63259   2.63821   2.64277
 Alpha virt. eigenvalues --    2.66580   2.68143   2.68498   2.69118   2.70207
 Alpha virt. eigenvalues --    2.70754   2.71910   2.72687   2.74467   2.74708
 Alpha virt. eigenvalues --    2.75732   2.76947   2.77847   2.78496   2.79464
 Alpha virt. eigenvalues --    2.80947   2.81723   2.82157   2.83267   2.85067
 Alpha virt. eigenvalues --    2.85530   2.87486   2.88083   2.88846   2.89546
 Alpha virt. eigenvalues --    2.89988   2.90688   2.91905   2.92936   2.93590
 Alpha virt. eigenvalues --    2.93996   2.95705   2.96456   2.97650   2.99589
 Alpha virt. eigenvalues --    3.00723   3.00998   3.04605   3.04898   3.05260
 Alpha virt. eigenvalues --    3.07886   3.08395   3.09584   3.11937   3.12722
 Alpha virt. eigenvalues --    3.16695   3.17245   3.24141   3.25954   3.31782
 Alpha virt. eigenvalues --    3.32276   3.37490   3.38563   3.39326   3.42070
 Alpha virt. eigenvalues --    3.44582   3.45060   3.46048   3.47009   3.47510
 Alpha virt. eigenvalues --    3.48441   3.49401   3.51680   3.52892   3.53803
 Alpha virt. eigenvalues --    3.55727   3.56581   3.59178   3.60673   3.62826
 Alpha virt. eigenvalues --    3.64230   3.66188   3.67927   4.29994   4.33690
 Alpha virt. eigenvalues --    4.35253   4.36226   4.39431   4.41317   4.47375
 Alpha virt. eigenvalues --    4.47960   4.50741   4.52590   4.54868   4.56549
 Alpha virt. eigenvalues --    4.59130   4.60053   4.64360   4.69089   4.77384
 Alpha virt. eigenvalues --    4.79518   4.83508   4.85915   4.88481   4.93214
 Alpha virt. eigenvalues --    4.96532
          Condensed to atoms (all electrons):
              1          2          3          4          5          6
     1  O    8.272561   0.320420  -0.113623  -0.008401   0.029632   0.018383
     2  C    0.320420   8.768413  -1.625307  -0.003158  -0.092048  -2.119369
     3  C   -0.113623  -1.625307   9.705437   0.026476   0.078219   0.414236
     4  O   -0.008401  -0.003158   0.026476   8.255058   0.189043  -0.012038
     5  H    0.029632  -0.092048   0.078219   0.189043   0.439235   0.000311
     6  C    0.018383  -2.119369   0.414236  -0.012038   0.000311  11.683322
     7  O   -0.000374   0.019721  -0.132942   0.003198  -0.000608   0.248359
     8  H    0.000012  -0.003803   0.047037  -0.000584   0.000015   0.060011
     9  C    0.026525   0.263987  -0.197759   0.014423  -0.003002   0.114641
    10  O   -0.025832   0.007005   0.010785  -0.000033  -0.000011  -0.019924
    11  H    0.000452  -0.006810  -0.003335   0.000001   0.000000   0.000491
    12  C   -0.252844  -0.947541  -0.738950   0.006065   0.025108   0.428793
    13  O    0.012940  -0.042596   0.009217   0.001871   0.000156  -0.186869
    14  C    0.032507   0.790955  -1.005105   0.054907  -0.006706  -3.349216
    15  O    0.000726  -0.051132   0.000315  -0.000596   0.000112  -0.031532
    16  C    0.003460   0.050923  -0.206135  -0.002271   0.001317   0.211947
    17  C    0.000674   0.002653   0.009672   0.001057   0.000057  -0.362333
    18  O   -0.000007   0.010969   0.000232  -0.000009   0.000000   0.033912
    19  H   -0.000013  -0.011552   0.007060   0.000007   0.000000   0.007291
    20  C    0.000054  -0.002962   0.000090  -0.000134   0.000002   0.048835
    21  O    0.000000  -0.000015  -0.000062   0.000000   0.000000  -0.000402
    22  H    0.000000   0.000002  -0.000001   0.000000   0.000000  -0.000061
    23  C   -0.000171   0.036512   0.137224   0.000494  -0.000007   0.361121
    24  O    0.000002   0.003936  -0.009061   0.000109  -0.000005  -0.014498
    25  H    0.000000  -0.000193  -0.001851  -0.000004   0.000000  -0.011577
    26  C    0.000187   0.019291  -0.350954   0.000963  -0.000029  -1.340873
    27  O    0.000000  -0.000353  -0.000253   0.000002   0.000000  -0.011984
    28  C    0.000021  -0.003174  -0.008774   0.000014   0.000000  -0.046300
    29  O    0.000000   0.000008   0.000080   0.000000   0.000000  -0.000023
    30  H    0.000000   0.000000   0.000001   0.000000   0.000000   0.000006
    31  H    0.000000  -0.000005   0.000005   0.000000   0.000000   0.000210
    32  H    0.000000   0.000021   0.000009   0.000000   0.000000   0.000424
    33  H    0.000000   0.001179  -0.000284  -0.000001   0.000000   0.003726
    34  H   -0.000004   0.000681   0.004223  -0.000002   0.000000   0.022860
    35  H    0.000000   0.000039   0.001712   0.000000   0.000000   0.016896
    36  H   -0.000001   0.000474   0.008090  -0.000001   0.000000  -0.016448
    37  H    0.000000   0.000142   0.000803   0.000002   0.000000   0.016896
    38  H    0.237377   0.043219  -0.020503   0.000220  -0.002672   0.000501
    39  H   -0.000614  -0.013458  -0.003455   0.000028   0.000000  -0.000315
    40  H    0.006122  -0.021191   0.010923  -0.000088   0.000000   0.015153
    41  H    0.008284   0.024003  -0.023449  -0.000305  -0.000011  -0.034121
    42  H   -0.044829   0.443284  -0.078002   0.001817  -0.000903  -0.022600
    43  H   -0.004440   0.149992   0.161177  -0.034890  -0.005887  -0.205219
    44  H   -0.000777   0.091712  -0.201302   0.003443   0.000075   0.279585
    45  H   -0.000046   0.025888  -0.039289  -0.000470   0.000005  -0.057138
              7          8          9         10         11         12
     1  O   -0.000374   0.000012   0.026525  -0.025832   0.000452  -0.252844
     2  C    0.019721  -0.003803   0.263987   0.007005  -0.006810  -0.947541
     3  C   -0.132942   0.047037  -0.197759   0.010785  -0.003335  -0.738950
     4  O    0.003198  -0.000584   0.014423  -0.000033   0.000001   0.006065
     5  H   -0.000608   0.000015  -0.003002  -0.000011   0.000000   0.025108
     6  C    0.248359   0.060011   0.114641  -0.019924   0.000491   0.428793
     7  O    8.239735   0.207847  -0.002215   0.000010   0.000000   0.018880
     8  H    0.207847   0.351141   0.000305   0.000000   0.000000  -0.003414
     9  C   -0.002215   0.000305   6.406614   0.034830   0.021544  -1.441507
    10  O    0.000010   0.000000   0.034830   8.357222   0.186651   0.062846
    11  H    0.000000   0.000000   0.021544   0.186651   0.452203   0.020019
    12  C    0.018880  -0.003414  -1.441507   0.062846   0.020019  10.016539
    13  O    0.013554  -0.000376   0.020628  -0.003426   0.000035  -0.150960
    14  C   -0.044415  -0.096057  -0.172513   0.025772  -0.006056  -0.851953
    15  O    0.002897   0.021332  -0.006120  -0.000072   0.000006   0.036352
    16  C   -0.033241   0.041898  -0.109097  -0.001600  -0.000064  -0.057693
    17  C    0.021720   0.002294  -0.011764   0.000326   0.000009  -0.113049
    18  O   -0.000413   0.000029   0.007312   0.000018   0.000014  -0.025785
    19  H   -0.000028  -0.000003   0.000265  -0.000044  -0.000002   0.010792
    20  C    0.005058   0.001523   0.004563   0.000078   0.000001  -0.002161
    21  O   -0.000005   0.000000   0.000053   0.000000   0.000000   0.000076
    22  H    0.000000   0.000000  -0.000002   0.000000   0.000000   0.000027
    23  C   -0.043173   0.069767  -0.001300   0.000004   0.000000  -0.024820
    24  O   -0.023498  -0.000574   0.000319   0.000000   0.000000   0.001432
    25  H    0.003129  -0.002089   0.000002   0.000000   0.000000   0.000078
    26  C    0.051815  -0.122522  -0.000575  -0.000001   0.000011   0.150031
    27  O    0.000672   0.000044  -0.000104   0.000000   0.000000  -0.000661
    28  C    0.002253  -0.001311  -0.002860  -0.000015  -0.000001  -0.001710
    29  O   -0.000013   0.000001  -0.000012   0.000000   0.000000   0.000056
    30  H    0.000000   0.000000   0.000000   0.000000   0.000000  -0.000001
    31  H    0.000002   0.000000  -0.000001   0.000000   0.000000  -0.000019
    32  H    0.000005   0.000000  -0.000021   0.000000   0.000000   0.000379
    33  H    0.000029   0.000001   0.000186   0.000000   0.000000   0.000896
    34  H   -0.000939   0.000220  -0.000166   0.000001   0.000000   0.003828
    35  H    0.000359   0.000083  -0.000019   0.000000   0.000000  -0.000632
    36  H    0.014515   0.001708  -0.000121   0.000000   0.000000   0.001597
    37  H   -0.002306   0.002040   0.000015   0.000000   0.000000  -0.000330
    38  H   -0.000027   0.000000  -0.022068   0.001539  -0.000006   0.013938
    39  H   -0.000013   0.000000   0.428379  -0.046292  -0.010963  -0.032799
    40  H   -0.000004   0.000000   0.564014  -0.065530  -0.004136  -0.240474
    41  H   -0.000137   0.000003   0.041890   0.004982  -0.000126   0.155594
    42  H    0.000008   0.000002   0.019903   0.000913  -0.000002  -0.143007
    43  H    0.006587  -0.000052   0.026589   0.000134   0.000000  -0.034826
    44  H   -0.038411  -0.007728   0.011804   0.000018   0.000000  -0.004654
    45  H   -0.003116  -0.000382   0.008056   0.000069   0.000000  -0.016014
             13         14         15         16         17         18
     1  O    0.012940   0.032507   0.000726   0.003460   0.000674  -0.000007
     2  C   -0.042596   0.790955  -0.051132   0.050923   0.002653   0.010969
     3  C    0.009217  -1.005105   0.000315  -0.206135   0.009672   0.000232
     4  O    0.001871   0.054907  -0.000596  -0.002271   0.001057  -0.000009
     5  H    0.000156  -0.006706   0.000112   0.001317   0.000057   0.000000
     6  C   -0.186869  -3.349216  -0.031532   0.211947  -0.362333   0.033912
     7  O    0.013554  -0.044415   0.002897  -0.033241   0.021720  -0.000413
     8  H   -0.000376  -0.096057   0.021332   0.041898   0.002294   0.000029
     9  C    0.020628  -0.172513  -0.006120  -0.109097  -0.011764   0.007312
    10  O   -0.003426   0.025772  -0.000072  -0.001600   0.000326   0.000018
    11  H    0.000035  -0.006056   0.000006  -0.000064   0.000009   0.000014
    12  C   -0.150960  -0.851953   0.036352  -0.057693  -0.113049  -0.025785
    13  O    8.521620   0.249566  -0.033936   0.066812  -0.046111   0.016332
    14  C    0.249566  11.220819   0.224272  -1.028579  -0.250642  -0.022892
    15  O   -0.033936   0.224272   8.485896  -0.230520   0.077540  -0.001642
    16  C    0.066812  -1.028579  -0.230520  17.063242  -2.468275  -0.117292
    17  C   -0.046111  -0.250642   0.077540  -2.468275   9.196688   0.398108
    18  O    0.016332  -0.022892  -0.001642  -0.117292   0.398108   8.181186
    19  H   -0.003098   0.010201   0.030049  -0.140214   0.085303   0.186852
    20  C   -0.022439  -0.006814   0.051178  -0.717097  -1.285488  -0.127859
    21  O   -0.000331   0.000248  -0.000075  -0.003098  -0.138493   0.012136
    22  H    0.000000  -0.001033   0.000022  -0.020068   0.028432  -0.000770
    23  C    0.037446  -0.622468  -0.172142   2.458796  -0.531340   0.024792
    24  O   -0.001346   0.030225   0.019270  -0.113199   0.013779  -0.000145
    25  H   -0.000019   0.007966   0.001814  -0.031165   0.001362  -0.000006
    26  C   -0.028867  -0.001976   0.119447  -8.751039   0.575393  -0.049307
    27  O    0.000104  -0.033821   0.014217  -0.445684   0.068691  -0.003099
    28  C    0.001586  -0.136906   0.026060   0.104850   0.620002  -0.006831
    29  O    0.000057  -0.002232  -0.000068   0.013073   0.002418  -0.000880
    30  H    0.000000   0.000037  -0.000001  -0.003156   0.018001  -0.000027
    31  H   -0.000001   0.005291  -0.000180   0.105898  -0.014720  -0.000979
    32  H    0.000381   0.006522  -0.001306   0.059063  -0.176033   0.001823
    33  H    0.003868   0.036806  -0.011269  -0.005967   0.279663  -0.058282
    34  H    0.004998  -0.005066  -0.087327   0.337846  -0.026450   0.001626
    35  H    0.000230  -0.001148  -0.000908   0.186308   0.028874   0.000078
    36  H    0.003010   0.052463   0.002147  -0.108842   0.023720  -0.000085
    37  H   -0.000140  -0.033184  -0.005812   0.182636  -0.023603   0.000130
    38  H   -0.001774   0.002542  -0.000016   0.000364  -0.000062   0.000000
    39  H   -0.006950   0.001899  -0.000228   0.006316  -0.000605  -0.000881
    40  H    0.011953   0.011376  -0.000228  -0.005762   0.000698   0.000270
    41  H   -0.026383   0.097436  -0.001110   0.007160   0.003690   0.000187
    42  H    0.013308   0.062300  -0.000400  -0.001325   0.001503   0.000086
    43  H    0.010918   0.145444  -0.000881   0.007924   0.001359   0.000033
    44  H    0.015033   0.067191  -0.011345   0.024476   0.007215   0.000100
    45  H   -0.051138   0.343379  -0.076330   0.016985   0.034647  -0.000977
             19         20         21         22         23         24
     1  O   -0.000013   0.000054   0.000000   0.000000  -0.000171   0.000002
     2  C   -0.011552  -0.002962  -0.000015   0.000002   0.036512   0.003936
     3  C    0.007060   0.000090  -0.000062  -0.000001   0.137224  -0.009061
     4  O    0.000007  -0.000134   0.000000   0.000000   0.000494   0.000109
     5  H    0.000000   0.000002   0.000000   0.000000  -0.000007  -0.000005
     6  C    0.007291   0.048835  -0.000402  -0.000061   0.361121  -0.014498
     7  O   -0.000028   0.005058  -0.000005   0.000000  -0.043173  -0.023498
     8  H   -0.000003   0.001523   0.000000   0.000000   0.069767  -0.000574
     9  C    0.000265   0.004563   0.000053  -0.000002  -0.001300   0.000319
    10  O   -0.000044   0.000078   0.000000   0.000000   0.000004   0.000000
    11  H   -0.000002   0.000001   0.000000   0.000000   0.000000   0.000000
    12  C    0.010792  -0.002161   0.000076   0.000027  -0.024820   0.001432
    13  O   -0.003098  -0.022439  -0.000331   0.000000   0.037446  -0.001346
    14  C    0.010201  -0.006814   0.000248  -0.001033  -0.622468   0.030225
    15  O    0.030049   0.051178  -0.000075   0.000022  -0.172142   0.019270
    16  C   -0.140214  -0.717097  -0.003098  -0.020068   2.458796  -0.113199
    17  C    0.085303  -1.285488  -0.138493   0.028432  -0.531340   0.013779
    18  O    0.186852  -0.127859   0.012136  -0.000770   0.024792  -0.000145
    19  H    0.395445   0.033951  -0.000487   0.000012  -0.005220   0.000018
    20  C    0.033951   8.290040   0.273568  -0.004310   0.080733  -0.002052
    21  O   -0.000487   0.273568   8.220411   0.210117   0.005606   0.000001
    22  H    0.000012  -0.004310   0.210117   0.420833   0.000245   0.000000
    23  C   -0.005220   0.080733   0.005606   0.000245  13.423757  -0.301679
    24  O    0.000018  -0.002052   0.000001   0.000000  -0.301679   8.673382
    25  H    0.000000   0.000359   0.000000   0.000000  -0.149134   0.239953
    26  C    0.011122   0.311367   0.017387   0.007885  -8.334481   0.220647
    27  O    0.000112  -0.130916   0.006448   0.000014  -0.451558   0.005922
    28  C   -0.002879  -1.079232  -0.042303  -0.005364  -0.521768   0.014506
    29  O    0.000043  -0.155512   0.002418   0.018023   0.015799  -0.000011
    30  H    0.000000  -0.036754  -0.002805  -0.002043   0.000701   0.000000
    31  H    0.000009  -0.070444  -0.001275  -0.000677   0.008196  -0.000048
    32  H   -0.000084   0.462022  -0.042633  -0.007654   0.011908  -0.000003
    33  H   -0.008431  -0.030025  -0.002206  -0.000160   0.040737  -0.000160
    34  H    0.000075   0.041701  -0.000549   0.000003   0.117094  -0.002224
    35  H    0.000052  -0.008720  -0.000385   0.000004   0.185297   0.004962
    36  H   -0.000005   0.002062   0.000010   0.000000   0.623191  -0.088610
    37  H   -0.000001  -0.000230   0.000014   0.000000   0.586202  -0.066554
    38  H    0.000000   0.000001   0.000000   0.000000   0.000004   0.000000
    39  H    0.000068  -0.001062  -0.000002   0.000000   0.000011   0.000000
    40  H    0.000022   0.000186   0.000000   0.000000  -0.000009   0.000000
    41  H    0.000062   0.000458   0.000000   0.000000   0.000039   0.000002
    42  H    0.000009   0.000010   0.000000   0.000000  -0.000030   0.000007
    43  H    0.000000  -0.000022   0.000000   0.000000   0.000443   0.000100
    44  H    0.000019   0.000317   0.000000   0.000000   0.001958   0.001984
    45  H    0.000564   0.009991   0.000002   0.000000   0.009851   0.000215
             25         26         27         28         29         30
     1  O    0.000000   0.000187   0.000000   0.000021   0.000000   0.000000
     2  C   -0.000193   0.019291  -0.000353  -0.003174   0.000008   0.000000
     3  C   -0.001851  -0.350954  -0.000253  -0.008774   0.000080   0.000001
     4  O   -0.000004   0.000963   0.000002   0.000014   0.000000   0.000000
     5  H    0.000000  -0.000029   0.000000   0.000000   0.000000   0.000000
     6  C   -0.011577  -1.340873  -0.011984  -0.046300  -0.000023   0.000006
     7  O    0.003129   0.051815   0.000672   0.002253  -0.000013   0.000000
     8  H   -0.002089  -0.122522   0.000044  -0.001311   0.000001   0.000000
     9  C    0.000002  -0.000575  -0.000104  -0.002860  -0.000012   0.000000
    10  O    0.000000  -0.000001   0.000000  -0.000015   0.000000   0.000000
    11  H    0.000000   0.000011   0.000000  -0.000001   0.000000   0.000000
    12  C    0.000078   0.150031  -0.000661  -0.001710   0.000056  -0.000001
    13  O   -0.000019  -0.028867   0.000104   0.001586   0.000057   0.000000
    14  C    0.007966  -0.001976  -0.033821  -0.136906  -0.002232   0.000037
    15  O    0.001814   0.119447   0.014217   0.026060  -0.000068  -0.000001
    16  C   -0.031165  -8.751039  -0.445684   0.104850   0.013073  -0.003156
    17  C    0.001362   0.575393   0.068691   0.620002   0.002418   0.018001
    18  O   -0.000006  -0.049307  -0.003099  -0.006831  -0.000880  -0.000027
    19  H    0.000000   0.011122   0.000112  -0.002879   0.000043   0.000000
    20  C    0.000359   0.311367  -0.130916  -1.079232  -0.155512  -0.036754
    21  O    0.000000   0.017387   0.006448  -0.042303   0.002418  -0.002805
    22  H    0.000000   0.007885   0.000014  -0.005364   0.018023  -0.002043
    23  C   -0.149134  -8.334481  -0.451558  -0.521768   0.015799   0.000701
    24  O    0.239953   0.220647   0.005922   0.014506  -0.000011   0.000000
    25  H    0.376727   0.144124  -0.000367   0.000451  -0.000004   0.000000
    26  C    0.144124  22.711836   0.851423  -0.248065  -0.075182   0.002101
    27  O   -0.000367   0.851423   8.370880   0.159064  -0.066139  -0.000472
    28  C    0.000451  -0.248065   0.159064   6.256418   0.396685   0.029655
    29  O   -0.000004  -0.075182  -0.066139   0.396685   8.237233   0.232259
    30  H    0.000000   0.002101  -0.000472   0.029655   0.232259   0.406079
    31  H    0.000000  -0.092512  -0.056907   0.403947  -0.051030  -0.008140
    32  H    0.000000   0.012820   0.002260  -0.075246  -0.009512   0.000472
    33  H    0.000000  -0.003576   0.001114  -0.051486  -0.000399   0.000013
    34  H   -0.000026  -0.174408  -0.001678  -0.024433  -0.000419   0.000002
    35  H   -0.000184  -0.191979  -0.049492   0.004531  -0.000300   0.000026
    36  H   -0.000116  -0.280240  -0.003340  -0.002780   0.000003   0.000000
    37  H   -0.009424  -0.301368  -0.014626  -0.009182   0.000021   0.000000
    38  H    0.000000  -0.000005   0.000000   0.000000   0.000000   0.000000
    39  H    0.000000  -0.000089   0.000000   0.000128   0.000000   0.000000
    40  H    0.000000  -0.000304   0.000000  -0.000024   0.000000   0.000000
    41  H    0.000000   0.000493   0.000000  -0.000052   0.000000   0.000000
    42  H    0.000000   0.000402   0.000000  -0.000007   0.000000   0.000000
    43  H    0.000000   0.001167   0.000001  -0.000003   0.000000   0.000000
    44  H   -0.000010   0.005829   0.000014   0.000134   0.000000   0.000000
    45  H   -0.000001   0.026579   0.000104  -0.002445  -0.000001   0.000000
             31         32         33         34         35         36
     1  O    0.000000   0.000000   0.000000  -0.000004   0.000000  -0.000001
     2  C   -0.000005   0.000021   0.001179   0.000681   0.000039   0.000474
     3  C    0.000005   0.000009  -0.000284   0.004223   0.001712   0.008090
     4  O    0.000000   0.000000  -0.000001  -0.000002   0.000000  -0.000001
     5  H    0.000000   0.000000   0.000000   0.000000   0.000000   0.000000
     6  C    0.000210   0.000424   0.003726   0.022860   0.016896  -0.016448
     7  O    0.000002   0.000005   0.000029  -0.000939   0.000359   0.014515
     8  H    0.000000   0.000000   0.000001   0.000220   0.000083   0.001708
     9  C   -0.000001  -0.000021   0.000186  -0.000166  -0.000019  -0.000121
    10  O    0.000000   0.000000   0.000000   0.000001   0.000000   0.000000
    11  H    0.000000   0.000000   0.000000   0.000000   0.000000   0.000000
    12  C   -0.000019   0.000379   0.000896   0.003828  -0.000632   0.001597
    13  O   -0.000001   0.000381   0.003868   0.004998   0.000230   0.003010
    14  C    0.005291   0.006522   0.036806  -0.005066  -0.001148   0.052463
    15  O   -0.000180  -0.001306  -0.011269  -0.087327  -0.000908   0.002147
    16  C    0.105898   0.059063  -0.005967   0.337846   0.186308  -0.108842
    17  C   -0.014720  -0.176033   0.279663  -0.026450   0.028874   0.023720
    18  O   -0.000979   0.001823  -0.058282   0.001626   0.000078  -0.000085
    19  H    0.000009  -0.000084  -0.008431   0.000075   0.000052  -0.000005
    20  C   -0.070444   0.462022  -0.030025   0.041701  -0.008720   0.002062
    21  O   -0.001275  -0.042633  -0.002206  -0.000549  -0.000385   0.000010
    22  H   -0.000677  -0.007654  -0.000160   0.000003   0.000004   0.000000
    23  C    0.008196   0.011908   0.040737   0.117094   0.185297   0.623191
    24  O   -0.000048  -0.000003  -0.000160  -0.002224   0.004962  -0.088610
    25  H    0.000000   0.000000   0.000000  -0.000026  -0.000184  -0.000116
    26  C   -0.092512   0.012820  -0.003576  -0.174408  -0.191979  -0.280240
    27  O   -0.056907   0.002260   0.001114  -0.001678  -0.049492  -0.003340
    28  C    0.403947  -0.075246  -0.051486  -0.024433   0.004531  -0.002780
    29  O   -0.051030  -0.009512  -0.000399  -0.000419  -0.000300   0.000003
    30  H   -0.008140   0.000472   0.000013   0.000002   0.000026   0.000000
    31  H    0.618920   0.005013   0.002854   0.000009   0.007031  -0.000017
    32  H    0.005013   0.584533   0.007678   0.003009   0.000009  -0.000010
    33  H    0.002854   0.007678   0.653831   0.007267   0.004305   0.000076
    34  H    0.000009   0.003009   0.007267   0.597524   0.006613   0.012716
    35  H    0.007031   0.000009   0.004305   0.006613   0.701185   0.021434
    36  H   -0.000017  -0.000010   0.000076   0.012716   0.021434   0.622134
    37  H    0.000192   0.000002   0.000116   0.000153  -0.031692  -0.073172
    38  H    0.000000   0.000000   0.000000   0.000000   0.000000   0.000000
    39  H    0.000000   0.000000   0.000000   0.000000   0.000000   0.000000
    40  H    0.000000   0.000000   0.000001   0.000000   0.000000   0.000000
    41  H    0.000000   0.000000   0.000000  -0.000004   0.000000   0.000000
    42  H    0.000000   0.000000   0.000000   0.000000   0.000000   0.000000
    43  H    0.000000   0.000000   0.000000  -0.000004   0.000000   0.000004
    44  H    0.000000   0.000000  -0.000006   0.000005  -0.000011   0.000183
    45  H    0.000000  -0.000017  -0.000027   0.013475  -0.000002  -0.000054
             37         38         39         40         41         42
     1  O    0.000000   0.237377  -0.000614   0.006122   0.008284  -0.044829
     2  C    0.000142   0.043219  -0.013458  -0.021191   0.024003   0.443284
     3  C    0.000803  -0.020503  -0.003455   0.010923  -0.023449  -0.078002
     4  O    0.000002   0.000220   0.000028  -0.000088  -0.000305   0.001817
     5  H    0.000000  -0.002672   0.000000   0.000000  -0.000011  -0.000903
     6  C    0.016896   0.000501  -0.000315   0.015153  -0.034121  -0.022600
     7  O   -0.002306  -0.000027  -0.000013  -0.000004  -0.000137   0.000008
     8  H    0.002040   0.000000   0.000000   0.000000   0.000003   0.000002
     9  C    0.000015  -0.022068   0.428379   0.564014   0.041890   0.019903
    10  O    0.000000   0.001539  -0.046292  -0.065530   0.004982   0.000913
    11  H    0.000000  -0.000006  -0.010963  -0.004136  -0.000126  -0.000002
    12  C   -0.000330   0.013938  -0.032799  -0.240474   0.155594  -0.143007
    13  O   -0.000140  -0.001774  -0.006950   0.011953  -0.026383   0.013308
    14  C   -0.033184   0.002542   0.001899   0.011376   0.097436   0.062300
    15  O   -0.005812  -0.000016  -0.000228  -0.000228  -0.001110  -0.000400
    16  C    0.182636   0.000364   0.006316  -0.005762   0.007160  -0.001325
    17  C   -0.023603  -0.000062  -0.000605   0.000698   0.003690   0.001503
    18  O    0.000130   0.000000  -0.000881   0.000270   0.000187   0.000086
    19  H   -0.000001   0.000000   0.000068   0.000022   0.000062   0.000009
    20  C   -0.000230   0.000001  -0.001062   0.000186   0.000458   0.000010
    21  O    0.000014   0.000000  -0.000002   0.000000   0.000000   0.000000
    22  H    0.000000   0.000000   0.000000   0.000000   0.000000   0.000000
    23  C    0.586202   0.000004   0.000011  -0.000009   0.000039  -0.000030
    24  O   -0.066554   0.000000   0.000000   0.000000   0.000002   0.000007
    25  H   -0.009424   0.000000   0.000000   0.000000   0.000000   0.000000
    26  C   -0.301368  -0.000005  -0.000089  -0.000304   0.000493   0.000402
    27  O   -0.014626   0.000000   0.000000   0.000000   0.000000   0.000000
    28  C   -0.009182   0.000000   0.000128  -0.000024  -0.000052  -0.000007
    29  O    0.000021   0.000000   0.000000   0.000000   0.000000   0.000000
    30  H    0.000000   0.000000   0.000000   0.000000   0.000000   0.000000
    31  H    0.000192   0.000000   0.000000   0.000000   0.000000   0.000000
    32  H    0.000002   0.000000   0.000000   0.000000   0.000000   0.000000
    33  H    0.000116   0.000000   0.000000   0.000001   0.000000   0.000000
    34  H    0.000153   0.000000   0.000000   0.000000  -0.000004   0.000000
    35  H   -0.031692   0.000000   0.000000   0.000000   0.000000   0.000000
    36  H   -0.073172   0.000000   0.000000   0.000000   0.000000   0.000000
    37  H    0.537422   0.000000   0.000000   0.000000   0.000000   0.000000
    38  H    0.000000   0.389281  -0.000004  -0.000223  -0.000129  -0.010916
    39  H    0.000000  -0.000004   0.595408  -0.053112  -0.006787   0.000176
    40  H    0.000000  -0.000223  -0.053112   0.630405   0.006202   0.004881
    41  H    0.000000  -0.000129  -0.006787   0.006202   0.586419   0.004869
    42  H    0.000000  -0.010916   0.000176   0.004881   0.004869   0.600547
    43  H    0.000000   0.000011   0.000003  -0.000001   0.002271   0.005637
    44  H    0.000008   0.000017   0.000001  -0.000010  -0.000006   0.002645
    45  H   -0.000007   0.000001  -0.000018  -0.000016   0.004231  -0.000018
             43         44         45
     1  O   -0.004440  -0.000777  -0.000046
     2  C    0.149992   0.091712   0.025888
     3  C    0.161177  -0.201302  -0.039289
     4  O   -0.034890   0.003443  -0.000470
     5  H   -0.005887   0.000075   0.000005
     6  C   -0.205219   0.279585  -0.057138
     7  O    0.006587  -0.038411  -0.003116
     8  H   -0.000052  -0.007728  -0.000382
     9  C    0.026589   0.011804   0.008056
    10  O    0.000134   0.000018   0.000069
    11  H    0.000000   0.000000   0.000000
    12  C   -0.034826  -0.004654  -0.016014
    13  O    0.010918   0.015033  -0.051138
    14  C    0.145444   0.067191   0.343379
    15  O   -0.000881  -0.011345  -0.076330
    16  C    0.007924   0.024476   0.016985
    17  C    0.001359   0.007215   0.034647
    18  O    0.000033   0.000100  -0.000977
    19  H    0.000000   0.000019   0.000564
    20  C   -0.000022   0.000317   0.009991
    21  O    0.000000   0.000000   0.000002
    22  H    0.000000   0.000000   0.000000
    23  C    0.000443   0.001958   0.009851
    24  O    0.000100   0.001984   0.000215
    25  H    0.000000  -0.000010  -0.000001
    26  C    0.001167   0.005829   0.026579
    27  O    0.000001   0.000014   0.000104
    28  C   -0.000003   0.000134  -0.002445
    29  O    0.000000   0.000000  -0.000001
    30  H    0.000000   0.000000   0.000000
    31  H    0.000000   0.000000   0.000000
    32  H    0.000000   0.000000  -0.000017
    33  H    0.000000  -0.000006  -0.000027
    34  H   -0.000004   0.000005   0.013475
    35  H    0.000000  -0.000011  -0.000002
    36  H    0.000004   0.000183  -0.000054
    37  H    0.000000   0.000008  -0.000007
    38  H    0.000011   0.000017   0.000001
    39  H    0.000003   0.000001  -0.000018
    40  H   -0.000001  -0.000010  -0.000016
    41  H    0.002271  -0.000006   0.004231
    42  H    0.005637   0.002645  -0.000018
    43  H    0.614270   0.006385   0.001621
    44  H    0.006385   0.586081   0.004874
    45  H    0.001621   0.004874   0.614850
 Mulliken atomic charges:
              1
     1  O   -0.518364
     2  C   -0.130763
     3  C    0.127371
     4  O   -0.496214
     5  H    0.348601
     6  C   -0.145070
     7  O   -0.534479
     8  H    0.431582
     9  C   -0.045618
    10  O   -0.530424
    11  H    0.350062
    12  C    0.132476
    13  O   -0.408861
    14  C    0.198657
    15  O   -0.388473
    16  C   -0.349913
    17  C   -0.056580
    18  O   -0.458061
    19  H    0.392660
    20  C    0.066084
    21  O   -0.513370
    22  H    0.356521
    23  C   -1.078625
    24  O   -0.607108
    25  H    0.430204
    26  C    1.106029
    27  O   -0.209631
    28  C    0.252845
    29  O   -0.556441
    30  H    0.364046
    31  H    0.139375
    32  H    0.154165
    33  H    0.127934
    34  H    0.147766
    35  H    0.115442
    36  H    0.184303
    37  H    0.244836
    38  H    0.369393
    39  H    0.145229
    40  H    0.128906
    41  H    0.144344
    42  H    0.139732
    43  H    0.144155
    44  H    0.153156
    45  H    0.132117
 Sum of Mulliken atomic charges =   0.00000
 Mulliken charges with hydrogens summed into heavy atoms:
              1
     1  O   -0.148971
     2  C    0.008970
     3  C    0.271526
     4  O   -0.147613
     6  C    0.008087
     7  O   -0.102897
     9  C    0.228518
    10  O   -0.180362
    12  C    0.276821
    13  O   -0.408861
    14  C    0.330774
    15  O   -0.388473
    16  C   -0.202147
    17  C    0.071354
    18  O   -0.065401
    20  C    0.220249
    21  O   -0.156849
    23  C   -0.649487
    24  O   -0.176903
    26  C    1.221472
    27  O   -0.209631
    28  C    0.392220
    29  O   -0.192394
 Sum of Mulliken charges with hydrogens summed into heavy atoms =   0.00000
 APT atomic charges:
              1
     1  O   -0.635821
     2  C    0.401273
     3  C    0.406363
     4  O   -0.622466
     5  H    0.253836
     6  C    0.362383
     7  O   -0.745033
     8  H    0.432058
     9  C    0.479865
    10  O   -0.608329
    11  H    0.244272
    12  C    0.445501
    13  O   -0.870166
    14  C    0.926214
    15  O   -0.844758
    16  C    0.360048
    17  C    0.385655
    18  O   -0.666293
    19  H    0.348511
    20  C    0.397761
    21  O   -0.634165
    22  H    0.269750
    23  C   -0.633715
    24  O   -0.710827
    25  H    0.319563
    26  C    0.690655
    27  O   -0.826515
    28  C    0.944396
    29  O   -0.676808
    30  H    0.261617
    31  H   -0.071355
    32  H   -0.035074
    33  H   -0.063031
    34  H   -0.020494
    35  H   -0.100654
    36  H    0.423668
    37  H    0.440045
    38  H    0.265424
    39  H   -0.047066
    40  H   -0.055153
    41  H   -0.040069
    42  H   -0.034843
    43  H   -0.045697
    44  H   -0.020847
    45  H   -0.049679
 Sum of APT charges=   0.00000
[...]
 55,0.00090119,0.00062742,0.00236142,0.00074181,-0.00050551,-0.00023418
 ,0.00014733,0.00029203,0.00009187,-0.00002436,0.00007427,-0.00000674,-
 0.00000213,0.00002973,-0.00001283,0.00003004,0.00002867,0.00002737,-0.
 00003617,-0.00004511,-0.00003826,0.00002428,0.00004328,-0.00001067,-0.
 00000834,0.00000567,0.00000661,0.00000035,-0.00000597,-0.00000215,-0.0
 0000092,0.00000014,0.00001583,-0.00001457,0.00000342,0.00002717,0.0000
 0440,0.00002049,-0.00000610,0.00000434,0.00000435,-0.00001395,0.000012
 50,0.00000038,0.00000846,-0.00000412,-0.00000504,-0.00000959,0.0000089
 4,0.00000895,0.00000901,-0.00000270,-0.00001360,-0.00000107,0.00000058
 ,0.00000251,0.00000202,0.00000005,0.00000038,0.00000328,0.00000195,-0.
 00000218,0.00000276,-0.00000234,0.00000349,0.00000888,-0.00000039,-0.0
 0001017,0.00000848,-0.00000142,0.00000426,-0.00001406,0.00000813,-0.00
 000649,-0.00000742,0.00000910,0.00000271,0.00133935,-0.00006748,-0.000
 59909,0.00054899,0.00011727,-0.00001540,0.00105985,-0.00063485,-0.0001
 5535,0.00021001,-0.00098630,0.00119638,0.38489226,-0.00841760,0.001428
 78,-0.00419313,0.02155904,-0.04572298,0.00023206,0.03391501,-0.0035779
 1,-0.00342579,-0.00198105,0.00369793,-0.00015143,0.00046872,-0.0002082
 1,0.00022037,0.00106977,0.00108982,0.00115484,-0.00049458,-0.00021407,
 -0.00006756,-0.00004008,0.00003118,0.00001123,-0.00266179,0.00094628,-
 0.00015927,0.00044753,0.00002976,0.00017210,-0.00006094,-0.00011839,-0
 .00001407,-0.02489130,-0.00012022,0.00321833,0.00127079,0.00087097,-0.
 00209105,0.00012789,-0.00039381,-0.00002358,-0.00000951,0.00010403,-0.
 00005630,-0.00003866,0.00002198,-0.00002359,0.00001021,0.00001773,0.00
 000652,0.00001117,-0.00001793,-0.00004074,-0.00000254,0.00003023,0.000
 03166,-0.00000918,-0.00000295,-0.00000099,0.00000287,-0.00000005,-0.00
 000140,-0.00000082,0.00000025,-0.00000060,-0.00001759,-0.00000329,-0.0
 0001148,-0.00002556,-0.00002704,-0.00003530,0.00000491,0.00000227,-0.0
 0000811,0.00001788,-0.00000576,0.00001038,-0.00000399,0.00000138,-0.00
 000349,0.00000229,0.00000255,0.00000413,0.00000178,-0.00000145,-0.0000
 0548,-0.00000015,0.00000062,0.00000082,-0.00000027,0.00000033,-0.00000
 057,0.00000084,-0.00000017,0.00000027,-0.00000116,-0.00000095,-0.00000
 361,-0.00000117,-0.00000586,0.00000979,-0.00000321,0.00000176,-0.00000
 179,0.00000234,0.00000146,0.00001901,0.00001057,-0.00000081,-0.0000010
 5,-0.00060469,0.00135800,0.00018907,0.00032129,0.00028269,-0.00007018,
 0.00063175,-0.00058109,0.00019035,-0.00099545,-0.00256461,0.00292251,-
 0.02020027,0.04906955,-0.04008964,-0.00233014,-0.01690526,0.02095438,-
 0.00114177,-0.04397732,0.01135840,0.00020565,0.00048631,-0.00130351,0.
 00019523,0.00051911,-0.00026189,-0.00034418,-0.00016872,0.00085759,0.0
 0013948,0.00039159,-0.00023956,0.00003050,-0.00004118,-0.00000314,0.00
 003851,0.00000602,0.00046729,-0.00133319,0.00050758,-0.00011966,0.0000
 7255,0.00005252,0.00004386,-0.00002480,0.00009861,0.02209729,-0.000342
 84,-0.00142326,-0.00023928,0.00000995,0.00212213,0.00036191,-0.0003171
 3,-0.00031066,-0.00009189,0.00001630,-0.00011388,0.00000232,-0.0000197
 4,-0.00001891,0.00001472,-0.00000557,0.00000355,-0.00004435,0.00001138
 ,0.00000008,0.00007342,0.00000169,-0.00003326,0.00000909,-0.00000070,0
 .00000373,-0.00001016,0.00000488,-0.00000722,0.00000336,-0.00000073,0.
 00000272,-0.00001832,-0.00000085,-0.00001192,-0.00000881,-0.00000603,-
 0.00001112,0.00000332,0.00000062,0.00000028,0.00001321,-0.00000116,0.0
 0000794,-0.00000714,0.00000540,-0.00000845,0.00000515,-0.00000611,0.00
 000862,-0.00000124,0.00000099,-0.00000411,0.00000039,-0.00000002,0.000
 00117,-0.00000150,-0.00000029,-0.00000137,-0.00000379,-0.00000108,0.00
 000299,-0.00000744,-0.00000300,-0.00000838,-0.00000861,0.00000355,0.00
 001308,-0.00000647,-0.00000081,-0.00000541,0.00000572,0.00000179,0.000
 01171,0.00000844,-0.00000166,0.00000005,-0.00299887,0.00066917,0.00306
 071,-0.00012855,-0.00020155,-0.00003684,-0.00056034,0.00025844,0.00021
 939,0.00064850,0.00245821,-0.00285358,-0.01062128,0.00422696,0.0587264
 6,0.00159642,-0.00023470,0.00017538,-0.01102864,0.00127495,-0.00170051
 ,-0.35612304,0.02674385,-0.00904239,-0.01044912,-0.00961995,0.00923095
 ,-0.00002002,-0.00073420,-0.00011912,-0.01179222,0.00175847,-0.0014124
 5,0.00155608,-0.00001307,0.00035509,0.00016165,-0.00005945,0.00005064,
 0.00053868,0.00032866,-0.00016111,0.00002511,-0.00004839,-0.00002071,-
 0.00000570,0.00000117,0.00000313,-0.00066761,-0.00079323,0.00040285,0.
 00036753,0.00031327,0.00006116,-0.00096899,-0.00080231,0.00029680,0.00
 040142,0.00010813,-0.00033910,-0.00009425,0.00005769,-0.00004132,0.000
 01134,-0.00001677,-0.00005003,0.00003318,0.00000710,0.00003065,-0.0000
 2886,-0.00000459,-0.00001230,-0.00002308,0.00000800,0.00000297,0.00001
 266,0.00000720,-0.00000075,-0.00000536,-0.00000109,-0.00000339,0.00003
 867,0.00000971,0.00002518,0.00004129,0.00004643,0.00001105,-0.00001912
 ,-0.00000927,0.00001553,-0.00000555,-0.00000315,-0.00000780,0.00001133
 ,0.00001095,-0.00002567,-0.00000472,-0.00001339,0.00000973,0.00000816,
 0.00000397,-0.00000665,-0.00000104,-0.00000010,0.00000035,0.00000228,0
 .00000141,0.00000132,0.00000535,0.00000124,-0.00000290,0.00001094,-0.0
 0000062,0.00000870,0.00001035,0.00000218,-0.00003997,0.00000961,-0.000
 00056,0.00000786,-0.00003202,-0.00000070,0.00001195,-0.00002127,-0.000
 00495,0.00002309,0.00026153,-0.00034752,-0.00014515,-0.00000588,0.0001
 1814,0.00000976,0.00013328,-0.00031238,-0.00000825,0.00094847,0.000395
 75,-0.00043543,0.00041915,0.00120922,0.00021077,0.38412520,-0.00211368
 ,0.00228931,0.00132343,0.03341774,-0.00530237,0.00100986,0.02708921,-0
 .04215799,-0.00219065,-0.03277246,-0.00765742,0.01044554,-0.00001644,0
 .00009965,-0.00111514,-0.00716103,0.00193448,-0.00201672,-0.00003628,0
 .00057550,0.00134022,0.00000927,-0.00014391,-0.00003038,0.00029681,-0.
 00006906,-0.00000713,-0.00010255,-0.00000840,-0.00007016,0.00001911,0.
 00003337,0.00000465,0.00169695,0.00165813,-0.00072520,-0.00032860,-0.0
 0025508,0.00030822,0.00022557,-0.00034869,-0.00005358,0.00006780,0.000
 02649,-0.00026731,-0.00002466,0.00003068,-0.00000422,0.00000667,-0.000
 02461,-0.00004187,-0.00001113,0.00000726,0.00003903,-0.00000659,-0.000
 00453,-0.00004631,0.00000089,0.00001000,0.00000784,0.00000262,-0.00000
 395,-0.00000427,-0.00000146,0.00000251,-0.00000106,0.00004070,-0.00001
 406,0.00002349,0.00006259,0.00004204,0.00009657,-0.00001575,-0.0000009
 4,0.00001930,-0.00002227,0.00007726,-0.00001204,0.00000362,-0.00003038
 ,0.00000360,-0.00000491,0.00001037,-0.00000824,-0.00000182,-0.00000326
 ,0.00000742,-0.00000026,-0.00000014,-0.00000135,0.00000056,-0.00000066
 ,0.00000030,-0.00000020,-0.00000007,-0.00000100,0.00000052,0.00000084,
 0.00000201,0.00000082,0.00000514,-0.00000540,0.00000357,-0.00000757,0.
 00000116,-0.00001782,0.00001805,-0.00005645,-0.00001326,0.00001379,-0.
 00001658,-0.00005296,0.00025588,0.00037364,-0.00015644,-0.00003001,-0.
 00001013,-0.00034871,-0.00000917,0.00004701,-0.00037339,-0.00067426,0.
 00041793,0.00119904,-0.00516937,-0.00211555,-0.01983894,0.05461473,-0.
 00018187,0.00132308,0.00153714,0.01191845,-0.00400256,0.00140925,-0.01
 033766,-0.00326939,-0.04445933,0.02736091,0.01034839,-0.00563797,0.001
 38709,0.00001448,0.00084118,-0.03495750,0.00189373,-0.00085078,0.00231
 061,0.00095751,0.00269971,-0.00004924,0.00005800,0.00008447,-0.0000418
 8,-0.00013087,0.00007276,-0.00002338,0.00002635,-0.00000224,0.00000303
 ,0.00001646,-0.00000321,-0.00062249,0.00066178,-0.00037633,0.00012871,
 0.00044774,-0.00015498,-0.00075913,-0.00080516,0.00109577,0.00044256,0
 .00003897,-0.00043939,0.00000217,0.00007605,0.00005584,0.00003179,-0.0
 0002317,-0.00004666,0.00001410,0.00002467,-0.00000072,-0.00000183,-0.0
 0003875,0.00000928,-0.00001981,0.00000205,0.00002280,0.00000380,0.0000
 1891,-0.00002251,-0.00000313,-0.00000025,-0.00000083,0.00003204,-0.000
 03943,0.00002341,0.00009110,0.00004145,0.00012779,0.00000298,0.0000177
 3,0.00001599,-0.00001837,0.00009431,0.00001754,0.00000463,-0.00001655,
 -0.00004723,-0.00000391,-0.00001355,0.00002692,0.00000950,0.00000157,-
 0.00001960,-0.00000075,0.00000098,0.00000326,0.00000014,0.00000092,-0.
 00000098,0.00000185,0.00000183,-0.00000061,0.00000334,-0.00000236,0.00
 000386,0.00002406,0.00001259,-0.00005998,0.00000923,-0.00000978,0.0000
 0666,-0.00003431,0.00003378,-0.00002892,-0.00001973,0.00002633,0.00000
 144,0.00001691,0.00029609,0.00007999,-0.00005662,-0.00008058,-0.000007
 29,-0.00007448,0.00006346,-0.00002200,-0.00021599,0.00014778,0.0001660
 4,0.00066458,-0.00183599,-0.00042700,0.00439489,-0.00560526,0.05020878
 ,0.00048915,-0.00005146,-0.00010576,-0.00064837,0.00106051,0.00019688,
 -0.01303377,-0.00391683,-0.00052226,0.00170788,0.00022724,0.00125005,0
 .00040932,0.00003774,0.00027303,-0.35393661,-0.04967171,0.01053673,-0.
 01332930,0.00901821,0.00889004,0.00035519,-0.00010928,-0.00141375,-0.0
 0005744,-0.00002711,0.00001262,0.00004368,0.00003169,0.00001617,-0.000
 01227,-0.00000784,0.00000167,-0.00003118,-0.00001374,0.00007649,0.0011
 8489,-0.00094297,-0.00033196,-0.00639772,-0.00038553,0.00025848,0.0013
 2164,0.00033246,-0.00153166,0.00037413,0.00018884,0.00016394,0.0000606
 6,0.00003681,-0.00005943,0.00003133,-0.00001711,-0.00005975,-0.0000473
 6,-0.00005794,0.00003833,-0.00002996,0.00002532,0.00004218,0.00001362,
 -0.00000795,-0.00003653,-0.00000556,0.00000660,-0.00000156,0.00023037,
 -0.00006468,0.00014896,0.00020592,0.00009297,0.00059011,-0.00004061,-0
 .00000378,0.00005323,-0.00011777,0.00035585,-0.00003687,0.00000970,-0.
 00015279,-0.00000214,-0.00003388,0.00006366,-0.00000635,0.00000765,-0.
 00002110,-0.00000376,-0.00000216,0.00000046,0.00000078,0.00000422,-0.0
 0000404,0.00000057,0.00000414,0.00000190,-0.00000154,-0.00000354,-0.00
 001464,0.00001259,0.00001355,0.00006710,-0.00033595,0.00002225,-0.0000
 3018,0.00000795,-0.00012907,0.00009830,-0.00029600,-0.00005979,0.00008
 339,-0.00005533,-0.00003761,-0.00012259,-0.00009353,0.00001426,-0.0000
 0426,-0.00001343,0.00004245,-0.00003598,-0.00000897,0.00008478,0.00012
 211,-0.00002728,0.00058299,-0.00056237,-0.00022982,0.00020332,-0.00075
 032,-0.00170898,0.38024675,0.00012591,-0.00004426,0.00000286,-0.000778
 14,0.00034600,0.00028480,-0.00608346,0.00069881,0.00032607,0.00116674,
 0.00029967,0.00012474,0.00000546,-0.00010036,0.00003165,-0.05230660,-0
 .04913860,0.00397463,0.03827363,-0.00764788,-0.01180476,0.00073993,0.0
 0186719,0.00139789,-0.00009910,0.00003912,0.00004345,0.00002935,-0.000
 03086,-0.00001177,-0.00000814,-0.00000034,-0.00000276,-0.00002856,-0.0
 0014341,0.00004090,0.00167095,0.00135298,-0.00033549,-0.02916162,-0.00
 390806,0.00291630,0.00071333,0.00100019,-0.00230298,-0.00023269,0.0003
 2044,0.00009526,0.00007951,-0.00005389,-0.00017731,0.00009983,0.000002
 51,0.00007702,-0.00015563,-0.00002483,-0.00005375,-0.00003882,0.000032
 27,0.00001420,0.00001333,0.00002884,-0.00001931,-0.00000572,-0.0000012
 4,-0.00000349,-0.00029903,0.00000402,-0.00011946,-0.00025957,-0.000145
 33,-0.00022662,0.00007962,0.00001680,-0.00003480,0.00021721,-0.0001521
 7,0.00006468,-0.00000550,0.00007457,-0.00009794,0.00001949,-0.00007657
 ,0.00004845,0.00000968,0.00001898,-0.00002376,0.00000134,0.00000201,0.
 00000395,-0.00000292,0.00000654,-0.00000044,0.00000858,0.00000434,-0.0
 0000951,0.00002807,-0.00002251,0.00002831,0.00025558,-0.00000450,-0.00
 008445,0.00000385,0.00003720,0.00002042,0.00013260,-0.00005917,0.00040
 211,0.00004372,-0.00003817,0.00002521,-0.00000313,0.00002781,-0.000020
 51,0.00001649,-0.00002627,-0.00000721,0.00004555,-0.00004463,-0.000020
 25,0.00011725,0.00008796,0.00001568,0.00007238,-0.00012746,-0.00019561
 ,0.00016087,0.00012029,-0.00110342,0.04519683,0.05841451,0.00060708,0.
 00002339,-0.00038830,-0.00105606,0.00124804,0.00102319,-0.03360967,-0.
 00590823,-0.00175202,0.00111417,-0.00039393,0.00287277,0.00002754,-0.0
 0025046,0.00058640,0.00757154,0.00383926,-0.04268135,0.01818303,-0.007
 90704,-0.00416954,0.00132633,-0.00000667,0.00124706,-0.00003665,-0.000
 00918,0.00008622,0.00001076,0.00000115,0.00000386,0.00000248,0.0000009
 2,0.00000653,-0.00028237,-0.00004010,-0.00051928,-0.00142205,-0.000281
 81,0.00052736,0.02322278,0.00586242,-0.00310593,0.00046542,-0.00020761
 ,0.00163947,0.00055745,-0.00014021,-0.00040851,-0.00006561,0.00003732,
 0.00017859,-0.00008363,-0.00001973,-0.00003946,0.00010461,0.00007084,0
 .00005924,0.00003959,-0.00003618,-0.00003041,-0.00001292,-0.00002545,0
 .00003378,0.00000593,-0.00000235,0.00000417,-0.00025614,-0.00002224,-0
 .00013183,-0.00019624,0.00004166,-0.00003603,0.00003172,-0.00001487,0.
 00006105,0.00000418,-0.00004597,0.00003871,-0.00003393,0.00001425,0.00
 012539,0.00000889,0.00003435,-0.00004132,-0.00001675,-0.00000605,0.000
 02467,0.00000073,-0.00000172,-0.00000487,-0.00000044,-0.00000175,-0.00
 000163,-0.00000869,-0.00000622,0.00000999,-0.00004428,0.00003394,-0.00
 003155,-0.00035701,-0.00002440,0.00000201,-0.00004041,-0.00000161,-0.0
 0007126,0.00021812,-0.00002484,0.00013679,0.00007795,-0.00005781,-0.00
 009958,0.00004531,-0.00018306,-0.00007306,0.00001111,-0.00003936,0.000
 00465,0.00001741,-0.00002402,0.00000281,0.00008870,0.00004285,-0.00008
 625,0.00041259,-0.00038691,0.00001504,-0.00130289,-0.00103427,-0.00553
 073,-0.01575436,0.00369433,0.05289896,0.00007312,-0.00007537,0.0001586
 5,-0.00000474,0.00035514,-0.00010478,-0.00034548,-0.00052881,-0.000010
 97,0.00026796,-0.00001449,0.00008076,-0.00003808,-0.00001230,0.0000712
 7,-0.00428192,0.00125231,0.00301036,0.00213093,0.00124123,-0.00160610,
 -0.00022153,-0.00002904,-0.00014472,0.00040536,-0.00011409,0.00020818,
 -0.00003754,0.00014987,0.00005613,0.00000280,0.00000242,0.00002227,0.0
 0014927,-0.00007229,0.00012128,-0.00027769,0.00688589,0.00419732,-0.33
 149826,0.00078909,0.09174005,-0.02486549,-0.00278463,-0.00582611,-0.00
 065791,-0.00071634,0.00532039,0.00031769,0.00026980,-0.00019930,0.0003
 8996,-0.00010665,-0.00025444,-0.00028375,-0.00032604,0.00031342,-0.000
 06079,0.00010065,0.00004092,0.00004120,0.00000241,-0.00004010,-0.00001
 381,0.00000707,-0.00001144,0.00034518,0.00009835,0.00022491,0.00001224
 ,-0.00003064,-0.00003004,-0.00003507,-0.00000866,-0.00002432,0.0006779
 3,0.00000104,-0.00025579,0.00001004,-0.00013730,-0.00032091,-0.0000216
 2,-0.00001758,0.00000521,0.00001219,0.00000401,-0.00001931,0.00000127,
 0.00000174,0.00000061,0.00000197,0.00000398,0.00000297,0.00003226,0.00
 002389,-0.00004346,0.00015956,-0.00025815,0.00018261,0.00206019,0.0001
 5573,-0.00093259,0.00017199,0.00017087,0.00034501,-0.00024529,-0.00005
 490,0.00001505,-0.00016327,0.00003608,0.00004974,0.00000070,0.00000063
 ,-0.00001186,-0.00000471,-0.00001922,-0.00000701,0.00003557,-0.0001820
 1,-0.00010384,0.00009835,0.00045934,0.00098039,0.00003793,-0.00006193,
 -0.00013387,0.00036349,0.00002787,0.00027259,0.00029011,0.00014157,0.0
 0042467,0.35496767,-0.00001933,0.00042829,-0.00035381,-0.00031100,-0.0
 0084857,-0.00016548,-0.00058536,-0.00012880,-0.00099667,0.00032184,0.0
 0001479,0.00053757,0.00011754,-0.00012663,0.00010813,-0.02109478,-0.00
 097639,0.00812636,-0.00076025,0.00201229,0.00055627,-0.00031114,-0.000
 31708,-0.00002781,0.00008816,0.00022338,-0.00009783,-0.00021046,-0.000
 37101,-0.00025283,-0.00000772,0.00003318,-0.00002788,0.00390090,0.0011
 5115,0.00389080,0.03214128,-0.01638201,-0.02041232,0.00072085,-0.03977
 321,0.00226802,-0.00613639,0.00376881,-0.00143591,0.00015461,-0.000200
 43,0.00098501,0.00016761,-0.00019220,-0.00012577,-0.00022769,0.0001411
 0,0.00041210,-0.00013046,-0.00005165,-0.00097013,0.00004464,0.00003633
 ,0.00010874,-0.00003016,0.00006161,-0.00007518,-0.00000130,-0.00000219
 ,0.00000474,0.00019332,-0.00008523,0.00011314,0.00004174,-0.00010930,0
 .00004207,-0.00003466,0.00000630,-0.00000419,-0.00016363,0.00030541,-0
 .00003613,-0.00002042,-0.00003335,-0.00012314,0.00001176,-0.00003439,0
 .00009874,0.00001417,0.00000381,-0.00004371,-0.00000194,0.00000112,0.0
 0000969,-0.00000443,-0.00000232,-0.00000733,-0.00001681,-0.00000953,0.
 00000820,0.00001400,0.00001160,0.00001764,0.00017219,0.00045644,0.0003
 2724,0.00001123,-0.00004396,-0.00000641,-0.00013449,0.00009064,-0.0001
 0791,-0.00002698,0.00006678,0.00005276,-0.00001357,0.00000628,0.000001
 14,0.00003441,0.00001744,0.00002524,-0.00026551,0.00007252,-0.00001110
 ,-0.00116862,0.00020902,-0.00020135,-0.00006183,-0.00012515,0.00004328
 ,0.00029095,0.00009012,0.00033005,-0.00007174,-0.00301252,0.00215934,-
 0.00663055,0.05361752,-0.00008289,-0.00003753,-0.00033097,-0.00009251,
 0.00023529,-0.00000761,0.00100987,-0.00042090,0.00129883,-0.00046324,0
 .00017256,-0.00025629,-0.00007201,-0.00001764,-0.00005766,0.02378356,0
 .00102395,-0.00417735,-0.00202150,-0.00318169,0.00165642,-0.00015241,0
 .00022362,-0.00000451,-0.00001539,-0.00003074,0.00004236,-0.00011762,-
 0.00016830,-0.00014744,0.00001260,0.00002327,-0.00000640,0.00240720,0.
 00040160,0.00280846,0.01173437,-0.01033556,-0.00416188,0.10277845,0.00
 638250,-0.07717486,-0.03208501,-0.00186682,-0.00786221,-0.00780103,-0.
 00138729,0.00261880,0.00012045,0.00007613,-0.00052384,0.00004129,0.000
 16366,0.00031898,-0.00015041,-0.00019784,-0.00055398,0.00001386,0.0000
 9022,0.00009685,0.00001835,0.00005544,-0.00004903,-0.00001010,-0.00000
 033,-0.00000733,0.00009177,0.00000565,0.00012986,0.00002055,-0.0001016
 5,-0.00003429,0.00001517,0.00001527,-0.00001546,-0.00052099,0.00005486
 ,-0.00014019,0.00016863,0.00010603,-0.00011383,-0.00000033,-0.00011282
 ,0.00008208,0.00001895,0.00002642,-0.00004508,0.00000191,0.00000283,0.
 00000686,-0.00000432,0.00000069,0.00000748,0.00002348,0.00001934,-0.00
 005365,0.00028732,-0.00001415,-0.00000924,0.00049178,0.00029312,-0.001
 23270,0.00019454,-0.00003423,-0.00008357,-0.00022972,0.00005028,0.0000
 9479,-0.00002203,0.00008526,0.00005630,-0.00002763,0.00000019,0.000017
 20,0.00001148,0.00002221,0.00000495,-0.00018052,0.00008105,-0.00001445
 ,-0.00087707,0.00005465,-0.00022396,-0.00015930,-0.00000695,0.00010645
 ,-0.00046190,-0.00003096,-0.00037059,0.00006617,0.00302268,-0.00238578
 ,-0.09776382,0.00525661,0.09069751\\0.00426973,-0.01414928,-0.00706303
 ,0.02511864,-0.00813432,-0.00477244,-0.01861857,-0.03219420,0.00556479
 ,0.01277408,0.01439910,0.02946948,-0.00870335,-0.01293746,-0.02111195,
 0.01451166,0.00043659,-0.03251458,0.00504131,-0.01274717,0.01070886,0.
 00202705,0.00404008,0.02423334,0.00253561,0.02458160,-0.00274640,-0.00
 027811,0.01539381,-0.00000453,0.01100758,-0.02884085,0.00386823,-0.029
 55229,0.01774699,0.02137812,0.00622387,-0.00523740,-0.00350472,-0.0431
 7077,0.00898075,0.01481179,0.02346493,0.00524998,0.00237475,-0.0132278
 9,0.01757597,0.00043426,-0.02969893,0.04383662,-0.00391732,0.00409651,
 -0.03077809,0.01316105,0.00986116,0.02614698,-0.01088959,0.00713237,-0
 .01127590,-0.00202809,-0.00331717,0.00224399,-0.00418834,-0.00363643,-
 0.01465101,0.02977601,0.05903839,-0.05028318,-0.04302320,-0.04519965,-
 0.07325304,0.09089775,-0.00097429,0.03391306,-0.00281406,-0.03813495,0
 .08094651,0.01834043,0.00148254,-0.01865740,0.00701440,0.03468362,-0.0
 0108161,-0.02443545,-0.00800832,-0.00111889,0.00815616,-0.00281148,-0.
 00504262,-0.00541993,-0.01959168,-0.00209256,-0.00340025,0.01988206,0.
 00158393,-0.00048293,-0.02546333,-0.00600255,-0.00303523,0.01891205,-0
 .00475879,0.00076288,-0.02287292,0.01942162,-0.00573062,0.06554364,0.0
 1736676,-0.01968230,-0.01498763,-0.01019959,-0.05657028,-0.00224853,0.
 00417741,0.00179924,0.00300982,0.00863251,-0.01821898,-0.02030246,-0.0
 0466726,-0.00329680,0.01852000,-0.00179551,-0.00193066,-0.01751051,0.0
 0154191,-0.00204907,0.02134229,0.00005739,0.00110779,-0.01875389,0.001
 00552,0.00368019,0.01658421,0.00061958,-0.00470875\\\@


 BRING ME INTO THE COMPANY OF THOSE WHO SEEK TRUTH,
 AND DELIVER ME FROM THOSE WHO HAVE FOUND IT.
 Job cpu time:  0 days 13 hours 12 minutes 30.0 seconds.
 File lengths (MBytes):  RWF=   1370 Int=      0 D2E=      0 Chk=     19 Scr=      1
 Normal termination of Gaussian 09 at Thu Jan 21 05:11:41 2016.
Gaussian '09 finished on node006 at Thu Jan 21 05:11:41 EST 2016.
