Gaussian '09 started on node004 at Mon Mar 28 13:28:35 EDT 2016.
 Entering Gaussian System, Link 0=/usr/local/gaussian/g09/g09
 Initial command:
 /usr/local/gaussian/g09/l1.exe /home/srmcgrat/thesis/gaussian/cellobiose/483K/6000ps/1/2dp/gaussian29408/Gau-29444.inp -scrdir=/home/srmcgrat/thesis/gaussian/cellobiose/483K/6000ps/1/2dp/gaussian29408/
 Entering Link 1 = /usr/local/gaussian/g09/l1.exe PID=     29446.
  
 Copyright (c) 1988,1990,1992,1993,1995,1998,2003,2009,2010,
            Gaussian, Inc.  All Rights Reserved.
  
 This is part of the Gaussian(R) 09 program.  It is based on
 the Gaussian(R) 03 system (copyright 2003, Gaussian, Inc.),
 the Gaussian(R) 98 system (copyright 1998, Gaussian, Inc.),
 the Gaussian(R) 94 system (copyright 1995, Gaussian, Inc.),
 the Gaussian 92(TM) system (copyright 1992, Gaussian, Inc.),
 the Gaussian 90(TM) system (copyright 1990, Gaussian, Inc.),
 the Gaussian 88(TM) system (copyright 1988, Gaussian, Inc.),
 the Gaussian 86(TM) system (copyright 1986, Carnegie Mellon
 University), and the Gaussian 82(TM) system (copyright 1983,
 Carnegie Mellon University). Gaussian is a federally registered
 trademark of Gaussian, Inc.
  
 This software contains proprietary and confidential information,
 including trade secrets, belonging to Gaussian, Inc.
  
 This software is provided under written license and may be
 used, copied, transmitted, or stored only in accord with that
 written license.
  
 The following legend is applicable only to US Government
 contracts under FAR:
  
                    RESTRICTED RIGHTS LEGEND
  
 Use, reproduction and disclosure by the US Government is
 subject to restrictions as set forth in subparagraphs (a)
 and (c) of the Commercial Computer Software - Restricted
 Rights clause in FAR 52.227-19.
  
 Gaussian, Inc.
 340 Quinnipiac St., Bldg. 40, Wallingford CT 06492
  
  
 ---------------------------------------------------------------
 Warning -- This program may not be used in any manner that
 competes with the business of Gaussian, Inc. or will provide
 assistance to any competitor of Gaussian, Inc.  The licensee
 of this program is prohibited from giving any competitor of
 Gaussian, Inc. access to this program.  By using this program,
 the user acknowledges that Gaussian, Inc. is engaged in the
 business of creating and licensing software in the field of
 computational chemistry and represents and warrants to the
 licensee that it is not a competitor of Gaussian, Inc. and that
 it will not use this program in any manner prohibited above.
 ---------------------------------------------------------------
  

 Cite this work as:
 Gaussian 09, Revision B.01,
 M. J. Frisch, G. W. Trucks, H. B. Schlegel, G. E. Scuseria, 
 M. A. Robb, J. R. Cheeseman, G. Scalmani, V. Barone, B. Mennucci, 
 G. A. Petersson, H. Nakatsuji, M. Caricato, X. Li, H. P. Hratchian, 
 A. F. Izmaylov, J. Bloino, G. Zheng, J. L. Sonnenberg, M. Hada, 
 M. Ehara, K. Toyota, R. Fukuda, J. Hasegawa, M. Ishida, T. Nakajima, 
 Y. Honda, O. Kitao, H. Nakai, T. Vreven, J. A. Montgomery, Jr., 
 J. E. Peralta, F. Ogliaro, M. Bearpark, J. J. Heyd, E. Brothers, 
 K. N. Kudin, V. N. Staroverov, T. Keith, R. Kobayashi, J. Normand, 
 K. Raghavachari, A. Rendell, J. C. Burant, S. S. Iyengar, J. Tomasi, 
 M. Cossi, N. Rega, J. M. Millam, M. Klene, J. E. Knox, J. B. Cross, 
 V. Bakken, C. Adamo, J. Jaramillo, R. Gomperts, R. E. Stratmann, 
 O. Yazyev, A. J. Austin, R. Cammi, C. Pomelli, J. W. Ochterski, 
 R. L. Martin, K. Morokuma, V. G. Zakrzewski, G. A. Voth, 
 P. Salvador, J. J. Dannenberg, S. Dapprich, A. D. Daniels, 
 O. Farkas, J. B. Foresman, J. V. Ortiz, J. Cioslowski, 
 and D. J. Fox, Gaussian, Inc., Wallingford CT, 2010.
 
 ******************************************
 Gaussian 09:  EM64L-G09RevB.01 12-Aug-2010
                28-Mar-2016 
 ******************************************
 -------------------------------------------------
 # freq=raman b3lyp/6-31+g(2d,p) geom=connectivity
 -------------------------------------------------
 1/10=4,30=1,38=1,57=2/1,3;
 2/12=2,17=6,18=5,40=1/2;
 3/5=1,6=6,7=112,11=2,16=1,25=1,30=1,71=2,74=-5/1,2,3;
 4//1;
 5/5=2,38=5,98=1/2;
 8/6=4,10=90,11=11/1;
 10/13=10,15=4/2;
 11/6=3,8=1,9=11,15=111,16=1/1,2,10;
 10/6=1/2;
 6/7=2,8=2,9=2,10=2,18=1,28=1/1;
 7/8=1,10=1,25=1/1,2,3,16;
 1/10=4,30=1/3;
 99//99;
 -----------------
 483 6000/6000.com
 -----------------
 Symbolic Z-matrix:
 Charge =  0 Multiplicity = 1
 O                     7.508     7.692     12.093 
 C                     7.993     8.089     13.384 
 C                     7.443     9.453     13.77 
 O                     7.861     10.541    12.933 
 H                     7.565     10.494    11.979 
 C                     7.749     9.829     15.211 
 O                     7.015     10.896    15.829 
 H                     7.487     11.159    16.67 
 C                     8.484     5.643     14.125 
 O                     7.987     4.937     12.979 
 H                     8.073     3.954     13.145 
 C                     7.818     6.98      14.408 
 O                     8.218     7.457     15.7 
 C                     7.602     8.663     16.175 
 O                     8.368     8.793     17.382 
 C                     7.803     8.375     18.633 
 C                     8.388     7.015     18.978 
 O                     8.126     6.064     17.936 
 H                     8.272     6.541     17.069 
 C                     7.995     6.538     20.366 
 O                     8.381     5.275     20.927 
 H                     7.956     4.981     21.783 
 C                     7.854     10.787    19.4 
 O                     8.501     11.528    18.356 
 H                     8.289     12.431    18.73 
 C                     8.188     9.343     19.74 
 O                     7.563     8.822     20.922 
 C                     8.17      7.621     21.419 
 O                     7.49      7.318     22.645 
 H                     8.13521   7.14745   23.33509 
 H                     9.21028   7.78646   21.60697 
 H                     6.93278   6.44023   20.2821 
 H                     9.44982   7.14515   19.00035 
 H                     6.73797   8.30919   18.5537 
 H                     9.24737   9.27958   19.8764 
 H                     7.99651   11.34833   20.29972 
 H                     6.80706   10.80961   19.18021 
 H                     8.2517    7.51357   11.51276 
 H                     8.35734   5.0177    14.98399 
 H                     9.5309    5.81383   13.98458 
 H                     6.76722   6.78631   14.46502 
 H                     9.04926   8.22064   13.27498 
 H                     6.37828   9.38921   13.68518 
 H                     8.77912   10.11763   15.23194 
 H                     6.57099   8.49064   16.40348 
 

 GradGradGradGradGradGradGradGradGradGradGradGradGradGradGradGradGradGrad
 Berny optimization.
 Initialization pass.
 Trust Radius=3.00D-01 FncErr=1.00D-07 GrdErr=1.00D-07
 Number of steps in this run=      2 maximum allowed number of steps=      2.
 GradGradGradGradGradGradGradGradGradGradGradGradGradGradGradGradGradGrad

                          Input orientation:                          
 ---------------------------------------------------------------------
 Center     Atomic      Atomic             Coordinates (Angstroms)
 Number     Number       Type             X           Y           Z
 ---------------------------------------------------------------------
      1          8           0        7.508000    7.692000   12.093000
      2          6           0        7.993000    8.089000   13.384000
      3          6           0        7.443000    9.453000   13.770000
      4          8           0        7.861000   10.541000   12.933000
      5          1           0        7.565000   10.494000   11.979000
      6          6           0        7.749000    9.829000   15.211000
      7          8           0        7.015000   10.896000   15.829000
      8          1           0        7.487000   11.159000   16.670000
      9          6           0        8.484000    5.643000   14.125000
     10          8           0        7.987000    4.937000   12.979000
     11          1           0        8.073000    3.954000   13.145000
     12          6           0        7.818000    6.980000   14.408000
     13          8           0        8.218000    7.457000   15.700000
     14          6           0        7.602000    8.663000   16.175000
     15          8           0        8.368000    8.793000   17.382000
     16          6           0        7.803000    8.375000   18.633000
     17          6           0        8.388000    7.015000   18.978000
     18          8           0        8.126000    6.064000   17.936000
     19          1           0        8.272000    6.541000   17.069000
     20          6           0        7.995000    6.538000   20.366000
     21          8           0        8.381000    5.275000   20.927000
     22          1           0        7.956000    4.981000   21.783000
     23          6           0        7.854000   10.787000   19.400000
     24          8           0        8.501000   11.528000   18.356000
     25          1           0        8.289000   12.431000   18.730000
     26          6           0        8.188000    9.343000   19.740000
     27          8           0        7.563000    8.822000   20.922000
     28          6           0        8.170000    7.621000   21.419000
     29          8           0        7.490000    7.318000   22.645000
     30          1           0        8.135207    7.147448   23.335087
     31          1           0        9.210283    7.786461   21.606973
     32          1           0        6.932784    6.440231   20.282100
     33          1           0        9.449820    7.145152   19.000352
     34          1           0        6.737973    8.309194   18.553703
     35          1           0        9.247374    9.279583   19.876400
     36          1           0        7.996514   11.348331   20.299720
     37          1           0        6.807061   10.809612   19.180211
     38          1           0        8.251697    7.513569   11.512761
     39          1           0        8.357338    5.017704   14.983989
     40          1           0        9.530899    5.813834   13.984576
     41          1           0        6.767223    6.786308   14.465020
     42          1           0        9.049260    8.220642   13.274984
     43          1           0        6.378276    9.389210   13.685182
     44          1           0        8.779125   10.117626   15.231937
     45          1           0        6.570988    8.490636   16.403484
 ---------------------------------------------------------------------
                    Distance matrix (angstroms):
                    1          2          3          4          5
     1  O    0.000000
     2  C    1.435101   0.000000
     3  C    2.432627   1.520524   0.000000
     4  O    2.991155   2.496624   1.434934   0.000000
     5  H    2.804897   2.818020   2.075150   0.999970   0.000000
     6  C    3.787714   2.534771   1.520359   2.389304   3.304831
     7  O    4.946348   3.848865   2.550473   3.037854   3.909809
     8  H    5.741904   4.525343   3.364873   3.806175   4.738543
     9  C    3.046309   2.602514   3.965578   5.079311   5.383501
    10  O    2.933336   3.177918   4.616912   5.605605   5.662008
    11  H    3.924102   4.142674   5.570146   6.593820   6.662524
    12  C    2.441776   1.519566   2.581356   3.854633   4.279281
    13  O    3.683717   2.411204   2.882627   4.158701   4.847228
    14  C    4.196951   2.876115   2.536416   3.755600   4.578247
    15  O    5.470404   4.076793   3.786525   4.806886   5.721068
    16  C    6.582182   5.260218   4.994042   6.097944   6.987311
    17  C    6.973948   5.709846   5.827532   7.018008   7.859184
    18  O    6.096963   4.983876   5.413628   6.718911   7.444828
    19  H    5.164211   4.006666   4.477766   5.768485   6.483376
    20  C    8.367282   7.152197   7.232506   8.443427   9.283136
    21  O    9.200194   8.060148   8.340154   9.586720  10.390886
    22  H   10.072057   8.955682   9.190763  10.452039  11.254531
    23  C    7.942984   6.594754   5.800464   6.471681   7.432403
    24  O    7.411215   6.066759   5.143577   5.549117   6.527739
    25  H    8.192549   6.893497   5.846862   6.112323   7.060605
    26  C    7.852694   6.481456   6.017310   6.919348   7.870581
    27  O    8.901189   7.585752   7.180784   8.177279   9.097958
    28  C    9.349736   8.050564   7.898858   8.979648   9.886038
    29  O   10.558641   9.306641   9.128311  10.239547  11.129068
    30  H   11.272730   9.996543   9.863347  10.945081  11.852648
    31  H    9.665525   8.318088   8.204803   9.200318  10.135856
    32  H    8.304165   7.171212   7.193368   8.466827   9.261437
    33  H    7.195917   5.878484   6.058883   7.132243   8.004168
    34  H    6.535637   5.324416   4.968820   6.150972   6.977397
    35  H    8.131861   6.718794   6.369769   7.191940   8.165422
    36  H    8.997648   7.645289   6.821723   7.412066   8.375588
    37  H    7.774277   6.511854   5.613840   6.341182   7.247864
    38  H    0.960000   1.974735   3.083912   3.366758   3.093849
    39  H    4.028778   3.482178   4.688457   5.912673   6.296632
    40  H    3.346295   2.811086   4.201059   5.122546   5.458118
    41  H    2.644902   2.090010   2.837424   4.200137   4.534725
    42  H    2.012966   1.070000   2.084183   2.629254   3.008448
    43  H    2.586859   2.094896   1.070000   2.022589   2.353706
    44  H    4.165614   2.854503   2.089071   2.511435   3.492471
    45  H    4.482865   3.361653   2.936288   4.232302   4.957578
                    6          7          8          9         10
     6  C    0.000000
     7  O    1.434980   0.000000
     8  H    1.991538   0.999617   0.000000
     9  C    4.386595   5.714507   6.156077   0.000000
    10  O    5.382391   6.676598   7.251673   1.434838   0.000000
    11  H    6.236101   7.517618   8.042453   1.995505   1.000620
    12  C    2.960806   4.242535   4.763428   1.520268   2.498890
    13  O    2.466874   3.645624   3.896160   2.417018   3.715858
    14  C    1.520020   2.334646   2.547207   3.755106   4.923994
    15  O    2.483888   2.943642   2.623178   4.532550   5.865177
    16  C    3.718483   3.852116   3.421094   5.315040   6.619775
    17  C    4.745230   5.183000   4.828188   5.044126   6.361359
    18  O    4.662937   5.387207   5.288677   3.850860   5.085401
    19  H    3.812694   4.699327   4.701207   3.085204   4.402515
    20  C    6.120884   6.366862   5.939034   6.323783   7.558507
    21  O    7.335598   7.710460   7.317291   6.812726   7.964935
    22  H    8.169280   8.445284   8.033082   7.704673   8.804165
    23  C    4.298431   3.669856   2.779563   7.394813   8.687314
    24  O    3.652825   2.998891   2.001737   7.248095   8.521596
    25  H    4.409690   3.520668   2.550449   8.204937   9.451203
    26  C    4.576107   4.368485   3.635128   6.730961   8.072444
    27  O    5.802083   5.526340   4.852510   7.559993   8.852358
    28  C    6.602406   6.580862   5.961286   7.563962   8.858383
    29  O    7.850895   7.712689   7.103092   8.739798   9.967333
    30  H    8.563917   8.464505   7.806158   9.338668  10.590401
    31  H    6.871374   6.919066   6.222333   7.816766   9.168302
    32  H    6.153537   6.300058   5.968350   6.399354   7.530362
    33  H    4.945201   5.482215   5.039263   5.192141   6.578180
    34  H    3.808628   3.767269   3.497252   5.456245   6.633934
    35  H    4.930815   4.896707   4.112435   6.847341   8.247466
    36  H    5.316456   4.599491   3.670194   8.421141   9.731300
    37  H    4.195651   3.358767   2.624033   7.420321   8.621766
    38  H    4.392140   5.621404   6.361685   3.221301   2.976345
    39  H    4.854913   6.088537   6.427724   1.070000   2.040501
    40  H    4.560794   5.963226   6.321379   1.070000   2.040501
    41  H    3.283040   4.337212   4.949793   2.090476   2.667592
    42  H    2.832958   4.221226   4.754023   2.772415   3.463858
    43  H    2.097718   2.696626   3.642879   4.319907   4.786320
    44  H    1.070000   2.018536   2.195921   4.618949   5.704566
    45  H    2.144982   2.512559   2.833774   4.118268   5.134248
                   11         12         13         14         15
    11  H    0.000000
    12  C    3.288901   0.000000
    13  O    4.338209   1.434152   0.000000
    14  C    5.619379   2.449782   1.435102   0.000000
    15  O    6.438565   3.526208   2.153258   1.435446   0.000000
    16  C    7.052396   4.449368   3.101199   2.482964   1.434904
    17  C    6.594910   4.605543   3.312031   3.345222   2.389330
    18  O    5.235321   3.657964   2.636021   3.182844   2.795160
    19  H    4.704248   2.734915   1.648069   2.398128   2.275673
    20  C    7.669810   5.976994   4.760866   4.715353   3.758778
    21  O    7.899331   6.761757   5.666500   5.887859   4.994349
    22  H    8.699624   7.642360   6.572831   6.718043   5.836942
    23  C    9.266222   6.278106   4.991132   3.869820   2.883150
    24  O    9.203433   6.061147   4.869031   3.711224   2.906302
    25  H   10.153739   6.972440   5.824656   4.604109   3.880514
    26  C    8.517545   5.843877   4.458643   3.676278   2.427975
    27  O    9.189083   6.774229   5.437052   4.749822   3.630491
    28  C    9.050711   7.049036   5.721552   5.376609   4.208344
    29  O   10.094869   8.250454   6.984435   6.609271   5.535854
    30  H   10.678945   8.934290   7.641808   7.338123   6.180719
    31  H    9.358748   7.376588   5.998792   5.732471   4.424133
    32  H    7.643274   5.964898   4.866338   4.717714   4.000743
    33  H    6.809128   4.876454   3.536517   3.701474   2.550451
    34  H    7.071356   4.485540   3.325708   2.555377   2.064932
    35  H    8.663298   6.102015   4.671588   4.097291   2.689255
    36  H   10.289413   7.336658   6.029008   4.937607   3.896256
    37  H    9.220943   6.201768   5.034146   3.777720   3.120388
    38  H    3.920034   2.975768   4.187756   4.845593   6.008197
    39  H    2.143407   2.115007   2.546027   3.908609   4.472519
    40  H    2.507855   2.115007   2.714107   4.078769   4.665861
    41  H    3.386661   1.070000   2.019841   2.672613   3.885624
    42  H    4.378837   2.083007   2.674854   3.271137   4.202296
    43  H    5.718863   2.898200   3.343278   2.867765   4.240393
    44  H    6.545549   3.383390   2.759144   2.095454   2.558599
    45  H    5.784014   2.796250   2.067835   1.070000   2.068374
                   16         17         18         19         20
    16  C    0.000000
    17  C    1.520148   0.000000
    18  O    2.435336   1.434855   0.000000
    19  H    2.455527   1.970384   1.000267   0.000000
    20  C    2.532730   1.519382   2.479261   3.308617   0.000000
    21  O    3.899554   2.612709   3.103808   4.061872   1.434882
    22  H    4.633049   3.491677   4.000150   4.975465   2.105626
    23  C    2.531528   3.832913   4.952172   4.861769   4.359706
    24  O    3.241195   4.557063   5.492934   5.155480   5.403354
    25  H    4.086165   5.422579   6.418387   6.119748   6.122939
    26  C    1.520098   2.457688   3.743007   3.872015   2.880477
    27  O    2.344553   2.779390   4.103624   4.533349   2.390066
    28  C    2.909467   2.524528   3.815426   4.483225   1.520632
    29  O    4.160692   3.787493   4.914437   5.683927   2.461151
    30  H    4.871023   4.366424   5.506731   6.296852   3.034232
    31  H    3.342355   2.860560   4.197450   4.798411   2.139061
    32  H    2.687031   2.036833   2.658853   3.482480   1.070000
    33  H    2.087939   1.070000   2.013513   2.341448   2.085696
    34  H    1.070000   2.139522   2.710917   2.772019   2.828721
    35  H    2.109628   2.583405   3.919516   4.041372   3.053593
    36  H    3.414104   4.547303   5.790345   5.798610   4.810788
    37  H    2.686759   4.115743   5.080206   4.982400   4.589550
    38  H    7.186181   7.483110   6.585973   5.640753   8.910525
    39  H    4.989390   4.465675   3.140481   2.583599   5.604340
    40  H    5.581492   5.261492   4.201199   3.409878   6.603482
    41  H    4.579174   4.800646   3.796802   3.017489   6.032467
    42  H    5.503210   5.866449   5.218102   4.221361   7.363780
    43  H    5.247796   6.139201   5.672831   4.811311   7.441540
    44  H    3.944211   4.879781   4.916342   4.052682   6.307708
    45  H    2.549896   3.479536   3.264235   2.671598   4.641350
                   21         22         23         24         25
    21  O    0.000000
    22  H    0.999898   0.000000
    23  C    5.743832   6.276841   0.000000
    24  O    6.761986   7.409761   1.434443   0.000000
    25  H    7.486228   8.058176   1.827802   1.000114   0.000000
    26  C    4.242033   4.822314   1.520622   2.605312   3.250545
    27  O    3.640104   3.955888   2.502477   3.845340   4.284486
    28  C    2.406304   2.673554   3.768259   4.975558   5.511895
    29  O    2.814117   2.534121   4.764082   6.094403   6.489098
    30  H    3.060288   2.671065   5.367525   6.641863   7.010449
    31  H    2.730845   3.078120   3.964021   5.007097   5.540530
    32  H    1.967483   2.330027   4.530026   5.661674   6.335428
    33  H    2.889951   3.828601   3.996175   4.530431   5.418559
    34  H    4.187888   4.794666   2.846271   3.675332   4.407499
    35  H    4.229781   4.876534   2.107310   2.814972   3.487713
    36  H    6.117734   6.537941   1.070000   2.016144   1.929181
    37  H    6.013359   6.485930   1.070000   2.016144   2.242261
    38  H    9.677593  10.582020   8.548804   7.937741   8.733330
    39  H    5.948625   6.810945   7.282807   7.333147   8.306276
    40  H    7.057610   7.999333   7.541299   7.267856   8.237005
    41  H    6.829752   7.630541   6.445204   6.374116   7.236602
    42  H    8.226586   9.169342   6.747641   6.087358   6.932698
    43  H    8.566303   9.353939   6.065536   5.558500   6.193024
    44  H    7.486206   8.365339   4.321651   3.438936   4.222365
    45  H    5.837693   6.570768   3.987295   4.094246   4.887813
                   26         27         28         29         30
    26  C    0.000000
    27  O    1.434988   0.000000
    28  C    2.405130   1.434524   0.000000
    29  O    3.609273   2.288247   1.434324   0.000000
    30  H    4.212824   2.992413   1.974045   0.960000   0.000000
    31  H    2.636942   2.062782   1.070000   2.063087   2.133192
    32  H    3.208661   2.545479   2.053645   2.581523   3.356591
    33  H    2.640039   3.172482   2.777450   4.141767   4.529696
    34  H    2.139774   2.559779   3.276314   4.276297   5.115031
    35  H    1.070000   2.034644   2.508236   3.821167   4.212533
    36  H    2.090767   2.637711   3.895624   4.690465   5.184603
    37  H    2.090767   2.748795   4.127593   4.966138   5.695473
    38  H    8.428424   9.524708   9.907158  11.159981  11.828567
    39  H    6.430902   7.096733   6.944178   8.045789   8.621253
    40  H    6.883553   7.813420   7.771007   9.023897   9.547698
    41  H    6.031641   6.816883   7.142992   8.229045   8.982199
    42  H    6.617997   7.813287   8.213261   9.541659  10.158391
    43  H    6.319656   7.355055   8.133190   9.263055  10.061460
    44  H    4.612170   5.961076   6.699547   8.028279   8.654342
    45  H    3.804418   4.637982   5.335589   6.416867   7.231740
                   31         32         33         34         35
    31  H    0.000000
    32  H    2.958821   0.000000
    33  H    2.695019   2.911230   0.000000
    34  H    3.963334   2.553102   2.984727   0.000000
    35  H    2.285973   3.685626   2.316083   2.998045   0.000000
    36  H    3.983599   5.022079   4.633268   3.724092   2.454296
    37  H    4.561150   4.507932   4.521592   2.578639   2.963241
    38  H   10.143297   8.932687   7.591788   7.245636   8.605849
    39  H    7.228931   5.667709   4.674475   5.118506   6.549157
    40  H    7.880037   6.841154   5.190085   5.907976   6.841447
    41  H    7.614220   5.829717   5.281508   4.363183   6.453728
    42  H    8.344847   7.533194   5.839260   5.763225   6.688744
    43  H    8.564102   7.247295   6.536146   4.999832   6.824582
    44  H    6.801567   6.514320   4.846276   4.297774   4.742638
    45  H    5.876907   4.402127   4.103867   2.164313   4.454955
                   36         37         38         39         40
    36  H    0.000000
    37  H    1.719976   0.000000
    38  H    9.590682   8.469986   0.000000
    39  H    8.274300   7.318322   4.276672   0.000000
    40  H    8.536161   7.705305   3.261185   1.734904   0.000000
    41  H    7.507792   6.198516   3.383549   2.434287   2.968911
    42  H    7.761291   6.826561   2.059488   3.695709   2.555039
    43  H    7.085829   5.691814   3.427411   4.971282   4.776189
    44  H    5.273476   4.467298   4.570729   5.123338   4.543534
    45  H    5.037778   3.625410   5.262947   4.155390   4.666632
                   41         42         43         44         45
    41  H    0.000000
    42  H    2.946387   0.000000
    43  H    2.744909   2.944141   0.000000
    44  H    3.966559   2.738829   2.947391   0.000000
    45  H    2.588607   4.000280   2.869449   2.982530   0.000000
 Stoichiometry    C12H22O11
 Framework group  C1[X(C12H22O11)]
 Deg. of freedom   129
 Full point group                 C1      NOp   1
 Largest Abelian subgroup         C1      NOp   1
 Largest concise Abelian subgroup C1      NOp   1
                         Standard orientation:                         
 ---------------------------------------------------------------------
 Center     Atomic      Atomic             Coordinates (Angstroms)
 Number     Number       Type             X           Y           Z
 ---------------------------------------------------------------------
      1          8           0        4.990673   -0.571731   -0.362135
      2          6           0        3.700518   -0.172971    0.123670
      3          6           0        3.363777    1.236643   -0.336313
      4          8           0        4.220501    2.268381    0.174156
      5          1           0        5.179168    2.215007   -0.105217
      6          6           0        1.927089    1.631275   -0.033518
      7          8           0        1.354505    2.764241   -0.702626
      8          1           0        0.510737    3.017451   -0.230213
      9          6           0        2.882967   -2.625193    0.425820
     10          8           0        4.020113   -3.327091   -0.096674
     11          1           0        3.825720   -4.308560   -0.083624
     12          6           0        2.650988   -1.237321   -0.149689
     13          8           0        1.363871   -0.752811    0.256972
     14          6           0        0.935362    0.506415   -0.281772
     15          8           0       -0.284258    0.616872    0.467115
     16          6           0       -1.533362    0.275324   -0.150974
     17          6           0       -1.927838   -1.111889    0.329527
     18          8           0       -0.906435   -2.071567    0.022018
     19          1           0       -0.030271   -1.630897    0.218694
     20          6           0       -3.319244   -1.520398   -0.123940
     21          8           0       -3.922580   -2.790793    0.160610
     22          1           0       -4.776653   -3.029770   -0.301176
     23          6           0       -2.235751    2.698743    0.054750
     24          8           0       -1.186587    3.362535    0.773263
     25          1           0       -1.531255    4.288466    0.618068
     26          6           0       -2.621974    1.245199    0.279099
     27          8           0       -3.803586    0.803175   -0.404714
     28          6           0       -4.346152   -0.422693    0.105901
     29          8           0       -5.564626   -0.642234   -0.618259
     30          1           0       -6.273120   -0.837767   -0.000680
     31          1           0       -4.552447   -0.325161    1.151286
     32          1           0       -3.214644   -1.545926   -1.188509
     33          1           0       -1.970043   -1.055799    1.397222
     34          1           0       -1.432435    0.281995   -1.216183
     35          1           0       -2.783342    1.111699    1.328403
     36          1           0       -3.122873    3.274171    0.218446
     37          1           0       -1.992424    2.788304   -0.983359
     38          1           0        5.549349   -0.818272    0.378607
     39          1           0        2.010371   -3.215317    0.238123
     40          1           0        3.004868   -2.532140    1.484773
     41          1           0        2.611906   -1.355277   -1.212449
     42          1           0        3.789764   -0.118756    1.188563
     43          1           0        3.470270    1.245146   -1.400967
     44          1           0        1.891285    1.847564    1.013782
     45          1           0        0.725063    0.413237   -1.326757
 ---------------------------------------------------------------------
 Rotational constants (GHZ):      0.3970309      0.1471946      0.1102621
 Standard basis: 6-31+G(2d,p) (6D, 7F)
 There are   685 symmetry adapted basis functions of A   symmetry.
 Integral buffers will be    131072 words long.
 Raffenetti 2 integral format.
 Two-electron integral symmetry is turned on.
   685 basis functions,  1028 primitive gaussians,   685 cartesian basis functions
    91 alpha electrons       91 beta electrons
       nuclear repulsion energy      2282.3436754086 Hartrees.
 NAtoms=   45 NActive=   45 NUniq=   45 SFac= 1.00D+00 NAtFMM=   50 NAOKFM=F Big=F
 One-electron integrals computed using PRISM.
 NBasis=   685 RedAO= T  NBF=   685
 NBsUse=   685 1.00D-06 NBFU=   685
 Harris functional with IExCor=  402 diagonalized for initial guess.
 ExpMin= 4.38D-02 ExpMax= 5.48D+03 ExpMxC= 8.25D+02 IAcc=2 IRadAn=         0 AccDes= 0.00D+00
 HarFok:  IExCor=  402 AccDes= 0.00D+00 IRadAn=         0 IDoV= 1
 ScaDFX=  1.000000  1.000000  1.000000  1.000000
 FoFCou: FMM=F IPFlag=           0 FMFlag=      100000 FMFlg1=           0
         NFxFlg=           0 DoJE=T BraDBF=F KetDBF=T FulRan=T
         Omega=  0.000000  0.000000  1.000000  0.000000  0.000000 ICntrl=     500 IOpCl=  0
         NMat0=    1 NMatS0=    1 NMatT0=    0 NMatD0=    1 NMtDS0=    0 NMtDT0=    0
         I1Cent=           4 NGrid=           0.
 Petite list used in FoFCou.
 Initial guess orbital symmetries:
       Occupied  (A) (A) (A) (A) (A) (A) (A) (A) (A) (A) (A) (A)
                 (A) (A) (A) (A) (A) (A) (A) (A) (A) (A) (A) (A)
                 (A) (A) (A) (A) (A) (A) (A) (A) (A) (A) (A) (A)
                 (A) (A) (A) (A) (A) (A) (A) (A) (A) (A) (A) (A)
                 (A) (A) (A) (A) (A) (A) (A) (A) (A) (A) (A) (A)
                 (A) (A) (A) (A) (A) (A) (A) (A) (A) (A) (A) (A)
                 (A) (A) (A) (A) (A) (A) (A) (A) (A) (A) (A) (A)
                 (A) (A) (A) (A) (A) (A) (A)
       Virtual   (A) (A) (A) (A) (A) (A) (A) (A) (A) (A) (A) (A)
                 (A) (A) (A) (A) (A) (A) (A) (A) (A) (A) (A) (A)
                 (A) (A) (A) (A) (A) (A) (A) (A) (A) (A) (A) (A)
                 (A) (A) (A) (A) (A) (A) (A) (A) (A) (A) (A) (A)
                 (A) (A) (A) (A) (A) (A) (A) (A) (A) (A) (A) (A)
                 (A) (A) (A) (A) (A) (A) (A) (A) (A) (A) (A) (A)
                 (A) (A) (A) (A) (A) (A) (A) (A) (A) (A) (A) (A)
                 (A) (A) (A) (A) (A) (A) (A) (A) (A) (A) (A) (A)
                 (A) (A) (A) (A) (A) (A) (A) (A) (A) (A) (A) (A)
                 (A) (A) (A) (A) (A) (A) (A) (A) (A) (A) (A) (A)
                 (A) (A) (A) (A) (A) (A) (A) (A) (A) (A) (A) (A)
                 (A) (A) (A) (A) (A) (A) (A) (A) (A) (A) (A) (A)
                 (A) (A) (A) (A) (A) (A) (A) (A) (A) (A) (A) (A)
                 (A) (A) (A) (A) (A) (A) (A) (A) (A) (A) (A) (A)
                 (A) (A) (A) (A) (A) (A) (A) (A) (A) (A) (A) (A)
                 (A) (A) (A) (A) (A) (A) (A) (A) (A) (A) (A) (A)
                 (A) (A) (A) (A) (A) (A) (A) (A) (A) (A) (A) (A)
                 (A) (A) (A) (A) (A) (A) (A) (A) (A) (A) (A) (A)
                 (A) (A) (A) (A) (A) (A) (A) (A) (A) (A) (A) (A)
                 (A) (A) (A) (A) (A) (A) (A) (A) (A) (A) (A) (A)
                 (A) (A) (A) (A) (A) (A) (A) (A) (A) (A) (A) (A)
                 (A) (A) (A) (A) (A) (A) (A) (A) (A) (A) (A) (A)
                 (A) (A) (A) (A) (A) (A) (A) (A) (A) (A) (A) (A)
                 (A) (A) (A) (A) (A) (A) (A) (A) (A) (A) (A) (A)
                 (A) (A) (A) (A) (A) (A) (A) (A) (A) (A) (A) (A)
                 (A) (A) (A) (A) (A) (A) (A) (A) (A) (A) (A) (A)
                 (A) (A) (A) (A) (A) (A) (A) (A) (A) (A) (A) (A)
                 (A) (A) (A) (A) (A) (A) (A) (A) (A) (A) (A) (A)
                 (A) (A) (A) (A) (A) (A) (A) (A) (A) (A) (A) (A)
                 (A) (A) (A) (A) (A) (A) (A) (A) (A) (A) (A) (A)
                 (A) (A) (A) (A) (A) (A) (A) (A) (A) (A) (A) (A)
                 (A) (A) (A) (A) (A) (A) (A) (A) (A) (A) (A) (A)
                 (A) (A) (A) (A) (A) (A) (A) (A) (A) (A) (A) (A)
                 (A) (A) (A) (A) (A) (A) (A) (A) (A) (A) (A) (A)
                 (A) (A) (A) (A) (A) (A) (A) (A) (A) (A) (A) (A)
                 (A) (A) (A) (A) (A) (A) (A) (A) (A) (A) (A) (A)
                 (A) (A) (A) (A) (A) (A) (A) (A) (A) (A) (A) (A)
                 (A) (A) (A) (A) (A) (A) (A) (A) (A) (A) (A) (A)
                 (A) (A) (A) (A) (A) (A) (A) (A) (A) (A) (A) (A)
                 (A) (A) (A) (A) (A) (A) (A) (A) (A) (A) (A) (A)
                 (A) (A) (A) (A) (A) (A) (A) (A) (A) (A) (A) (A)
                 (A) (A) (A) (A) (A) (A) (A) (A) (A) (A) (A) (A)
                 (A) (A) (A) (A) (A) (A) (A) (A) (A) (A) (A) (A)
                 (A) (A) (A) (A) (A) (A) (A) (A) (A) (A) (A) (A)
                 (A) (A) (A) (A) (A) (A) (A) (A) (A) (A) (A) (A)
                 (A) (A) (A) (A) (A) (A) (A) (A) (A) (A) (A) (A)
                 (A) (A) (A) (A) (A) (A) (A) (A) (A) (A) (A) (A)
                 (A) (A) (A) (A) (A) (A) (A) (A) (A) (A) (A) (A)
                 (A) (A) (A) (A) (A) (A) (A) (A) (A) (A) (A) (A)
                 (A) (A) (A) (A) (A) (A)
 The electronic state of the initial guess is 1-A.
 Requested convergence on RMS density matrix=1.00D-08 within 128 cycles.
 Requested convergence on MAX density matrix=1.00D-06.
 Requested convergence on             energy=1.00D-06.
 No special actions if energy rises.
 SCF Done:  E(RB3LYP) =  -1297.96270972     A.U. after   13 cycles
             Convg  =    0.3097D-08             -V/T =  2.0065
 Range of M.O.s used for correlation:     1   685
 NBasis=   685 NAE=    91 NBE=    91 NFC=     0 NFV=     0
 NROrb=    685 NOA=    91 NOB=    91 NVA=   594 NVB=   594

 **** Warning!!: The largest alpha MO coefficient is  0.64240554D+02

          Differentiating once with respect to electric field.
                with respect to dipole field.
          Electric field/nuclear overlap derivatives assumed to be zero.
          There are     3 degrees of freedom in the 1st order CPHF.  IDoFFX=0.
      3 vectors produced by pass  0 Test12= 1.80D-12 3.33D-08 XBig12= 1.25D+02 1.21D+00.
 AX will form     3 AO Fock derivatives at one time.
      3 vectors produced by pass  1 Test12= 1.80D-12 3.33D-08 XBig12= 2.50D+01 4.21D-01.
      3 vectors produced by pass  2 Test12= 1.80D-12 3.33D-08 XBig12= 1.10D+01 2.70D-01.
      3 vectors produced by pass  3 Test12= 1.80D-12 3.33D-08 XBig12= 1.10D+00 9.52D-02.
      3 vectors produced by pass  4 Test12= 1.80D-12 3.33D-08 XBig12= 3.43D-01 5.82D-02.
      3 vectors produced by pass  5 Test12= 1.80D-12 3.33D-08 XBig12= 5.81D-02 2.06D-02.
      3 vectors produced by pass  6 Test12= 1.80D-12 3.33D-08 XBig12= 1.92D-02 1.89D-02.
      3 vectors produced by pass  7 Test12= 1.80D-12 3.33D-08 XBig12= 2.88D-03 7.30D-03.
      3 vectors produced by pass  8 Test12= 1.80D-12 3.33D-08 XBig12= 5.01D-04 1.78D-03.
      3 vectors produced by pass  9 Test12= 1.80D-12 3.33D-08 XBig12= 1.49D-04 1.01D-03.
      3 vectors produced by pass 10 Test12= 1.80D-12 3.33D-08 XBig12= 3.88D-05 3.88D-04.
      3 vectors produced by pass 11 Test12= 1.80D-12 3.33D-08 XBig12= 8.18D-06 3.16D-04.
      3 vectors produced by pass 12 Test12= 1.80D-12 3.33D-08 XBig12= 1.10D-06 7.99D-05.
      3 vectors produced by pass 13 Test12= 1.80D-12 3.33D-08 XBig12= 3.01D-07 4.60D-05.
      3 vectors produced by pass 14 Test12= 1.80D-12 3.33D-08 XBig12= 6.66D-08 2.04D-05.
      3 vectors produced by pass 15 Test12= 1.80D-12 3.33D-08 XBig12= 1.63D-08 1.01D-05.
      3 vectors produced by pass 16 Test12= 1.80D-12 3.33D-08 XBig12= 2.86D-09 4.34D-06.
      3 vectors produced by pass 17 Test12= 1.80D-12 3.33D-08 XBig12= 2.27D-10 1.32D-06.
      3 vectors produced by pass 18 Test12= 1.80D-12 3.33D-08 XBig12= 2.41D-11 4.09D-07.
      3 vectors produced by pass 19 Test12= 1.80D-12 3.33D-08 XBig12= 7.30D-12 1.58D-07.
      3 vectors produced by pass 20 Test12= 1.80D-12 3.33D-08 XBig12= 7.31D-12 1.72D-07.
      1 vectors produced by pass 21 Test12= 1.80D-12 3.33D-08 XBig12= 2.31D-12 1.23D-07.
 Inverted reduced A of dimension    64 with in-core refinement.
 End of Minotr Frequency-dependent properties file   721 does not exist.
 End of Minotr Frequency-dependent properties file   722 does not exist.
 Symmetrizing basis deriv contribution to polar:
 IMax=3 JMax=2 DiffMx= 0.00D+00
 G2DrvN: will do    16 centers at a time, making    3 passes doing MaxLOS=2.
 Calling FoFCou, ICntrl=  3107 FMM=F I1Cent=   0 AccDes= 0.00D+00.
 Calling FoFCou, ICntrl=  3107 FMM=F I1Cent=   0 AccDes= 0.00D+00.
 Calling FoFCou, ICntrl=  3107 FMM=F I1Cent=   0 AccDes= 0.00D+00.
 FoFDir/FoFCou used for L=0 through L=2.
 End of G2Drv Frequency-dependent properties file   721 does not exist.
 End of G2Drv Frequency-dependent properties file   722 does not exist.
          IDoAtm=111111111111111111111111111111111111111111111
          Differentiating once with respect to electric field.
                with respect to dipole field.
          Differentiating once with respect to nuclear coordinates.
          There are   138 degrees of freedom in the 1st order CPHF.  IDoFFX=5.
 Will reuse    3 saved solutions.
    135 vectors produced by pass  0 Test12= 5.41D-14 1.00D-09 XBig12= 1.42D-01 7.24D-02.
 AX will form    45 AO Fock derivatives at one time.
    135 vectors produced by pass  1 Test12= 5.41D-14 1.00D-09 XBig12= 1.76D-02 1.02D-02.
    132 vectors produced by pass  2 Test12= 5.41D-14 1.00D-09 XBig12= 1.68D-04 1.61D-03.
    132 vectors produced by pass  3 Test12= 5.41D-14 1.00D-09 XBig12= 5.76D-07 7.47D-05.
    132 vectors produced by pass  4 Test12= 5.41D-14 1.00D-09 XBig12= 1.09D-09 3.11D-06.
    132 vectors produced by pass  5 Test12= 5.41D-14 1.00D-09 XBig12= 3.51D-12 1.42D-07.
     81 vectors produced by pass  6 Test12= 5.41D-14 1.00D-09 XBig12= 1.03D-13 2.38D-08.
 Inverted reduced A of dimension   879 with in-core refinement.
 Isotropic polarizability for W=    0.000000      193.23 Bohr**3.
 End of Minotr Frequency-dependent properties file   721 does not exist.
 End of Minotr Frequency-dependent properties file   722 does not exist.

 **********************************************************************

            Population analysis using the SCF density.

 **********************************************************************

 Orbital symmetries:
       Occupied  (A) (A) (A) (A) (A) (A) (A) (A) (A) (A) (A) (A)
                 (A) (A) (A) (A) (A) (A) (A) (A) (A) (A) (A) (A)
                 (A) (A) (A) (A) (A) (A) (A) (A) (A) (A) (A) (A)
                 (A) (A) (A) (A) (A) (A) (A) (A) (A) (A) (A) (A)
                 (A) (A) (A) (A) (A) (A) (A) (A) (A) (A) (A) (A)
                 (A) (A) (A) (A) (A) (A) (A) (A) (A) (A) (A) (A)
                 (A) (A) (A) (A) (A) (A) (A) (A) (A) (A) (A) (A)
                 (A) (A) (A) (A) (A) (A) (A)
       Virtual   (A) (A) (A) (A) (A) (A) (A) (A) (A) (A) (A) (A)
                 (A) (A) (A) (A) (A) (A) (A) (A) (A) (A) (A) (A)
                 (A) (A) (A) (A) (A) (A) (A) (A) (A) (A) (A) (A)
                 (A) (A) (A) (A) (A) (A) (A) (A) (A) (A) (A) (A)
                 (A) (A) (A) (A) (A) (A) (A) (A) (A) (A) (A) (A)
                 (A) (A) (A) (A) (A) (A) (A) (A) (A) (A) (A) (A)
                 (A) (A) (A) (A) (A) (A) (A) (A) (A) (A) (A) (A)
                 (A) (A) (A) (A) (A) (A) (A) (A) (A) (A) (A) (A)
                 (A) (A) (A) (A) (A) (A) (A) (A) (A) (A) (A) (A)
                 (A) (A) (A) (A) (A) (A) (A) (A) (A) (A) (A) (A)
                 (A) (A) (A) (A) (A) (A) (A) (A) (A) (A) (A) (A)
                 (A) (A) (A) (A) (A) (A) (A) (A) (A) (A) (A) (A)
                 (A) (A) (A) (A) (A) (A) (A) (A) (A) (A) (A) (A)
                 (A) (A) (A) (A) (A) (A) (A) (A) (A) (A) (A) (A)
                 (A) (A) (A) (A) (A) (A) (A) (A) (A) (A) (A) (A)
                 (A) (A) (A) (A) (A) (A) (A) (A) (A) (A) (A) (A)
                 (A) (A) (A) (A) (A) (A) (A) (A) (A) (A) (A) (A)
                 (A) (A) (A) (A) (A) (A) (A) (A) (A) (A) (A) (A)
                 (A) (A) (A) (A) (A) (A) (A) (A) (A) (A) (A) (A)
                 (A) (A) (A) (A) (A) (A) (A) (A) (A) (A) (A) (A)
                 (A) (A) (A) (A) (A) (A) (A) (A) (A) (A) (A) (A)
                 (A) (A) (A) (A) (A) (A) (A) (A) (A) (A) (A) (A)
                 (A) (A) (A) (A) (A) (A) (A) (A) (A) (A) (A) (A)
                 (A) (A) (A) (A) (A) (A) (A) (A) (A) (A) (A) (A)
                 (A) (A) (A) (A) (A) (A) (A) (A) (A) (A) (A) (A)
                 (A) (A) (A) (A) (A) (A) (A) (A) (A) (A) (A) (A)
                 (A) (A) (A) (A) (A) (A) (A) (A) (A) (A) (A) (A)
                 (A) (A) (A) (A) (A) (A) (A) (A) (A) (A) (A) (A)
                 (A) (A) (A) (A) (A) (A) (A) (A) (A) (A) (A) (A)
                 (A) (A) (A) (A) (A) (A) (A) (A) (A) (A) (A) (A)
                 (A) (A) (A) (A) (A) (A) (A) (A) (A) (A) (A) (A)
                 (A) (A) (A) (A) (A) (A) (A) (A) (A) (A) (A) (A)
                 (A) (A) (A) (A) (A) (A) (A) (A) (A) (A) (A) (A)
                 (A) (A) (A) (A) (A) (A) (A) (A) (A) (A) (A) (A)
                 (A) (A) (A) (A) (A) (A) (A) (A) (A) (A) (A) (A)
                 (A) (A) (A) (A) (A) (A) (A) (A) (A) (A) (A) (A)
                 (A) (A) (A) (A) (A) (A) (A) (A) (A) (A) (A) (A)
                 (A) (A) (A) (A) (A) (A) (A) (A) (A) (A) (A) (A)
                 (A) (A) (A) (A) (A) (A) (A) (A) (A) (A) (A) (A)
                 (A) (A) (A) (A) (A) (A) (A) (A) (A) (A) (A) (A)
                 (A) (A) (A) (A) (A) (A) (A) (A) (A) (A) (A) (A)
                 (A) (A) (A) (A) (A) (A) (A) (A) (A) (A) (A) (A)
                 (A) (A) (A) (A) (A) (A) (A) (A) (A) (A) (A) (A)
                 (A) (A) (A) (A) (A) (A) (A) (A) (A) (A) (A) (A)
                 (A) (A) (A) (A) (A) (A) (A) (A) (A) (A) (A) (A)
                 (A) (A) (A) (A) (A) (A) (A) (A) (A) (A) (A) (A)
                 (A) (A) (A) (A) (A) (A) (A) (A) (A) (A) (A) (A)
                 (A) (A) (A) (A) (A) (A) (A) (A) (A) (A) (A) (A)
                 (A) (A) (A) (A) (A) (A) (A) (A) (A) (A) (A) (A)
                 (A) (A) (A) (A) (A) (A)
 The electronic state is 1-A.
 Alpha  occ. eigenvalues --  -19.19155 -19.18259 -19.18024 -19.17556 -19.17540
 Alpha  occ. eigenvalues --  -19.16438 -19.16403 -19.15971 -19.15218 -19.14855
 Alpha  occ. eigenvalues --  -19.12776 -10.30676 -10.30484 -10.26075 -10.25496
 Alpha  occ. eigenvalues --  -10.25437 -10.25421 -10.25269 -10.25227 -10.24975
 Alpha  occ. eigenvalues --  -10.24511 -10.24382 -10.24129  -1.10340  -1.08810
 Alpha  occ. eigenvalues --   -1.06008  -1.04836  -1.03715  -1.03195  -1.02708
 Alpha  occ. eigenvalues --   -1.02531  -1.01652  -1.01198  -0.99801  -0.82199
 Alpha  occ. eigenvalues --   -0.80422  -0.79114  -0.78404  -0.71949  -0.70322
 Alpha  occ. eigenvalues --   -0.67587  -0.64740  -0.63496  -0.62724  -0.61212
 Alpha  occ. eigenvalues --   -0.59844  -0.56283  -0.55670  -0.55268  -0.54645
 Alpha  occ. eigenvalues --   -0.54402  -0.53436  -0.53087  -0.51973  -0.51312
 Alpha  occ. eigenvalues --   -0.50595  -0.50242  -0.49678  -0.48758  -0.46985
 Alpha  occ. eigenvalues --   -0.46091  -0.45386  -0.44629  -0.44140  -0.43693
 Alpha  occ. eigenvalues --   -0.42850  -0.41863  -0.41560  -0.40095  -0.39046
 Alpha  occ. eigenvalues --   -0.38956  -0.37624  -0.36672  -0.36100  -0.35421
 Alpha  occ. eigenvalues --   -0.35097  -0.34378  -0.33626  -0.33342  -0.33258
 Alpha  occ. eigenvalues --   -0.32760  -0.31270  -0.30836  -0.30123  -0.29569
 Alpha  occ. eigenvalues --   -0.29230  -0.29006  -0.28456  -0.27261  -0.26952
 Alpha  occ. eigenvalues --   -0.25937
 Alpha virt. eigenvalues --   -0.02318  -0.01670  -0.01618  -0.00086   0.00330
 Alpha virt. eigenvalues --    0.01021   0.01679   0.02074   0.03000   0.03220
 Alpha virt. eigenvalues --    0.03422   0.04436   0.04661   0.05378   0.05823
 Alpha virt. eigenvalues --    0.06190   0.06566   0.07314   0.07752   0.08226
 Alpha virt. eigenvalues --    0.08380   0.08865   0.09239   0.09767   0.10362
 Alpha virt. eigenvalues --    0.10482   0.10889   0.11283   0.11666   0.11785
 Alpha virt. eigenvalues --    0.12278   0.13108   0.13336   0.13410   0.13914
 Alpha virt. eigenvalues --    0.13936   0.14287   0.14440   0.14617   0.14913
 Alpha virt. eigenvalues --    0.15344   0.16644   0.16889   0.17007   0.17100
 Alpha virt. eigenvalues --    0.17472   0.17604   0.17868   0.18192   0.18360
 Alpha virt. eigenvalues --    0.18669   0.19083   0.19465   0.19881   0.20166
 Alpha virt. eigenvalues --    0.20780   0.20893   0.21278   0.21529   0.21968
 Alpha virt. eigenvalues --    0.22059   0.22237   0.22796   0.23008   0.23055
 Alpha virt. eigenvalues --    0.23444   0.23602   0.23822   0.24088   0.24364
 Alpha virt. eigenvalues --    0.24712   0.24961   0.25414   0.25916   0.26112
 Alpha virt. eigenvalues --    0.26313   0.26639   0.26882   0.27231   0.27332
 Alpha virt. eigenvalues --    0.28079   0.28189   0.28437   0.28555   0.28630
 Alpha virt. eigenvalues --    0.28953   0.29640   0.29694   0.30101   0.30494
 Alpha virt. eigenvalues --    0.30705   0.31232   0.31707   0.31865   0.32362
 Alpha virt. eigenvalues --    0.32416   0.32683   0.32898   0.33039   0.33720
 Alpha virt. eigenvalues --    0.34143   0.34685   0.34937   0.35572   0.35810
 Alpha virt. eigenvalues --    0.35913   0.35977   0.36903   0.37279   0.37544
 Alpha virt. eigenvalues --    0.37693   0.38174   0.38305   0.39068   0.39795
 Alpha virt. eigenvalues --    0.39927   0.40595   0.40797   0.41030   0.41234
 Alpha virt. eigenvalues --    0.41873   0.42552   0.43073   0.43219   0.43525
 Alpha virt. eigenvalues --    0.43886   0.44356   0.45101   0.45765   0.46503
 Alpha virt. eigenvalues --    0.46641   0.47200   0.47830   0.48605   0.49478
 Alpha virt. eigenvalues --    0.50735   0.50813   0.54501   0.56769   0.58804
 Alpha virt. eigenvalues --    0.59088   0.60061   0.61195   0.61533   0.62456
 Alpha virt. eigenvalues --    0.63318   0.64100   0.64663   0.65715   0.66820
 Alpha virt. eigenvalues --    0.67674   0.68150   0.68806   0.69571   0.70964
 Alpha virt. eigenvalues --    0.71632   0.72105   0.72846   0.73038   0.74226
 Alpha virt. eigenvalues --    0.75413   0.75466   0.75689   0.77354   0.77647
 Alpha virt. eigenvalues --    0.78472   0.78772   0.79574   0.80754   0.81587
 Alpha virt. eigenvalues --    0.82351   0.82745   0.83999   0.84287   0.85464
 Alpha virt. eigenvalues --    0.87048   0.88121   0.88231   0.89280   0.89836
 Alpha virt. eigenvalues --    0.90482   0.90543   0.90893   0.91279   0.92174
 Alpha virt. eigenvalues --    0.92428   0.92642   0.93509   0.93935   0.94373
 Alpha virt. eigenvalues --    0.94811   0.94858   0.95511   0.95830   0.96045
 Alpha virt. eigenvalues --    0.96770   0.97390   0.97832   0.98655   0.98757
 Alpha virt. eigenvalues --    0.99155   0.99860   1.00678   1.01425   1.02222
 Alpha virt. eigenvalues --    1.03133   1.04022   1.04834   1.05574   1.05754
 Alpha virt. eigenvalues --    1.06475   1.06644   1.07395   1.08046   1.08863
 Alpha virt. eigenvalues --    1.09118   1.09598   1.10372   1.10908   1.11118
 Alpha virt. eigenvalues --    1.11902   1.12232   1.12861   1.13795   1.14700
 Alpha virt. eigenvalues --    1.15243   1.15585   1.15744   1.15997   1.16498
 Alpha virt. eigenvalues --    1.17811   1.18179   1.18363   1.18637   1.19317
 Alpha virt. eigenvalues --    1.20100   1.20689   1.21449   1.21684   1.22252
 Alpha virt. eigenvalues --    1.22555   1.23434   1.23878   1.24782   1.25140
 Alpha virt. eigenvalues --    1.25533   1.26260   1.26961   1.27511   1.28685
 Alpha virt. eigenvalues --    1.29925   1.30267   1.30564   1.30667   1.32100
 Alpha virt. eigenvalues --    1.32837   1.33137   1.33633   1.34345   1.35071
 Alpha virt. eigenvalues --    1.35353   1.36042   1.36250   1.37176   1.37954
 Alpha virt. eigenvalues --    1.38396   1.38943   1.39548   1.39906   1.40307
 Alpha virt. eigenvalues --    1.40912   1.41258   1.42120   1.42755   1.43717
 Alpha virt. eigenvalues --    1.43836   1.46544   1.47298   1.48210   1.48249
 Alpha virt. eigenvalues --    1.48591   1.49620   1.50738   1.51018   1.52961
 Alpha virt. eigenvalues --    1.53306   1.54053   1.54649   1.55616   1.55888
 Alpha virt. eigenvalues --    1.56902   1.57743   1.58802   1.59496   1.60764
 Alpha virt. eigenvalues --    1.61463   1.62331   1.63180   1.63523   1.64733
 Alpha virt. eigenvalues --    1.65180   1.66373   1.67393   1.67904   1.68833
 Alpha virt. eigenvalues --    1.69520   1.70825   1.71894   1.72782   1.74154
 Alpha virt. eigenvalues --    1.74565   1.76683   1.77400   1.78543   1.79660
 Alpha virt. eigenvalues --    1.80356   1.80639   1.81542   1.83159   1.84938
 Alpha virt. eigenvalues --    1.85190   1.86419   1.87017   1.87544   1.88532
 Alpha virt. eigenvalues --    1.89674   1.91472   1.92195   1.93133   1.94503
 Alpha virt. eigenvalues --    1.95154   1.96143   1.98584   1.99224   1.99865
 Alpha virt. eigenvalues --    2.01662   2.02140   2.02433   2.04231   2.05098
 Alpha virt. eigenvalues --    2.05761   2.06948   2.07271   2.08834   2.10564
 Alpha virt. eigenvalues --    2.10938   2.12953   2.14529   2.17328   2.17992
 Alpha virt. eigenvalues --    2.19319   2.20974   2.22412   2.23120   2.24543
 Alpha virt. eigenvalues --    2.26151   2.27760   2.28484   2.28994   2.30619
 Alpha virt. eigenvalues --    2.31028   2.35651   2.36353   2.37573   2.38041
 Alpha virt. eigenvalues --    2.40514   2.41429   2.43768   2.50635   2.51237
 Alpha virt. eigenvalues --    2.51714   2.52033   2.55034   2.57610   2.57894
 Alpha virt. eigenvalues --    2.59314   2.59753   2.62654   2.65153   2.67270
 Alpha virt. eigenvalues --    2.67905   2.69980   2.70173   2.71672   2.71798
 Alpha virt. eigenvalues --    2.73102   2.74376   2.75874   2.76308   2.79124
 Alpha virt. eigenvalues --    2.80564   2.81298   2.82591   2.85092   2.85647
 Alpha virt. eigenvalues --    2.89786   2.90141   2.90824   2.92476   2.92879
 Alpha virt. eigenvalues --    2.94074   2.94573   2.94833   2.96333   2.97089
 Alpha virt. eigenvalues --    2.98065   2.99348   3.00044   3.01068   3.01416
 Alpha virt. eigenvalues --    3.01891   3.02842   3.02937   3.03913   3.04448
 Alpha virt. eigenvalues --    3.04739   3.05203   3.07266   3.07731   3.08717
 Alpha virt. eigenvalues --    3.09425   3.09678   3.10238   3.10963   3.12787
 Alpha virt. eigenvalues --    3.14032   3.15904   3.19393   3.21567   3.22937
 Alpha virt. eigenvalues --    3.23416   3.26226   3.33951   3.66390   3.75587
 Alpha virt. eigenvalues --    3.91614   4.03388   4.04733   4.09351   4.11997
 Alpha virt. eigenvalues --    4.14346   4.14805   4.15452   4.16738   4.16917
 Alpha virt. eigenvalues --    4.18154   4.19049   4.20023   4.21106   4.21820
 Alpha virt. eigenvalues --    4.23447   4.23697   4.24504   4.25062   4.26650
 Alpha virt. eigenvalues --    4.27064   4.28147   4.28837   4.29185   4.29320
 Alpha virt. eigenvalues --    4.30165   4.31143   4.31302   4.31887   4.32230
 Alpha virt. eigenvalues --    4.32725   4.33388   4.34132   4.34821   4.35117
 Alpha virt. eigenvalues --    4.35804   4.36670   4.37319   4.37537   4.38491
 Alpha virt. eigenvalues --    4.39261   4.40742   4.41921   4.42900   4.43496
 Alpha virt. eigenvalues --    4.44433   4.46251   4.47794   4.48660   4.50479
 Alpha virt. eigenvalues --    4.51671   4.52408   4.52497   4.52979   4.54813
 Alpha virt. eigenvalues --    4.55921   4.56620   4.57633   4.59122   4.60083
 Alpha virt. eigenvalues --    4.61999   4.62666   4.63130   4.63638   4.63765
 Alpha virt. eigenvalues --    4.64602   4.65080   4.65520   4.66565   4.68322
 Alpha virt. eigenvalues --    4.68575   4.69179   4.70009   4.71308   4.71805
 Alpha virt. eigenvalues --    4.71987   4.72777   4.73501   4.73651   4.74319
 Alpha virt. eigenvalues --    4.75088   4.75407   4.76307   4.76540   4.77523
 Alpha virt. eigenvalues --    4.78445   4.78812   4.79176   4.79895   4.80596
 Alpha virt. eigenvalues --    4.81541   4.81819   4.82703   4.84413   4.85364
 Alpha virt. eigenvalues --    4.85779   4.87525   4.88478   4.90091   4.90486
 Alpha virt. eigenvalues --    4.91283   4.92478   4.93885   4.95250   4.96430
 Alpha virt. eigenvalues --    4.97739   4.99860   5.00633   5.02319   5.03791
 Alpha virt. eigenvalues --    5.06455   5.07570   5.08846   5.11478   5.14272
 Alpha virt. eigenvalues --    5.19656   5.21775   5.25970   5.28728   5.39310
 Alpha virt. eigenvalues --    5.41054   5.81213   6.03437   6.19435   6.49437
 Alpha virt. eigenvalues --    6.71433   6.72553   6.75026   6.79201   6.83635
 Alpha virt. eigenvalues --    6.87001   6.89797   6.92727   6.95562   7.03837
 Alpha virt. eigenvalues --    7.08035  11.80850  11.93415  12.05113  12.14577
 Alpha virt. eigenvalues --   12.25867  12.36191  12.66938  12.76634  12.83996
 Alpha virt. eigenvalues --   13.02478  13.11709  13.14855  13.16157  13.22660
 Alpha virt. eigenvalues --   13.25899  13.28416  13.38539  13.39496  13.49287
 Alpha virt. eigenvalues --   13.53588  13.56366  13.67679  13.92087
          Condensed to atoms (all electrons):
              1          2          3          4          5          6
     1  O    8.169225   0.347317  -0.137177   0.004905   0.008778  -0.007991
     2  C    0.347317   6.554521  -0.013620  -0.061360  -0.043604  -0.427028
     3  C   -0.137177  -0.013620   6.649465   0.101448   0.031904  -0.145891
     4  O    0.004905  -0.061360   0.101448   8.212322   0.234678   0.079699
     5  H    0.008778  -0.043604   0.031904   0.234678   0.422545   0.000392
     6  C   -0.007991  -0.427028  -0.145891   0.079699   0.000392   7.201202
     7  O    0.000189  -0.007005  -0.087644   0.001443  -0.000542   0.296692
     8  H    0.000005   0.000262   0.027712  -0.000347   0.000014   0.016455
     9  C    0.008070  -0.090694  -0.254231   0.004983  -0.001292   0.339348
    10  O   -0.013091   0.043905   0.014660  -0.000021  -0.000016  -0.002001
    11  H    0.001960  -0.014338  -0.001211  -0.000001   0.000000   0.000398
    12  C   -0.123476  -0.875269  -0.215606   0.059356  -0.000282  -0.002001
    13  O   -0.000631  -0.044281  -0.069721  -0.002258   0.000036   0.050808
    14  C    0.015738   0.146126  -0.191471  -0.046274   0.007780  -1.320536
    15  O   -0.000226   0.001028   0.004387   0.000618  -0.000021  -0.012104
    16  C    0.001336   0.128247  -0.061190  -0.004837   0.000395  -0.074495
    17  C   -0.000250  -0.075924   0.045704   0.000242  -0.000001  -0.026921
    18  O    0.000034   0.013786  -0.004456  -0.000007   0.000000  -0.000339
    19  H   -0.000036  -0.004038   0.005385   0.000005   0.000000   0.002948
    20  C    0.000037   0.017713  -0.013315  -0.000041   0.000001   0.055365
    21  O    0.000000   0.000010  -0.000019   0.000000   0.000000  -0.000314
    22  H    0.000000  -0.000002   0.000002   0.000000   0.000000  -0.000023
    23  C    0.000095   0.012718  -0.045925  -0.000353   0.000015  -0.074416
    24  O    0.000002  -0.000046  -0.003012   0.000000  -0.000002  -0.005438
    25  H    0.000000   0.000081   0.000287   0.000002   0.000000  -0.002631
    26  C   -0.000127  -0.010718   0.008157   0.000371  -0.000009   0.024583
    27  O    0.000000  -0.000099   0.000642   0.000000   0.000000   0.003243
    28  C   -0.000001  -0.002078   0.003445   0.000003   0.000000  -0.011134
    29  O    0.000000   0.000000   0.000009   0.000000   0.000000  -0.000214
    30  H    0.000000   0.000000   0.000000   0.000000   0.000000   0.000006
    31  H    0.000000   0.000008   0.000008   0.000000   0.000000  -0.000145
    32  H    0.000000   0.000255   0.000010   0.000000   0.000000   0.000729
    33  H    0.000000   0.000662   0.000623   0.000000   0.000000   0.006629
    34  H    0.000000  -0.003188   0.005309   0.000005   0.000000   0.000360
    35  H    0.000000  -0.000311   0.000196   0.000000   0.000000  -0.007190
    36  H    0.000000   0.000023   0.000110   0.000000   0.000000   0.001960
    37  H    0.000000  -0.000133  -0.000246  -0.000001   0.000000  -0.003611
    38  H    0.263271   0.031471  -0.003494  -0.001485  -0.000614  -0.003728
    39  H   -0.000085  -0.013825   0.003779   0.000012   0.000000  -0.002158
    40  H    0.001013   0.010690  -0.005732  -0.000025   0.000000   0.008193
    41  H    0.004718   0.075470  -0.058976  -0.000024   0.000007  -0.010021
    42  H   -0.018650   0.342019  -0.073287   0.001257  -0.000330   0.019899
    43  H    0.000070  -0.086971   0.299356  -0.025317  -0.005664  -0.063803
    44  H   -0.000210  -0.013712  -0.111008  -0.001323  -0.000100   0.395075
    45  H   -0.000021  -0.007615  -0.029977  -0.000147   0.000006  -0.001467
              7          8          9         10         11         12
     1  O    0.000189   0.000005   0.008070  -0.013091   0.001960  -0.123476
     2  C   -0.007005   0.000262  -0.090694   0.043905  -0.014338  -0.875269
     3  C   -0.087644   0.027712  -0.254231   0.014660  -0.001211  -0.215606
     4  O    0.001443  -0.000347   0.004983  -0.000021  -0.000001   0.059356
     5  H   -0.000542   0.000014  -0.001292  -0.000016   0.000000  -0.000282
     6  C    0.296692   0.016455   0.339348  -0.002001   0.000398  -0.002001
     7  O    8.200298   0.251011   0.000223  -0.000001   0.000000   0.010596
     8  H    0.251011   0.355753  -0.000032   0.000000   0.000000  -0.003249
     9  C    0.000223  -0.000032   7.296211   0.069510   0.002678  -1.512447
    10  O   -0.000001   0.000000   0.069510   8.255583   0.227017  -0.004309
    11  H    0.000000   0.000000   0.002678   0.227017   0.438450   0.018253
    12  C    0.010596  -0.003249  -1.512447  -0.004309   0.018253   9.230732
    13  O    0.001261  -0.000786   0.003479  -0.001910  -0.000443   0.005426
    14  C   -0.084457  -0.063792  -0.576189   0.003067  -0.002589  -0.444384
    15  O    0.006147   0.007553  -0.007309   0.000057   0.000003  -0.001262
    16  C    0.036615   0.021289  -0.105449  -0.000812  -0.000095  -0.033575
    17  C   -0.007649   0.001874  -0.010507  -0.000144  -0.000002  -0.063343
    18  O    0.000053  -0.000041  -0.005009  -0.000172  -0.000018  -0.012395
    19  H   -0.000128   0.000000  -0.002383  -0.000003  -0.000005  -0.004294
    20  C    0.003029   0.000286   0.004413   0.000063   0.000018  -0.027491
    21  O   -0.000002   0.000000   0.000291   0.000000   0.000000  -0.000160
    22  H    0.000000   0.000000  -0.000002   0.000000   0.000000   0.000002
    23  C    0.045747  -0.002089  -0.002712  -0.000017   0.000000  -0.016194
    24  O   -0.031722   0.017441   0.000131   0.000000   0.000000   0.000844
    25  H    0.001614  -0.002366  -0.000009   0.000000   0.000000  -0.000078
    26  C   -0.046219  -0.015081   0.010425   0.000034  -0.000002   0.028062
    27  O   -0.000106  -0.000032   0.000150   0.000000   0.000000   0.000081
    28  C   -0.001054   0.000171   0.000673   0.000003   0.000000   0.006169
    29  O   -0.000001   0.000000  -0.000011   0.000000   0.000000   0.000040
    30  H    0.000000   0.000000   0.000000   0.000000   0.000000   0.000000
    31  H    0.000000   0.000000  -0.000001   0.000000   0.000000   0.000067
    32  H    0.000002   0.000000  -0.000179   0.000000   0.000000   0.000609
    33  H   -0.000004   0.000000  -0.001084   0.000000   0.000000  -0.000677
    34  H   -0.001793  -0.000021   0.000066   0.000000   0.000000  -0.000552
    35  H   -0.000085  -0.000002   0.000114   0.000000   0.000000   0.000385
    36  H   -0.000500   0.000374  -0.000004   0.000000   0.000000  -0.000027
    37  H    0.001660  -0.000959   0.000003   0.000000   0.000000   0.000250
    38  H   -0.000019   0.000000   0.001904  -0.000260  -0.000052  -0.026094
    39  H   -0.000009   0.000000   0.394076  -0.013264  -0.013249  -0.016087
    40  H    0.000005   0.000000   0.619302  -0.056127   0.001169  -0.265547
    41  H    0.000069   0.000000   0.049847   0.001229  -0.000342   0.094776
    42  H    0.000378   0.000003  -0.032211  -0.001777  -0.000019  -0.065710
    43  H    0.003532  -0.000082   0.004862  -0.000093   0.000000   0.065668
    44  H   -0.031163  -0.006850   0.012496   0.000017   0.000000   0.066163
    45  H   -0.003445  -0.000082   0.018757   0.000068   0.000000   0.056664
             13         14         15         16         17         18
     1  O   -0.000631   0.015738  -0.000226   0.001336  -0.000250   0.000034
     2  C   -0.044281   0.146126   0.001028   0.128247  -0.075924   0.013786
     3  C   -0.069721  -0.191471   0.004387  -0.061190   0.045704  -0.004456
     4  O   -0.002258  -0.046274   0.000618  -0.004837   0.000242  -0.000007
     5  H    0.000036   0.007780  -0.000021   0.000395  -0.000001   0.000000
     6  C    0.050808  -1.320536  -0.012104  -0.074495  -0.026921  -0.000339
     7  O    0.001261  -0.084457   0.006147   0.036615  -0.007649   0.000053
     8  H   -0.000786  -0.063792   0.007553   0.021289   0.001874  -0.000041
     9  C    0.003479  -0.576189  -0.007309  -0.105449  -0.010507  -0.005009
    10  O   -0.001910   0.003067   0.000057  -0.000812  -0.000144  -0.000172
    11  H   -0.000443  -0.002589   0.000003  -0.000095  -0.000002  -0.000018
    12  C    0.005426  -0.444384  -0.001262  -0.033575  -0.063343  -0.012395
    13  O    8.214108   0.187680  -0.034843  -0.016600   0.024587  -0.019792
    14  C    0.187680   8.175130   0.211066  -0.606838   0.291126  -0.015745
    15  O   -0.034843   0.211066   8.098347   0.135352  -0.028454  -0.002850
    16  C   -0.016600  -0.606838   0.135352   9.767475  -1.321869  -0.016716
    17  C    0.024587   0.291126  -0.028454  -1.321869   7.845481   0.202085
    18  O   -0.019792  -0.015745  -0.002850  -0.016716   0.202085   8.253072
    19  H    0.020555   0.006005   0.009726  -0.052533   0.031973   0.230384
    20  C   -0.009592  -0.273198   0.004589  -0.878983  -0.825721  -0.031674
    21  O   -0.000049   0.002790   0.000486   0.037967  -0.133891   0.008165
    22  H    0.000001   0.000043  -0.000015  -0.006762   0.046642  -0.000503
    23  C    0.004010   0.006963  -0.013531   0.199292  -0.420454   0.012460
    24  O   -0.001698   0.053208  -0.035788   0.040805  -0.006521   0.000051
    25  H    0.000016  -0.006185   0.002561  -0.022976  -0.001145  -0.000001
    26  C   -0.037149  -0.356924  -0.047132  -1.899187  -0.365474   0.043626
    27  O    0.000225   0.018601   0.001363   0.040656   0.039623  -0.002733
    28  C    0.004017   0.075607   0.011407   0.635997   0.370056  -0.021482
    29  O    0.000031  -0.000169   0.000002  -0.017919   0.008378   0.000244
    30  H    0.000000  -0.000032   0.000000  -0.003553   0.005155  -0.000012
    31  H    0.000033  -0.000012   0.000769   0.031577  -0.020145   0.000336
    32  H    0.000195  -0.015394   0.001434   0.079205  -0.261312   0.006497
    33  H   -0.001142  -0.017410  -0.002916  -0.095862   0.201815  -0.031088
    34  H   -0.005217  -0.007021  -0.015093   0.089532   0.046238  -0.002952
    35  H   -0.000500   0.043099   0.002053  -0.083574   0.019720   0.000012
    36  H    0.000030   0.002373  -0.000062   0.031792   0.004924   0.000015
    37  H    0.000146   0.008905   0.005164   0.023579  -0.000170   0.000030
    38  H   -0.000541  -0.001423  -0.000003   0.000068  -0.000036  -0.000001
    39  H   -0.002385  -0.004559  -0.000212   0.002089   0.001005  -0.000009
    40  H   -0.005693  -0.000561  -0.000744  -0.004822   0.002299   0.000069
    41  H   -0.029187   0.117142  -0.003218  -0.004469   0.007089  -0.000226
    42  H    0.005830   0.076359  -0.000685  -0.003417   0.001842   0.000054
    43  H    0.004055   0.049039   0.000184  -0.006129   0.001497   0.000034
    44  H    0.009332  -0.034907  -0.008553  -0.026313   0.002291   0.000119
    45  H   -0.035676   0.291405  -0.032631  -0.029803   0.010050  -0.002046
             19         20         21         22         23         24
     1  O   -0.000036   0.000037   0.000000   0.000000   0.000095   0.000002
     2  C   -0.004038   0.017713   0.000010  -0.000002   0.012718  -0.000046
     3  C    0.005385  -0.013315  -0.000019   0.000002  -0.045925  -0.003012
     4  O    0.000005  -0.000041   0.000000   0.000000  -0.000353   0.000000
     5  H    0.000000   0.000001   0.000000   0.000000   0.000015  -0.000002
     6  C    0.002948   0.055365  -0.000314  -0.000023  -0.074416  -0.005438
     7  O   -0.000128   0.003029  -0.000002   0.000000   0.045747  -0.031722
     8  H    0.000000   0.000286   0.000000   0.000000  -0.002089   0.017441
     9  C   -0.002383   0.004413   0.000291  -0.000002  -0.002712   0.000131
    10  O   -0.000003   0.000063   0.000000   0.000000  -0.000017   0.000000
    11  H   -0.000005   0.000018   0.000000   0.000000   0.000000   0.000000
    12  C   -0.004294  -0.027491  -0.000160   0.000002  -0.016194   0.000844
    13  O    0.020555  -0.009592  -0.000049   0.000001   0.004010  -0.001698
    14  C    0.006005  -0.273198   0.002790   0.000043   0.006963   0.053208
    15  O    0.009726   0.004589   0.000486  -0.000015  -0.013531  -0.035788
    16  C   -0.052533  -0.878983   0.037967  -0.006762   0.199292   0.040805
    17  C    0.031973  -0.825721  -0.133891   0.046642  -0.420454  -0.006521
    18  O    0.230384  -0.031674   0.008165  -0.000503   0.012460   0.000051
    19  H    0.349189  -0.007478  -0.000246   0.000007  -0.004043   0.000031
    20  C   -0.007478   7.683175   0.180672  -0.032998   0.213394  -0.004269
    21  O   -0.000246   0.180672   8.252408   0.247017  -0.001003  -0.000010
    22  H    0.000007  -0.032998   0.247017   0.413151   0.000005   0.000000
    23  C   -0.004043   0.213394  -0.001003   0.000005   6.871555  -0.098756
    24  O    0.000031  -0.004269  -0.000010   0.000000  -0.098756   8.300665
    25  H    0.000000   0.001444   0.000000   0.000000   0.024787   0.239446
    26  C   -0.003173   1.005144  -0.017860   0.001515  -1.048912   0.128436
    27  O    0.000077  -0.148202   0.001688  -0.000619  -0.047453   0.001883
    28  C    0.003673  -1.084404   0.030494  -0.021530  -0.277202   0.006190
    29  O    0.000000  -0.063570   0.010164   0.010356   0.006452  -0.000004
    30  H    0.000000  -0.020866  -0.002442  -0.001373  -0.001084  -0.000001
    31  H   -0.000001  -0.132169   0.006074   0.000115   0.004914   0.000001
    32  H   -0.000168   0.383927  -0.036619  -0.005600   0.010646   0.000004
    33  H   -0.002921   0.078487  -0.003200  -0.000163   0.021287  -0.000027
    34  H    0.000304   0.032793  -0.000456   0.000004  -0.040343  -0.000008
    35  H    0.000035  -0.057585   0.000242   0.000003   0.073250  -0.001554
    36  H    0.000000  -0.002591  -0.000005   0.000000   0.403762  -0.032184
    37  H    0.000000  -0.003335   0.000007   0.000000   0.594994  -0.066943
    38  H    0.000000   0.000001   0.000000   0.000000  -0.000003   0.000000
    39  H    0.001235  -0.001098   0.000001   0.000000  -0.000007   0.000000
    40  H   -0.000042   0.000165   0.000000   0.000000  -0.000010   0.000000
    41  H   -0.000422   0.000581   0.000000   0.000000   0.000143  -0.000001
    42  H   -0.000039   0.000008   0.000000   0.000000   0.000177   0.000006
    43  H    0.000000  -0.000032   0.000000   0.000000   0.000349   0.000026
    44  H   -0.000024   0.000388   0.000000   0.000000   0.001574   0.000822
    45  H   -0.000344   0.007686   0.000006   0.000000  -0.003988   0.000013
             25         26         27         28         29         30
     1  O    0.000000  -0.000127   0.000000  -0.000001   0.000000   0.000000
     2  C    0.000081  -0.010718  -0.000099  -0.002078   0.000000   0.000000
     3  C    0.000287   0.008157   0.000642   0.003445   0.000009   0.000000
     4  O    0.000002   0.000371   0.000000   0.000003   0.000000   0.000000
     5  H    0.000000  -0.000009   0.000000   0.000000   0.000000   0.000000
     6  C   -0.002631   0.024583   0.003243  -0.011134  -0.000214   0.000006
     7  O    0.001614  -0.046219  -0.000106  -0.001054  -0.000001   0.000000
     8  H   -0.002366  -0.015081  -0.000032   0.000171   0.000000   0.000000
     9  C   -0.000009   0.010425   0.000150   0.000673  -0.000011   0.000000
    10  O    0.000000   0.000034   0.000000   0.000003   0.000000   0.000000
    11  H    0.000000  -0.000002   0.000000   0.000000   0.000000   0.000000
    12  C   -0.000078   0.028062   0.000081   0.006169   0.000040   0.000000
    13  O    0.000016  -0.037149   0.000225   0.004017   0.000031   0.000000
    14  C   -0.006185  -0.356924   0.018601   0.075607  -0.000169  -0.000032
    15  O    0.002561  -0.047132   0.001363   0.011407   0.000002   0.000000
    16  C   -0.022976  -1.899187   0.040656   0.635997  -0.017919  -0.003553
    17  C   -0.001145  -0.365474   0.039623   0.370056   0.008378   0.005155
    18  O   -0.000001   0.043626  -0.002733  -0.021482   0.000244  -0.000012
    19  H    0.000000  -0.003173   0.000077   0.003673   0.000000   0.000000
    20  C    0.001444   1.005144  -0.148202  -1.084404  -0.063570  -0.020866
    21  O    0.000000  -0.017860   0.001688   0.030494   0.010164  -0.002442
    22  H    0.000000   0.001515  -0.000619  -0.021530   0.010356  -0.001373
    23  C    0.024787  -1.048912  -0.047453  -0.277202   0.006452  -0.001084
    24  O    0.239446   0.128436   0.001883   0.006190  -0.000004  -0.000001
    25  H    0.427646   0.007569  -0.000564  -0.002220  -0.000001   0.000000
    26  C    0.007569   9.143636   0.095333  -0.905103  -0.020070   0.002336
    27  O   -0.000564   0.095333   8.125997   0.222792  -0.025056   0.003817
    28  C   -0.002220  -0.905103   0.222792   5.991708   0.267453   0.008627
    29  O   -0.000001  -0.020070  -0.025056   0.267453   8.141222   0.259793
    30  H    0.000000   0.002336   0.003817   0.008627   0.259793   0.419153
    31  H    0.000000  -0.000160  -0.042527   0.440237  -0.025333  -0.009030
    32  H    0.000000   0.025628  -0.001843   0.040988  -0.003032   0.000084
    33  H    0.000001   0.118281   0.000313  -0.050380  -0.000013   0.000015
    34  H    0.000003   0.151297   0.003460   0.003483  -0.000392   0.000002
    35  H   -0.000196   0.223275  -0.028414   0.061446  -0.000193   0.000005
    36  H   -0.014778  -0.079459   0.000979   0.004076  -0.000078   0.000000
    37  H   -0.001894  -0.269099   0.002286   0.004539  -0.000013   0.000000
    38  H    0.000000   0.000002   0.000000   0.000000   0.000000   0.000000
    39  H    0.000000   0.000326   0.000000   0.000059   0.000000   0.000000
    40  H    0.000000  -0.000161   0.000000   0.000000   0.000000   0.000000
    41  H    0.000000  -0.000334   0.000001  -0.000018   0.000000   0.000000
    42  H    0.000000  -0.000613   0.000000  -0.000003   0.000000   0.000000
    43  H    0.000000  -0.000846   0.000000   0.000000   0.000000   0.000000
    44  H   -0.000001  -0.002654   0.000000  -0.000011   0.000000   0.000000
    45  H    0.000005   0.028307   0.000237  -0.000503  -0.000002   0.000000
             31         32         33         34         35         36
     1  O    0.000000   0.000000   0.000000   0.000000   0.000000   0.000000
     2  C    0.000008   0.000255   0.000662  -0.003188  -0.000311   0.000023
     3  C    0.000008   0.000010   0.000623   0.005309   0.000196   0.000110
     4  O    0.000000   0.000000   0.000000   0.000005   0.000000   0.000000
     5  H    0.000000   0.000000   0.000000   0.000000   0.000000   0.000000
     6  C   -0.000145   0.000729   0.006629   0.000360  -0.007190   0.001960
     7  O    0.000000   0.000002  -0.000004  -0.001793  -0.000085  -0.000500
     8  H    0.000000   0.000000   0.000000  -0.000021  -0.000002   0.000374
     9  C   -0.000001  -0.000179  -0.001084   0.000066   0.000114  -0.000004
    10  O    0.000000   0.000000   0.000000   0.000000   0.000000   0.000000
    11  H    0.000000   0.000000   0.000000   0.000000   0.000000   0.000000
    12  C    0.000067   0.000609  -0.000677  -0.000552   0.000385  -0.000027
    13  O    0.000033   0.000195  -0.001142  -0.005217  -0.000500   0.000030
    14  C   -0.000012  -0.015394  -0.017410  -0.007021   0.043099   0.002373
    15  O    0.000769   0.001434  -0.002916  -0.015093   0.002053  -0.000062
    16  C    0.031577   0.079205  -0.095862   0.089532  -0.083574   0.031792
    17  C   -0.020145  -0.261312   0.201815   0.046238   0.019720   0.004924
    18  O    0.000336   0.006497  -0.031088  -0.002952   0.000012   0.000015
    19  H   -0.000001  -0.000168  -0.002921   0.000304   0.000035   0.000000
    20  C   -0.132169   0.383927   0.078487   0.032793  -0.057585  -0.002591
    21  O    0.006074  -0.036619  -0.003200  -0.000456   0.000242  -0.000005
    22  H    0.000115  -0.005600  -0.000163   0.000004   0.000003   0.000000
    23  C    0.004914   0.010646   0.021287  -0.040343   0.073250   0.403762
    24  O    0.000001   0.000004  -0.000027  -0.000008  -0.001554  -0.032184
    25  H    0.000000   0.000000   0.000001   0.000003  -0.000196  -0.014778
    26  C   -0.000160   0.025628   0.118281   0.151297   0.223275  -0.079459
    27  O   -0.042527  -0.001843   0.000313   0.003460  -0.028414   0.000979
    28  C    0.440237   0.040988  -0.050380   0.003483   0.061446   0.004076
    29  O   -0.025333  -0.003032  -0.000013  -0.000392  -0.000193  -0.000078
    30  H   -0.009030   0.000084   0.000015   0.000002   0.000005   0.000000
    31  H    0.610929   0.006489   0.002572  -0.000029   0.004566  -0.000022
    32  H    0.006489   0.636897   0.008324   0.002364   0.000049   0.000001
    33  H    0.002572   0.008324   0.651182   0.006107   0.002872   0.000003
    34  H   -0.000029   0.002364   0.006107   0.598483   0.005883  -0.000019
    35  H    0.004566   0.000049   0.002872   0.005883   0.619161  -0.003800
    36  H   -0.000022   0.000001   0.000003  -0.000019  -0.003800   0.583866
    37  H   -0.000004  -0.000004  -0.000007   0.002614   0.006423  -0.042962
    38  H    0.000000   0.000000   0.000000   0.000000   0.000000   0.000000
    39  H    0.000000   0.000000  -0.000001   0.000000   0.000000   0.000000
    40  H    0.000000   0.000000   0.000000   0.000000   0.000000   0.000000
    41  H    0.000000   0.000000  -0.000001  -0.000002   0.000000   0.000000
    42  H    0.000000   0.000000   0.000000   0.000000   0.000000   0.000000
    43  H    0.000000   0.000000   0.000000   0.000000   0.000000   0.000000
    44  H    0.000000   0.000000  -0.000004   0.000006  -0.000001   0.000001
    45  H    0.000000   0.000002  -0.000028   0.006043  -0.000011   0.000000
             37         38         39         40         41         42
     1  O    0.000000   0.263271  -0.000085   0.001013   0.004718  -0.018650
     2  C   -0.000133   0.031471  -0.013825   0.010690   0.075470   0.342019
     3  C   -0.000246  -0.003494   0.003779  -0.005732  -0.058976  -0.073287
     4  O   -0.000001  -0.001485   0.000012  -0.000025  -0.000024   0.001257
     5  H    0.000000  -0.000614   0.000000   0.000000   0.000007  -0.000330
     6  C   -0.003611  -0.003728  -0.002158   0.008193  -0.010021   0.019899
     7  O    0.001660  -0.000019  -0.000009   0.000005   0.000069   0.000378
     8  H   -0.000959   0.000000   0.000000   0.000000   0.000000   0.000003
     9  C    0.000003   0.001904   0.394076   0.619302   0.049847  -0.032211
    10  O    0.000000  -0.000260  -0.013264  -0.056127   0.001229  -0.001777
    11  H    0.000000  -0.000052  -0.013249   0.001169  -0.000342  -0.000019
    12  C    0.000250  -0.026094  -0.016087  -0.265547   0.094776  -0.065710
    13  O    0.000146  -0.000541  -0.002385  -0.005693  -0.029187   0.005830
    14  C    0.008905  -0.001423  -0.004559  -0.000561   0.117142   0.076359
    15  O    0.005164  -0.000003  -0.000212  -0.000744  -0.003218  -0.000685
    16  C    0.023579   0.000068   0.002089  -0.004822  -0.004469  -0.003417
    17  C   -0.000170  -0.000036   0.001005   0.002299   0.007089   0.001842
    18  O    0.000030  -0.000001  -0.000009   0.000069  -0.000226   0.000054
    19  H    0.000000   0.000000   0.001235  -0.000042  -0.000422  -0.000039
    20  C   -0.003335   0.000001  -0.001098   0.000165   0.000581   0.000008
    21  O    0.000007   0.000000   0.000001   0.000000   0.000000   0.000000
    22  H    0.000000   0.000000   0.000000   0.000000   0.000000   0.000000
    23  C    0.594994  -0.000003  -0.000007  -0.000010   0.000143   0.000177
    24  O   -0.066943   0.000000   0.000000   0.000000  -0.000001   0.000006
    25  H   -0.001894   0.000000   0.000000   0.000000   0.000000   0.000000
    26  C   -0.269099   0.000002   0.000326  -0.000161  -0.000334  -0.000613
    27  O    0.002286   0.000000   0.000000   0.000000   0.000001   0.000000
    28  C    0.004539   0.000000   0.000059   0.000000  -0.000018  -0.000003
    29  O   -0.000013   0.000000   0.000000   0.000000   0.000000   0.000000
    30  H    0.000000   0.000000   0.000000   0.000000   0.000000   0.000000
    31  H   -0.000004   0.000000   0.000000   0.000000   0.000000   0.000000
    32  H   -0.000004   0.000000   0.000000   0.000000   0.000000   0.000000
    33  H   -0.000007   0.000000  -0.000001   0.000000  -0.000001   0.000000
    34  H    0.002614   0.000000   0.000000   0.000000  -0.000002   0.000000
    35  H    0.006423   0.000000   0.000000   0.000000   0.000000   0.000000
    36  H   -0.042962   0.000000   0.000000   0.000000   0.000000   0.000000
    37  H    0.580755   0.000000   0.000000   0.000000   0.000000   0.000000
    38  H    0.000000   0.417670   0.000014  -0.000156  -0.000161  -0.014565
    39  H    0.000000   0.000014   0.559123  -0.045107  -0.005188  -0.000003
    40  H    0.000000  -0.000156  -0.045107   0.589656   0.006737   0.004053
    41  H    0.000000  -0.000161  -0.005188   0.006737   0.632333   0.007376
    42  H    0.000000  -0.014565  -0.000003   0.004053   0.007376   0.630192
    43  H    0.000000  -0.000081   0.000004  -0.000001   0.001835   0.007129
    44  H   -0.000006   0.000014   0.000001  -0.000010  -0.000054   0.001771
    45  H    0.000030   0.000001  -0.000016  -0.000007   0.002838  -0.000017
             43         44         45
     1  O    0.000070  -0.000210  -0.000021
     2  C   -0.086971  -0.013712  -0.007615
     3  C    0.299356  -0.111008  -0.029977
     4  O   -0.025317  -0.001323  -0.000147
     5  H   -0.005664  -0.000100   0.000006
     6  C   -0.063803   0.395075  -0.001467
     7  O    0.003532  -0.031163  -0.003445
     8  H   -0.000082  -0.006850  -0.000082
     9  C    0.004862   0.012496   0.018757
    10  O   -0.000093   0.000017   0.000068
    11  H    0.000000   0.000000   0.000000
    12  C    0.065668   0.066163   0.056664
    13  O    0.004055   0.009332  -0.035676
    14  C    0.049039  -0.034907   0.291405
    15  O    0.000184  -0.008553  -0.032631
    16  C   -0.006129  -0.026313  -0.029803
    17  C    0.001497   0.002291   0.010050
    18  O    0.000034   0.000119  -0.002046
    19  H    0.000000  -0.000024  -0.000344
    20  C   -0.000032   0.000388   0.007686
    21  O    0.000000   0.000000   0.000006
    22  H    0.000000   0.000000   0.000000
    23  C    0.000349   0.001574  -0.003988
    24  O    0.000026   0.000822   0.000013
    25  H    0.000000  -0.000001   0.000005
    26  C   -0.000846  -0.002654   0.028307
[...]
 460,0.00003144,0.00005224,-0.00001724,0.00002763,-0.00853501,-0.002655
 87,0.00186613,0.00156022,0.00086853,0.00096957,-0.00019701,-0.00007520
 ,0.00000910,0.00008960,0.00001655,0.00018872,0.00002165,0.00001703,-0.
 00001776,-0.00003858,-0.00000306,0.00000030,0.00003763,-0.00003006,0.0
 0003115,-0.00003722,0.00004835,-0.00003595,-0.00000233,0.00000140,-0.0
 0000071,0.00001001,-0.00000364,0.00000688,-0.00000350,-0.00000130,-0.0
 0000237,-0.00001633,-0.00000403,-0.00000106,0.00004945,0.00001361,0.00
 003016,-0.00001164,-0.00000458,-0.00000022,-0.00002320,-0.00001096,-0.
 00000473,0.00001513,-0.00000052,0.00001080,-0.00001476,0.00000420,-0.0
 0000691,0.00000509,0.00000005,0.00000235,-0.00000216,-0.00000035,-0.00
 000026,0.00000437,0.00000122,0.00000229,0.00000652,0.00000111,-0.00000
 384,0.00001367,0.00000324,0.00001190,0.00001136,0.00000040,-0.00000981
 ,0.00000827,-0.00000120,0.00000765,0.00000080,0.00000144,0.00000126,0.
 00000797,0.00000045,-0.00000482,0.00175753,0.00007343,-0.00068323,0.00
 031461,0.00010037,0.00000674,0.00056510,-0.00104623,-0.00004900,0.0009
 7811,-0.00071004,0.00058896,0.37026907,-0.01171178,-0.00163472,-0.0067
 1163,-0.03237463,-0.04667268,0.00513336,0.03499506,-0.00093897,-0.0055
 4927,-0.00217023,0.00382662,-0.00019320,0.00023796,-0.00018699,0.00012
 464,0.00063649,0.00116977,0.00128793,-0.00035597,-0.00030103,-0.000157
 72,-0.00002898,-0.00003606,0.00001409,-0.00219189,0.00179125,-0.000762
 35,0.00038973,-0.00002760,0.00011264,-0.00000539,-0.00004625,-0.000007
 31,-0.02933654,-0.00750647,0.00792874,0.00155389,0.00140639,-0.0014429
 1,0.00022953,-0.00053209,-0.00003559,0.00001816,0.00012147,-0.00000895
 ,-0.00003685,0.00001634,0.00000808,0.00000670,-0.00000177,-0.00002279,
 0.00003176,0.00001387,-0.00002712,-0.00003652,-0.00001523,0.00001916,-
 0.00000662,0.00000030,0.00000173,0.00000491,0.00000387,-0.00000184,-0.
 00000197,-0.00000122,-0.00000102,-0.00000001,-0.00000762,0.00001049,-0
 .00003067,-0.00000531,-0.00004295,0.00000602,0.00000488,-0.00000080,-0
 .00000139,-0.00000424,0.00000464,-0.00000063,0.00000689,-0.00000661,0.
 00000168,-0.00000649,0.00000558,0.00000177,0.00000173,-0.00000501,-0.0
 0000003,-0.00000002,0.00000095,0.00000018,0.00000114,0.00000039,0.0000
 0228,-0.00000072,-0.00000195,0.00000523,0.00000612,0.00000617,0.000003
 39,-0.00000584,0.00000221,-0.00000013,0.00000204,0.00000011,-0.0000001
 6,0.00000141,-0.00000334,-0.00000148,-0.00000048,0.00000429,-0.0012064
 4,0.00147358,-0.00006890,0.00033666,0.00036061,-0.00004036,0.00119844,
 -0.00014136,-0.00017572,-0.00088205,-0.00338950,0.00375867,0.03893276,
 0.05688228,-0.04273234,-0.01175985,-0.01853202,0.04590317,0.00489668,-
 0.04538981,0.01241787,0.00123622,0.00047762,-0.00149448,0.00017949,0.0
 0041010,-0.00025071,-0.00008835,-0.00007178,0.00067588,0.00048397,0.00
 054081,-0.00025734,-0.00007596,-0.00002058,0.00000640,0.00001320,0.000
 00393,0.00027441,-0.00158662,0.00075798,-0.00014840,0.00000563,0.00009
 240,0.00001502,-0.00002784,0.00004812,0.02598779,0.00758477,-0.0043348
 3,-0.00119613,-0.00062962,0.00278099,0.00039704,-0.00017292,-0.0002076
 0,-0.00004687,0.00001857,-0.00015919,-0.00000502,-0.00003466,0.0000024
 6,0.00001771,0.00000830,0.00002180,-0.00005615,-0.00003833,0.00002342,
 0.00006102,0.00006179,-0.00005168,0.00000446,-0.00000615,0.00000649,-0
 .00000824,0.00000762,-0.00001081,0.00000268,0.00000011,0.00000309,0.00
 001083,0.00000620,-0.00000231,-0.00002528,-0.00000943,-0.00001443,0.00
 000530,0.00000247,0.00000213,0.00001435,0.00001178,0.00000825,-0.00000
 971,0.00000218,-0.00001571,0.00000885,-0.00000440,0.00001437,-0.000000
 53,0.00000042,-0.00000994,0.00000106,0.00000048,0.00000191,-0.00000293
 ,-0.00000123,-0.00000250,-0.00000551,-0.00000032,0.00000376,-0.0000129
 3,-0.00000673,-0.00001622,-0.00001023,0.00000170,0.00000992,-0.0000057
 7,-0.00000003,-0.00000652,-0.00000127,-0.00000293,-0.00000120,-0.00000
 477,0.00000051,0.00000276,-0.00357460,0.00035354,0.00294855,-0.0001060
 3,-0.00026226,-0.00002694,-0.00076919,0.00029600,0.00025420,0.00024423
 ,0.00333032,-0.00346735,-0.03539748,-0.00132498,0.06436441,0.00219497,
 -0.00057602,-0.00011203,-0.01814194,0.00298696,-0.00259636,-0.34533778
 ,-0.01030121,-0.03108936,-0.00955312,-0.01097360,0.00785407,0.00044543
 ,-0.00046537,-0.00016788,-0.00940513,0.00021121,-0.00367078,0.00155375
 ,-0.00023770,0.00003702,0.00014902,0.00005987,0.00013682,0.00029206,0.
 00028243,-0.00033687,0.00006329,0.00002469,0.00005367,-0.00000851,-0.0
 0001061,0.00001373,-0.00065337,-0.00032735,0.00059920,0.00025293,0.000
 23893,-0.00001659,-0.00092141,-0.00082194,0.00040246,0.00035456,0.0001
 4631,-0.00033024,-0.00012651,0.00003407,0.00000048,0.00000891,-0.00000
 053,-0.00004457,0.00004029,0.00001217,-0.00000970,-0.00003032,-0.00002
 088,0.00004743,-0.00002100,0.00000296,0.00000659,0.00001241,0.00000796
 ,-0.00000431,-0.00000580,-0.00000092,-0.00000285,-0.00003685,-0.000016
 60,0.00002671,0.00004882,0.00003192,0.00001141,-0.00000885,-0.00000664
 ,0.00000782,0.00000079,0.00000284,0.00000568,0.00001204,0.00000940,-0.
 00002078,-0.00000512,-0.00000917,0.00000733,0.00000638,0.00000384,-0.0
 0000772,-0.00000095,-0.00000057,0.00000058,0.00000299,0.00000129,0.000
 00124,0.00000681,0.00000090,-0.00000206,0.00001091,-0.00000114,0.00000
 569,0.00001308,0.00000291,-0.00002269,0.00000682,-0.00000165,0.0000070
 7,0.00000296,0.00000010,-0.00000283,0.00001111,0.00000085,-0.00000334,
 0.00041979,-0.00051321,-0.00022095,-0.00002168,0.00014580,0.00002542,0
 .00011755,-0.00021861,0.00000938,0.00056748,0.00071859,-0.00045096,-0.
 00001135,0.00221508,0.00038033,0.37669658,-0.00242699,0.00235368,0.001
 68989,0.03555988,-0.00262197,0.00162873,-0.00700443,-0.03858515,-0.003
 14807,-0.03438404,-0.01602637,0.01039519,-0.00005438,0.00092254,-0.000
 98995,-0.00985089,0.00098915,-0.00380006,0.00011533,0.00062774,0.00153
 121,-0.00001042,-0.00001867,0.00002634,-0.00001208,-0.00022242,0.00003
 463,-0.00005969,-0.00004801,-0.00005510,-0.00000457,0.00001850,-0.0000
 0746,0.00061037,0.00254551,-0.00076601,-0.00015302,-0.00033567,0.00039
 148,0.00031643,-0.00050221,0.00002456,0.00004259,0.00006722,-0.0002703
 6,-0.00004941,0.00003593,0.00001590,0.00000507,-0.00002558,-0.00005455
 ,-0.00001451,-0.00000913,0.00008577,0.00001090,0.00003963,-0.00010614,
 -0.00000234,0.00001416,0.00000522,0.00000189,-0.00000167,-0.00000048,-
 0.00000077,0.00000201,-0.00000145,-0.00001031,0.00001605,-0.00001720,0
 .00007789,0.00000936,0.00009015,-0.00001394,-0.00000895,-0.00000360,-0
 .00000253,0.00002635,-0.00000124,0.00000354,-0.00001397,-0.00000390,-0
 .00000253,0.00000216,-0.00000600,-0.00000157,-0.00000100,0.00000723,-0
 .00000027,0.00000002,-0.00000154,0.00000061,-0.00000024,0.00000034,0.0
 0000033,0.00000007,0.00000049,0.00000256,0.00000032,0.00000094,0.00000
 540,0.00000524,-0.00000464,0.00000214,-0.00000564,0.00000131,0.0000016
 1,-0.00000277,0.00000428,0.00000787,0.00000213,-0.00001005,-0.00007699
 ,0.00039752,0.00045574,-0.00009892,-0.00008730,-0.00000525,-0.00025961
 ,0.00011397,0.00002510,-0.00071777,-0.00026763,0.00032700,0.00249380,-
 0.00532768,-0.00219622,0.01665881,0.05583034,-0.00004610,0.00132485,0.
 00141106,0.01049494,-0.00352155,0.00246108,-0.03428552,-0.00503160,-0.
 04552112,0.02748800,0.01578071,-0.00476262,0.00121690,-0.00040222,0.00
 111187,-0.03772429,-0.00261851,-0.00671471,0.00255386,0.00113691,0.002
 99556,-0.00019048,0.00030938,0.00025433,-0.00000131,-0.00011168,0.0001
 8177,-0.00001535,0.00001447,-0.00002316,-0.00000312,0.00001571,-0.0000
 0693,-0.00022791,-0.00015071,-0.00044783,0.00004007,0.00045869,-0.0002
 8900,-0.00096931,-0.00130572,0.00177492,0.00042677,0.00016725,-0.00049
 561,-0.00003306,0.00005577,0.00008661,0.00001687,-0.00001489,-0.000052
 01,0.00002004,0.00003290,-0.00000834,-0.00001845,-0.00004732,0.0000396
 9,-0.00001683,-0.00000323,0.00001672,0.00000643,0.00002242,-0.00002207
 ,-0.00000411,-0.00000033,-0.00000030,-0.00003890,0.00000147,0.00001569
 ,0.00011252,-0.00000428,0.00008488,-0.00000224,0.00000205,-0.00002118,
 0.00000146,0.00002425,0.00003154,0.00000685,0.00001048,-0.00005081,0.0
 0000453,-0.00001932,0.00002884,0.00000751,0.00000540,-0.00002266,0.000
 00048,0.00000030,0.00000365,-0.00000023,0.00000128,-0.00000070,0.00000
 165,0.00000127,-0.00000109,0.00000570,-0.00000270,0.00000528,0.0000224
 9,0.00001581,-0.00005042,0.00000575,-0.00000613,0.00000592,0.00000463,
 -0.00000321,-0.00000624,0.00001437,0.00000469,-0.00001086,-0.00002652,
 0.00022327,0.00004367,-0.00001538,-0.00008775,-0.00001185,-0.00003229,
 0.00003888,-0.00002271,-0.00003862,0.00003122,0.00013556,0.00109722,-0
 .00145138,-0.00036363,0.03085180,-0.00386204,0.05465253,0.00043315,-0.
 00003964,-0.00011017,-0.00080086,0.00080800,-0.00011027,-0.01048465,-0
 .00570819,-0.00297021,0.00127276,0.00038758,0.00110027,0.00040022,0.00
 011956,0.00029195,-0.32377451,-0.08917675,-0.01058731,-0.02311871,0.00
 946259,0.00975312,0.00011564,0.00017527,-0.00131076,-0.00004386,-0.000
 03993,-0.00000892,0.00003381,0.00003258,0.00001925,-0.00000669,-0.0000
 0550,0.00000221,0.00002094,-0.00005950,0.00011916,0.00129748,-0.001039
 01,-0.00036827,-0.00525646,-0.00230445,0.00077665,0.00100804,0.0004172
 7,-0.00074963,0.00013139,0.00015405,0.00016149,0.00002597,0.00003839,-
 0.00001801,0.00002031,0.00001403,-0.00005753,-0.00000685,-0.00005425,0
 .00000724,-0.00002216,0.00001917,0.00001853,0.00001264,0.00000036,-0.0
 0002359,-0.00000534,0.00000323,-0.00000076,-0.00009108,0.00005714,-0.0
 0002445,0.00034237,-0.00005357,0.00036827,-0.00004004,-0.00002773,-0.0
 0006504,-0.00001388,0.00007796,0.00003048,0.00002063,-0.00005499,-0.00
 002982,-0.00001724,0.00002695,0.00000721,0.00000802,-0.00000783,-0.000
 01239,-0.00000113,0.00000183,0.00000171,0.00000378,-0.00000093,0.00000
 099,0.00000579,0.00000235,0.00000073,0.00000589,-0.00001355,0.00000899
 ,-0.00000791,0.00006193,-0.00021448,0.00001366,-0.00002170,0.00001022,
 0.00002176,-0.00001963,0.00001532,0.00005879,0.00001400,-0.00006118,-0
 .00002230,-0.00013753,-0.00007575,0.00000562,0.00000010,-0.00000963,0.
 00003228,-0.00001448,-0.00000755,0.00003822,0.00010259,-0.00001255,0.0
 0062865,-0.00038746,-0.00016965,0.00065258,-0.00072249,-0.00116988,0.3
 5668404,0.00024455,0.00004538,0.00004382,-0.00082644,0.00023359,0.0003
 6960,-0.00908779,-0.00073442,-0.00122817,0.00127929,0.00040719,0.00041
 359,0.00008077,-0.00007999,0.00008866,-0.09316032,-0.06754599,-0.00052
 672,0.04002117,-0.00418622,-0.00952448,0.00083970,0.00173672,0.0014800
 5,-0.00008650,0.00001422,0.00004224,0.00002939,-0.00000099,0.00000921,
 -0.00000307,0.00000080,-0.00000069,-0.00010060,-0.00026128,-0.00010807
 ,0.00125517,0.00182359,-0.00036175,-0.03079128,-0.01053633,0.00182404,
 0.00136461,0.00159144,-0.00223585,-0.00016451,0.00031240,0.00014701,0.
 00005121,-0.00001584,-0.00021951,0.00012868,-0.00001583,0.00003567,-0.
 00011281,0.00001954,0.00003734,-0.00003107,0.00003780,0.00002526,0.000
 01636,0.00001957,-0.00001941,-0.00000672,0.00000090,-0.00000415,0.0000
 8136,0.00002555,0.00008685,-0.00021723,-0.00014682,-0.00009425,0.00004
 865,0.00002663,-0.00002382,0.00003469,-0.00002021,0.00002279,-0.000000
 33,0.00001701,-0.00004862,0.00000697,-0.00003640,0.00001990,0.00000472
 ,0.00000941,-0.00001076,0.00000019,-0.00000046,0.00000239,-0.00000043,
 0.00000353,0.00000145,0.00000912,0.00000318,-0.00000706,0.00002989,-0.
 00001793,0.00003275,0.00017794,0.00001564,-0.00017461,0.00000761,0.000
 02650,0.00002628,-0.00002654,-0.00001072,0.00000787,-0.00004469,-0.000
 01745,0.00004904,0.00000913,-0.00000728,-0.00002674,0.00001362,-0.0000
 1998,-0.00000904,0.00004795,-0.00003157,-0.00001973,0.00011199,0.00014
 407,0.00004094,0.00035136,-0.00018271,-0.00031185,0.00032348,-0.000036
 66,-0.00146056,0.08778776,0.08069938,0.00064478,0.00005565,-0.00032359
 ,-0.00112303,0.00125778,0.00107465,-0.03532047,-0.01197644,-0.00618320
 ,0.00130856,-0.00037982,0.00339785,0.00018027,-0.00007301,0.00060205,-
 0.01415716,-0.00057544,-0.04217992,0.01850658,-0.00617665,-0.00257991,
 0.00189345,-0.00000467,0.00084566,-0.00005689,-0.00001794,0.00007409,0
 .00001090,0.00000480,0.00000543,0.00000361,-0.00000082,0.00000628,-0.0
 0017216,-0.00020049,-0.00048426,-0.00102640,-0.00070410,0.00029433,0.0
 2375845,0.01124076,-0.00145229,-0.00020627,-0.00135691,0.00230651,0.00
 038821,-0.00011683,-0.00035040,-0.00004043,0.00003482,0.00020117,-0.00
 009456,-0.00002168,-0.00008929,0.00007537,-0.00001362,0.00008826,0.000
 02807,-0.00002993,-0.00003502,-0.00001378,-0.00003928,0.00002995,0.000
 00730,0.00000063,0.00000301,0.00021460,0.00012736,-0.00011568,-0.00022
 070,-0.00000496,0.00004836,0.00001384,-0.00001354,0.00010108,-0.000060
 52,0.00002856,-0.00003815,-0.00001713,-0.00007120,0.00011935,-0.000017
 80,0.00007592,-0.00005038,-0.00001216,-0.00001944,0.00003251,-0.000000
 61,-0.00000037,-0.00000576,0.00000042,-0.00000409,-0.00000125,-0.00000
 816,-0.00000555,0.00000892,-0.00004062,0.00002680,-0.00002439,-0.00025
 424,-0.00004890,0.00008519,-0.00002570,0.00000131,-0.00005228,-0.00004
 064,-0.00003106,0.00004507,-0.00006703,-0.00001876,0.00003575,0.000075
 56,-0.00018621,-0.00006981,0.00001667,-0.00002808,0.00000280,0.0000100
 5,-0.00001046,-0.00000061,0.00006200,0.00004012,-0.00010361,0.00061895
 ,-0.00036126,-0.00018996,-0.00087361,-0.00139410,-0.00608239,0.0055674
 2,0.00832517,0.05357490,0.00009254,-0.00007538,0.00021913,-0.00007746,
 0.00030261,-0.00002954,-0.00038569,-0.00047299,-0.00003770,0.00027491,
 -0.00000915,0.00008616,-0.00006371,-0.00002687,0.00007240,-0.00373158,
 0.00095193,0.00210853,0.00221788,0.00037671,-0.00168201,-0.00027036,-0
 .00017073,-0.00001975,0.00040755,-0.00007363,0.00016327,-0.00000579,0.
 00022806,0.00010082,-0.00001186,-0.00000807,0.00003386,-0.00028737,-0.
 00046026,-0.00077945,-0.01104812,0.00968363,0.00646087,-0.32798614,-0.
 05911232,0.06537113,-0.02061044,-0.00461089,-0.00761397,0.00025817,-0.
 00082984,0.00387914,0.00015725,0.00016125,-0.00026195,0.00065517,-0.00
 003217,-0.00044751,-0.00071253,-0.00033718,0.00102962,-0.00004617,0.00
 010101,0.00001795,0.00004207,0.00001974,-0.00003847,-0.00001611,0.0000
 0486,-0.00001138,-0.00030193,0.00008372,0.00010731,0.00013448,-0.00006
 534,0.00001258,-0.00000259,-0.00003599,-0.00003796,0.00057606,0.000070
 43,-0.00001766,0.00002799,-0.00005479,-0.00032161,0.00000408,-0.000055
 12,0.00003179,0.00001280,0.00001198,-0.00003409,0.00000053,0.00000364,
 0.00000286,0.00000217,0.00000859,0.00000428,0.00003626,0.00001952,-0.0
 0003546,0.00013273,-0.00021091,0.00017000,0.00128782,0.00060676,-0.001
 31085,0.00009976,0.00011589,0.00028574,0.00005294,-0.00000821,0.000002
 43,0.00010396,-0.00003758,-0.00002474,0.00000713,-0.00000352,-0.000013
 41,-0.00000723,-0.00002501,0.00000253,0.00006205,-0.00015893,-0.000095
 24,0.00022756,0.00052831,0.00105884,0.00005186,-0.00003985,-0.00013684
 ,0.00034541,0.00001744,0.00045908,0.00041928,0.00030299,0.00046500,0.3
 5787466,-0.00007819,0.00036464,-0.00026904,-0.00020935,-0.00083807,-0.
 00009796,-0.00081474,-0.00040451,-0.00141760,0.00036710,-0.00001796,0.
 00062231,0.00009456,-0.00008262,0.00016434,-0.02368280,-0.00452062,0.0
 0840598,0.00013029,0.00327552,-0.00043525,-0.00032784,-0.00014900,0.00
 000828,-0.00015820,0.00012851,-0.00013567,-0.00007374,-0.00031088,-0.0
 0012306,-0.00001149,0.00001987,-0.00004717,0.00311514,0.00228789,0.004
 14369,0.03644091,-0.00894984,-0.01496870,-0.06134934,-0.05296076,0.015
 95072,-0.00730136,0.00322966,-0.00128489,0.00059883,-0.00042772,0.0015
 1441,0.00018294,-0.00004300,0.00003701,-0.00043705,0.00000549,0.000412
 66,0.00069168,0.00030077,-0.00132854,0.00003664,0.00001672,0.00007919,
 -0.00000984,0.00006669,-0.00007128,-0.00000610,-0.00000204,0.00000602,
 -0.00017768,0.00004370,-0.00001270,0.00009129,-0.00002712,0.00002229,-
 0.00001604,-0.00001360,-0.00002067,0.00002154,0.00012020,0.00005741,-0
 .00000347,-0.00001059,-0.00016747,0.00001326,-0.00004394,0.00009244,0.
 00001453,0.00001150,-0.00005980,0.00000206,0.00000111,0.00001082,-0.00
 000521,-0.00000070,-0.00000772,-0.00001264,0.00000343,0.00000235,0.000
 01121,-0.00007758,0.00001673,0.00049703,0.00028331,-0.00022921,0.00001
 442,-0.00000843,0.00004213,0.00004169,-0.00002321,0.00000060,0.0000532
 4,-0.00003071,-0.00004507,-0.00000553,0.00000917,0.00002405,0.00002010
 ,0.00002422,0.00000485,-0.00016227,0.00008721,0.00003893,-0.00142806,0
 .00023044,0.00012506,0.00001208,-0.00011748,0.00003874,0.00038035,0.00
 012908,0.00042570,0.00012440,-0.00330896,0.00266592,0.05331564,0.06173
 022,-0.00005701,-0.00007399,-0.00032269,-0.00005825,0.00011911,-0.0001
 0518,0.00093846,-0.00037736,0.00167316,-0.00040782,0.00010765,-0.00021
 560,-0.00008551,-0.00003373,-0.00008536,0.02380791,0.00618513,-0.00209
 966,-0.00202709,-0.00225868,0.00144597,-0.00010864,0.00003863,-0.00008
 739,-0.00017518,-0.00004830,0.00000070,-0.00006159,-0.00017208,-0.0000
 8200,0.00000901,0.00001182,-0.00001666,0.00204060,0.00138575,0.0028797
 4,0.01426629,-0.00727169,-0.00280089,0.07307663,0.01945345,-0.06175478
 ,-0.03613727,-0.00458825,-0.01086033,-0.00567190,-0.00229559,0.0044755
 0,-0.00009366,0.00008973,-0.00058028,0.00006412,0.00000191,0.00061787,
 -0.00014538,0.00027120,-0.00076225,0.00002283,0.00007984,0.00007736,0.
 00002161,0.00006317,-0.00005228,-0.00000898,0.00000313,-0.00000554,-0.
 00013617,0.00016552,0.00013989,0.00003777,-0.00014545,0.00001767,0.000
 02226,-0.00002695,-0.00004244,-0.00004348,-0.00003006,-0.00001380,0.00
 012781,0.00009758,-0.00025976,0.00003608,-0.00011597,0.00008520,0.0000
 1209,0.00002951,-0.00005382,0.00000147,0.00000199,0.00000767,-0.000004
 64,0.00000179,0.00000730,0.00003468,0.00002143,-0.00005769,0.00030043,
 -0.00003143,-0.00000241,0.00126154,0.00011067,-0.00016512,0.00018186,0
 .00005767,0.00005422,0.00001399,-0.00002139,-0.00000009,0.00001503,-0.
 00004053,-0.00000817,-0.00002885,-0.00000540,0.00001492,0.00000682,0.0
 0001536,-0.00000750,-0.00014047,0.00010185,0.00001735,-0.00098416,0.00
 008493,0.00004080,-0.00012859,-0.00001892,0.00011553,-0.00050546,-0.00
 003610,-0.00035292,-0.00009342,0.00328391,-0.00257099,-0.06919577,-0.0
 1419087,0.07169475\\0.01141263,-0.00849602,-0.00711814,-0.02720557,0.0
 0354339,0.01858878,0.02742068,-0.01595919,0.00434786,-0.00621254,0.002
 73042,0.01846926,-0.00345619,0.01030559,-0.03452327,-0.01625264,-0.006
 57941,-0.03256308,0.00137615,-0.00359550,0.00240339,0.00486250,0.00765
 042,0.02147965,-0.00509494,0.00449556,0.00761249,0.00409213,0.02094001
 ,-0.00448721,0.00212694,-0.03453312,0.00325158,0.02989331,-0.00945519,
 0.00070953,-0.00718885,0.00897069,0.02585669,-0.03480283,0.02988818,-0
 .01508705,0.01370345,-0.02667142,0.00706564,-0.01230885,0.00302309,0.0
 0414051,-0.02518272,0.03361569,0.01599134,0.00622424,-0.00849317,-0.00
 753171,0.00150728,0.01158931,-0.01657872,0.05462001,0.01424982,-0.0356
 4246,-0.02874084,0.01726950,0.00555091,-0.00282390,-0.02776137,0.03162
 914,0.02502640,0.00258387,-0.02207038,0.00085087,-0.01867490,-0.017020
 70,-0.01559614,0.02020114,0.02680971,-0.01061652,0.01631730,0.02141393
 ,0.00321653,-0.02229292,-0.00742763,0.01657828,-0.01104676,0.00036553,
 -0.00391309,0.00018734,0.02407887,-0.00337481,-0.00279179,-0.00064576,
 -0.01962779,-0.00531957,-0.00627272,0.02525335,-0.00252138,0.00095926,
 -0.02441414,-0.00632262,0.00274177,0.01860823,-0.00087367,0.00078341,-
 0.02203377,0.00017471,-0.00132773,-0.00085606,-0.00629336,-0.01906651,
 0.02180212,-0.00041327,0.00104200,-0.00056718,0.00239618,-0.00083188,0
 .00136292,0.00530314,-0.01746148,-0.02127446,-0.00241015,0.00065953,0.
 02316099,0.00635778,0.00040502,-0.02239619,-0.00465976,-0.00042166,0.0
 2311810,0.00285183,0.00231093,-0.02121169,-0.00259737,0.00127072,0.018
 93456,0.00311699,-0.00385936\\\@


 THE HURRIEDER I GO, THE BEHINDER I GET.
 Job cpu time:  1 days  7 hours  9 minutes 44.0 seconds.
 File lengths (MBytes):  RWF=   1769 Int=      0 D2E=      0 Chk=     28 Scr=      1
 Normal termination of Gaussian 09 at Tue Mar 29 20:38:57 2016.
Gaussian '09 finished on node004 at Tue Mar 29 20:38:57 EDT 2016.
