Job furan_raman_3 started on node021 at Tue Feb 24 15:17:25 2015
jobid: volta-0-54ecdc53 
Jaguar version 8.5, release  13
Molecular Point Group: C1      
Point Group used: C1 (symmetry turned off)
pre (input checking) done.
onee (1-electron integrals) done.
hfig (HF initial guess) done.
probe (project orbitals) done.
grid (grid generation) done.
rwr (Q operators) done.
scf type: DFT=Becke_3_Parameter/HF+Slater+Becke88+VWN+LYP (B3LYP)
  
       i  u  d  i  g
       t  p  i  c  r                                 RMS    maximum
       e  d  i  u  i                       energy  density   DIIS  
       r  t  s  t  d       total energy    change  change    error 
  
etot    1  N  N  5  M    -229.42118591442           4.8E-03  1.3E-01
etot    2  Y  Y  6  M    -229.91229181665  4.9E-01  4.0E-03  1.2E-01
etot    3  Y  Y  6  M    -229.85919390809 -5.3E-02  2.7E-03  1.3E-01
etot    4  N  Y  2  U    -230.03932307820  1.8E-01  1.0E-03  2.8E-02
etot    5  Y  Y  6  M    -230.05203362374  1.3E-02  3.5E-04  9.6E-03
etot    6  N  Y  2  U    -230.05298521695  9.5E-04  9.6E-05  5.1E-03
etot    7  Y  Y  6  M    -230.05322299707  2.4E-04  2.0E-05  4.7E-04
etot    8  N  Y  2  U    -230.05323123208  8.2E-06  2.3E-06  6.5E-05
etot    9  N  N  2  U    -230.05323133955  1.1E-07  0.0E+00  0.0E+00
scf (DFT) done.
cutabab2 (abab integrals) done.
der2a (1-e JK-1st deriv.) done.
der2b (2-e JK-1st deriv.) done.
der2nda (1-e 2nd deriv.) done.
der2ndb (2-e 2nd deriv.) done.
rwr (Q operators) done.
cphfa (gradient of wave function) done.
rwr (Q operators) done.
scf type: DFT=Becke_3_Parameter/HF+Slater+Becke88+VWN+LYP (B3LYP)
  
       i  u  d  i  g
       t  p  i  c  r                                 RMS    maximum
       e  d  i  u  i                       energy  density   DIIS  
       r  t  s  t  d       total energy    change  change    error 
  
etot    1  N  N  5  M    -230.05329491408           1.7E-04  9.2E-04
etot    2  Y  Y  6  M    -230.05329297803 -1.9E-06  2.4E-06  3.2E-05
etot    3  N  Y  2  U    -230.05321875614 -7.4E-05  4.1E-05  9.0E-04
etot    4  N  Y  2  U    -230.05322402501  5.3E-06  4.2E-05  6.9E-04
etot    5  N  Y  2  U    -230.05322790366  3.9E-06  1.2E-05  4.7E-04
etot    6  N  Y  2  U    -230.05322874524  8.4E-07  8.6E-06  4.1E-04
etot    7  N  Y  2  U    -230.05322928378  5.4E-07  6.8E-06  3.6E-04
etot    8  N  Y  2  U    -230.05322967017  3.9E-07  5.6E-06  3.3E-04
etot    9  N  Y  2  U    -230.05322995561  2.9E-07  4.7E-06  3.0E-04
etot   10  N  N  2  U    -230.05323017590  2.2E-07  0.0E+00  0.0E+00
scf (DFT) done.
der1a (1-e 1st deriv.) done.
rwr (1st deriv. Q) done.
der1b (2-e 1st deriv.) done.
----------------------------------------------------------------
  calculation with applied electric field    1 of  18 follows...
raman (gradient of polarizabilities) done.
rwr (Q operators) done.
scf type: DFT=Becke_3_Parameter/HF+Slater+Becke88+VWN+LYP (B3LYP)
  
       i  u  d  i  g
       t  p  i  c  r                                 RMS    maximum
       e  d  i  u  i                       energy  density   DIIS  
       r  t  s  t  d       total energy    change  change    error 
  
etot    1  N  N  5  M    -230.05655352969           2.2E-03  2.5E-02
etot    2  Y  Y  6  M    -230.06611594262  9.6E-03  6.6E-04  2.4E-02
etot    3  N  Y  2  U    -230.07088449138  4.8E-03  2.3E-04  8.4E-03
etot    4  Y  Y  6  M    -230.07196368821  1.1E-03  8.8E-05  1.4E-03
etot    5  Y  Y  6  M    -230.07197963935  1.6E-05  5.0E-05  1.4E-03
etot    6  N  Y  2  U    -230.07199683947  1.7E-05  1.3E-05  4.7E-04
etot    7  N  Y  2  U    -230.07199968017  2.8E-06  3.8E-06  1.7E-04
etot    8  N  N  2  U    -230.07200010873  4.3E-07  0.0E+00  0.0E+00
scf (DFT) done.
der1a (1-e 1st deriv.) done.
rwr (1st deriv. Q) done.
der1b (2-e 1st deriv.) done.
----------------------------------------------------------------
  calculation with applied electric field    2 of  18 follows...
raman (gradient of polarizabilities) done.
rwr (Q operators) done.
scf type: DFT=Becke_3_Parameter/HF+Slater+Becke88+VWN+LYP (B3LYP)
  
       i  u  d  i  g
       t  p  i  c  r                                 RMS    maximum
       e  d  i  u  i                       energy  density   DIIS  
       r  t  s  t  d       total energy    change  change    error 
  
etot    1  N  N  5  M    -230.05004214170           2.7E-03  2.5E-02
etot    2  Y  Y  6  M    -230.05389577100  3.9E-03  9.6E-04  3.2E-02
etot    3  N  Y  2  U    -230.06431360090  1.0E-02  2.5E-04  7.1E-03
etot    4  Y  Y  6  M    -230.06536841046  1.1E-03  1.1E-04  2.9E-03
etot    5  Y  Y  6  M    -230.06544928212  8.1E-05  5.9E-05  1.6E-03
etot    6  N  Y  2  U    -230.06547646157  2.7E-05  1.5E-05  4.2E-04
etot    7  N  Y  2  U    -230.06547914781  2.7E-06  3.9E-06  1.6E-04
etot    8  N  N  2  U    -230.06547952354  3.8E-07  0.0E+00  0.0E+00
scf (DFT) done.
der1a (1-e 1st deriv.) done.
rwr (1st deriv. Q) done.
der1b (2-e 1st deriv.) done.
----------------------------------------------------------------
  calculation with applied electric field    3 of  18 follows...
raman (gradient of polarizabilities) done.
rwr (Q operators) done.
scf type: DFT=Becke_3_Parameter/HF+Slater+Becke88+VWN+LYP (B3LYP)
  
       i  u  d  i  g
       t  p  i  c  r                                 RMS    maximum
       e  d  i  u  i                       energy  density   DIIS  
       r  t  s  t  d       total energy    change  change    error 
  
etot    1  N  N  5  M    -230.03937082952           3.1E-03  2.6E-02
etot    2  Y  Y  6  M    -230.03110475802 -8.3E-03  1.1E-03  5.1E-02
etot    3  N  Y  2  U    -230.05325564578  2.2E-02  3.5E-04  7.0E-03
etot    4  Y  Y  6  M    -230.05374271373  4.9E-04  1.1E-04  3.4E-03
etot    5  Y  Y  6  M    -230.05393153375  1.9E-04  5.5E-05  8.6E-04
etot    6  N  Y  2  U    -230.05395066860  1.9E-05  1.1E-05  2.9E-04
etot    7  N  Y  2  U    -230.05395208832  1.4E-06  2.6E-06  6.0E-05
etot    8  N  N  2  U    -230.05395218668  9.8E-08  0.0E+00  0.0E+00
scf (DFT) done.
der1a (1-e 1st deriv.) done.
rwr (1st deriv. Q) done.
der1b (2-e 1st deriv.) done.
----------------------------------------------------------------
  calculation with applied electric field    4 of  18 follows...
raman (gradient of polarizabilities) done.
rwr (Q operators) done.
scf type: DFT=Becke_3_Parameter/HF+Slater+Becke88+VWN+LYP (B3LYP)
  
       i  u  d  i  g
       t  p  i  c  r                                 RMS    maximum
       e  d  i  u  i                       energy  density   DIIS  
       r  t  s  t  d       total energy    change  change    error 
  
etot    1  N  N  5  M    -230.06722484187           2.4E-03  2.6E-02
etot    2  Y  Y  6  M    -230.06969157296  2.5E-03  6.6E-04  3.1E-02
etot    3  N  Y  2  U    -230.08095010025  1.1E-02  2.5E-04  5.1E-03
etot    4  Y  Y  6  M    -230.08142676901  4.8E-04  6.4E-05  1.7E-03
etot    5  Y  Y  6  M    -230.08146401743  3.7E-05  3.4E-05  1.0E-03
etot    6  N  Y  2  U    -230.08147453562  1.1E-05  6.5E-06  1.4E-04
etot    7  N  Y  2  U    -230.08147495517  4.2E-07  2.6E-06  9.9E-05
etot    8  N  N  2  U    -230.08147510299  1.5E-07  0.0E+00  0.0E+00
scf (DFT) done.
der1a (1-e 1st deriv.) done.
rwr (1st deriv. Q) done.
der1b (2-e 1st deriv.) done.
----------------------------------------------------------------
  calculation with applied electric field    5 of  18 follows...
raman (gradient of polarizabilities) done.
rwr (Q operators) done.
scf type: DFT=Becke_3_Parameter/HF+Slater+Becke88+VWN+LYP (B3LYP)
  
       i  u  d  i  g
       t  p  i  c  r                                 RMS    maximum
       e  d  i  u  i                       energy  density   DIIS  
       r  t  s  t  d       total energy    change  change    error 
  
etot    1  N  N  5  M    -230.05328015420           1.8E-03  1.8E-02
etot    2  Y  Y  6  M    -230.05755465422  4.3E-03  4.3E-04  1.2E-02
etot    3  N  Y  2  U    -230.05959367345  2.0E-03  1.8E-04  8.9E-04
etot    4  Y  Y  6  M    -230.05960968202  1.6E-05  4.0E-05  4.4E-04
etot    5  N  Y  2  U    -230.05960417400 -5.5E-06  1.6E-05  8.6E-04
etot    6  N  Y  2  U    -230.05961094912  6.8E-06  2.8E-06  7.8E-05
etot    7  N  N  2  U    -230.05961109508  1.5E-07  0.0E+00  0.0E+00
scf (DFT) done.
der1a (1-e 1st deriv.) done.
rwr (1st deriv. Q) done.
der1b (2-e 1st deriv.) done.
----------------------------------------------------------------
  calculation with applied electric field    6 of  18 follows...
raman (gradient of polarizabilities) done.
rwr (Q operators) done.
scf type: DFT=Becke_3_Parameter/HF+Slater+Becke88+VWN+LYP (B3LYP)
  
       i  u  d  i  g
       t  p  i  c  r                                 RMS    maximum
       e  d  i  u  i                       energy  density   DIIS  
       r  t  s  t  d       total energy    change  change    error 
  
etot    1  N  N  5  M    -230.05331551719           1.8E-03  1.8E-02
etot    2  Y  Y  6  M    -230.05759028459  4.3E-03  4.3E-04  1.2E-02
etot    3  N  Y  2  U    -230.05962904659  2.0E-03  1.8E-04  8.9E-04
etot    4  Y  Y  6  M    -230.05964623818  1.7E-05  3.8E-05  2.7E-04
etot    5  N  Y  2  U    -230.05964232131 -3.9E-06  1.1E-05  5.9E-04
etot    6  N  Y  2  U    -230.05964598505  3.7E-06  2.8E-06  9.5E-05
etot    7  N  N  2  U    -230.05964612971  1.4E-07  0.0E+00  0.0E+00
scf (DFT) done.
der1a (1-e 1st deriv.) done.
rwr (1st deriv. Q) done.
der1b (2-e 1st deriv.) done.
----------------------------------------------------------------
  calculation with applied electric field    7 of  18 follows...
raman (gradient of polarizabilities) done.
rwr (Q operators) done.
scf type: DFT=Becke_3_Parameter/HF+Slater+Becke88+VWN+LYP (B3LYP)
  
       i  u  d  i  g
       t  p  i  c  r                                 RMS    maximum
       e  d  i  u  i                       energy  density   DIIS  
       r  t  s  t  d       total energy    change  change    error 
  
etot    1  N  N  5  M    -230.04796217961           1.9E-03  1.6E-02
etot    2  Y  Y  6  M    -230.04864873787  6.9E-04  6.8E-04  1.9E-02
etot    3  N  Y  2  U    -230.05492640363  6.3E-03  2.1E-04  6.3E-03
etot    4  Y  Y  6  M    -230.05541982498  4.9E-04  8.9E-05  2.4E-03
etot    5  Y  Y  6  M    -230.05549546080  7.6E-05  5.3E-05  7.9E-04
etot    6  N  Y  2  U    -230.05550808676  1.3E-05  1.1E-05  3.1E-04
etot    7  N  Y  2  U    -230.05550929740  1.2E-06  3.2E-06  1.4E-04
etot    8  N  N  2  U    -230.05550955324  2.6E-07  0.0E+00  0.0E+00
scf (DFT) done.
der1a (1-e 1st deriv.) done.
rwr (1st deriv. Q) done.
der1b (2-e 1st deriv.) done.
----------------------------------------------------------------
  calculation with applied electric field    8 of  18 follows...
raman (gradient of polarizabilities) done.
rwr (Q operators) done.
scf type: DFT=Becke_3_Parameter/HF+Slater+Becke88+VWN+LYP (B3LYP)
  
       i  u  d  i  g
       t  p  i  c  r                                 RMS    maximum
       e  d  i  u  i                       energy  density   DIIS  
       r  t  s  t  d       total energy    change  change    error 
  
etot    1  N  N  5  M    -230.05863349179           1.6E-03  1.6E-02
etot    2  Y  Y  6  M    -230.06217346804  3.5E-03  4.9E-04  1.5E-02
etot    3  N  Y  2  U    -230.06560000174  3.4E-03  1.9E-04  5.7E-03
etot    4  Y  Y  6  M    -230.06612084562  5.2E-04  6.6E-05  1.9E-03
etot    5  Y  Y  6  M    -230.06616324407  4.2E-05  4.4E-05  8.5E-04
etot    6  N  Y  2  U    -230.06616642946  3.2E-06  9.4E-06  3.2E-04
etot    7  N  Y  2  U    -230.06616755122  1.1E-06  2.7E-06  1.5E-04
etot    8  N  N  2  U    -230.06616781195  2.6E-07  0.0E+00  0.0E+00
scf (DFT) done.
der1a (1-e 1st deriv.) done.
rwr (1st deriv. Q) done.
der1b (2-e 1st deriv.) done.
----------------------------------------------------------------
  calculation with applied electric field    9 of  18 follows...
raman (gradient of polarizabilities) done.
rwr (Q operators) done.
scf type: DFT=Becke_3_Parameter/HF+Slater+Becke88+VWN+LYP (B3LYP)
  
       i  u  d  i  g
       t  p  i  c  r                                 RMS    maximum
       e  d  i  u  i                       energy  density   DIIS  
       r  t  s  t  d       total energy    change  change    error 
  
etot    1  N  N  5  M    -230.04470648561           2.1E-03  1.6E-02
etot    2  Y  Y  6  M    -230.04240298961 -2.3E-03  7.3E-04  3.0E-02
etot    3  N  Y  2  U    -230.05162776273  9.2E-03  2.4E-04  5.5E-03
etot    4  Y  Y  6  M    -230.05194484838  3.2E-04  8.5E-05  2.1E-03
etot    5  Y  Y  6  M    -230.05202640759  8.2E-05  4.9E-05  6.6E-04
etot    6  N  Y  2  U    -230.05203800814  1.2E-05  8.8E-06  2.0E-04
etot    7  N  Y  2  U    -230.05203884700  8.4E-07  2.5E-06  1.0E-04
etot    8  N  N  2  U    -230.05203898803  1.4E-07  0.0E+00  0.0E+00
scf (DFT) done.
der1a (1-e 1st deriv.) done.
rwr (1st deriv. Q) done.
der1b (2-e 1st deriv.) done.
----------------------------------------------------------------
  calculation with applied electric field   10 of  18 follows...
raman (gradient of polarizabilities) done.
rwr (Q operators) done.
scf type: DFT=Becke_3_Parameter/HF+Slater+Becke88+VWN+LYP (B3LYP)
  
       i  u  d  i  g
       t  p  i  c  r                                 RMS    maximum
       e  d  i  u  i                       energy  density   DIIS  
       r  t  s  t  d       total energy    change  change    error 
  
etot    1  N  N  5  M    -230.06188918578           1.7E-03  1.6E-02
etot    2  Y  Y  6  M    -230.06339995736  1.5E-03  5.0E-04  2.1E-02
etot    3  N  Y  2  U    -230.06876685807  5.4E-03  1.8E-04  4.6E-03
etot    4  Y  Y  6  M    -230.06910579913  3.4E-04  5.7E-05  1.6E-03
etot    5  Y  Y  6  M    -230.06914188349  3.6E-05  3.4E-05  7.1E-04
etot    6  N  Y  2  U    -230.06914393746  2.1E-06  7.2E-06  2.3E-04
etot    7  N  Y  2  U    -230.06914451430  5.8E-07  2.6E-06  1.2E-04
etot    8  N  N  2  U    -230.06914469148  1.8E-07  0.0E+00  0.0E+00
scf (DFT) done.
der1a (1-e 1st deriv.) done.
rwr (1st deriv. Q) done.
der1b (2-e 1st deriv.) done.
----------------------------------------------------------------
  calculation with applied electric field   11 of  18 follows...
raman (gradient of polarizabilities) done.
rwr (Q operators) done.
scf type: DFT=Becke_3_Parameter/HF+Slater+Becke88+VWN+LYP (B3LYP)
  
       i  u  d  i  g
       t  p  i  c  r                                 RMS    maximum
       e  d  i  u  i                       energy  density   DIIS  
       r  t  s  t  d       total energy    change  change    error 
  
etot    1  N  N  5  M    -230.05491684195           1.6E-03  1.3E-02
etot    2  Y  Y  6  M    -230.05725861053  2.3E-03  5.2E-04  1.6E-02
etot    3  N  Y  2  U    -230.05978834014  2.5E-03  1.7E-04  6.1E-03
etot    4  Y  Y  6  M    -230.06028621579  5.0E-04  7.5E-05  1.2E-03
etot    5  Y  Y  6  M    -230.06030018925  1.4E-05  3.8E-05  9.4E-04
etot    6  N  Y  2  U    -230.06030466251  4.5E-06  1.2E-05  3.8E-04
etot    7  N  Y  2  U    -230.06030654280  1.9E-06  3.3E-06  1.6E-04
etot    8  N  N  2  U    -230.06030686772  3.2E-07  0.0E+00  0.0E+00
scf (DFT) done.
der1a (1-e 1st deriv.) done.
rwr (1st deriv. Q) done.
der1b (2-e 1st deriv.) done.
----------------------------------------------------------------
  calculation with applied electric field   12 of  18 follows...
raman (gradient of polarizabilities) done.
rwr (Q operators) done.
scf type: DFT=Becke_3_Parameter/HF+Slater+Becke88+VWN+LYP (B3LYP)
  
       i  u  d  i  g
       t  p  i  c  r                                 RMS    maximum
       e  d  i  u  i                       energy  density   DIIS  
       r  t  s  t  d       total energy    change  change    error 
  
etot    1  N  N  5  M    -230.05167882944           1.6E-03  1.3E-02
etot    2  Y  Y  6  M    -230.05392966967  2.3E-03  5.3E-04  1.6E-02
etot    3  N  Y  2  U    -230.05652401028  2.6E-03  1.7E-04  5.8E-03
etot    4  Y  Y  6  M    -230.05703315401  5.1E-04  9.2E-05  1.6E-03
etot    5  Y  Y  6  M    -230.05705720214  2.4E-05  3.9E-05  9.9E-04
etot    6  N  Y  2  U    -230.05706843141  1.1E-05  1.4E-05  3.4E-04
etot    7  N  Y  2  U    -230.05706993001  1.5E-06  3.3E-06  1.6E-04
etot    8  N  N  2  U    -230.05707026232  3.3E-07  0.0E+00  0.0E+00
scf (DFT) done.
der1a (1-e 1st deriv.) done.
rwr (1st deriv. Q) done.
der1b (2-e 1st deriv.) done.
----------------------------------------------------------------
  calculation with applied electric field   13 of  18 follows...
raman (gradient of polarizabilities) done.
rwr (Q operators) done.
scf type: DFT=Becke_3_Parameter/HF+Slater+Becke88+VWN+LYP (B3LYP)
  
       i  u  d  i  g
       t  p  i  c  r                                 RMS    maximum
       e  d  i  u  i                       energy  density   DIIS  
       r  t  s  t  d       total energy    change  change    error 
  
etot    1  N  N  5  M    -230.05166114795           1.6E-03  1.3E-02
etot    2  Y  Y  6  M    -230.05390853683  2.2E-03  5.3E-04  1.6E-02
etot    3  N  Y  2  U    -230.05651631273  2.6E-03  1.7E-04  5.7E-03
etot    4  Y  Y  6  M    -230.05702679163  5.1E-04  9.2E-05  1.6E-03
etot    5  Y  Y  6  M    -230.05705096620  2.4E-05  3.9E-05  1.0E-03
etot    6  N  Y  2  U    -230.05706232525  1.1E-05  1.4E-05  3.4E-04
etot    7  N  Y  2  U    -230.05706381493  1.5E-06  3.3E-06  1.6E-04
etot    8  N  N  2  U    -230.05706414748  3.3E-07  0.0E+00  0.0E+00
scf (DFT) done.
der1a (1-e 1st deriv.) done.
rwr (1st deriv. Q) done.
der1b (2-e 1st deriv.) done.
----------------------------------------------------------------
  calculation with applied electric field   14 of  18 follows...
raman (gradient of polarizabilities) done.
rwr (Q operators) done.
scf type: DFT=Becke_3_Parameter/HF+Slater+Becke88+VWN+LYP (B3LYP)
  
       i  u  d  i  g
       t  p  i  c  r                                 RMS    maximum
       e  d  i  u  i                       energy  density   DIIS  
       r  t  s  t  d       total energy    change  change    error 
  
etot    1  N  N  5  M    -230.05493452344           1.6E-03  1.3E-02
etot    2  Y  Y  6  M    -230.05727436877  2.3E-03  5.2E-04  1.6E-02
etot    3  N  Y  2  U    -230.05981588115  2.5E-03  1.7E-04  6.1E-03
etot    4  Y  Y  6  M    -230.06031507100  5.0E-04  7.5E-05  1.2E-03
etot    5  Y  Y  6  M    -230.06032898077  1.4E-05  3.8E-05  9.4E-04
etot    6  N  Y  2  U    -230.06033367011  4.7E-06  1.2E-05  3.8E-04
etot    7  N  Y  2  U    -230.06033553787  1.9E-06  3.2E-06  1.6E-04
etot    8  N  N  2  U    -230.06033586264  3.2E-07  0.0E+00  0.0E+00
scf (DFT) done.
der1a (1-e 1st deriv.) done.
rwr (1st deriv. Q) done.
der1b (2-e 1st deriv.) done.
----------------------------------------------------------------
  calculation with applied electric field   15 of  18 follows...
raman (gradient of polarizabilities) done.
rwr (Q operators) done.
scf type: DFT=Becke_3_Parameter/HF+Slater+Becke88+VWN+LYP (B3LYP)
  
       i  u  d  i  g
       t  p  i  c  r                                 RMS    maximum
       e  d  i  u  i                       energy  density   DIIS  
       r  t  s  t  d       total energy    change  change    error 
  
etot    1  N  N  5  M    -230.04632549186           1.8E-03  1.3E-02
etot    2  Y  Y  6  M    -230.04550128594 -8.2E-04  6.4E-04  2.4E-02
etot    3  N  Y  2  U    -230.05093705471  5.4E-03  2.0E-04  6.7E-03
etot    4  Y  Y  6  M    -230.05145712090  5.2E-04  9.3E-05  1.6E-03
etot    5  Y  Y  6  M    -230.05148983504  3.3E-05  4.5E-05  7.9E-04
etot    6  N  Y  2  U    -230.05150436112  1.5E-05  1.1E-05  3.1E-04
etot    7  N  Y  2  U    -230.05150525409  8.9E-07  2.1E-06  5.5E-05
etot    8  N  N  2  U    -230.05150534621  9.2E-08  0.0E+00  0.0E+00
scf (DFT) done.
der1a (1-e 1st deriv.) done.
rwr (1st deriv. Q) done.
der1b (2-e 1st deriv.) done.
----------------------------------------------------------------
  calculation with applied electric field   16 of  18 follows...
raman (gradient of polarizabilities) done.
rwr (Q operators) done.
scf type: DFT=Becke_3_Parameter/HF+Slater+Becke88+VWN+LYP (B3LYP)
  
       i  u  d  i  g
       t  p  i  c  r                                 RMS    maximum
       e  d  i  u  i                       energy  density   DIIS  
       r  t  s  t  d       total energy    change  change    error 
  
etot    1  N  N  5  M    -230.06027017953           1.4E-03  1.3E-02
etot    2  Y  Y  6  M    -230.06157450618  1.3E-03  4.6E-04  1.8E-02
etot    3  N  Y  2  U    -230.06485870065  3.3E-03  1.7E-04  6.4E-03
etot    4  Y  Y  6  M    -230.06538139114  5.2E-04  5.7E-05  1.4E-03
etot    5  Y  Y  6  M    -230.06539615760  1.5E-05  2.9E-05  6.6E-04
etot    6  N  Y  2  U    -230.06539704760  8.9E-07  9.6E-06  2.9E-04
etot    7  N  Y  2  U    -230.06539795975  9.1E-07  1.9E-06  5.2E-05
etot    8  N  N  2  U    -230.06539801454  5.5E-08  0.0E+00  0.0E+00
scf (DFT) done.
der1a (1-e 1st deriv.) done.
rwr (1st deriv. Q) done.
der1b (2-e 1st deriv.) done.
----------------------------------------------------------------
  calculation with applied electric field   17 of  18 follows...
raman (gradient of polarizabilities) done.
rwr (Q operators) done.
scf type: DFT=Becke_3_Parameter/HF+Slater+Becke88+VWN+LYP (B3LYP)
  
       i  u  d  i  g
       t  p  i  c  r                                 RMS    maximum
       e  d  i  u  i                       energy  density   DIIS  
       r  t  s  t  d       total energy    change  change    error 
  
etot    1  N  N  5  M    -230.06025249804           1.6E-03  1.3E-02
etot    2  Y  Y  6  M    -230.05968175438 -5.7E-04  5.9E-04  2.1E-02
etot    3  N  Y  2  U    -230.06483251700  5.2E-03  1.7E-04  6.4E-03
etot    4  Y  Y  6  M    -230.06535672898  5.2E-04  5.8E-05  1.4E-03
etot    5  Y  Y  6  M    -230.06537138592  1.5E-05  2.9E-05  6.7E-04
etot    6  N  Y  2  U    -230.06537230135  9.2E-07  9.7E-06  2.9E-04
etot    7  N  Y  2  U    -230.06537322019  9.2E-07  1.9E-06  5.3E-05
etot    8  N  N  2  U    -230.06537327489  5.5E-08  0.0E+00  0.0E+00
scf (DFT) done.
der1a (1-e 1st deriv.) done.
rwr (1st deriv. Q) done.
der1b (2-e 1st deriv.) done.
----------------------------------------------------------------
  calculation with applied electric field   18 of  18 follows...
raman (gradient of polarizabilities) done.
rwr (Q operators) done.
scf type: DFT=Becke_3_Parameter/HF+Slater+Becke88+VWN+LYP (B3LYP)
  
       i  u  d  i  g
       t  p  i  c  r                                 RMS    maximum
       e  d  i  u  i                       energy  density   DIIS  
       r  t  s  t  d       total energy    change  change    error 
  
etot    1  N  N  5  M    -230.04634317335           1.8E-03  1.3E-02
etot    2  Y  Y  6  M    -230.04553448478 -8.1E-04  6.4E-04  2.4E-02
etot    3  N  Y  2  U    -230.05094556049  5.4E-03  2.0E-04  6.7E-03
etot    4  Y  Y  6  M    -230.05146733925  5.2E-04  9.3E-05  1.6E-03
etot    5  Y  Y  6  M    -230.05149997296  3.3E-05  4.5E-05  7.9E-04
etot    6  N  Y  2  U    -230.05151443413  1.4E-05  1.1E-05  3.1E-04
etot    7  N  Y  2  U    -230.05151533493  9.0E-07  2.1E-06  5.5E-05
etot    8  N  N  2  U    -230.05151542766  9.3E-08  0.0E+00  0.0E+00
scf (DFT) done.
der1a (1-e 1st deriv.) done.
rwr (1st deriv. Q) done.
der1b (2-e 1st deriv.) done.
-------------------------------------------------------
gradient of polarizability calculations complete
raman (gradient of polarizabilities) done.
freq (vib. frequencies) done.
Job furan_raman_3 completed on node021 at Tue Feb 24 15:26:52 2015
