Job furan_raman_3 started on node021 at Tue Feb 24 15:17:25 2015
jobid: volta-0-54ecdc53

  +--------------------------------------------------------------------+
  |  Jaguar version 8.5, release  13                                   |
  |                                                                    |
  |  Copyright Schrodinger, Inc.                                       |
  |  All Rights Reserved.                                              |
  |                                                                    |
  |  The following have contributed to Jaguar (listed alphabetically): |
  |  Mike Beachy, Art Bochevarov, Dale Braden, Yixiang Cao,            |
  |  Chris Cortis, Rich Friesner, Bill Goddard, Hod Greeley,           |
  |  Tom Hughes, Jean-Marc Langlois, Daniel Mainz, Rob Murphy,         |
  |  Dean Philipp, Tom Pollard, Murco Ringnalda.                       |
  |                                                                    |
  |  Use of this program should be acknowledged in publications as:    |
  |                                                                    |
  |  Jaguar, version 8.5, Schrodinger, Inc., New York, NY, 2014.       |
  |                                                                    |
  |  A. D. Bochevarov, E. Harder, T. F. Hughes, J. R. Greenwood,       |
  |  D. A. Braden, D. M. Philipp, D. Rinaldo, M. D. Halls,             |
  |  J. Zhang, R. A. Friesner, "Jaguar: A High-Performance Quantum     |
  |  Chemistry Software Program with Strengths in Life and Materials   |
  |  Sciences", Int. J. Quantum Chem., 2013, 113(18), 2110-2142.       |
  +--------------------------------------------------------------------+
  
  start of program pre
  
  Job name: furan_raman_3
  Executables used: /opt/schrodinger2014-3/jaguar-v85013/bin/Linux-x86_64
  Temporary files : /home/srmcgrat/.schrodinger/tmp/furan_raman_3
  Maestro file (input):  furan_raman_3.mae
  Maestro file (output): furan_raman_3.01.mae
  
  
  basis set:             6-311g**        
  net molecular charge:    0
  multiplicity:            1
  
  number of basis functions....          114
  
 Input geometry:
                                   angstroms
  atom               x                 y                 z
  C1           -1.1056938182     -0.0318398182      1.8660392727 
  C2           -0.4211938182     -1.1811398182      1.8640392727 
  C3            1.0083051818     -0.8470398182      1.8625392727 
  C4            1.1125061818      0.4865601818      1.8636392727 
  O5           -0.2194948182      1.1810601818      1.8660392727 
  H6           -2.2067938182      0.0369601818      1.8674392727 
  H7           -0.8486938182     -2.1972398182      1.8636392727 
  H8            1.8419051818     -1.5683398182      1.8608392727 
  H9            2.0691051818      1.0362601818      1.8629392727 
   
  principal moments of inertia:
        amu*angstrom^2:       57.62919       58.90223      116.53142
                g*cm^2: 9.56955087E-39 9.78094389E-39 1.93504948E-38
   
  rotational constants:
               cm^(-1):      0.29251893      0.28619680      0.14466167
                   GHz:      8.76949704      8.57996416      4.33684767
   
  Molecular weight:      68.03 amu
   
  Stoichiometry: C4H4O
  Molecular Point Group: C1      
  Point Group used: C1 (symmetry turned off)
  
  nuclear repulsion energy.......     154.843260697 hartrees
 
 Non-default options chosen:
   SCF calculation type: DFT(b3lyp)                  
   DFT=Becke_3_Parameter/HF+Slater+Becke88+VWN+LYP (B3LYP)
   Vibrational frequencies and related properties will be computed
      from analytic second derivatives
   IR intensities will be computed
   Store KE, NAI, and pt. chg. terms separately
  
 Temporary integer options set:
     73=  2
  
  Peak memory usage:    570 Mb
  
  end of program pre
   
 Time(pre)  user:        0.2  user+sys:        0.2  wallclock:        0.6
  
  start of program onee
  
  smallest eigenvalue of S:    7.051E-04
  number of canonical orbitals.....          114
  Peak memory usage:    708 Mb
  
  end of program onee
   
 Time(onee)  user:        0.2  user+sys:        0.2  wallclock:        0.2
  
  start of program hfig
  
  initial wavefunction generated automatically from atomic wavefunctions
 
  Irreducible     Total no   No of occupied orbitals 
  representation  orbitals   Shell_1  Shell_2    ...
  No Symm          114         18
  ------------------------
  Orbital occupation/shell    1.000
 
  Peak memory usage:    649 Mb
  
  end of program hfig
   
 Time(hfig)  user:        0.1  user+sys:        0.1  wallclock:        0.2
  
  start of program probe
  
  Peak memory usage:    649 Mb
  
  end of program probe
   
 Time(probe)  user:        0.1  user+sys:        0.1  wallclock:        0.1
  
  start of program grid
  
  
   grid     grid set  grid #  grid sym
  ------    --------  ------  --------
  coarse        0        0        1
  medium        2        1        1
  fine          0        0        1
  ultrafine     4        2        1
  charge        0        0        1
  gradient      4        2        1
  density       0        0        1
  DFT-fine    -11        3        1
  DFT-med.    -10        4        1
  DFT-grad    -12        5        1
  DFT-der2     -8        6        1
  DFT-cphf     -9        7        1
  LMP2-enrg     4        2        1
  LMP2-grad     2        1        1
  DFT-cphf2   -15        8        1
  PBF-dens      0        0        1
  plotting      0        0        1
  Rel-grad    -17        0        1
  
   
  number of gridpoints: 
     atom        C1       C2       C3       C4       O5       H6       H7
  grid # 1      175      173      173      175      232      156      156
  grid # 2      342      336      336      342      487      329      329
  grid # 3     4304     4304     4304     4304     4304     4304     4304
  grid # 4     1192     1192     1192     1192     1192     1192     1192
  grid # 5     5226     5226     5226     5226     5226     5226     5226
  grid # 6    12650    12650    12650    12650    23504    13718    13718
  grid # 7      688      688      688      688      714      744      744
  grid # 8      358      358      358      358      360      382      382
   
  number of gridpoints: 
     atom        H8       H9    total
  grid # 1      156      156     1552
  grid # 2      329      329     3159
  grid # 3     4304     4304    38736
  grid # 4     1192     1192    10728
  grid # 5     5226     5226    47034
  grid # 6    13718    13718   128976
  grid # 7      744      744     6442
  grid # 8      382      382     3320
   
  Peak memory usage:    689 Mb
  
  end of program grid
   
 Time(grid)  user:        0.8  user+sys:        0.8  wallclock:        2.5
  
  start of program rwr
  
  Peak memory usage:    574 Mb
  
  end of program rwr
   
 Time(rwr)  user:        0.8  user+sys:        0.8  wallclock:        1.4
  
  start of program scf
  
 number of electrons..........         36
 number of alpha electrons....         18
 number of beta electrons.....         18
 number of orbitals, total....        114
 number of doubly-occ'd orbs..         18
 number of open shell orbs....          0
 number of occupied orbitals..         18
 number of virtual orbitals...         96
 number of hamiltonians.......          1
 number of shells.............          1
 SCF type: DFT=Becke_3_Parameter/HF+Slater+Becke88+VWN+LYP (B3LYP)
  
       i  u  d  i  g                   
       t  p  i  c  r                                 RMS    maximum
       e  d  i  u  i                       energy  density   DIIS  
       r  t  s  t  d       total energy    change  change    error 
  
etot    1  N  N  5  M    -229.42118591442           4.8E-03  1.3E-01
etot    2  Y  Y  6  M    -229.91229181665  4.9E-01  4.0E-03  1.2E-01
etot    3  Y  Y  6  M    -229.85919390809 -5.3E-02  2.7E-03  1.3E-01
etot    4  N  Y  2  U    -230.03932307820  1.8E-01  1.0E-03  2.8E-02
etot    5  Y  Y  6  M    -230.05203362374  1.3E-02  3.5E-04  9.6E-03
etot    6  N  Y  2  U    -230.05298521695  9.5E-04  9.6E-05  5.1E-03
etot    7  Y  Y  6  M    -230.05322299707  2.4E-04  2.0E-05  4.7E-04
etot    8  N  Y  2  U    -230.05323123208  8.2E-06  2.3E-06  6.5E-05
etot    9  N  N  2  U    -230.05323133955  1.1E-07  0.0E+00  0.0E+00
  
  
 Energy components, in hartrees:
   (A)  Nuclear repulsion............     154.84326069655
   (E)  Total one-electron terms.....    -617.72249487794
   (F)    Electron-nuclear...........    -846.41053133012
   (H)    Kinetic....................     228.68803645218
   (I)  Total two-electron terms.....     232.82600284184
   (J)    Coulomb....................     264.48712488305
   (K)    Exchange+Correlation.......     -31.66112204121
   (L)  Electronic energy............    -384.89649203610  (E+I)
   (M)  -V/T.........................       2.00596968214  (-(A+F+I)/H)
   (N)  Total energy.................    -230.05323133955  (A+L)
  
 SCFE: SCF energy: DFT(b3lyp)      -230.05323133955 hartrees   iterations:   9
  
 
 HOMO energy:    -0.24304
 LUMO energy:    -0.01160
 
  Orbital energies (hartrees): 
   -19.18176   -10.23049   -10.23047   -10.18193   -10.18160    -1.03686
    -0.80823    -0.73369    -0.58182    -0.56669    -0.52968    -0.43268
    -0.41849    -0.41205    -0.38830    -0.37939    -0.28723    -0.24304
    -0.01160     0.04949     0.06036     0.06170     0.07556     0.09958
     0.11810     0.12543     0.26471     0.29473
 
  Peak memory usage:    791 Mb
  
  end of program scf
   
 Time(scf)  user:        6.9  user+sys:        6.9  wallclock:        8.4
  
  start of program cutabab2
  
  Peak memory usage:    663 Mb
  
  end of program cutabab2
   
 Time(cutabab2)  user:        0.2  user+sys:        0.2  wallclock:        0.3
  
  start of program der2a
  
  Peak memory usage:    711 Mb
  
  end of program der2a
   
 Time(der2a)  user:        0.2  user+sys:        0.2  wallclock:        0.3
  
  start of program der2b
  
  Peak memory usage:    859 Mb
  
  end of program der2b
   
 Time(der2b)  user:       25.6  user+sys:       25.6  wallclock:       25.7
  
  start of program der2nda
  
 
  Peak memory usage:    708 Mb
  
  end of program der2nda
   
 Time(der2nda)  user:        0.2  user+sys:        0.2  wallclock:        0.2
  
  start of program der2ndb
  
  Peak memory usage:    681 Mb
  
  end of program der2ndb
   
 Time(der2ndb)  user:       76.2  user+sys:       76.2  wallclock:       76.2
  
  start of program rwr
  
  Peak memory usage:    574 Mb
  
  end of program rwr
   
 Time(rwr)  user:        0.8  user+sys:        0.8  wallclock:        0.9
  
  start of program cphfa
  
       1  vectors produced in CPHF
  
     v    i  j  k  i  g
     e    t  c  c  c  r
     c    e  o  o  u  i
     t    r  r  r  t  d       RMS  
  
     1    1  0  0  6  M     2.7E-02
     1    2  0  0  6  M     2.3E-03
     1    3  0  0  6  M     7.4E-04
     1    4  0  0  6  M     2.6E-04
     1    5  0  0  6  M     9.3E-05
     1    6  0  0  6  M     2.0E-05
  
  
  Atomic Polar Tensors (au): Total
  =========================
  
  APT for atom C1      
  --------------------------------------
        0.1047       0.0187      -0.0002
        0.0932       0.4543       0.0004
       -0.0001       0.0005      -0.0985
  --------------------------------------
  
  APT for atom C2      
  --------------------------------------
       -0.0309       0.1454      -0.0000
        0.1017      -0.0642      -0.0000
       -0.0001      -0.0001      -0.1654
  --------------------------------------
  
  APT for atom C3      
  --------------------------------------
        0.0607      -0.0836      -0.0004
       -0.0399      -0.1558       0.0001
       -0.0003       0.0001      -0.1653
  --------------------------------------
  
  APT for atom C4      
  --------------------------------------
        0.2179      -0.1356      -0.0005
       -0.2100       0.3411       0.0007
       -0.0006       0.0006      -0.0985
  --------------------------------------
  
  APT for atom O5      
  --------------------------------------
       -0.4118       0.0848       0.0004
        0.0848      -0.7550      -0.0007
        0.0004      -0.0007      -0.1700
  --------------------------------------
  
  APT for atom H6      
  --------------------------------------
       -0.0054       0.0210       0.0003
       -0.0263       0.0683      -0.0001
        0.0002      -0.0001       0.1896
  --------------------------------------
  
  APT for atom H7      
  --------------------------------------
        0.0617      -0.0676       0.0001
       -0.0643      -0.0050      -0.0001
        0.0001      -0.0001       0.1593
  --------------------------------------
  
  APT for atom H8      
  --------------------------------------
       -0.0038       0.0681       0.0003
        0.0649       0.0605      -0.0002
        0.0003      -0.0002       0.1593
  --------------------------------------
  
  APT for atom H9      
  --------------------------------------
        0.0069      -0.0514       0.0002
       -0.0041       0.0559      -0.0001
        0.0002      -0.0001       0.1896
  --------------------------------------
  
  Peak memory usage:    791 Mb
  
  end of program cphfa
   
 Time(cphfa)  user:       51.5  user+sys:       51.5  wallclock:       51.8
  
  start of program rwr
  
  Peak memory usage:    574 Mb
  
  end of program rwr
   
 Time(rwr)  user:        0.8  user+sys:        0.8  wallclock:        1.0
  
  start of program scf
  
 number of electrons..........         36
 number of alpha electrons....         18
 number of beta electrons.....         18
 number of orbitals, total....        114
 number of doubly-occ'd orbs..         18
 number of open shell orbs....          0
 number of occupied orbitals..         18
 number of virtual orbitals...         96
 number of hamiltonians.......          1
 number of shells.............          1
 SCF type: DFT=Becke_3_Parameter/HF+Slater+Becke88+VWN+LYP (B3LYP)
  
       i  u  d  i  g                   
       t  p  i  c  r                                 RMS    maximum
       e  d  i  u  i                       energy  density   DIIS  
       r  t  s  t  d       total energy    change  change    error 
  
etot    1  N  N  5  M    -230.05329491408           1.7E-04  9.2E-04
etot    2  Y  Y  6  M    -230.05329297803 -1.9E-06  2.4E-06  3.2E-05
etot    3  N  Y  2  U    -230.05321875614 -7.4E-05  4.1E-05  9.0E-04
etot    4  N  Y  2  U    -230.05322402501  5.3E-06  4.2E-05  6.9E-04
etot    5  N  Y  2  U    -230.05322790366  3.9E-06  1.2E-05  4.7E-04
etot    6  N  Y  2  U    -230.05322874524  8.4E-07  8.6E-06  4.1E-04
etot    7  N  Y  2  U    -230.05322928378  5.4E-07  6.8E-06  3.6E-04
etot    8  N  Y  2  U    -230.05322967017  3.9E-07  5.6E-06  3.3E-04
etot    9  N  Y  2  U    -230.05322995561  2.9E-07  4.7E-06  3.0E-04
etot   10  N  N  2  U    -230.05323017590  2.2E-07  0.0E+00  0.0E+00
  
  
 Energy components, in hartrees:
   (A)  Nuclear repulsion............     154.84326069655
   (E)  Total one-electron terms.....    -617.72198879789
   (F)    Electron-nuclear...........    -846.40936317988
   (H)    Kinetic....................     228.68737438199
   (I)  Total two-electron terms.....     232.82549792544
   (J)    Coulomb....................     264.48654939065
   (K)    Exchange+Correlation.......     -31.66105146521
   (L)  Electronic energy............    -384.89649087246  (E+I)
   (M)  -V/T.........................       2.00597258943  (-(A+F+I)/H)
   (N)  Total energy.................    -230.05323017590  (A+L)
  
 SCFE: SCF energy: DFT(b3lyp)      -230.05323017590 hartrees   iterations:  10
  
 
 HOMO energy:    -0.24305
 LUMO energy:    -0.01161
 
  Orbital energies (hartrees): 
   -19.18185   -10.23051   -10.23048   -10.18193   -10.18160    -1.03689
    -0.80824    -0.73369    -0.58182    -0.56670    -0.52968    -0.43270
    -0.41849    -0.41207    -0.38830    -0.37941    -0.28724    -0.24305
    -0.01161     0.04949     0.06035     0.06170     0.07555     0.09957
     0.11810     0.12541     0.26471     0.29473
 
  Peak memory usage:    791 Mb
  
  end of program scf
   
 Time(scf)  user:       11.0  user+sys:       11.0  wallclock:       13.5
  
  start of program der1a
  
  Peak memory usage:    710 Mb
  
  end of program der1a
   
 Time(der1a)  user:        0.2  user+sys:        0.2  wallclock:        0.2
  
  start of program rwr
  
  Will use SVD to solve RwR matrix  5 for grid 2
  for gradients; estimated inverse condition number = 6.2E-15
  Peak memory usage:    575 Mb
  
  end of program rwr
   
 Time(rwr)  user:        0.7  user+sys:        0.7  wallclock:        1.0
  
  start of program der1b
  
   
  forces (hartrees/bohr) : total     
   
 atom  label           x              y              z
 ---- --------   -------------  -------------  -------------
    1 C1          5.038337E-03   3.712749E-02   2.036965E-05
    2 C2          1.974944E-02  -7.736948E-03  -2.456023E-05
    3 C3         -1.428494E-02  -1.570431E-02   2.233699E-06
    4 C4         -2.094683E-02   3.109824E-02   6.237293E-05
    5 O5          2.198074E-02  -9.404077E-02  -1.217084E-04
    6 H6          1.772971E-02   1.627522E-02  -3.379782E-06
    7 H7          4.229671E-03   1.481926E-02   7.387488E-06
    8 H8         -1.035481E-02   1.139681E-02   2.110916E-05
    9 H9         -2.312958E-02   6.719456E-03   3.649013E-05
 -------------   -------------  -------------  -------------
     total        1.175077E-05  -4.555525E-05   3.146795E-07
   
  Peak memory usage:    790 Mb
  
  end of program der1b
   
 Time(der1b)  user:        3.1  user+sys:        3.1  wallclock:        3.3
  
  start of program raman
  
  calculation with applied electric field of
     Ex= 0.02400 Ey= 0.00000 Ez= 0.00000 follows...
  nuclear repulsion energy.......     154.843260697 hartrees
  nuclear electric field energy..      -0.120781008 hartrees
  Peak memory usage:    534 Mb
  
  end of program raman
   
 Time(raman)  user:        0.1  user+sys:        0.1  wallclock:        0.1
  
  start of program rwr
  
  Peak memory usage:    574 Mb
  
  end of program rwr
   
 Time(rwr)  user:        0.7  user+sys:        0.7  wallclock:        0.9
  
  start of program scf
  
 number of electrons..........         36
 number of alpha electrons....         18
 number of beta electrons.....         18
 number of orbitals, total....        114
 number of doubly-occ'd orbs..         18
 number of open shell orbs....          0
 number of occupied orbitals..         18
 number of virtual orbitals...         96
 number of hamiltonians.......          1
 number of shells.............          1
 SCF type: DFT=Becke_3_Parameter/HF+Slater+Becke88+VWN+LYP (B3LYP)
  
       i  u  d  i  g                   
       t  p  i  c  r                                 RMS    maximum
       e  d  i  u  i                       energy  density   DIIS  
       r  t  s  t  d       total energy    change  change    error 
  
etot    1  N  N  5  M    -230.05655352969           2.2E-03  2.5E-02
etot    2  Y  Y  6  M    -230.06611594262  9.6E-03  6.6E-04  2.4E-02
etot    3  N  Y  2  U    -230.07088449138  4.8E-03  2.3E-04  8.4E-03
etot    4  Y  Y  6  M    -230.07196368821  1.1E-03  8.8E-05  1.4E-03
etot    5  Y  Y  6  M    -230.07197963935  1.6E-05  5.0E-05  1.4E-03
etot    6  N  Y  2  U    -230.07199683947  1.7E-05  1.3E-05  4.7E-04
etot    7  N  Y  2  U    -230.07199968017  2.8E-06  3.8E-06  1.7E-04
etot    8  N  N  2  U    -230.07200010873  4.3E-07  0.0E+00  0.0E+00
  
  
 Energy components, in hartrees:
   (A)  Nuclear repulsion............     154.72247968825
   (E)  Total one-electron terms.....    -617.62218111626
   (F)    Electron-nuclear...........    -846.40246762842
   (H)    Kinetic....................     228.69395705321
   (I)  Total two-electron terms.....     232.82770131928
   (J)    Coulomb....................     264.48737494095
   (K)    Exchange+Correlation.......     -31.65967362167
   (L)  Electronic energy............    -384.79447979698  (E+I)
   (M)  -V/T.........................       2.00640319724  (-(A+F+I)/H)
   (N)  Total energy.................    -230.07200010873  (A+L)
  
 SCFE: SCF energy: DFT(b3lyp)      -230.07200010873 hartrees   iterations:   8
  
 
 HOMO energy:    -0.23629
 LUMO energy:    -0.02404
 
  Orbital energies (hartrees): 
   -19.18143   -10.24359   -10.21201   -10.19396   -10.15985    -1.03692
    -0.80696    -0.73051    -0.58690    -0.55863    -0.52882    -0.43203
    -0.41240    -0.41212    -0.37776    -0.37566    -0.28709    -0.23629
    -0.02404    -0.01294     0.03764     0.07226     0.08409     0.12641
     0.15038     0.17912     0.26240     0.28322
 
  Peak memory usage:    791 Mb
  
  end of program scf
   
 Time(scf)  user:        6.7  user+sys:        6.7  wallclock:        8.2
  
  start of program der1a
  
  Peak memory usage:    710 Mb
  
  end of program der1a
   
 Time(der1a)  user:        0.2  user+sys:        0.2  wallclock:        0.2
  
  start of program rwr
  
  Peak memory usage:    575 Mb
  
  end of program rwr
   
 Time(rwr)  user:        0.7  user+sys:        0.7  wallclock:        1.0
  
  start of program der1b
  
   
  forces (hartrees/bohr) : total     
   
 atom  label           x              y              z
 ---- --------   -------------  -------------  -------------
    1 C1          6.931536E-03   4.090925E-02   1.898389E-05
    2 C2          2.152834E-02  -6.598252E-03  -3.277740E-05
    3 C3         -1.473235E-02  -1.810929E-02  -3.314102E-06
    4 C4         -1.570911E-02   2.735929E-02   5.127414E-05
    5 O5          1.208426E-02  -9.158313E-02  -1.124901E-04
    6 H6          1.411758E-02   1.572578E-02   3.970826E-06
    7 H7          5.296391E-03   1.278581E-02   8.777747E-06
    8 H8         -8.805909E-03   1.197275E-02   2.540884E-05
    9 H9         -2.069158E-02   7.489412E-03   4.045456E-05
 -------------   -------------  -------------  -------------
     total        1.915675E-05  -4.837836E-05   2.883942E-07
   
  Peak memory usage:    790 Mb
  
  end of program der1b
   
 Time(der1b)  user:        3.1  user+sys:        3.1  wallclock:        3.3
  
  start of program raman
  
  calculation with applied electric field of
     Ex=-0.02400 Ey= 0.00000 Ez= 0.00000 follows...
  nuclear repulsion energy.......     154.843260697 hartrees
  nuclear electric field energy..       0.120781008 hartrees
  Peak memory usage:    534 Mb
  
  end of program raman
   
 Time(raman)  user:        0.1  user+sys:        0.1  wallclock:        0.1
  
  start of program rwr
  
  Peak memory usage:    574 Mb
  
  end of program rwr
   
 Time(rwr)  user:        0.8  user+sys:        0.8  wallclock:        0.9
  
  start of program scf
  
 number of electrons..........         36
 number of alpha electrons....         18
 number of beta electrons.....         18
 number of orbitals, total....        114
 number of doubly-occ'd orbs..         18
 number of open shell orbs....          0
 number of occupied orbitals..         18
 number of virtual orbitals...         96
 number of hamiltonians.......          1
 number of shells.............          1
 SCF type: DFT=Becke_3_Parameter/HF+Slater+Becke88+VWN+LYP (B3LYP)
  
       i  u  d  i  g                   
       t  p  i  c  r                                 RMS    maximum
       e  d  i  u  i                       energy  density   DIIS  
       r  t  s  t  d       total energy    change  change    error 
  
etot    1  N  N  5  M    -230.05004214170           2.7E-03  2.5E-02
etot    2  Y  Y  6  M    -230.05389577100  3.9E-03  9.6E-04  3.2E-02
etot    3  N  Y  2  U    -230.06431360090  1.0E-02  2.5E-04  7.1E-03
etot    4  Y  Y  6  M    -230.06536841046  1.1E-03  1.1E-04  2.9E-03
etot    5  Y  Y  6  M    -230.06544928212  8.1E-05  5.9E-05  1.6E-03
etot    6  N  Y  2  U    -230.06547646157  2.7E-05  1.5E-05  4.2E-04
etot    7  N  Y  2  U    -230.06547914781  2.7E-06  3.9E-06  1.6E-04
etot    8  N  N  2  U    -230.06547952354  3.8E-07  0.0E+00  0.0E+00
  
  
 Energy components, in hartrees:
   (A)  Nuclear repulsion............     154.96404170485
   (E)  Total one-electron terms.....    -617.72110696173
   (F)    Electron-nuclear...........    -846.25171260983
   (H)    Kinetic....................     228.67928820625
   (I)  Total two-electron terms.....     232.69158573333
   (J)    Coulomb....................     264.34388794382
   (K)    Exchange+Correlation.......     -31.65230221049
   (L)  Electronic energy............    -385.02952122839  (E+I)
   (M)  -V/T.........................       2.00541154719  (-(A+F+I)/H)
   (N)  Total energy.................    -230.06547952354  (A+L)
  
 SCFE: SCF energy: DFT(b3lyp)      -230.06547952354 hartrees   iterations:   8
  
 
 HOMO energy:    -0.24692
 LUMO energy:    -0.02755
 
  Orbital energies (hartrees): 
   -19.18809   -10.25342   -10.22217   -10.20830   -10.17442    -1.04201
    -0.81962    -0.74100    -0.59885    -0.56870    -0.54231    -0.44137
    -0.42611    -0.41870    -0.38967    -0.38141    -0.29733    -0.24692
    -0.02755    -0.02272     0.00222     0.05801     0.07721     0.11419
     0.11985     0.17434     0.24674     0.26530
 
  Peak memory usage:    791 Mb
  
  end of program scf
   
 Time(scf)  user:        6.6  user+sys:        6.6  wallclock:        8.0
  
  start of program der1a
  
  Peak memory usage:    710 Mb
  
  end of program der1a
   
 Time(der1a)  user:        0.2  user+sys:        0.2  wallclock:        0.2
  
  start of program rwr
  
  Peak memory usage:    575 Mb
  
  end of program rwr
   
 Time(rwr)  user:        0.7  user+sys:        0.7  wallclock:        0.9
  
  start of program der1b
  
   
  forces (hartrees/bohr) : total     
   
 atom  label           x              y              z
 ---- --------   -------------  -------------  -------------
    1 C1          1.902474E-03   3.665554E-02   2.293155E-05
    2 C2          2.283232E-02  -1.142690E-02  -2.734333E-05
    3 C3         -1.765777E-02  -1.609177E-02   1.221342E-05
    4 C4         -2.588781E-02   3.728276E-02   7.900626E-05
    5 O5          3.122234E-02  -9.578726E-02  -1.298813E-04
    6 H6          1.472179E-02   1.698976E-02  -4.788300E-06
    7 H7          2.290205E-03   1.580926E-02   5.542654E-06
    8 H8         -8.540909E-03   8.846076E-03   1.280844E-05
    9 H9         -2.087841E-02   7.675412E-03   2.984890E-05
 -------------   -------------  -------------  -------------
     total        4.250653E-06  -4.711112E-05   3.382778E-07
   
  Peak memory usage:    790 Mb
  
  end of program der1b
   
 Time(der1b)  user:        3.1  user+sys:        3.1  wallclock:        3.2
  
  start of program raman
  
  calculation with applied electric field of
     Ex= 0.00000 Ey= 0.02400 Ez= 0.00000 follows...
  nuclear repulsion energy.......     154.843260697 hartrees
  nuclear electric field energy..       0.121757327 hartrees
  Peak memory usage:    534 Mb
  
  end of program raman
   
 Time(raman)  user:        0.1  user+sys:        0.1  wallclock:        0.3
  
  start of program rwr
  
  Peak memory usage:    574 Mb
  
  end of program rwr
   
 Time(rwr)  user:        0.8  user+sys:        0.8  wallclock:        1.1
  
  start of program scf
  
 number of electrons..........         36
 number of alpha electrons....         18
 number of beta electrons.....         18
 number of orbitals, total....        114
 number of doubly-occ'd orbs..         18
 number of open shell orbs....          0
 number of occupied orbitals..         18
 number of virtual orbitals...         96
 number of hamiltonians.......          1
 number of shells.............          1
 SCF type: DFT=Becke_3_Parameter/HF+Slater+Becke88+VWN+LYP (B3LYP)
  
       i  u  d  i  g                   
       t  p  i  c  r                                 RMS    maximum
       e  d  i  u  i                       energy  density   DIIS  
       r  t  s  t  d       total energy    change  change    error 
  
etot    1  N  N  5  M    -230.03937082952           3.1E-03  2.6E-02
etot    2  Y  Y  6  M    -230.03110475802 -8.3E-03  1.1E-03  5.1E-02
etot    3  N  Y  2  U    -230.05325564578  2.2E-02  3.5E-04  7.0E-03
etot    4  Y  Y  6  M    -230.05374271373  4.9E-04  1.1E-04  3.4E-03
etot    5  Y  Y  6  M    -230.05393153375  1.9E-04  5.5E-05  8.6E-04
etot    6  N  Y  2  U    -230.05395066860  1.9E-05  1.1E-05  2.9E-04
etot    7  N  Y  2  U    -230.05395208832  1.4E-06  2.6E-06  6.0E-05
etot    8  N  N  2  U    -230.05395218668  9.8E-08  0.0E+00  0.0E+00
  
  
 Energy components, in hartrees:
   (A)  Nuclear repulsion............     154.96501802395
   (E)  Total one-electron terms.....    -617.49816852495
   (F)    Electron-nuclear...........    -846.01374929886
   (H)    Kinetic....................     228.65291562391
   (I)  Total two-electron terms.....     232.47919831431
   (J)    Coulomb....................     264.12037559477
   (K)    Exchange+Correlation.......     -31.64117728045
   (L)  Electronic energy............    -385.01897021063  (E+I)
   (M)  -V/T.........................       2.00552672468  (-(A+F+I)/H)
   (N)  Total energy.................    -230.05395218668  (A+L)
  
 SCFE: SCF energy: DFT(b3lyp)      -230.05395218668 hartrees   iterations:   8
  
 
 HOMO energy:    -0.25624
 LUMO energy:    -0.03069
 
  Orbital energies (hartrees): 
   -19.18762   -10.24643   -10.23894   -10.20801   -10.20012    -1.03900
    -0.82688    -0.74787    -0.60018    -0.58103    -0.54888    -0.45136
    -0.43006    -0.41757    -0.40635    -0.37770    -0.29999    -0.25624
    -0.03069    -0.02222     0.01220     0.04081     0.05862     0.09462
     0.11184     0.13318     0.22762     0.26230
 
  Peak memory usage:    791 Mb
  
  end of program scf
   
 Time(scf)  user:        6.7  user+sys:        6.7  wallclock:        8.2
  
  start of program der1a
  
  Peak memory usage:    710 Mb
  
  end of program der1a
   
 Time(der1a)  user:        0.2  user+sys:        0.2  wallclock:        0.2
  
  start of program rwr
  
  Peak memory usage:    575 Mb
  
  end of program rwr
   
 Time(rwr)  user:        0.7  user+sys:        0.7  wallclock:        1.0
  
  start of program der1b
  
   
  forces (hartrees/bohr) : total     
   
 atom  label           x              y              z
 ---- --------   -------------  -------------  -------------
    1 C1          4.971549E-03   4.829364E-02   3.222777E-05
    2 C2          2.317896E-02  -9.231385E-03  -2.621102E-05
    3 C3         -1.586978E-02  -2.018984E-02   5.085223E-06
    4 C4         -2.412084E-02   4.013855E-02   7.592223E-05
    5 O5          2.359458E-02  -1.095499E-01  -1.356549E-04
    6 H6          1.800338E-02   1.807387E-02  -6.145016E-06
    7 H7          1.869148E-03   1.194923E-02   5.324930E-06
    8 H8         -7.988051E-03   1.151401E-02   1.531887E-05
    9 H9         -2.362631E-02   8.963914E-03   3.444430E-05
 -------------   -------------  -------------  -------------
     total        1.263208E-05  -3.786576E-05   3.123486E-07
   
  Peak memory usage:    790 Mb
  
  end of program der1b
   
 Time(der1b)  user:        3.1  user+sys:        3.1  wallclock:        3.3
  
  start of program raman
  
  calculation with applied electric field of
     Ex= 0.00000 Ey=-0.02400 Ez= 0.00000 follows...
  nuclear repulsion energy.......     154.843260697 hartrees
  nuclear electric field energy..      -0.121757327 hartrees
  Peak memory usage:    534 Mb
  
  end of program raman
   
 Time(raman)  user:        0.1  user+sys:        0.1  wallclock:        0.1
  
  start of program rwr
  
  Peak memory usage:    574 Mb
  
  end of program rwr
   
 Time(rwr)  user:        0.8  user+sys:        0.8  wallclock:        0.9
  
  start of program scf
  
 number of electrons..........         36
 number of alpha electrons....         18
 number of beta electrons.....         18
 number of orbitals, total....        114
 number of doubly-occ'd orbs..         18
 number of open shell orbs....          0
 number of occupied orbitals..         18
 number of virtual orbitals...         96
 number of hamiltonians.......          1
 number of shells.............          1
 SCF type: DFT=Becke_3_Parameter/HF+Slater+Becke88+VWN+LYP (B3LYP)
  
       i  u  d  i  g                   
       t  p  i  c  r                                 RMS    maximum
       e  d  i  u  i                       energy  density   DIIS  
       r  t  s  t  d       total energy    change  change    error 
  
etot    1  N  N  5  M    -230.06722484187           2.4E-03  2.6E-02
etot    2  Y  Y  6  M    -230.06969157296  2.5E-03  6.6E-04  3.1E-02
etot    3  N  Y  2  U    -230.08095010025  1.1E-02  2.5E-04  5.1E-03
etot    4  Y  Y  6  M    -230.08142676901  4.8E-04  6.4E-05  1.7E-03
etot    5  Y  Y  6  M    -230.08146401743  3.7E-05  3.4E-05  1.0E-03
etot    6  N  Y  2  U    -230.08147453562  1.1E-05  6.5E-06  1.4E-04
etot    7  N  Y  2  U    -230.08147495517  4.2E-07  2.6E-06  9.9E-05
etot    8  N  N  2  U    -230.08147510299  1.5E-07  0.0E+00  0.0E+00
  
  
 Energy components, in hartrees:
   (A)  Nuclear repulsion............     154.72150336915
   (E)  Total one-electron terms.....    -617.87358166998
   (F)    Electron-nuclear...........    -846.67033723030
   (H)    Kinetic....................     228.71744647685
   (I)  Total two-electron terms.....     233.07060319784
   (J)    Coulomb....................     264.74403715450
   (K)    Exchange+Correlation.......     -31.67343395665
   (L)  Electronic energy............    -384.80297847214  (E+I)
   (M)  -V/T.........................       2.00631057111  (-(A+F+I)/H)
   (N)  Total energy.................    -230.08147510299  (A+L)
  
 SCFE: SCF energy: DFT(b3lyp)      -230.08147510299 hartrees   iterations:   8
  
 
 HOMO energy:    -0.23338
 LUMO energy:    -0.00331
 
  Orbital energies (hartrees): 
   -19.18087   -10.22557   -10.21771   -10.16772   -10.15956    -1.03902
    -0.79419    -0.72431    -0.57239    -0.55691    -0.51398    -0.43111
    -0.41260    -0.39390    -0.38223    -0.37012    -0.27662    -0.23338
    -0.00331     0.03106     0.07123     0.08093     0.08120     0.12950
     0.15157     0.17947     0.29327     0.30388
 
  Peak memory usage:    791 Mb
  
  end of program scf
   
 Time(scf)  user:        6.6  user+sys:        6.6  wallclock:        8.0
  
  start of program der1a
  
  Peak memory usage:    710 Mb
  
  end of program der1a
   
 Time(der1a)  user:        0.2  user+sys:        0.2  wallclock:        0.2
  
  start of program rwr
  
  Peak memory usage:    575 Mb
  
  end of program rwr
   
 Time(rwr)  user:        0.7  user+sys:        0.7  wallclock:        0.9
  
  start of program der1b
  
   
  forces (hartrees/bohr) : total     
   
 atom  label           x              y              z
 ---- --------   -------------  -------------  -------------
    1 C1          4.170662E-03   2.640800E-02   8.595316E-06
    2 C2          1.616112E-02  -6.356401E-03  -2.079296E-05
    3 C3         -1.191584E-02  -1.286892E-02   2.261155E-07
    4 C4         -1.775743E-02   2.388247E-02   4.615500E-05
    5 O5          1.966562E-02  -7.337257E-02  -1.037903E-04
    6 H6          1.697209E-02   1.477897E-02   2.310373E-07
    7 H7          5.152468E-03   1.247189E-02   8.113184E-06
    8 H8         -1.124421E-02   8.685368E-03   2.350275E-05
    9 H9         -2.119136E-02   6.313848E-03   3.806528E-05
 -------------   -------------  -------------  -------------
     total        1.312450E-05  -5.735485E-05   3.054353E-07
   
  Peak memory usage:    790 Mb
  
  end of program der1b
   
 Time(der1b)  user:        3.2  user+sys:        3.2  wallclock:        3.3
  
  start of program raman
  
  calculation with applied electric field of
     Ex= 0.00000 Ey= 0.00000 Ez= 0.02400 follows...
  nuclear repulsion energy.......     154.843260697 hartrees
  nuclear electric field energy..      -3.044154394 hartrees
  Peak memory usage:    534 Mb
  
  end of program raman
   
 Time(raman)  user:        0.1  user+sys:        0.1  wallclock:        0.1
  
  start of program rwr
  
  Peak memory usage:    574 Mb
  
  end of program rwr
   
 Time(rwr)  user:        0.8  user+sys:        0.8  wallclock:        1.0
  
  start of program scf
  
 number of electrons..........         36
 number of alpha electrons....         18
 number of beta electrons.....         18
 number of orbitals, total....        114
 number of doubly-occ'd orbs..         18
 number of open shell orbs....          0
 number of occupied orbitals..         18
 number of virtual orbitals...         96
 number of hamiltonians.......          1
 number of shells.............          1
 SCF type: DFT=Becke_3_Parameter/HF+Slater+Becke88+VWN+LYP (B3LYP)
  
       i  u  d  i  g                   
       t  p  i  c  r                                 RMS    maximum
       e  d  i  u  i                       energy  density   DIIS  
       r  t  s  t  d       total energy    change  change    error 
  
etot    1  N  N  5  M    -230.05328015420           1.8E-03  1.8E-02
etot    2  Y  Y  6  M    -230.05755465422  4.3E-03  4.3E-04  1.2E-02
etot    3  N  Y  2  U    -230.05959367345  2.0E-03  1.8E-04  8.9E-04
etot    4  Y  Y  6  M    -230.05960968202  1.6E-05  4.0E-05  4.4E-04
etot    5  N  Y  2  U    -230.05960417400 -5.5E-06  1.6E-05  8.6E-04
etot    6  N  Y  2  U    -230.05961094912  6.8E-06  2.8E-06  7.8E-05
etot    7  N  N  2  U    -230.05961109508  1.5E-07  0.0E+00  0.0E+00
  
  
 Energy components, in hartrees:
   (A)  Nuclear repulsion............     151.79910630222
   (E)  Total one-electron terms.....    -614.66402537216
   (F)    Electron-nuclear...........    -846.37918681177
   (H)    Kinetic....................     228.68378964405
   (I)  Total two-electron terms.....     232.80530797486
   (J)    Coulomb....................     264.46441112855
   (K)    Exchange+Correlation.......     -31.65910315369
   (L)  Electronic energy............    -381.85871739730  (E+I)
   (M)  -V/T.........................       2.01927199673  (-(A+F+I)/H)
   (N)  Total energy.................    -230.05961109508  (A+L)
  
 SCFE: SCF energy: DFT(b3lyp)      -230.05961109508 hartrees   iterations:   7
  
 
 HOMO energy:    -0.15933
 LUMO energy:     0.07157
 
  Orbital energies (hartrees): 
   -19.09811   -10.14683   -10.14681   -10.09830   -10.09796    -0.95308
    -0.72451    -0.64994    -0.49802    -0.48288    -0.44583    -0.34877
    -0.33461    -0.32823    -0.30438    -0.29549    -0.20332    -0.15933
     0.07157     0.13322     0.14443     0.14444     0.15934     0.18377
     0.20200     0.20955     0.34724     0.37726
 
  Peak memory usage:    791 Mb
  
  end of program scf
   
 Time(scf)  user:        6.4  user+sys:        6.4  wallclock:        7.8
  
  start of program der1a
  
  Peak memory usage:    710 Mb
  
  end of program der1a
   
 Time(der1a)  user:        0.2  user+sys:        0.2  wallclock:        0.2
  
  start of program rwr
  
  Peak memory usage:    575 Mb
  
  end of program rwr
   
 Time(rwr)  user:        0.7  user+sys:        0.7  wallclock:        1.0
  
  start of program der1b
  
   
  forces (hartrees/bohr) : total     
   
 atom  label           x              y              z
 ---- --------   -------------  -------------  -------------
    1 C1          4.818417E-03   3.760770E-02  -2.372382E-03
    2 C2          1.989096E-02  -8.121753E-03  -4.011751E-03
    3 C3         -1.425511E-02  -1.611196E-02  -3.983793E-03
    4 C4         -2.097595E-02   3.163022E-02  -2.336123E-03
    5 O5          2.201503E-02  -9.416732E-02  -4.163053E-03
    6 H6          1.770252E-02   1.624092E-02   4.560279E-03
    7 H7          4.228572E-03   1.479592E-02   3.848466E-03
    8 H8         -1.033464E-02   1.137387E-02   3.860802E-03
    9 H9         -2.307789E-02   6.706635E-03   4.598927E-03
 -------------   -------------  -------------  -------------
     total        1.191190E-05  -4.577176E-05   1.372975E-06
   
  Peak memory usage:    790 Mb
  
  end of program der1b
   
 Time(der1b)  user:        3.1  user+sys:        3.1  wallclock:        3.3
  
  start of program raman
  
  calculation with applied electric field of
     Ex= 0.00000 Ey= 0.00000 Ez=-0.02400 follows...
  nuclear repulsion energy.......     154.843260697 hartrees
  nuclear electric field energy..       3.044154394 hartrees
  Peak memory usage:    534 Mb
  
  end of program raman
   
 Time(raman)  user:        0.1  user+sys:        0.1  wallclock:        0.1
  
  start of program rwr
  
  Peak memory usage:    574 Mb
  
  end of program rwr
   
 Time(rwr)  user:        0.8  user+sys:        0.8  wallclock:        0.9
  
  start of program scf
  
 number of electrons..........         36
 number of alpha electrons....         18
 number of beta electrons.....         18
 number of orbitals, total....        114
 number of doubly-occ'd orbs..         18
 number of open shell orbs....          0
 number of occupied orbitals..         18
 number of virtual orbitals...         96
 number of hamiltonians.......          1
 number of shells.............          1
 SCF type: DFT=Becke_3_Parameter/HF+Slater+Becke88+VWN+LYP (B3LYP)
  
       i  u  d  i  g                   
       t  p  i  c  r                                 RMS    maximum
       e  d  i  u  i                       energy  density   DIIS  
       r  t  s  t  d       total energy    change  change    error 
  
etot    1  N  N  5  M    -230.05331551719           1.8E-03  1.8E-02
etot    2  Y  Y  6  M    -230.05759028459  4.3E-03  4.3E-04  1.2E-02
etot    3  N  Y  2  U    -230.05962904659  2.0E-03  1.8E-04  8.9E-04
etot    4  Y  Y  6  M    -230.05964623818  1.7E-05  3.8E-05  2.7E-04
etot    5  N  Y  2  U    -230.05964232131 -3.9E-06  1.1E-05  5.9E-04
etot    6  N  Y  2  U    -230.05964598505  3.7E-06  2.8E-06  9.5E-05
etot    7  N  N  2  U    -230.05964612971  1.4E-07  0.0E+00  0.0E+00
  
  
 Energy components, in hartrees:
   (A)  Nuclear repulsion............     157.88741509088
   (E)  Total one-electron terms.....    -620.75323515431
   (F)    Electron-nuclear...........    -846.38022935489
   (H)    Kinetic....................     228.68396612084
   (I)  Total two-electron terms.....     232.80617393372
   (J)    Coulomb....................     264.46533072212
   (K)    Exchange+Correlation.......     -31.65915678840
   (L)  Electronic energy............    -387.94706122059  (E+I)
   (M)  -V/T.........................       1.99264796767  (-(A+F+I)/H)
   (N)  Total energy.................    -230.05964612971  (A+L)
  
 SCFE: SCF energy: DFT(b3lyp)      -230.05964612971 hartrees   iterations:   7
  
 
 HOMO energy:    -0.32843
 LUMO energy:    -0.09753
 
  Orbital energies (hartrees): 
   -19.26720   -10.31593   -10.31590   -10.26739   -10.26705    -1.12219
    -0.89360    -0.81904    -0.66712    -0.65198    -0.61491    -0.51788
    -0.50369    -0.49735    -0.47347    -0.46462    -0.37242    -0.32843
    -0.09753    -0.03578    -0.02469    -0.02464    -0.00977     0.01478
     0.03290     0.04044     0.17820     0.20821
 
  Peak memory usage:    791 Mb
  
  end of program scf
   
 Time(scf)  user:        6.4  user+sys:        6.4  wallclock:        7.9
  
  start of program der1a
  
  Peak memory usage:    710 Mb
  
  end of program der1a
   
 Time(der1a)  user:        0.2  user+sys:        0.2  wallclock:        0.2
  
  start of program rwr
  
  Peak memory usage:    575 Mb
  
  end of program rwr
   
 Time(rwr)  user:        0.7  user+sys:        0.7  wallclock:        1.1
  
  start of program der1b
  
   
  forces (hartrees/bohr) : total     
   
 atom  label           x              y              z
 ---- --------   -------------  -------------  -------------
    1 C1          4.830856E-03   3.758701E-02   2.425922E-03
    2 C2          1.989542E-02  -8.123376E-03   3.954072E-03
    3 C3         -1.423819E-02  -1.611042E-02   3.981303E-03
    4 C4         -2.095251E-02   3.159330E-02   2.462283E-03
    5 O5          2.200337E-02  -9.413230E-02   3.922929E-03
    6 H6          1.768637E-02   1.624395E-02  -4.566312E-03
    7 H7          4.226634E-03   1.480132E-02  -3.832857E-03
    8 H8         -1.035012E-02   1.138347E-02  -3.820643E-03
    9 H9         -2.308993E-02   6.711276E-03  -4.527457E-03
 -------------   -------------  -------------  -------------
     total        1.188924E-05  -4.577594E-05  -7.612451E-07
   
  Peak memory usage:    790 Mb
  
  end of program der1b
   
 Time(der1b)  user:        3.1  user+sys:        3.1  wallclock:        3.6
  
  start of program raman
  
  calculation with applied electric field of
     Ex= 0.01200 Ey= 0.01200 Ez= 0.00000 follows...
  nuclear repulsion energy.......     154.843260697 hartrees
  nuclear electric field energy..       0.000488160 hartrees
  Peak memory usage:    534 Mb
  
  end of program raman
   
 Time(raman)  user:        0.1  user+sys:        0.1  wallclock:        0.1
  
  start of program rwr
  
  Peak memory usage:    574 Mb
  
  end of program rwr
   
 Time(rwr)  user:        0.7  user+sys:        0.7  wallclock:        0.9
  
  start of program scf
  
 number of electrons..........         36
 number of alpha electrons....         18
 number of beta electrons.....         18
 number of orbitals, total....        114
 number of doubly-occ'd orbs..         18
 number of open shell orbs....          0
 number of occupied orbitals..         18
 number of virtual orbitals...         96
 number of hamiltonians.......          1
 number of shells.............          1
 SCF type: DFT=Becke_3_Parameter/HF+Slater+Becke88+VWN+LYP (B3LYP)
  
       i  u  d  i  g                   
       t  p  i  c  r                                 RMS    maximum
       e  d  i  u  i                       energy  density   DIIS  
       r  t  s  t  d       total energy    change  change    error 
  
etot    1  N  N  5  M    -230.04796217961           1.9E-03  1.6E-02
etot    2  Y  Y  6  M    -230.04864873787  6.9E-04  6.8E-04  1.9E-02
etot    3  N  Y  2  U    -230.05492640363  6.3E-03  2.1E-04  6.3E-03
etot    4  Y  Y  6  M    -230.05541982498  4.9E-04  8.9E-05  2.4E-03
etot    5  Y  Y  6  M    -230.05549546080  7.6E-05  5.3E-05  7.9E-04
etot    6  N  Y  2  U    -230.05550808676  1.3E-05  1.1E-05  3.1E-04
etot    7  N  Y  2  U    -230.05550929740  1.2E-06  3.2E-06  1.4E-04
etot    8  N  N  2  U    -230.05550955324  2.6E-07  0.0E+00  0.0E+00
  
  
 Energy components, in hartrees:
   (A)  Nuclear repulsion............     154.84374885610
   (E)  Total one-electron terms.....    -617.58233556210
   (F)    Electron-nuclear...........    -846.24692546811
   (H)    Kinetic....................     228.67500422114
   (I)  Total two-electron terms.....     232.68307715276
   (J)    Coulomb....................     264.33573407700
   (K)    Exchange+Correlation.......     -31.65265692424
   (L)  Electronic energy............    -384.89925840934  (E+I)
   (M)  -V/T.........................       2.00599143322  (-(A+F+I)/H)
   (N)  Total energy.................    -230.05550955324  (A+L)
  
 SCFE: SCF energy: DFT(b3lyp)      -230.05550955324 hartrees   iterations:   8
  
 
 HOMO energy:    -0.24576
 LUMO energy:    -0.01657
 
  Orbital energies (hartrees): 
   -19.18320   -10.24402   -10.22453   -10.19980   -10.17873    -1.03679
    -0.81534    -0.73790    -0.59122    -0.56832    -0.53765    -0.43738
    -0.42417    -0.41338    -0.39147    -0.37738    -0.29238    -0.24576
    -0.01657    -0.00126     0.02948     0.05668     0.07884     0.09788
     0.11679     0.15372     0.25069     0.27311
 
  Peak memory usage:    791 Mb
  
  end of program scf
   
 Time(scf)  user:        6.7  user+sys:        6.7  wallclock:        8.2
  
  start of program der1a
  
  Peak memory usage:    710 Mb
  
  end of program der1a
   
 Time(der1a)  user:        0.2  user+sys:        0.2  wallclock:        0.2
  
  start of program rwr
  
  Peak memory usage:    575 Mb
  
  end of program rwr
   
 Time(rwr)  user:        0.7  user+sys:        0.7  wallclock:        0.9
  
  start of program der1b
  
   
  forces (hartrees/bohr) : total     
   
 atom  label           x              y              z
 ---- --------   -------------  -------------  -------------
    1 C1          6.134806E-03   4.394781E-02   2.652628E-05
    2 C2          2.193761E-02  -7.221496E-03  -2.932762E-05
    3 C3         -1.499463E-02  -1.914762E-02  -1.142123E-06
    4 C4         -2.008611E-02   3.359575E-02   6.414311E-05
    5 O5          1.825153E-02  -1.015399E-01  -1.246377E-04
    6 H6          1.719239E-02   1.660029E-02  -2.326789E-06
    7 H7          3.488708E-03   1.273855E-02   7.391353E-06
    8 H8         -9.518305E-03   1.281656E-02   2.223181E-05
    9 H9         -2.238958E-02   8.168714E-03   3.744635E-05
 -------------   -------------  -------------  -------------
     total        1.642089E-05  -4.131439E-05   3.046384E-07
   
  Peak memory usage:    790 Mb
  
  end of program der1b
   
 Time(der1b)  user:        3.1  user+sys:        3.1  wallclock:        3.3
  
  start of program raman
  
  calculation with applied electric field of
     Ex=-0.01200 Ey=-0.01200 Ez= 0.00000 follows...
  nuclear repulsion energy.......     154.843260697 hartrees
  nuclear electric field energy..      -0.000488160 hartrees
  Peak memory usage:    534 Mb
  
  end of program raman
   
 Time(raman)  user:        0.1  user+sys:        0.1  wallclock:        0.1
  
  start of program rwr
  
  Peak memory usage:    574 Mb
  
  end of program rwr
   
 Time(rwr)  user:        0.7  user+sys:        0.7  wallclock:        0.9
  
  start of program scf
  
 number of electrons..........         36
 number of alpha electrons....         18
 number of beta electrons.....         18
 number of orbitals, total....        114
 number of doubly-occ'd orbs..         18
 number of open shell orbs....          0
 number of occupied orbitals..         18
 number of virtual orbitals...         96
 number of hamiltonians.......          1
 number of shells.............          1
 SCF type: DFT=Becke_3_Parameter/HF+Slater+Becke88+VWN+LYP (B3LYP)
  
       i  u  d  i  g                   
       t  p  i  c  r                                 RMS    maximum
       e  d  i  u  i                       energy  density   DIIS  
       r  t  s  t  d       total energy    change  change    error 
  
etot    1  N  N  5  M    -230.05863349179           1.6E-03  1.6E-02
etot    2  Y  Y  6  M    -230.06217346804  3.5E-03  4.9E-04  1.5E-02
etot    3  N  Y  2  U    -230.06560000174  3.4E-03  1.9E-04  5.7E-03
etot    4  Y  Y  6  M    -230.06612084562  5.2E-04  6.6E-05  1.9E-03
etot    5  Y  Y  6  M    -230.06616324407  4.2E-05  4.4E-05  8.5E-04
etot    6  N  Y  2  U    -230.06616642946  3.2E-06  9.4E-06  3.2E-04
etot    7  N  Y  2  U    -230.06616755122  1.1E-06  2.7E-06  1.5E-04
etot    8  N  N  2  U    -230.06616781195  2.6E-07  0.0E+00  0.0E+00
  
  
 Energy components, in hartrees:
   (A)  Nuclear repulsion............     154.84277253700
   (E)  Total one-electron terms.....    -617.81571367229
   (F)    Electron-nuclear...........    -846.49474346296
   (H)    Kinetic....................     228.69910745520
   (I)  Total two-electron terms.....     232.90677332334
   (J)    Coulomb....................     264.57156477236
   (K)    Exchange+Correlation.......     -31.66479144902
   (L)  Electronic energy............    -384.90894034895  (E+I)
   (M)  -V/T.........................       2.00588975929  (-(A+F+I)/H)
   (N)  Total energy.................    -230.06616781195  (A+L)
  
 SCFE: SCF energy: DFT(b3lyp)      -230.06616781195 hartrees   iterations:   8
  
 
 HOMO energy:    -0.23951
 LUMO energy:    -0.01177
 
  Orbital energies (hartrees): 
   -19.18327   -10.23872   -10.21892   -10.18717   -10.16586    -1.03943
    -0.80551    -0.73156    -0.58298    -0.56222    -0.52662    -0.43341
    -0.41411    -0.41163    -0.38254    -0.37959    -0.28622    -0.23951
    -0.01177     0.00568     0.05923     0.06934     0.09244     0.11671
     0.12888     0.15873     0.27066     0.29046
 
  Peak memory usage:    791 Mb
  
  end of program scf
   
 Time(scf)  user:        6.7  user+sys:        6.7  wallclock:        8.1
  
  start of program der1a
  
  Peak memory usage:    710 Mb
  
  end of program der1a
   
 Time(der1a)  user:        0.2  user+sys:        0.2  wallclock:        0.2
  
  start of program rwr
  
  Peak memory usage:    575 Mb
  
  end of program rwr
   
 Time(rwr)  user:        0.7  user+sys:        0.7  wallclock:        1.0
  
  start of program der1b
  
   
  forces (hartrees/bohr) : total     
   
 atom  label           x              y              z
 ---- --------   -------------  -------------  -------------
    1 C1          3.281007E-03   3.082465E-02   1.686243E-05
    2 C2          1.922233E-02  -8.153877E-03  -2.427043E-05
    3 C3         -1.454807E-02  -1.455224E-02   4.297310E-06
    4 C4         -2.207347E-02   3.043487E-02   6.335600E-05
    5 O5          2.597032E-02  -8.549323E-02  -1.176023E-04
    6 H6          1.678774E-02   1.561322E-02  -3.443781E-06
    7 H7          3.677617E-03   1.447025E-02   7.201481E-06
    8 H8         -1.108409E-02   9.808858E-03   2.005141E-05
    9 H9         -2.122466E-02   6.996224E-03   3.387470E-05
 -------------   -------------  -------------  -------------
     total        8.728975E-06  -5.127763E-05   3.268028E-07
   
  Peak memory usage:    790 Mb
  
  end of program der1b
   
 Time(der1b)  user:        3.1  user+sys:        3.1  wallclock:        3.4
  
  start of program raman
  
  calculation with applied electric field of
     Ex=-0.01200 Ey= 0.01200 Ez= 0.00000 follows...
  nuclear repulsion energy.......     154.843260697 hartrees
  nuclear electric field energy..       0.121269168 hartrees
  Peak memory usage:    534 Mb
  
  end of program raman
   
 Time(raman)  user:        0.1  user+sys:        0.1  wallclock:        0.1
  
  start of program rwr
  
  Peak memory usage:    574 Mb
  
  end of program rwr
   
 Time(rwr)  user:        0.7  user+sys:        0.7  wallclock:        0.9
  
  start of program scf
  
 number of electrons..........         36
 number of alpha electrons....         18
 number of beta electrons.....         18
 number of orbitals, total....        114
 number of doubly-occ'd orbs..         18
 number of open shell orbs....          0
 number of occupied orbitals..         18
 number of virtual orbitals...         96
 number of hamiltonians.......          1
 number of shells.............          1
 SCF type: DFT=Becke_3_Parameter/HF+Slater+Becke88+VWN+LYP (B3LYP)
  
       i  u  d  i  g                   
       t  p  i  c  r                                 RMS    maximum
       e  d  i  u  i                       energy  density   DIIS  
       r  t  s  t  d       total energy    change  change    error 
  
etot    1  N  N  5  M    -230.04470648561           2.1E-03  1.6E-02
etot    2  Y  Y  6  M    -230.04240298961 -2.3E-03  7.3E-04  3.0E-02
etot    3  N  Y  2  U    -230.05162776273  9.2E-03  2.4E-04  5.5E-03
etot    4  Y  Y  6  M    -230.05194484838  3.2E-04  8.5E-05  2.1E-03
etot    5  Y  Y  6  M    -230.05202640759  8.2E-05  4.9E-05  6.6E-04
etot    6  N  Y  2  U    -230.05203800814  1.2E-05  8.8E-06  2.0E-04
etot    7  N  Y  2  U    -230.05203884700  8.4E-07  2.5E-06  1.0E-04
etot    8  N  N  2  U    -230.05203898803  1.4E-07  0.0E+00  0.0E+00
  
  
 Energy components, in hartrees:
   (A)  Nuclear repulsion............     154.96452986440
   (E)  Total one-electron terms.....    -617.63434308779
   (F)    Electron-nuclear...........    -846.17392437501
   (H)    Kinetic....................     228.66710771185
   (I)  Total two-electron terms.....     232.61777423535
   (J)    Coulomb....................     264.26699000260
   (K)    Exchange+Correlation.......     -31.64921576725
   (L)  Electronic energy............    -385.01656885244  (E+I)
   (M)  -V/T.........................       2.00549884443  (-(A+F+I)/H)
   (N)  Total energy.................    -230.05203898803  (A+L)
  
 SCFE: SCF energy: DFT(b3lyp)      -230.05203898803 hartrees   iterations:   8
  
 
 HOMO energy:    -0.25179
 LUMO energy:    -0.01999
 
  Orbital energies (hartrees): 
   -19.18642   -10.24526   -10.23302   -10.20301   -10.18997    -1.03924
    -0.82104    -0.74332    -0.59504    -0.57537    -0.54323    -0.44367
    -0.42896    -0.41639    -0.39969    -0.37950    -0.29673    -0.25179
    -0.01999    -0.00749     0.04254     0.04827     0.05267     0.09333
     0.11127     0.13807     0.24068     0.26963
 
  Peak memory usage:    791 Mb
  
  end of program scf
   
 Time(scf)  user:        6.7  user+sys:        6.7  wallclock:        8.1
  
  start of program der1a
  
  Peak memory usage:    710 Mb
  
  end of program der1a
   
 Time(der1a)  user:        0.2  user+sys:        0.2  wallclock:        0.2
  
  start of program rwr
  
  Peak memory usage:    575 Mb
  
  end of program rwr
   
 Time(rwr)  user:        0.7  user+sys:        0.7  wallclock:        1.0
  
  start of program der1b
  
   
  forces (hartrees/bohr) : total     
   
 atom  label           x              y              z
 ---- --------   -------------  -------------  -------------
    1 C1          3.761922E-03   4.210478E-02   2.664167E-05
    2 C2          2.214040E-02  -1.045167E-02  -2.526977E-05
    3 C3         -1.629355E-02  -1.705273E-02   8.976880E-06
    4 C4         -2.495404E-02   3.793811E-02   7.660465E-05
    5 O5          2.749485E-02  -1.031656E-01  -1.334356E-04
    6 H6          1.705211E-02   1.768270E-02  -6.058454E-06
    7 H7          2.761072E-03   1.520247E-02   5.773007E-06
    8 H8         -8.297905E-03   1.024508E-02   1.415546E-05
    9 H9         -2.365742E-02   7.455561E-03   3.293911E-05
 -------------   -------------  -------------  -------------
     total        7.434246E-06  -4.125530E-05   3.269912E-07
   
  Peak memory usage:    790 Mb
  
  end of program der1b
   
 Time(der1b)  user:        3.1  user+sys:        3.1  wallclock:        3.3
  
  start of program raman
  
  calculation with applied electric field of
     Ex= 0.01200 Ey=-0.01200 Ez= 0.00000 follows...
  nuclear repulsion energy.......     154.843260697 hartrees
  nuclear electric field energy..      -0.121269168 hartrees
  Peak memory usage:    534 Mb
  
  end of program raman
   
 Time(raman)  user:        0.1  user+sys:        0.1  wallclock:        0.1
  
  start of program rwr
  
  Peak memory usage:    574 Mb
  
  end of program rwr
   
 Time(rwr)  user:        0.7  user+sys:        0.7  wallclock:        0.9
  
  start of program scf
  
 number of electrons..........         36
 number of alpha electrons....         18
 number of beta electrons.....         18
 number of orbitals, total....        114
 number of doubly-occ'd orbs..         18
 number of open shell orbs....          0
 number of occupied orbitals..         18
 number of virtual orbitals...         96
 number of hamiltonians.......          1
 number of shells.............          1
 SCF type: DFT=Becke_3_Parameter/HF+Slater+Becke88+VWN+LYP (B3LYP)
  
       i  u  d  i  g                   
       t  p  i  c  r                                 RMS    maximum
       e  d  i  u  i                       energy  density   DIIS  
       r  t  s  t  d       total energy    change  change    error 
  
etot    1  N  N  5  M    -230.06188918578           1.7E-03  1.6E-02
etot    2  Y  Y  6  M    -230.06339995736  1.5E-03  5.0E-04  2.1E-02
etot    3  N  Y  2  U    -230.06876685807  5.4E-03  1.8E-04  4.6E-03
etot    4  Y  Y  6  M    -230.06910579913  3.4E-04  5.7E-05  1.6E-03
etot    5  Y  Y  6  M    -230.06914188349  3.6E-05  3.4E-05  7.1E-04
etot    6  N  Y  2  U    -230.06914393746  2.1E-06  7.2E-06  2.3E-04
etot    7  N  Y  2  U    -230.06914451430  5.8E-07  2.6E-06  1.2E-04
etot    8  N  N  2  U    -230.06914469148  1.8E-07  0.0E+00  0.0E+00
  
  
 Energy components, in hartrees:
   (A)  Nuclear repulsion............     154.72199152870
   (E)  Total one-electron terms.....    -617.77059728160
   (F)    Electron-nuclear...........    -846.57492769940
   (H)    Kinetic....................     228.70628173808
   (I)  Total two-electron terms.....     232.97946106141
   (J)    Coulomb....................     264.64833556596
   (K)    Exchange+Correlation.......     -31.66887450455
   (L)  Electronic energy............    -384.79113622018  (E+I)
   (M)  -V/T.........................       2.00638771975  (-(A+F+I)/H)
   (N)  Total energy.................    -230.06914469148  (A+L)
  
 SCFE: SCF energy: DFT(b3lyp)      -230.06914469148 hartrees   iterations:   8
  
 
 HOMO energy:    -0.23515
 LUMO energy:    -0.00576
 
  Orbital energies (hartrees): 
   -19.17980   -10.22991   -10.21739   -10.17582   -10.16249    -1.03677
    -0.79843    -0.72634    -0.57537    -0.55832    -0.51892    -0.42985
    -0.41088    -0.40278    -0.38019    -0.37471    -0.27986    -0.23515
    -0.00576     0.02588     0.07303     0.07561     0.09509     0.12185
     0.13070     0.16240     0.28303     0.30250
 
  Peak memory usage:    791 Mb
  
  end of program scf
   
 Time(scf)  user:        6.6  user+sys:        6.6  wallclock:        8.4
  
  start of program der1a
  
  Peak memory usage:    710 Mb
  
  end of program der1a
   
 Time(der1a)  user:        0.2  user+sys:        0.2  wallclock:        0.3
  
  start of program rwr
  
  Peak memory usage:    575 Mb
  
  end of program rwr
   
 Time(rwr)  user:        0.7  user+sys:        0.7  wallclock:        1.4
  
  start of program der1b
  
   
  forces (hartrees/bohr) : total     
   
 atom  label           x              y              z
 ---- --------   -------------  -------------  -------------
    1 C1          5.851940E-03   3.350332E-02   1.296120E-05
    2 C2          1.803894E-02  -6.490632E-03  -2.536789E-05
    3 C3         -1.282025E-02  -1.432311E-02  -1.108534E-06
    4 C4         -1.650555E-02   2.461238E-02   4.730783E-05
    5 O5          1.553943E-02  -8.303546E-02  -1.083166E-04
    6 H6          1.637876E-02   1.544227E-02   1.459102E-06
    7 H7          5.852261E-03   1.376650E-02   8.779347E-06
    8 H8         -1.011206E-02   1.043338E-02   2.461231E-05
    9 H9         -2.220788E-02   6.039381E-03   3.998902E-05
 -------------   -------------  -------------  -------------
     total        1.559664E-05  -5.198778E-05   3.157915E-07
   
  Peak memory usage:    790 Mb
  
  end of program der1b
   
 Time(der1b)  user:        3.1  user+sys:        3.1  wallclock:        3.3
  
  start of program raman
  
  calculation with applied electric field of
     Ex= 0.01200 Ey= 0.00000 Ez= 0.01200 follows...
  nuclear repulsion energy.......     154.843260697 hartrees
  nuclear electric field energy..      -1.582467701 hartrees
  Peak memory usage:    534 Mb
  
  end of program raman
   
 Time(raman)  user:        0.1  user+sys:        0.1  wallclock:        0.1
  
  start of program rwr
  
  Peak memory usage:    574 Mb
  
  end of program rwr
   
 Time(rwr)  user:        0.7  user+sys:        0.7  wallclock:        0.9
  
  start of program scf
  
 number of electrons..........         36
 number of alpha electrons....         18
 number of beta electrons.....         18
 number of orbitals, total....        114
 number of doubly-occ'd orbs..         18
 number of open shell orbs....          0
 number of occupied orbitals..         18
 number of virtual orbitals...         96
 number of hamiltonians.......          1
 number of shells.............          1
 SCF type: DFT=Becke_3_Parameter/HF+Slater+Becke88+VWN+LYP (B3LYP)
  
       i  u  d  i  g                   
       t  p  i  c  r                                 RMS    maximum
       e  d  i  u  i                       energy  density   DIIS  
       r  t  s  t  d       total energy    change  change    error 
  
etot    1  N  N  5  M    -230.05491684195           1.6E-03  1.3E-02
etot    2  Y  Y  6  M    -230.05725861053  2.3E-03  5.2E-04  1.6E-02
etot    3  N  Y  2  U    -230.05978834014  2.5E-03  1.7E-04  6.1E-03
etot    4  Y  Y  6  M    -230.06028621579  5.0E-04  7.5E-05  1.2E-03
etot    5  Y  Y  6  M    -230.06030018925  1.4E-05  3.8E-05  9.4E-04
etot    6  N  Y  2  U    -230.06030466251  4.5E-06  1.2E-05  3.8E-04
etot    7  N  Y  2  U    -230.06030654280  1.9E-06  3.3E-06  1.6E-04
etot    8  N  N  2  U    -230.06030686772  3.2E-07  0.0E+00  0.0E+00
  
  
 Energy components, in hartrees:
   (A)  Nuclear repulsion............     153.26079299524
   (E)  Total one-electron terms.....    -616.15950223933
   (F)    Electron-nuclear...........    -846.41963719474
   (H)    Kinetic....................     228.69021582643
   (I)  Total two-electron terms.....     232.83840237638
   (J)    Coulomb....................     264.49958466450
   (K)    Exchange+Correlation.......     -31.66118228812
   (L)  Electronic energy............    -383.32109986295  (E+I)
   (M)  -V/T.........................       2.01285586338  (-(A+F+I)/H)
   (N)  Total energy.................    -230.06030686772  (A+L)
  
 SCFE: SCF energy: DFT(b3lyp)      -230.06030686772 hartrees   iterations:   8
  
 
 HOMO energy:    -0.19794
 LUMO energy:     0.03108
 
  Orbital energies (hartrees): 
   -19.13881   -10.19444   -10.17855   -10.14525   -10.12812    -0.99415
    -0.76426    -0.68947    -0.54011    -0.52069    -0.48573    -0.38947
    -0.37277    -0.36926    -0.34169    -0.33598    -0.24378    -0.19794
     0.03108     0.06379     0.09423     0.10815     0.13570     0.15171
     0.16528     0.18853     0.30919     0.33131
 
  Peak memory usage:    791 Mb
  
  end of program scf
   
 Time(scf)  user:        6.6  user+sys:        6.6  wallclock:        8.1
  
  start of program der1a
  
  Peak memory usage:    710 Mb
  
  end of program der1a
   
 Time(der1a)  user:        0.2  user+sys:        0.2  wallclock:        0.2
  
  start of program rwr
  
  Peak memory usage:    575 Mb
  
  end of program rwr
   
 Time(rwr)  user:        0.7  user+sys:        0.7  wallclock:        0.9
  
  start of program der1b
  
   
  forces (hartrees/bohr) : total     
   
 atom  label           x              y              z
 ---- --------   -------------  -------------  -------------
    1 C1          6.045912E-03   3.879443E-02  -1.782901E-03
    2 C2          2.006238E-02  -6.957144E-03  -1.986405E-03
    3 C3         -1.402597E-02  -1.661903E-02  -1.775848E-03
    4 C4         -1.833310E-02   2.899988E-02  -7.371977E-04
    5 O5          1.702666E-02  -9.295559E-02  -2.209345E-03
    6 H6          1.682576E-02   1.596600E-02   2.116769E-03
    7 H7          4.868583E-03   1.391315E-02   1.805269E-03
    8 H8         -9.991385E-03   1.192662E-02   2.109473E-03
    9 H9         -2.246292E-02   6.885468E-03   2.461179E-03
 -------------   -------------  -------------  -------------
     total        1.591477E-05  -4.620896E-05   9.934240E-07
   
  Peak memory usage:    790 Mb
  
  end of program der1b
   
 Time(der1b)  user:        3.1  user+sys:        3.1  wallclock:        3.5
  
  start of program raman
  
  calculation with applied electric field of
     Ex=-0.01200 Ey= 0.00000 Ez=-0.01200 follows...
  nuclear repulsion energy.......     154.843260697 hartrees
  nuclear electric field energy..       1.582467701 hartrees
  Peak memory usage:    534 Mb
  
  end of program raman
   
 Time(raman)  user:        0.1  user+sys:        0.1  wallclock:        0.1
  
  start of program rwr
  
  Peak memory usage:    574 Mb
  
  end of program rwr
   
 Time(rwr)  user:        0.7  user+sys:        0.7  wallclock:        0.9
  
  start of program scf
  
 number of electrons..........         36
 number of alpha electrons....         18
 number of beta electrons.....         18
 number of orbitals, total....        114
 number of doubly-occ'd orbs..         18
 number of open shell orbs....          0
 number of occupied orbitals..         18
 number of virtual orbitals...         96
 number of hamiltonians.......          1
 number of shells.............          1
 SCF type: DFT=Becke_3_Parameter/HF+Slater+Becke88+VWN+LYP (B3LYP)
  
       i  u  d  i  g                   
       t  p  i  c  r                                 RMS    maximum
       e  d  i  u  i                       energy  density   DIIS  
       r  t  s  t  d       total energy    change  change    error 
  
etot    1  N  N  5  M    -230.05167882944           1.6E-03  1.3E-02
etot    2  Y  Y  6  M    -230.05392966967  2.3E-03  5.3E-04  1.6E-02
etot    3  N  Y  2  U    -230.05652401028  2.6E-03  1.7E-04  5.8E-03
etot    4  Y  Y  6  M    -230.05703315401  5.1E-04  9.2E-05  1.6E-03
etot    5  Y  Y  6  M    -230.05705720214  2.4E-05  3.9E-05  9.9E-04
etot    6  N  Y  2  U    -230.05706843141  1.1E-05  1.4E-05  3.4E-04
etot    7  N  Y  2  U    -230.05706993001  1.5E-06  3.3E-06  1.6E-04
etot    8  N  N  2  U    -230.05707026232  3.3E-07  0.0E+00  0.0E+00
  
  
 Energy components, in hartrees:
   (A)  Nuclear repulsion............     156.42572839787
   (E)  Total one-electron terms.....    -619.25307191365
   (F)    Electron-nuclear...........    -846.34403442805
   (H)    Kinetic....................     228.68274276799
   (I)  Total two-electron terms.....     232.77027325346
   (J)    Coulomb....................     264.42775250174
   (K)    Exchange+Correlation.......     -31.65747924828
   (L)  Electronic energy............    -386.48279866019  (E+I)
   (M)  -V/T.........................       1.99904910726  (-(A+F+I)/H)
   (N)  Total energy.................    -230.05707026232  (A+L)
  
 SCFE: SCF energy: DFT(b3lyp)      -230.05707026232 hartrees   iterations:   8
  
 
 HOMO energy:    -0.28772
 LUMO energy:    -0.05826
 
  Orbital energies (hartrees): 
   -19.22674   -10.28398   -10.26817   -10.23697   -10.21991    -1.08128
    -0.85516    -0.77930    -0.63047    -0.61050    -0.57699    -0.47841
    -0.46468    -0.45696    -0.43268    -0.42284    -0.33360    -0.28772
    -0.05826    -0.02540    -0.00360     0.01636     0.04498     0.05574
     0.07406     0.09992     0.21484     0.23803
 
  Peak memory usage:    791 Mb
  
  end of program scf
   
 Time(scf)  user:        6.7  user+sys:        6.7  wallclock:        8.1
  
  start of program der1a
  
  Peak memory usage:    710 Mb
  
  end of program der1a
   
 Time(der1a)  user:        0.2  user+sys:        0.2  wallclock:        0.2
  
  start of program rwr
  
  Peak memory usage:    575 Mb
  
  end of program rwr
   
 Time(rwr)  user:        0.7  user+sys:        0.7  wallclock:        1.0
  
  start of program der1b
  
   
  forces (hartrees/bohr) : total     
   
 atom  label           x              y              z
 ---- --------   -------------  -------------  -------------
    1 C1          3.583428E-03   3.653412E-02   5.893878E-04
    2 C2          2.073821E-02  -9.352906E-03   2.003358E-03
    3 C3         -1.547759E-02  -1.570853E-02   2.195724E-03
    4 C4         -2.348578E-02   3.407784E-02   1.651689E-03
    5 O5          2.678741E-02  -9.500376E-02   1.830903E-03
    6 H6          1.698902E-02   1.660852E-02  -2.424391E-03
    7 H7          3.381939E-03   1.545717E-02  -2.037450E-03
    8 H8         -9.889403E-03   1.036575E-02  -1.722405E-03
    9 H9         -2.261955E-02   6.976062E-03  -2.086923E-03
 -------------   -------------  -------------  -------------
     total        7.674038E-06  -4.574018E-05  -1.090701E-07
   
  Peak memory usage:    790 Mb
  
  end of program der1b
   
 Time(der1b)  user:        3.2  user+sys:        3.2  wallclock:        3.4
  
  start of program raman
  
  calculation with applied electric field of
     Ex=-0.01200 Ey= 0.00000 Ez= 0.01200 follows...
  nuclear repulsion energy.......     154.843260697 hartrees
  nuclear electric field energy..      -1.461686693 hartrees
  Peak memory usage:    534 Mb
  
  end of program raman
   
 Time(raman)  user:        0.1  user+sys:        0.1  wallclock:        0.1
  
  start of program rwr
  
  Peak memory usage:    574 Mb
  
  end of program rwr
   
 Time(rwr)  user:        0.8  user+sys:        0.8  wallclock:        0.9
  
  start of program scf
  
 number of electrons..........         36
 number of alpha electrons....         18
 number of beta electrons.....         18
 number of orbitals, total....        114
 number of doubly-occ'd orbs..         18
 number of open shell orbs....          0
 number of occupied orbitals..         18
 number of virtual orbitals...         96
 number of hamiltonians.......          1
 number of shells.............          1
 SCF type: DFT=Becke_3_Parameter/HF+Slater+Becke88+VWN+LYP (B3LYP)
  
       i  u  d  i  g                   
       t  p  i  c  r                                 RMS    maximum
       e  d  i  u  i                       energy  density   DIIS  
       r  t  s  t  d       total energy    change  change    error 
  
etot    1  N  N  5  M    -230.05166114795           1.6E-03  1.3E-02
etot    2  Y  Y  6  M    -230.05390853683  2.2E-03  5.3E-04  1.6E-02
etot    3  N  Y  2  U    -230.05651631273  2.6E-03  1.7E-04  5.7E-03
etot    4  Y  Y  6  M    -230.05702679163  5.1E-04  9.2E-05  1.6E-03
etot    5  Y  Y  6  M    -230.05705096620  2.4E-05  3.9E-05  1.0E-03
etot    6  N  Y  2  U    -230.05706232525  1.1E-05  1.4E-05  3.4E-04
etot    7  N  Y  2  U    -230.05706381493  1.5E-06  3.3E-06  1.6E-04
etot    8  N  N  2  U    -230.05706414748  3.3E-07  0.0E+00  0.0E+00
  
  
 Energy components, in hartrees:
   (A)  Nuclear repulsion............     153.38157400354
   (E)  Total one-electron terms.....    -616.20849036425
   (F)    Electron-nuclear...........    -846.34356496510
   (H)    Kinetic....................     228.68270584731
   (I)  Total two-electron terms.....     232.76985221323
   (J)    Coulomb....................     264.42730789785
   (K)    Exchange+Correlation.......     -31.65745568462
   (L)  Electronic energy............    -383.43863815102  (E+I)
   (M)  -V/T.........................       2.01236091310  (-(A+F+I)/H)
   (N)  Total energy.................    -230.05706414748  (A+L)
  
 SCFE: SCF energy: DFT(b3lyp)      -230.05706414748 hartrees   iterations:   8
  
 
 HOMO energy:    -0.20317
 LUMO energy:     0.02629
 
  Orbital energies (hartrees): 
   -19.14219   -10.19944   -10.18361   -10.15246   -10.13536    -0.99672
    -0.77062    -0.69476    -0.54594    -0.52595    -0.49245    -0.39386
    -0.38014    -0.37240    -0.34813    -0.33827    -0.24905    -0.20317
     0.02629     0.05905     0.08087     0.10090     0.12950     0.14032
     0.15861     0.18454     0.29936     0.32254
 
  Peak memory usage:    791 Mb
  
  end of program scf
   
 Time(scf)  user:        6.6  user+sys:        6.6  wallclock:        8.1
  
  start of program der1a
  
  Peak memory usage:    710 Mb
  
  end of program der1a
   
 Time(der1a)  user:        0.2  user+sys:        0.2  wallclock:        0.9
  
  start of program rwr
  
  Peak memory usage:    575 Mb
  
  end of program rwr
   
 Time(rwr)  user:        0.7  user+sys:        0.7  wallclock:        1.1
  
  start of program der1b
  
   
  forces (hartrees/bohr) : total     
   
 atom  label           x              y              z
 ---- --------   -------------  -------------  -------------
    1 C1          3.579130E-03   3.654482E-02  -5.428286E-04
    2 C2          2.073948E-02  -9.355443E-03  -2.055395E-03
    3 C3         -1.548899E-02  -1.570698E-02  -2.184329E-03
    4 C4         -2.349875E-02   3.409518E-02  -1.510740E-03
    5 O5          2.679518E-02  -9.501904E-02  -2.082061E-03
    6 H6          1.699160E-02   1.660691E-02   2.414815E-03
    7 H7          3.383811E-03   1.545531E-02   2.050983E-03
    8 H8         -9.880177E-03   1.035976E-02   1.756872E-03
    9 H9         -2.261360E-02   6.973741E-03   2.153445E-03
 -------------   -------------  -------------  -------------
     total        7.680037E-06  -4.573479E-05   7.613159E-07
   
  Peak memory usage:    790 Mb
  
  end of program der1b
   
 Time(der1b)  user:        3.1  user+sys:        3.1  wallclock:        3.3
  
  start of program raman
  
  calculation with applied electric field of
     Ex= 0.01200 Ey= 0.00000 Ez=-0.01200 follows...
  nuclear repulsion energy.......     154.843260697 hartrees
  nuclear electric field energy..       1.461686693 hartrees
  Peak memory usage:    534 Mb
  
  end of program raman
   
 Time(raman)  user:        0.1  user+sys:        0.1  wallclock:        0.1
  
  start of program rwr
  
  Peak memory usage:    574 Mb
  
  end of program rwr
   
 Time(rwr)  user:        0.8  user+sys:        0.8  wallclock:        0.9
  
  start of program scf
  
 number of electrons..........         36
 number of alpha electrons....         18
 number of beta electrons.....         18
 number of orbitals, total....        114
 number of doubly-occ'd orbs..         18
 number of open shell orbs....          0
 number of occupied orbitals..         18
 number of virtual orbitals...         96
 number of hamiltonians.......          1
 number of shells.............          1
 SCF type: DFT=Becke_3_Parameter/HF+Slater+Becke88+VWN+LYP (B3LYP)
  
       i  u  d  i  g                   
       t  p  i  c  r                                 RMS    maximum
       e  d  i  u  i                       energy  density   DIIS  
       r  t  s  t  d       total energy    change  change    error 
  
etot    1  N  N  5  M    -230.05493452344           1.6E-03  1.3E-02
etot    2  Y  Y  6  M    -230.05727436877  2.3E-03  5.2E-04  1.6E-02
etot    3  N  Y  2  U    -230.05981588115  2.5E-03  1.7E-04  6.1E-03
etot    4  Y  Y  6  M    -230.06031507100  5.0E-04  7.5E-05  1.2E-03
etot    5  Y  Y  6  M    -230.06032898077  1.4E-05  3.8E-05  9.4E-04
etot    6  N  Y  2  U    -230.06033367011  4.7E-06  1.2E-05  3.8E-04
etot    7  N  Y  2  U    -230.06033553787  1.9E-06  3.2E-06  1.6E-04
etot    8  N  N  2  U    -230.06033586264  3.2E-07  0.0E+00  0.0E+00
  
  
 Energy components, in hartrees:
   (A)  Nuclear repulsion............     156.30494738957
   (E)  Total one-electron terms.....    -619.20399825275
   (F)    Electron-nuclear...........    -846.41998107487
   (H)    Kinetic....................     228.69025861716
   (I)  Total two-electron terms.....     232.83871500054
   (J)    Coulomb....................     264.49991360668
   (K)    Exchange+Correlation.......     -31.66119860614
   (L)  Electronic energy............    -386.36528325220  (E+I)
   (M)  -V/T.........................       1.99954436822  (-(A+F+I)/H)
   (N)  Total energy.................    -230.06033586264  (A+L)
  
 SCFE: SCF energy: DFT(b3lyp)      -230.06033586264 hartrees   iterations:   8
  
 
 HOMO energy:    -0.28248
 LUMO energy:    -0.05348
 
  Orbital energies (hartrees): 
   -19.22337   -10.27901   -10.26309   -10.22981   -10.21264    -1.07872
    -0.84881    -0.77402    -0.62467    -0.60524    -0.57028    -0.47403
    -0.45730    -0.45382    -0.42623    -0.42055    -0.32834    -0.28248
    -0.05348    -0.02087     0.00969     0.02361     0.05113     0.06725
     0.08075     0.10405     0.22466     0.24675
 
  Peak memory usage:    791 Mb
  
  end of program scf
   
 Time(scf)  user:        6.6  user+sys:        6.6  wallclock:        8.8
  
  start of program der1a
  
  Peak memory usage:    710 Mb
  
  end of program der1a
   
 Time(der1a)  user:        0.2  user+sys:        0.2  wallclock:        0.2
  
  start of program rwr
  
  Peak memory usage:    575 Mb
  
  end of program rwr
   
 Time(rwr)  user:        0.7  user+sys:        0.7  wallclock:        1.1
  
  start of program der1b
  
   
  forces (hartrees/bohr) : total     
   
 atom  label           x              y              z
 ---- --------   -------------  -------------  -------------
    1 C1          6.051927E-03   3.878531E-02   1.825421E-03
    2 C2          2.006620E-02  -6.958225E-03   1.929139E-03
    3 C3         -1.402019E-02  -1.662033E-02   1.771581E-03
    4 C4         -1.832100E-02   2.898448E-02   8.497581E-04
[...]
     Ex= 0.00000 Ey=-0.01200 Ez= 0.01200 follows...
  nuclear repulsion energy.......     154.843260697 hartrees
  nuclear electric field energy..      -1.582955861 hartrees
  Peak memory usage:    534 Mb
  
  end of program raman
   
 Time(raman)  user:        0.1  user+sys:        0.1  wallclock:        0.1
  
  start of program rwr
  
  Peak memory usage:    574 Mb
  
  end of program rwr
   
 Time(rwr)  user:        0.8  user+sys:        0.8  wallclock:        0.9
  
  start of program scf
  
 number of electrons..........         36
 number of alpha electrons....         18
 number of beta electrons.....         18
 number of orbitals, total....        114
 number of doubly-occ'd orbs..         18
 number of open shell orbs....          0
 number of occupied orbitals..         18
 number of virtual orbitals...         96
 number of hamiltonians.......          1
 number of shells.............          1
 SCF type: DFT=Becke_3_Parameter/HF+Slater+Becke88+VWN+LYP (B3LYP)
  
       i  u  d  i  g                   
       t  p  i  c  r                                 RMS    maximum
       e  d  i  u  i                       energy  density   DIIS  
       r  t  s  t  d       total energy    change  change    error 
  
etot    1  N  N  5  M    -230.06025249804           1.6E-03  1.3E-02
etot    2  Y  Y  6  M    -230.05968175438 -5.7E-04  5.9E-04  2.1E-02
etot    3  N  Y  2  U    -230.06483251700  5.2E-03  1.7E-04  6.4E-03
etot    4  Y  Y  6  M    -230.06535672898  5.2E-04  5.8E-05  1.4E-03
etot    5  Y  Y  6  M    -230.06537138592  1.5E-05  2.9E-05  6.7E-04
etot    6  N  Y  2  U    -230.06537230135  9.2E-07  9.7E-06  2.9E-04
etot    7  N  Y  2  U    -230.06537322019  9.2E-07  1.9E-06  5.3E-05
etot    8  N  N  2  U    -230.06537327489  5.5E-08  0.0E+00  0.0E+00
  
  
 Energy components, in hartrees:
   (A)  Nuclear repulsion............     153.26030483569
   (E)  Total one-electron terms.....    -616.28101759758
   (F)    Electron-nuclear...........    -846.54912737284
   (H)    Kinetic....................     228.70247101131
   (I)  Total two-electron terms.....     232.95533948700
   (J)    Coulomb....................     264.62301967031
   (K)    Exchange+Correlation.......     -31.66768018331
   (L)  Electronic energy............    -383.32567811057  (E+I)
   (M)  -V/T.........................       2.01280502574  (-(A+F+I)/H)
   (N)  Total energy.................    -230.06537327489  (A+L)
  
 SCFE: SCF energy: DFT(b3lyp)      -230.06537327489 hartrees   iterations:   8
  
 
 HOMO energy:    -0.19574
 LUMO energy:     0.03471
 
  Orbital energies (hartrees): 
   -19.13867   -10.18554   -10.18163   -10.13215   -10.12815    -0.99533
    -0.75858    -0.68634    -0.53403    -0.51916    -0.47917    -0.38883
    -0.36952    -0.36437    -0.33983    -0.33609    -0.23950    -0.19574
     0.03471     0.09048     0.11317     0.11397     0.11858     0.16897
     0.16932     0.18227     0.32238     0.34810
 
  Peak memory usage:    791 Mb
  
  end of program scf
   
 Time(scf)  user:        6.6  user+sys:        6.6  wallclock:        8.0
  
  start of program der1a
  
  Peak memory usage:    710 Mb
  
  end of program der1a
   
 Time(der1a)  user:        0.2  user+sys:        0.2  wallclock:        0.2
  
  start of program rwr
  
  Peak memory usage:    575 Mb
  
  end of program rwr
   
 Time(rwr)  user:        0.7  user+sys:        0.7  wallclock:        1.0
  
  start of program der1b
  
   
  forces (hartrees/bohr) : total     
   
 atom  label           x              y              z
 ---- --------   -------------  -------------  -------------
    1 C1          4.639896E-03   3.183610E-02  -1.557706E-03
    2 C2          1.803040E-02  -7.096248E-03  -1.456892E-03
    3 C3         -1.320870E-02  -1.415654E-02  -1.482776E-03
    4 C4         -1.932142E-02   2.739654E-02  -1.753580E-03
    5 O5          2.091087E-02  -8.437275E-02  -2.414670E-03
    6 H6          1.741435E-02   1.548290E-02   2.320053E-03
    7 H7          4.867507E-03   1.424858E-02   2.054538E-03
    8 H8         -1.097950E-02   1.034345E-02   2.006841E-03
    9 H9         -2.234120E-02   6.266782E-03   2.285752E-03
 -------------   -------------  -------------  -------------
     total        1.221590E-05  -5.118238E-05   1.560512E-06
   
  Peak memory usage:    790 Mb
  
  end of program der1b
   
 Time(der1b)  user:        3.2  user+sys:        3.2  wallclock:        3.5
  
  start of program raman
  
  calculation with applied electric field of
     Ex= 0.00000 Ey= 0.01200 Ez=-0.01200 follows...
  nuclear repulsion energy.......     154.843260697 hartrees
  nuclear electric field energy..       1.582955861 hartrees
  Peak memory usage:    534 Mb
  
  end of program raman
   
 Time(raman)  user:        0.1  user+sys:        0.1  wallclock:        0.1
  
  start of program rwr
  
  Peak memory usage:    574 Mb
  
  end of program rwr
   
 Time(rwr)  user:        0.8  user+sys:        0.8  wallclock:        1.0
  
  start of program scf
  
 number of electrons..........         36
 number of alpha electrons....         18
 number of beta electrons.....         18
 number of orbitals, total....        114
 number of doubly-occ'd orbs..         18
 number of open shell orbs....          0
 number of occupied orbitals..         18
 number of virtual orbitals...         96
 number of hamiltonians.......          1
 number of shells.............          1
 SCF type: DFT=Becke_3_Parameter/HF+Slater+Becke88+VWN+LYP (B3LYP)
  
       i  u  d  i  g                   
       t  p  i  c  r                                 RMS    maximum
       e  d  i  u  i                       energy  density   DIIS  
       r  t  s  t  d       total energy    change  change    error 
  
etot    1  N  N  5  M    -230.04634317335           1.8E-03  1.3E-02
etot    2  Y  Y  6  M    -230.04553448478 -8.1E-04  6.4E-04  2.4E-02
etot    3  N  Y  2  U    -230.05094556049  5.4E-03  2.0E-04  6.7E-03
etot    4  Y  Y  6  M    -230.05146733925  5.2E-04  9.3E-05  1.6E-03
etot    5  Y  Y  6  M    -230.05149997296  3.3E-05  4.5E-05  7.9E-04
etot    6  N  Y  2  U    -230.05151443413  1.4E-05  1.1E-05  3.1E-04
etot    7  N  Y  2  U    -230.05151533493  9.0E-07  2.1E-06  5.5E-05
etot    8  N  N  2  U    -230.05151542766  9.3E-08  0.0E+00  0.0E+00
  
  
 Energy components, in hartrees:
   (A)  Nuclear repulsion............     156.42621655742
   (E)  Total one-electron terms.....    -619.13854553471
   (F)    Electron-nuclear...........    -846.22182619089
   (H)    Kinetic....................     228.66978921308
   (I)  Total two-electron terms.....     232.66081354963
   (J)    Coulomb....................     264.31244433585
   (K)    Exchange+Correlation.......     -31.65163078623
   (L)  Electronic energy............    -386.47773198508  (E+I)
   (M)  -V/T.........................       1.99910446263  (-(A+F+I)/H)
   (N)  Total energy.................    -230.05151542766  (A+L)
  
 SCFE: SCF energy: DFT(b3lyp)      -230.05151542766 hartrees   iterations:   8
  
 
 HOMO energy:    -0.29164
 LUMO energy:    -0.05921
 
  Orbital energies (hartrees): 
   -19.22663   -10.28057   -10.27677   -10.23682   -10.23286    -1.07988
    -0.85943    -0.78264    -0.63223    -0.61572    -0.58138    -0.48203
    -0.46863    -0.45649    -0.43968    -0.42084    -0.33582    -0.29164
    -0.05921    -0.02874     0.00637     0.00976     0.01909     0.04979
     0.07327     0.08303     0.20390     0.23604
 
  Peak memory usage:    791 Mb
  
  end of program scf
   
 Time(scf)  user:        6.6  user+sys:        6.6  wallclock:        8.0
  
  start of program der1a
  
  Peak memory usage:    710 Mb
  
  end of program der1a
   
 Time(der1a)  user:        0.2  user+sys:        0.2  wallclock:        0.2
  
  start of program rwr
  
  Peak memory usage:    575 Mb
  
  end of program rwr
   
 Time(rwr)  user:        0.7  user+sys:        0.7  wallclock:        1.0
  
  start of program der1b
  
   
  forces (hartrees/bohr) : total     
   
 atom  label           x              y              z
 ---- --------   -------------  -------------  -------------
    1 C1          5.079888E-03   4.278240E-02   8.685014E-04
    2 C2          2.150435E-02  -8.640399E-03   2.490743E-03
    3 C3         -1.514752E-02  -1.789181E-02   2.493651E-03
    4 C4         -2.256899E-02   3.554381E-02   6.722830E-04
    5 O5          2.289883E-02  -1.024756E-01   1.595966E-03
    6 H6          1.791403E-02   1.712731E-02  -2.253080E-03
    7 H7          3.239441E-03   1.409234E-02  -1.760257E-03
    8 H8         -9.361246E-03   1.179664E-02  -1.827016E-03
    9 H9         -2.354681E-02   7.624507E-03  -2.280275E-03
 -------------   -------------  -------------  -------------
     total        1.198077E-05  -4.076988E-05   5.168825E-07
   
  Peak memory usage:    790 Mb
  
  end of program der1b
   
 Time(der1b)  user:        3.2  user+sys:        3.2  wallclock:        3.3
  
  start of program raman
  
   gradient of polarizability calculations complete...
  Peak memory usage:    534 Mb
  
  end of program raman
   
 Time(raman)  user:        0.1  user+sys:        0.1  wallclock:        0.1
  
  start of program freq
  
   
  harmonic frequencies in cm**-1, reduced masses in amu,
  force constants in mDyne/A, and
  normal modes in cartesian coordinates:
  IR intensities in km/mol
  Raman intensities in Angstrom^4
  
  frequencies       606.14   606.28   632.29   696.20   798.05   842.68
  intensities        13.53     0.02    14.00    60.10     0.00     0.83
  reduc. mass         2.78     2.21     5.26     4.66     0.53     2.80
  force const         0.60     0.48     1.24     1.33     0.20     1.17
  Raman Int.          5.01     0.24     4.14    11.27     9.28     3.15
    C1       X    -0.00018  0.00014  0.07128 -0.08708  0.00012 -0.14515
    C1       Y     0.00009 -0.00008  0.10254 -0.08920 -0.00009 -0.02710
    C1       Z    -0.13132  0.09664 -0.00008  0.00001  0.09826  0.00071
    C2       X     0.00008 -0.00020  0.01277  0.00026  0.00005 -0.02952
    C2       Y    -0.00007  0.00016  0.05434 -0.02979 -0.00001  0.07137
    C2       Z     0.05768 -0.15658  0.00009 -0.00001  0.02656  0.00041
    C3       X     0.00008  0.00020  0.03553  0.01292 -0.00003 -0.00518
    C3       Y    -0.00005 -0.00015 -0.04308 -0.02676  0.00002  0.07708
    C3       Z     0.06965  0.15164 -0.00007 -0.00003 -0.02656  0.00038
    C4       X    -0.00027 -0.00009  0.10956  0.11743 -0.00013  0.14211
    C4       Y     0.00016  0.00007 -0.06038 -0.04126  0.00009  0.04007
    C4       Z    -0.13844 -0.08617 -0.00025 -0.00021 -0.09804  0.00040
    O5       X     0.00027 -0.00003 -0.17621 -0.03964 -0.00000  0.02872
    O5       Y    -0.00013  0.00000 -0.04106  0.17023 -0.00000 -0.12278
    O5       Z     0.13965 -0.00542  0.00026  0.00024 -0.00005 -0.00046
    H6       X    -0.00034  0.00029  0.06045 -0.10307 -0.00069 -0.14811
    H6       Y     0.00028 -0.00021  0.01553 -0.20334  0.00052  0.00597
    H6       Z    -0.26662  0.22349 -0.00018 -0.00014 -0.56356 -0.00373
    H7       X     0.00002 -0.00034 -0.04782  0.05565 -0.00030  0.13147
    H7       Y    -0.00003  0.00026  0.08371 -0.05823  0.00024  0.00414
    H7       Z     0.00443 -0.26099  0.00019 -0.00015 -0.23714 -0.00394
    H8       X     0.00005  0.00033 -0.00583 -0.02410  0.00030 -0.11972
    H8       Y     0.00004 -0.00026 -0.09638 -0.07675 -0.00022 -0.05458
    H8       Z     0.02471  0.25990 -0.00012 -0.00006  0.23659 -0.00368
    H9       X    -0.00044 -0.00025  0.06136  0.18238  0.00071  0.13009
    H9       Y     0.00027  0.00019  0.01270 -0.13655 -0.00054  0.07101
    H9       Z    -0.28300 -0.20205 -0.00016 -0.00041  0.56233 -0.00402
  
  frequencies       843.50   860.24   954.11   961.66  1008.30  1154.13
  intensities       111.17     0.17     0.02     0.00     3.70     0.01
  reduc. mass         0.26     2.54     0.27     0.46     2.08     0.26
  force const         0.11     1.11     0.15     0.25     1.24     0.20
  Raman Int.          4.83     2.34    15.81     1.29    25.31    16.59
    C1       X     0.00127 -0.11473 -0.00008  0.00004 -0.03347  0.02073
    C1       Y     0.00018  0.01949  0.00005 -0.00003  0.00372 -0.01896
    C1       Z     0.06628  0.00015 -0.05529  0.03399  0.00005 -0.00005
    C2       X     0.00031  0.07315  0.00009 -0.00011 -0.13985  0.02164
    C2       Y    -0.00059  0.13469 -0.00006  0.00009 -0.06742  0.06190
    C2       Z     0.03519  0.00001  0.06826 -0.08852  0.00011  0.00003
    C3       X     0.00013  0.12527  0.00010  0.00011  0.15525 -0.04711
    C3       Y    -0.00071 -0.08831 -0.00007 -0.00009  0.00155  0.04504
    C3       Z     0.03534 -0.00026  0.06834  0.08841 -0.00020  0.00010
    C4       X    -0.00114 -0.09421 -0.00008 -0.00005  0.02835 -0.00913
    C4       Y    -0.00042 -0.06832  0.00005  0.00003  0.01816 -0.02376
    C4       Z     0.06645  0.00005 -0.05541 -0.03397 -0.00002 -0.00001
    O5       X    -0.00029  0.01713 -0.00001  0.00000  0.00028  0.00744
    O5       Y     0.00106  0.00400  0.00002  0.00000 -0.00123 -0.02999
    O5       Z    -0.03733 -0.00001 -0.01451  0.00002  0.00000 -0.00004
    H6       X     0.00065 -0.12932  0.00051 -0.00028 -0.02541 -0.02605
    H6       Y     0.00036 -0.11156 -0.00042  0.00020  0.14674 -0.49064
    H6       Z    -0.46438  0.00023  0.42823 -0.22418  0.00014 -0.00043
    H7       X    -0.00168  0.04362 -0.00061  0.00077 -0.41478 -0.38389
    H7       Y     0.00044  0.14707  0.00045 -0.00054  0.03688  0.24148
    H7       Z    -0.44860  0.00024 -0.46741  0.58265  0.00060  0.00073
    H8       X     0.00048  0.10428 -0.00057 -0.00074  0.35553  0.22433
    H8       Y     0.00084 -0.11249  0.00043  0.00052  0.21698  0.37125
    H8       Z    -0.44951 -0.00006 -0.46794 -0.58174 -0.00025  0.00006
    H9       X    -0.00174 -0.16533  0.00053  0.00028 -0.04217  0.23259
    H9       Y    -0.00013  0.04264 -0.00041 -0.00022  0.14265 -0.41091
    H9       Z    -0.46539  0.00034  0.42897  0.22404  0.00022 -0.00070
  
  frequencies      1155.37  1287.30  1383.76  1560.35  1656.86  3018.44
  intensities         4.38     6.63     7.34    20.39     0.11     2.47
  reduc. mass         0.26     0.29     0.77     2.45     2.35     0.27
  force const         0.20     0.29     0.87     3.52     3.80     1.44
  Raman Int.          9.17     0.35    15.64    59.08    11.86   114.93
    C1       X     0.04738 -0.00867 -0.03692 -0.07477 -0.05979 -0.03019
    C1       Y    -0.04162 -0.07209 -0.05483  0.12488  0.10525  0.00360
    C1       Z    -0.00010 -0.00006 -0.00001  0.00022  0.00018  0.00004
    C2       X    -0.01425  0.05639  0.11526  0.07866  0.08540  0.01742
    C2       Y     0.01433  0.00527  0.00968 -0.09986 -0.11909  0.04523
    C2       Z     0.00003 -0.00007 -0.00014 -0.00020 -0.00022  0.00002
    C3       X    -0.00438  0.05281 -0.10762 -0.02621  0.02381  0.03547
    C3       Y    -0.02104  0.02031 -0.04243 -0.12418  0.14477 -0.03262
    C3       Z    -0.00001 -0.00005  0.00010 -0.00008  0.00010 -0.00007
    C4       X     0.02439 -0.03972  0.05741  0.01166 -0.00696 -0.02574
    C4       Y     0.05935  0.06072 -0.03278  0.14494 -0.12104 -0.01682
    C4       Z     0.00002  0.00011 -0.00011  0.00012 -0.00010  0.00002
    O5       X     0.01915 -0.02736 -0.00273  0.00374  0.00985 -0.00058
    O5       Y     0.00513 -0.00639  0.01172 -0.01596  0.00231 -0.00014
    O5       Z    -0.00002  0.00003  0.00002 -0.00002 -0.00001  0.00000
    H6       X     0.00904  0.05416  0.01123 -0.13210 -0.11059  0.36954
    H6       Y    -0.44252  0.47265  0.40047 -0.14749 -0.06710 -0.03840
    H6       Z    -0.00044  0.00038  0.00037  0.00004  0.00008 -0.00049
    H7       X    -0.43434 -0.36007 -0.29423 -0.08629 -0.21749 -0.21738
    H7       Y     0.19269  0.18178  0.19084 -0.05733 -0.02205 -0.52163
    H7       Z     0.00075  0.00064  0.00056  0.00005  0.00025 -0.00021
    H8       X    -0.31351 -0.24205  0.17915  0.10241 -0.20483 -0.42399
    H8       Y    -0.38110 -0.32223  0.30149 -0.01336 -0.07659  0.36942
    H8       Z     0.00005  0.00001  0.00005 -0.00014  0.00019  0.00087
    H9       X    -0.19792  0.25808 -0.18770  0.18366 -0.12912  0.31727
    H9       Y     0.41819 -0.39985  0.35425 -0.07371  0.01122  0.20016
    H9       Z     0.00065 -0.00071  0.00057 -0.00031  0.00017 -0.00022
  
  frequencies      3026.19  3045.33  3053.40
  intensities         1.39     1.83     0.04
  reduc. mass         0.24     0.27     0.24
  force const         1.27     1.47     1.31
  Raman Int.          3.93     0.06   266.62
    C1       X    -0.03798  0.05095 -0.04884
    C1       Y     0.00329 -0.01225  0.01077
    C1       Z     0.00005 -0.00007  0.00007
    C2       X     0.01810  0.00773 -0.01420
    C2       Y     0.04065  0.03501 -0.04171
    C2       Z     0.00001  0.00002 -0.00002
    C3       X    -0.03390  0.02345  0.03106
    C3       Y     0.02800 -0.02888 -0.03083
    C3       Z     0.00007 -0.00006 -0.00007
    C4       X     0.03314  0.04044  0.03815
    C4       Y     0.02025  0.03382  0.03062
    C4       Z    -0.00002 -0.00002 -0.00002
    O5       X     0.00024 -0.00138 -0.00000
    O5       Y    -0.00107 -0.00031  0.00004
    O5       Z    -0.00000  0.00000  0.00000
    H6       X     0.44143 -0.55437  0.50165
    H6       Y    -0.04651  0.06280 -0.05870
    H6       Z    -0.00058  0.00073 -0.00067
    H7       X    -0.19950 -0.13343  0.17069
    H7       Y    -0.46653 -0.33412  0.40852
    H7       Z    -0.00018 -0.00014  0.00016
    H8       X     0.38159 -0.27878 -0.33230
    H8       Y    -0.32615  0.24991  0.28886
    H8       Z    -0.00078  0.00058  0.00068
    H9       X    -0.38155 -0.47094 -0.41351
    H9       Y    -0.24150 -0.30327 -0.26843
    H9       Z     0.00026  0.00031  0.00027
  
  Number of imaginary frequencies:   0
   
  Writing vibrational animation data to furan_raman_3.vib
  Writing vibrational spectrum data to furan_raman_3_vib.spm
  
  Thermochemical properties at    1.0000 atm
  
  rotational symmetry number:  1

  rotational temperatures (K):      0.420869      0.411773      0.208136
   
  vibrational temperatures:
       mode:      1        2        3        4        5        6
  temp. (K):   872.10   872.30   909.72  1001.67  1148.22  1212.43
   
       mode:      7        8        9       10       11       12
  temp. (K):  1213.61  1237.70  1372.74  1383.61  1450.72  1660.54
   
       mode:     13       14       15       16       17       18
  temp. (K):  1662.32  1852.14  1990.92  2244.99  2383.85  4342.86
   
       mode:     19       20       21
  temp. (K):  4354.01  4381.55  4393.16
   
   
  Thermodynamic properties calculated assuming an ideal gas

  In the table below, the units for temperature
  are kelvins, the units for U, H, and G are
  kcal/mol and the units for Cv and S are cal/(mol K)

  The zero point energy (ZPE):     41.673 kcal/mol
  is not included in U, H, or G in the table below


  T =   298.15 K
   
              U         Cv          S          H          G        ln(Q)
          ---------  ---------  ---------  ---------  ---------  ---------
  trans.      0.889      2.981     38.570      1.481    -10.018   16.90896
    rot.      0.889      2.981     24.403      0.889     -6.387   10.77990
    vib.      0.649      8.276      2.783      0.649     -0.181    0.30521
   elec.      0.000      0.000      0.000      0.000      0.000    0.00000
   total      2.427     14.237     65.756      3.019    -16.586   27.99407
   
  Total internal energy, Utot (SCFE + ZPE + U):    -229.981239 hartrees
              Total enthalpy, Htot (Utot + pV):    -229.980294 hartrees
    Total Gibbs free energy, Gtot (Htot - T*S):    -230.011537 hartrees
   
  Peak memory usage:    566 Mb
  
  end of program freq
   
 Time(freq)  user:        0.1  user+sys:        0.1  wallclock:        0.1

 Total cpu seconds     user:     248.259   user+sys:     248.259
  
 Total elapsed time:    567 seconds

Job furan_raman_3 completed on node021 at Tue Feb 24 15:26:52 2015
