Gaussian '09 started on node011 at Wed Oct 21 13:41:28 EDT 2015.
 Entering Gaussian System, Link 0=/usr/local/gaussian/g09/g09
 Initial command:
 /usr/local/gaussian/g09/l1.exe /home/srmcgrat/data/gaussian/cellobiose/450/capped/6000ps/gaussian21841/Gau-21877.inp -scrdir=/home/srmcgrat/data/gaussian/cellobiose/450/capped/6000ps/gaussian21841/
 Entering Link 1 = /usr/local/gaussian/g09/l1.exe PID=     21879.
  
 Copyright (c) 1988,1990,1992,1993,1995,1998,2003,2009,2010,
            Gaussian, Inc.  All Rights Reserved.
  
 This is part of the Gaussian(R) 09 program.  It is based on
 the Gaussian(R) 03 system (copyright 2003, Gaussian, Inc.),
 the Gaussian(R) 98 system (copyright 1998, Gaussian, Inc.),
 the Gaussian(R) 94 system (copyright 1995, Gaussian, Inc.),
 the Gaussian 92(TM) system (copyright 1992, Gaussian, Inc.),
 the Gaussian 90(TM) system (copyright 1990, Gaussian, Inc.),
 the Gaussian 88(TM) system (copyright 1988, Gaussian, Inc.),
 the Gaussian 86(TM) system (copyright 1986, Carnegie Mellon
 University), and the Gaussian 82(TM) system (copyright 1983,
 Carnegie Mellon University). Gaussian is a federally registered
 trademark of Gaussian, Inc.
  
 This software contains proprietary and confidential information,
 including trade secrets, belonging to Gaussian, Inc.
  
 This software is provided under written license and may be
 used, copied, transmitted, or stored only in accord with that
 written license.
  
 The following legend is applicable only to US Government
 contracts under FAR:
  
                    RESTRICTED RIGHTS LEGEND
  
 Use, reproduction and disclosure by the US Government is
 subject to restrictions as set forth in subparagraphs (a)
 and (c) of the Commercial Computer Software - Restricted
 Rights clause in FAR 52.227-19.
  
 Gaussian, Inc.
 340 Quinnipiac St., Bldg. 40, Wallingford CT 06492
  
  
 ---------------------------------------------------------------
 Warning -- This program may not be used in any manner that
 competes with the business of Gaussian, Inc. or will provide
 assistance to any competitor of Gaussian, Inc.  The licensee
 of this program is prohibited from giving any competitor of
 Gaussian, Inc. access to this program.  By using this program,
 the user acknowledges that Gaussian, Inc. is engaged in the
 business of creating and licensing software in the field of
 computational chemistry and represents and warrants to the
 licensee that it is not a competitor of Gaussian, Inc. and that
 it will not use this program in any manner prohibited above.
 ---------------------------------------------------------------
  

 Cite this work as:
 Gaussian 09, Revision B.01,
 M. J. Frisch, G. W. Trucks, H. B. Schlegel, G. E. Scuseria, 
 M. A. Robb, J. R. Cheeseman, G. Scalmani, V. Barone, B. Mennucci, 
 G. A. Petersson, H. Nakatsuji, M. Caricato, X. Li, H. P. Hratchian, 
 A. F. Izmaylov, J. Bloino, G. Zheng, J. L. Sonnenberg, M. Hada, 
 M. Ehara, K. Toyota, R. Fukuda, J. Hasegawa, M. Ishida, T. Nakajima, 
 Y. Honda, O. Kitao, H. Nakai, T. Vreven, J. A. Montgomery, Jr., 
 J. E. Peralta, F. Ogliaro, M. Bearpark, J. J. Heyd, E. Brothers, 
 K. N. Kudin, V. N. Staroverov, T. Keith, R. Kobayashi, J. Normand, 
 K. Raghavachari, A. Rendell, J. C. Burant, S. S. Iyengar, J. Tomasi, 
 M. Cossi, N. Rega, J. M. Millam, M. Klene, J. E. Knox, J. B. Cross, 
 V. Bakken, C. Adamo, J. Jaramillo, R. Gomperts, R. E. Stratmann, 
 O. Yazyev, A. J. Austin, R. Cammi, C. Pomelli, J. W. Ochterski, 
 R. L. Martin, K. Morokuma, V. G. Zakrzewski, G. A. Voth, 
 P. Salvador, J. J. Dannenberg, S. Dapprich, A. D. Daniels, 
 O. Farkas, J. B. Foresman, J. V. Ortiz, J. Cioslowski, 
 and D. J. Fox, Gaussian, Inc., Wallingford CT, 2010.
 
 ******************************************
 Gaussian 09:  EM64L-G09RevB.01 12-Aug-2010
                21-Oct-2015 
 ******************************************
 ------------------------------------------------
 # freq=raman b3lyp/6-31+g(d,p) geom=connectivity
 ------------------------------------------------
 1/10=4,30=1,38=1,57=2/1,3;
 2/12=2,17=6,18=5,40=1/2;
 3/5=1,6=6,7=111,11=2,16=1,25=1,30=1,71=2,74=-5/1,2,3;
 4//1;
 5/5=2,38=5,98=1/2;
 8/6=4,10=90,11=11/1;
 10/13=10,15=4/2;
 11/6=3,8=1,9=11,15=111,16=1/1,2,10;
 10/6=1/2;
 6/7=2,8=2,9=2,10=2,18=1,28=1/1;
 7/8=1,10=1,25=1/1,2,3,16;
 1/10=4,30=1/3;
 99//99;
 -----------------------------
 450K 6000ps Cellobiose Unit 1
 -----------------------------
 Symbolic Z-matrix:
 Charge =  0 Multiplicity = 1
 O(PDBName=O1,ResName=GLC,ResNum=6)  9.783     7.917     32.403 
 C(PDBName=C4,ResName=GLC,ResNum=7)  10.631    7.845     33.558 
 C(PDBName=C3,ResName=GLC,ResNum=7)  10.877    9.18      34.24 
 O(PDBName=O3,ResName=GLC,ResNum=7)  11.412    10.226    33.416 
 H(PDBName=HO3,ResName=GLC,ResNum=7)  10.873    10.103    32.583 
 C(PDBName=C2,ResName=GLC,ResNum=7)  11.687    9.126     35.526 
 O(PDBName=O2,ResName=GLC,ResNum=7)  11.955    10.402    36.125 
 H(PDBName=HO2,ResName=GLC,ResNum=7)  12.629    10.936    35.615 
 C(PDBName=C6,ResName=GLC,ResNum=7)  10.087    5.385     34.143 
 O(PDBName=O6,ResName=GLC,ResNum=7)  9.373     4.628     35.13 
 H(PDBName=HO6,ResName=GLC,ResNum=7)  9.151     3.788     34.635 
 C(PDBName=C5,ResName=GLC,ResNum=7)  10.131    6.839     34.583 
 O(PDBName=O5,ResName=GLC,ResNum=7)  10.9      6.945     35.79 
 C(PDBName=C1,ResName=GLC,ResNum=7)  10.97     8.195     36.491 
 O(PDBName=O1,ResName=GLC,ResNum=7)  11.758    7.966     37.668 
 C(PDBName=C4,ResName=GLC,ResNum=8)  11.084    8.014     38.935 
 C(PDBName=C3,ResName=GLC,ResNum=8)  10.5      6.681     39.373 
 O(PDBName=O3,ResName=GLC,ResNum=8)  9.809     5.898     38.388 
 H(PDBName=HO3,ResName=GLC,ResNum=8)  10.309    5.719     37.541 
 C(PDBName=C2,ResName=GLC,ResNum=8)  9.612     6.775     40.603 
 O(PDBName=O2,ResName=GLC,ResNum=8)  9.092     5.452     40.799 
 H(PDBName=HO2,ResName=GLC,ResNum=8)  8.725     5.336     39.876 
 C(PDBName=C6,ResName=GLC,ResNum=8)  12.533    9.731     39.976 
 O(PDBName=O6,ResName=GLC,ResNum=8)  11.837    10.985    39.938 
 H(PDBName=HO6,ResName=GLC,ResNum=8)  12.294    11.628    39.322 
 C(PDBName=C5,ResName=GLC,ResNum=8)  11.978    8.324     40.124 
 O(PDBName=O5,ResName=GLC,ResNum=8)  11.329    8.215     41.399 
 C(PDBName=C1,ResName=GLC,ResNum=8)  10.579    7.042     41.745 
 O(PDBName=O1,ResName=GLC,ResNum=8)  9.915     7.353     42.979 
 H                     10.32393   7.96634   31.61144 
 H                     10.56941   7.52465   43.66009 
 H                     11.08374   5.00677   34.05162 
 H                     9.58608   5.30965   33.2005 
 H                     9.12724   7.11886   34.826 
 H                     9.99442   8.5599    36.73594 
 H                     12.63088   8.68021   35.29092 
 H                     9.90628   9.52178   34.5329 
 H                     11.58248   7.49294   33.21795 
 H                     10.30046   8.74107   38.8867 
 H                     11.34119   6.08952   39.6687 
 H                     8.84889   7.51977   40.51421 
 H                     11.23645   6.20825   41.87734 
 H                     12.79917   7.63817   40.10966 
 H                     13.22837   9.83286   40.78283 
 H                     13.09285   9.70557   39.0645 
 
 Residue   4                        charge    0.00000000 ave dist*************
 Residue   2 PDB Number     7_0 GLC charge    0.00000000 ave dist*************
 Residue   3 PDB Number     8_0 GLC charge    0.00000000 ave dist*************
 Residue   1 PDB Number     6_0 GLC charge    0.00000000 ave dist*************

 GradGradGradGradGradGradGradGradGradGradGradGradGradGradGradGradGradGrad
 Berny optimization.
 Initialization pass.
 Trust Radius=3.00D-01 FncErr=1.00D-07 GrdErr=1.00D-07
 Number of steps in this run=      2 maximum allowed number of steps=      2.
 GradGradGradGradGradGradGradGradGradGradGradGradGradGradGradGradGradGrad

                          Input orientation:                          
 ---------------------------------------------------------------------
 Center     Atomic      Atomic             Coordinates (Angstroms)
 Number     Number       Type             X           Y           Z
 ---------------------------------------------------------------------
      1          8           0        9.783000    7.917000   32.403000
      2          6           0       10.631000    7.845000   33.558000
      3          6           0       10.877000    9.180000   34.240000
      4          8           0       11.412000   10.226000   33.416000
      5          1           0       10.873000   10.103000   32.583000
      6          6           0       11.687000    9.126000   35.526000
      7          8           0       11.955000   10.402000   36.125000
      8          1           0       12.629000   10.936000   35.615000
      9          6           0       10.087000    5.385000   34.143000
     10          8           0        9.373000    4.628000   35.130000
     11          1           0        9.151000    3.788000   34.635000
     12          6           0       10.131000    6.839000   34.583000
     13          8           0       10.900000    6.945000   35.790000
     14          6           0       10.970000    8.195000   36.491000
     15          8           0       11.758000    7.966000   37.668000
     16          6           0       11.084000    8.014000   38.935000
     17          6           0       10.500000    6.681000   39.373000
     18          8           0        9.809000    5.898000   38.388000
     19          1           0       10.309000    5.719000   37.541000
     20          6           0        9.612000    6.775000   40.603000
     21          8           0        9.092000    5.452000   40.799000
     22          1           0        8.725000    5.336000   39.876000
     23          6           0       12.533000    9.731000   39.976000
     24          8           0       11.837000   10.985000   39.938000
     25          1           0       12.294000   11.628000   39.322000
     26          6           0       11.978000    8.324000   40.124000
     27          8           0       11.329000    8.215000   41.399000
     28          6           0       10.579000    7.042000   41.745000
     29          8           0        9.915000    7.353000   42.979000
     30          1           0       10.323925    7.966344   31.611441
     31          1           0       10.569406    7.524653   43.660093
     32          1           0       11.083741    5.006773   34.051616
     33          1           0        9.586080    5.309653   33.200502
     34          1           0        9.127243    7.118859   34.826005
     35          1           0        9.994423    8.559899   36.735945
     36          1           0       12.630882    8.680214   35.290921
     37          1           0        9.906281    9.521780   34.532900
     38          1           0       11.582484    7.492945   33.217949
     39          1           0       10.300459    8.741070   38.886702
     40          1           0       11.341195    6.089515   39.668697
     41          1           0        8.848891    7.519769   40.514207
     42          1           0       11.236453    6.208248   41.877339
     43          1           0       12.799173    7.638165   40.109662
     44          1           0       13.228373    9.832860   40.782834
     45          1           0       13.092848    9.705570   39.064505
 ---------------------------------------------------------------------
                    Distance matrix (angstroms):
                    1          2          3          4          5
     1  O    0.000000
     2  C    1.434682   0.000000
     3  C    2.483259   1.519166   0.000000
     4  O    3.001881   2.509838   1.435032   0.000000
     5  H    2.449305   2.471387   1.896732   0.999769   0.000000
     6  C    3.852275   2.574708   1.520793   2.395355   3.205990
     7  O    4.974545   3.857553   2.491705   2.768484   3.715628
     8  H    5.247001   4.216341   2.836136   2.611664   3.601451
     9  C    3.087238   2.586457   3.877568   5.071433   5.030996
    10  O    4.292103   3.795107   4.875943   6.199429   6.221964
    11  H    4.736020   4.450795   5.675277   6.931517   6.859680
    12  C    2.456743   1.520744   2.480816   3.804552   3.899264
    13  O    3.696518   2.421608   2.719973   4.082031   4.500949
    14  C    4.265911   2.973199   2.458836   3.711597   4.349981
    15  O    5.623455   4.263434   3.741810   4.827714   5.586342
    16  C    6.661008   5.398694   4.842048   5.954821   6.690018
    17  C    7.114962   5.931803   5.721435   6.991754   7.612707
    18  O    6.316428   5.272134   5.396115   6.783950   7.246526
    19  H    5.613103   4.526351   4.816404   6.208485   6.642237
    20  C    8.280906   7.198284   6.918961   8.173272   8.774173
    21  O    8.777615   7.779913   7.752721   9.092973   9.607623
    22  H    7.976632   7.060102   7.153456   8.536022   8.973630
    23  C    8.258536   6.954518   5.995634   6.673475   7.586200
    24  O    8.390933   7.212381   6.053662   6.579756   7.470157
    25  H    8.243131   7.092274   5.816126   6.133870   7.054005
    26  C    8.037258   6.719837   6.047015   6.995372   7.826401
    27  O    9.132740   7.880697   7.237873   8.232818   9.027421
    28  C    9.416592   8.226450   7.809281   8.955668   9.664285
    29  O   10.591850   9.460970   8.979615  10.096836  10.796160
    30  H    0.960000   1.974363   2.947571   3.089722   2.410541
    31  H   11.291347  10.107359   9.569375  10.627732  11.377260
    32  H    3.588772   2.916190   4.182589   5.268025   5.307803
    33  H    2.733687   2.765438   4.210299   5.248894   5.001364
    34  H    2.634008   2.096760   2.766469   4.106403   4.121144
    35  H    4.385479   3.318983   2.719045   3.975858   4.516637
    36  H    4.127107   2.774910   2.104833   2.718539   3.528073
    37  H    2.669642   2.070565   1.070000   2.002644   2.252659
    38  H    2.020423   1.070000   2.094863   2.745520   2.778294
    39  H    6.556314   5.413618   4.702861   5.776601   6.474513
    40  H    7.652322   6.397400   6.263971   7.497449   8.156861
    41  H    8.174475   7.188220   6.799652   8.017341   8.583365
    42  H    9.736296   8.500408   8.203016   9.368426  10.083944
    43  H    8.280560   6.904203   6.365919   7.309326   8.150840
    44  H    9.260817   7.930710   6.983112   7.597632   8.535692
    45  H    7.650472   6.312211   5.334984   5.916224   6.862622
                    6          7          8          9         10
     6  C    0.000000
     7  O    1.434852   0.000000
     8  H    2.042397   0.999766   0.000000
     9  C    4.297414   5.708593   6.280298   0.000000
    10  O    5.073797   6.402798   7.115309   1.434229   0.000000
    11  H    5.976573   7.336724   8.009419   1.915351   0.999954
    12  C    2.922457   4.289488   4.908201   1.519754   2.400478
    13  O    2.333629   3.629890   4.352947   2.409809   2.852336
    14  C    1.520551   2.444387   3.321557   3.766815   4.138384
    15  O    2.436966   2.890286   3.714075   4.677545   4.824097
    16  C    3.636129   3.789101   4.684817   5.555980   5.373131
    17  C    4.710244   5.149016   6.063022   5.403988   4.846441
    18  O    4.705094   5.478367   6.404949   4.284913   3.523856
    19  H    4.191272   5.161866   6.025692   3.421585   2.807009
    20  C    5.967307   6.220712   7.162147   6.624902   5.883915
    21  O    6.930861   7.385496   8.334175   6.730293   5.735460
    22  H    6.485372   7.082885   8.047194   5.892770   4.842074
    23  C    4.569928   3.951522   4.525435   7.674277   7.714268
    24  O    4.790003   3.859117   4.395224   8.246486   8.342638
    25  H    4.586727   3.440757   3.785887   8.406422   8.666320
    26  C    4.676483   4.506730   5.251421   6.927190   6.736949
    27  O    5.954008   5.743685   6.522921   7.886761   7.482838
    28  C    6.651818   6.690843   7.546034   7.796032   7.144232
    29  O    7.863251   7.774016   8.627409   9.054143   8.326235
    30  H    4.304247   5.381918   5.491877   3.623294   4.942576
    31  H    8.365214   8.183925   8.977903   9.766570   9.087600
    32  H    4.416532   5.845210   6.323585   1.070000   2.057430
    33  H    4.938250   6.332177   6.837027   1.070000   2.057430
    34  H    3.327305   4.523561   5.239788   2.096162   2.521347
    35  H    2.156213   2.758705   3.720668   4.100234   4.292442
    36  H    1.070000   2.029052   2.278947   4.318274   5.201935
    37  H    2.076981   2.739858   3.253331   4.159042   4.958831
    38  H    2.829292   4.129445   4.323850   2.745109   4.092147
    39  H    3.655815   3.622595   4.576446   5.814764   5.647153
    40  H    5.147986   5.615343   6.448203   5.709875   5.158449
    41  H    5.959618   6.100845   7.068387   6.832455   6.134061
    42  H    7.003983   7.154948   7.969173   7.862505   7.176087
    43  H    4.945759   4.922290   5.577334   6.930634   6.752539
    44  H    5.523567   4.862183   5.318146   8.587146   8.597034
    45  H    3.851406   3.228065   3.691639   7.205807   7.422891
                   11         12         13         14         15
    11  H    0.000000
    12  C    3.204950   0.000000
    13  O    3.789416   1.435077   0.000000
    14  C    5.116165   2.486588   1.434852   0.000000
    15  O    5.783703   3.665308   2.303365   1.434822   0.000000
    16  C    6.331316   4.607465   3.326807   2.453343   1.435921
    17  C    5.712958   4.806789   3.614911   3.289228   2.478067
    18  O    4.355465   3.932835   3.006010   3.197302   2.931489
    19  H    3.676216   3.167941   2.217737   2.769476   2.676703
    20  C    6.689672   6.042670   4.985260   4.557314   3.825967
    21  O    6.384925   6.453057   5.530641   5.441488   4.819846
    22  H    5.481410   5.679057   4.900500   4.967105   4.581621
    23  C    8.676604   6.574018   5.286878   4.116733   3.007111
    24  O    9.334517   6.983966   5.865618   4.518584   3.778029
    25  H    9.659815   7.076101   6.028992   4.642524   4.053795
    26  C    7.661354   6.026551   4.674108   3.772452   2.491686
    27  O    8.372199   7.055950   5.766960   4.921153   3.763828
    28  C    7.948572   7.178869   5.964434   5.393219   4.343472
    29  O    9.105782   8.414492   7.267628   6.626925   5.655010
    30  H    5.289255   3.184067   4.339972   4.927453   6.224024
    31  H    9.870500   9.113503   7.898333   7.211501   6.124763
    32  H    2.358227   2.132402   2.610069   4.016008   4.721216
    33  H    2.136003   2.132402   3.332603   4.589971   5.633112
    34  H    3.336416   1.070000   2.025384   2.706666   3.964273
    35  H    5.281700   2.759587   2.079130   1.070000   2.081261
    36  H    6.039335   3.184436   2.501200   2.105743   2.631070
    37  H    5.784212   2.692641   3.034399   2.593454   3.959567
    38  H    4.652608   2.097097   2.716887   3.403069   4.478564
    39  H    6.628056   4.708337   3.629722   2.546736   2.051925
    40  H    5.952481   5.281157   3.996348   3.829962   2.774475
    41  H    6.970111   6.106265   5.182233   4.597960   4.094256
    42  H    7.915693   7.404543   6.140986   5.747246   4.591322
    43  H    7.622654   6.188845   4.769362   4.092756   2.674552
    44  H    9.537356   7.549494   6.220084   5.118855   3.917825
    45  H    8.377130   6.088814   4.811623   3.662135   2.599644
                   16         17         18         19         20
    16  C    0.000000
    17  C    1.519799   0.000000
    18  O    2.530275   1.435547   0.000000
    19  H    2.794796   2.078016   0.999725   0.000000
    20  C    2.546395   1.519961   2.390432   3.313124   0.000000
    21  O    3.742513   2.350826   2.554589   3.488114   1.434972
    22  H    3.690806   2.283125   1.924849   2.847450   1.840114
    23  C    2.476161   3.714727   4.963246   5.193414   4.202774
    24  O    3.224881   4.542159   5.691472   5.984242   4.808009
    25  H    3.830779   5.262494   6.315099   6.482937   5.690843
    26  C    1.519558   2.334081   3.688324   4.030319   2.868240
    27  O    2.484295   2.673027   4.092067   4.706865   2.378089
    28  C    3.015942   2.400614   3.629199   4.415523   1.520047
    29  O    4.261152   3.714437   4.817213   5.691839   2.463995
    30  H    7.363049   7.869238   7.103868   6.341170   9.098036
    31  H    4.778156   4.369867   5.569487   6.385256   3.290050
    32  H    5.735054   5.609003   4.606894   3.644625   6.943578
    33  H    6.514731   6.388707   5.225512   4.419287   7.546184
    34  H    4.638320   4.769837   3.826630   3.275264   5.807487
    35  H    2.514165   3.277183   3.138372   2.969475   4.276240
    36  H    4.014474   5.020049   5.029477   4.384379   6.400131
    37  H    4.799887   5.643501   5.291790   4.865387   6.669147
    38  H    5.762348   6.302037   5.693726   4.843285   7.677058
    39  H    1.070000   2.126074   2.928017   3.308156   2.699089
    40  H    2.075597   1.070000   2.006112   2.393701   2.081568
    41  H    2.780984   2.175327   2.841250   3.770232   1.070000
    42  H    3.455625   2.652842   3.782772   4.461319   2.141027
    43  H    2.112558   2.597120   3.864379   4.059825   3.338639
    44  H    3.364681   4.400667   5.736764   5.996338   4.739303
    45  H    2.629382   3.995754   5.073352   5.095451   4.803281
                   21         22         23         24         25
    21  O    0.000000
    22  H    1.000037   0.000000
    23  C    5.552265   5.816089   0.000000
    24  O    6.236220   6.449774   1.434704   0.000000
    25  H    7.111773   7.254925   2.020754   1.000877   0.000000
    26  C    4.127106   4.423987   1.519730   2.671217   3.414597
    27  O    3.605321   4.170010   2.402665   3.172615   4.110197
    28  C    2.373644   3.137023   3.765395   4.516089   5.462925
    29  O    3.007246   3.887544   4.639700   5.112063   6.108102
    30  H    9.604728   8.819195   8.829488   8.985169   8.760230
    31  H    3.829422   4.744618   4.721887   5.237822   6.215363
    32  H    7.049287   6.292495   7.714726   8.423545   8.548820
    33  H    7.615875   6.730856   8.610460   9.092309   9.204731
    34  H    6.201317   5.370553   6.704096   6.958615   7.111587
    35  H    5.194403   4.675993   4.279463   4.419204   4.624822
    36  H    7.299588   6.889313   4.802468   5.247631   5.005250
    37  H    7.515995   6.889478   6.047377   5.923158   5.750900
    38  H    8.236522   7.559581   7.182174   7.577487   7.407049
    39  H    3.991896   3.880113   2.674093   2.915718   3.535259
    40  H    2.596707   2.730428   3.843858   4.927892   5.630528
    41  H    2.101399   2.278487   4.330343   4.611793   5.492513
    42  H    2.516625   3.327697   4.207839   5.190285   6.084561
    43  H    4.358628   4.685451   2.113923   3.486624   4.098096
    44  H    6.025095   6.428410   1.070000   1.994264   2.495920
    45  H    6.091643   6.231353   1.070000   1.994264   2.097665
                   26         27         28         29         30
    26  C    0.000000
    27  O    1.434820   0.000000
    28  C    2.495669   1.434624   0.000000
    29  O    3.653743   2.288851   1.435400   0.000000
    30  H    8.679144   9.842170  10.178825  11.391435   0.000000
    31  H    3.889351   2.483164   1.975001   0.960000  12.059244
    32  H    6.976929   8.021030   7.974024   9.304242   3.910350
    33  H    7.921009   8.870974   8.774700   9.995123   3.182379
    34  H    6.135791   7.018085   7.070078   8.194310   3.533227
    35  H    3.933083   4.862523   5.266534   6.359139   5.169276
    36  H    4.889969   6.262584   6.967719   8.260997   4.401162
    37  H    6.081702   7.132681   7.656125   8.720109   3.335975
    38  H    6.967110   8.216764   8.597728   9.903444   2.094981
    39  H    2.125793   2.765192   3.336808   4.338458   7.316431
    40  H    2.367645   2.740763   2.408153   3.819493   8.335268
    41  H    3.254285   2.723443   2.176325   2.690651   9.035176
    42  H    2.846137   2.065049   1.070000   2.066483  10.455251
    43  H    1.070000   2.038760   2.821155   4.078342   8.857443
    44  H    2.067402   2.569970   3.966590   4.685220   9.799701
    45  H    2.067402   3.283721   4.538622   5.563863   8.138796
                   31         32         33         34         35
    31  H    0.000000
    32  H    9.946210   0.000000
    33  H   10.736676   1.749034   0.000000
    34  H    8.960224   2.981354   2.475080   0.000000
    35  H    7.024683   4.584424   4.819772   2.544890   0.000000
    36  H    8.696439   4.174169   5.000135   3.863866   3.008901
    37  H    9.366639   4.690771   4.429427   2.542998   2.405492
    38  H   10.491220   2.669231   2.958496   2.958714   4.004575
    39  H    4.933281   6.159266   6.679658   4.527390   2.179963
    40  H    4.311209   5.726274   6.747308   5.423357   4.064189
    41  H    3.585637   7.285244   7.675829   5.709103   4.082815
    42  H    2.314322   7.918889   8.877990   7.416151   5.788509
    43  H    4.194081   6.823990   7.967585   6.455213   4.483099
    44  H    4.547146   8.555691   9.550783   7.724563   5.334433
    45  H    5.678344   7.158509   8.124533   6.354681   4.041657
                   36         37         38         39         40
    36  H    0.000000
    37  H    2.950641   0.000000
    38  H    2.608823   2.941926   0.000000
    39  H    4.285349   4.440775   5.944423   0.000000
    40  H    5.247851   6.341596   6.606057   2.953877   0.000000
    41  H    6.552313   6.395480   7.791574   2.499479   2.995345
    42  H    7.171887   8.166373   8.761006   4.029290   2.214310
    43  H    4.932996   6.558743   6.999794   2.992591   2.172203
    44  H    5.643288   7.084825   8.087746   3.655134   4.337668
    45  H    3.937602   5.542873   6.431106   2.959614   4.063150
                   41         42         43         44         45
    41  H    0.000000
    42  H    3.046090   0.000000
    43  H    3.972707   2.758884   0.000000
    44  H    4.960081   4.278258   2.335392   0.000000
    45  H    4.989041   4.856902   2.335114   1.728359   0.000000
 Stoichiometry    C12H22O11
 Framework group  C1[X(C12H22O11)]
 Deg. of freedom   129
 Full point group                 C1      NOp   1
 Largest Abelian subgroup         C1      NOp   1
 Largest concise Abelian subgroup C1      NOp   1
                         Standard orientation:                         
 ---------------------------------------------------------------------
 Center     Atomic      Atomic             Coordinates (Angstroms)
 Number     Number       Type             X           Y           Z
 ---------------------------------------------------------------------
      1          8           0        5.116504   -0.455682   -0.794005
      2          6           0        3.947017   -0.108327   -0.039050
      3          6           0        3.308275    1.209656   -0.442530
      4          8           0        4.160020    2.364221   -0.413777
      5          1           0        4.996280    1.990584   -0.814530
      6          6           0        2.009084    1.559044    0.266582
      7          8           0        1.450896    2.832366   -0.088209
      8          1           0        1.968939    3.600948    0.286551
      9          6           0        3.285001   -2.533375    0.569751
     10          8           0        2.283142   -3.507305    0.246096
     11          1           0        2.751891   -4.368595    0.441960
     12          6           0        2.895281   -1.206531   -0.060531
     13          8           0        1.681223   -0.734957    0.542069
     14          6           0        1.023195    0.428098    0.019477
     15          8           0       -0.172836    0.608878    0.791191
     16          6           0       -1.427069    0.377504    0.131466
     17          6           0       -1.902344   -1.064445    0.199913
     18          8           0       -0.934877   -2.098925   -0.033870
     19          1           0       -0.102275   -2.052870    0.517585
     20          6           0       -3.114768   -1.352500   -0.670336
     21          8           0       -3.348836   -2.762448   -0.542264
     22          1           0       -2.424996   -3.054226   -0.790171
     23          6           0       -2.429426    2.588884    0.617726
     24          8           0       -2.337274    3.391129   -0.568144
     25          1           0       -1.706233    4.156167   -0.433019
     26          6           0       -2.617925    1.087054    0.753927
     27          8           0       -3.885996    0.727212    0.187166
     28          6           0       -4.261258   -0.649406    0.038014
     29          8           0       -5.473508   -0.642583   -0.730606
     30          1           0        5.901037   -0.186198   -0.310802
     31          1           0       -6.158021   -0.177051   -0.244477
     32          1           0        3.348089   -2.421947    1.632062
     33          1           0        4.231765   -2.849956    0.184634
     34          1           0        2.677362   -1.405157   -1.089102
     35          1           0        0.805872    0.318081   -1.022428
     36          1           0        2.214210    1.582851    1.316466
     37          1           0        3.042154    1.082386   -1.471064
     38          1           0        4.260188   -0.000061    0.978350
     39          1           0       -1.341651    0.670129   -0.894192
     40          1           0       -2.231133   -1.204121    1.208520
     41          1           0       -2.988577   -1.035834   -1.684584
     42          1           0       -4.432467   -1.092137    0.996960
     43          1           0       -2.639885    0.846695    1.796349
     44          1           0       -3.242639    3.013770    1.168233
     45          1           0       -1.527932    2.797359    1.155078
 ---------------------------------------------------------------------
 Rotational constants (GHZ):      0.3858165      0.1501852      0.1127542
 Standard basis: 6-31+G(d,p) (6D, 7F)
 There are   547 symmetry adapted basis functions of A   symmetry.
 Integral buffers will be    131072 words long.
 Raffenetti 2 integral format.
 Two-electron integral symmetry is turned on.
   547 basis functions,   890 primitive gaussians,   547 cartesian basis functions
    91 alpha electrons       91 beta electrons
       nuclear repulsion energy      2276.6741981290 Hartrees.
 NAtoms=   45 NActive=   45 NUniq=   45 SFac= 1.00D+00 NAtFMM=   50 NAOKFM=F Big=F
 One-electron integrals computed using PRISM.
 NBasis=   547 RedAO= T  NBF=   547
 NBsUse=   547 1.00D-06 NBFU=   547
 Harris functional with IExCor=  402 diagonalized for initial guess.
 ExpMin= 4.38D-02 ExpMax= 5.48D+03 ExpMxC= 8.25D+02 IAcc=2 IRadAn=         0 AccDes= 0.00D+00
 HarFok:  IExCor=  402 AccDes= 0.00D+00 IRadAn=         0 IDoV= 1
 ScaDFX=  1.000000  1.000000  1.000000  1.000000
 FoFCou: FMM=F IPFlag=           0 FMFlag=      100000 FMFlg1=           0
         NFxFlg=           0 DoJE=T BraDBF=F KetDBF=T FulRan=T
         Omega=  0.000000  0.000000  1.000000  0.000000  0.000000 ICntrl=     500 IOpCl=  0
         NMat0=    1 NMatS0=    1 NMatT0=    0 NMatD0=    1 NMtDS0=    0 NMtDT0=    0
         I1Cent=           4 NGrid=           0.
 Petite list used in FoFCou.
 Initial guess orbital symmetries:
       Occupied  (A) (A) (A) (A) (A) (A) (A) (A) (A) (A) (A) (A)
                 (A) (A) (A) (A) (A) (A) (A) (A) (A) (A) (A) (A)
                 (A) (A) (A) (A) (A) (A) (A) (A) (A) (A) (A) (A)
                 (A) (A) (A) (A) (A) (A) (A) (A) (A) (A) (A) (A)
                 (A) (A) (A) (A) (A) (A) (A) (A) (A) (A) (A) (A)
                 (A) (A) (A) (A) (A) (A) (A) (A) (A) (A) (A) (A)
                 (A) (A) (A) (A) (A) (A) (A) (A) (A) (A) (A) (A)
                 (A) (A) (A) (A) (A) (A) (A)
       Virtual   (A) (A) (A) (A) (A) (A) (A) (A) (A) (A) (A) (A)
                 (A) (A) (A) (A) (A) (A) (A) (A) (A) (A) (A) (A)
                 (A) (A) (A) (A) (A) (A) (A) (A) (A) (A) (A) (A)
                 (A) (A) (A) (A) (A) (A) (A) (A) (A) (A) (A) (A)
                 (A) (A) (A) (A) (A) (A) (A) (A) (A) (A) (A) (A)
                 (A) (A) (A) (A) (A) (A) (A) (A) (A) (A) (A) (A)
                 (A) (A) (A) (A) (A) (A) (A) (A) (A) (A) (A) (A)
                 (A) (A) (A) (A) (A) (A) (A) (A) (A) (A) (A) (A)
                 (A) (A) (A) (A) (A) (A) (A) (A) (A) (A) (A) (A)
                 (A) (A) (A) (A) (A) (A) (A) (A) (A) (A) (A) (A)
                 (A) (A) (A) (A) (A) (A) (A) (A) (A) (A) (A) (A)
                 (A) (A) (A) (A) (A) (A) (A) (A) (A) (A) (A) (A)
                 (A) (A) (A) (A) (A) (A) (A) (A) (A) (A) (A) (A)
                 (A) (A) (A) (A) (A) (A) (A) (A) (A) (A) (A) (A)
                 (A) (A) (A) (A) (A) (A) (A) (A) (A) (A) (A) (A)
                 (A) (A) (A) (A) (A) (A) (A) (A) (A) (A) (A) (A)
                 (A) (A) (A) (A) (A) (A) (A) (A) (A) (A) (A) (A)
                 (A) (A) (A) (A) (A) (A) (A) (A) (A) (A) (A) (A)
                 (A) (A) (A) (A) (A) (A) (A) (A) (A) (A) (A) (A)
                 (A) (A) (A) (A) (A) (A) (A) (A) (A) (A) (A) (A)
                 (A) (A) (A) (A) (A) (A) (A) (A) (A) (A) (A) (A)
                 (A) (A) (A) (A) (A) (A) (A) (A) (A) (A) (A) (A)
                 (A) (A) (A) (A) (A) (A) (A) (A) (A) (A) (A) (A)
                 (A) (A) (A) (A) (A) (A) (A) (A) (A) (A) (A) (A)
                 (A) (A) (A) (A) (A) (A) (A) (A) (A) (A) (A) (A)
                 (A) (A) (A) (A) (A) (A) (A) (A) (A) (A) (A) (A)
                 (A) (A) (A) (A) (A) (A) (A) (A) (A) (A) (A) (A)
                 (A) (A) (A) (A) (A) (A) (A) (A) (A) (A) (A) (A)
                 (A) (A) (A) (A) (A) (A) (A) (A) (A) (A) (A) (A)
                 (A) (A) (A) (A) (A) (A) (A) (A) (A) (A) (A) (A)
                 (A) (A) (A) (A) (A) (A) (A) (A) (A) (A) (A) (A)
                 (A) (A) (A) (A) (A) (A) (A) (A) (A) (A) (A) (A)
                 (A) (A) (A) (A) (A) (A) (A) (A) (A) (A) (A) (A)
                 (A) (A) (A) (A) (A) (A) (A) (A) (A) (A) (A) (A)
                 (A) (A) (A) (A) (A) (A) (A) (A) (A) (A) (A) (A)
                 (A) (A) (A) (A) (A) (A) (A) (A) (A) (A) (A) (A)
                 (A) (A) (A) (A) (A) (A) (A) (A) (A) (A) (A) (A)
                 (A) (A) (A) (A) (A) (A) (A) (A) (A) (A) (A) (A)
 The electronic state of the initial guess is 1-A.
 Requested convergence on RMS density matrix=1.00D-08 within 128 cycles.
 Requested convergence on MAX density matrix=1.00D-06.
 Requested convergence on             energy=1.00D-06.
 No special actions if energy rises.
 SCF Done:  E(RB3LYP) =  -1297.92878959     A.U. after   13 cycles
             Convg  =    0.7231D-08             -V/T =  2.0088
 Range of M.O.s used for correlation:     1   547
 NBasis=   547 NAE=    91 NBE=    91 NFC=     0 NFV=     0
 NROrb=    547 NOA=    91 NOB=    91 NVA=   456 NVB=   456

 **** Warning!!: The largest alpha MO coefficient is  0.97984254D+02

          Differentiating once with respect to electric field.
                with respect to dipole field.
          Electric field/nuclear overlap derivatives assumed to be zero.
          There are     3 degrees of freedom in the 1st order CPHF.  IDoFFX=0.
      3 vectors produced by pass  0 Test12= 1.38D-12 3.33D-08 XBig12= 1.19D+02 1.33D+00.
 AX will form     3 AO Fock derivatives at one time.
      3 vectors produced by pass  1 Test12= 1.38D-12 3.33D-08 XBig12= 2.07D+01 3.50D-01.
      3 vectors produced by pass  2 Test12= 1.38D-12 3.33D-08 XBig12= 8.12D+00 2.05D-01.
      3 vectors produced by pass  3 Test12= 1.38D-12 3.33D-08 XBig12= 8.30D-01 7.18D-02.
      3 vectors produced by pass  4 Test12= 1.38D-12 3.33D-08 XBig12= 2.27D-01 5.07D-02.
      3 vectors produced by pass  5 Test12= 1.38D-12 3.33D-08 XBig12= 4.00D-02 1.43D-02.
      3 vectors produced by pass  6 Test12= 1.38D-12 3.33D-08 XBig12= 1.58D-02 1.27D-02.
      3 vectors produced by pass  7 Test12= 1.38D-12 3.33D-08 XBig12= 2.16D-03 5.57D-03.
      3 vectors produced by pass  8 Test12= 1.38D-12 3.33D-08 XBig12= 5.89D-04 2.14D-03.
      3 vectors produced by pass  9 Test12= 1.38D-12 3.33D-08 XBig12= 8.59D-05 1.43D-03.
      3 vectors produced by pass 10 Test12= 1.38D-12 3.33D-08 XBig12= 3.20D-05 5.73D-04.
      3 vectors produced by pass 11 Test12= 1.38D-12 3.33D-08 XBig12= 4.71D-06 3.78D-04.
      3 vectors produced by pass 12 Test12= 1.38D-12 3.33D-08 XBig12= 1.16D-06 1.34D-04.
      3 vectors produced by pass 13 Test12= 1.38D-12 3.33D-08 XBig12= 1.55D-07 5.41D-05.
      3 vectors produced by pass 14 Test12= 1.38D-12 3.33D-08 XBig12= 2.64D-08 1.68D-05.
      3 vectors produced by pass 15 Test12= 1.38D-12 3.33D-08 XBig12= 8.60D-09 7.87D-06.
      3 vectors produced by pass 16 Test12= 1.38D-12 3.33D-08 XBig12= 1.43D-09 3.25D-06.
      3 vectors produced by pass 17 Test12= 1.38D-12 3.33D-08 XBig12= 1.89D-10 1.03D-06.
      3 vectors produced by pass 18 Test12= 1.38D-12 3.33D-08 XBig12= 3.53D-11 3.51D-07.
      3 vectors produced by pass 19 Test12= 1.38D-12 3.33D-08 XBig12= 2.85D-11 3.03D-07.
      2 vectors produced by pass 20 Test12= 1.38D-12 3.33D-08 XBig12= 8.28D-12 2.07D-07.
      1 vectors produced by pass 21 Test12= 1.38D-12 3.33D-08 XBig12= 3.05D-12 1.16D-07.
 Inverted reduced A of dimension    63 with in-core refinement.
 End of Minotr Frequency-dependent properties file   721 does not exist.
 End of Minotr Frequency-dependent properties file   722 does not exist.
 Symmetrizing basis deriv contribution to polar:
 IMax=3 JMax=2 DiffMx= 0.00D+00
 G2DrvN: will do    23 centers at a time, making    2 passes doing MaxLOS=2.
 Calling FoFCou, ICntrl=  3107 FMM=F I1Cent=   0 AccDes= 0.00D+00.
 Calling FoFCou, ICntrl=  3107 FMM=F I1Cent=   0 AccDes= 0.00D+00.
 FoFDir/FoFCou used for L=0 through L=2.
 End of G2Drv Frequency-dependent properties file   721 does not exist.
 End of G2Drv Frequency-dependent properties file   722 does not exist.
          IDoAtm=111111111111111111111111111111111111111111111
          Differentiating once with respect to electric field.
                with respect to dipole field.
          Differentiating once with respect to nuclear coordinates.
          There are   138 degrees of freedom in the 1st order CPHF.  IDoFFX=5.
 Will reuse    3 saved solutions.
    135 vectors produced by pass  0 Test12= 4.15D-14 1.00D-09 XBig12= 2.82D-01 8.95D-02.
 AX will form    68 AO Fock derivatives at one time.
    135 vectors produced by pass  1 Test12= 4.15D-14 1.00D-09 XBig12= 3.01D-02 1.49D-02.
    132 vectors produced by pass  2 Test12= 4.15D-14 1.00D-09 XBig12= 1.64D-04 1.36D-03.
    132 vectors produced by pass  3 Test12= 4.15D-14 1.00D-09 XBig12= 5.28D-07 7.07D-05.
    132 vectors produced by pass  4 Test12= 4.15D-14 1.00D-09 XBig12= 1.27D-09 2.45D-06.
    130 vectors produced by pass  5 Test12= 4.15D-14 1.00D-09 XBig12= 4.02D-12 1.36D-07.
     82 vectors produced by pass  6 Test12= 4.15D-14 1.00D-09 XBig12= 1.41D-13 2.05D-08.
 Inverted reduced A of dimension   878 with in-core refinement.
 Isotropic polarizability for W=    0.000000      187.22 Bohr**3.
 End of Minotr Frequency-dependent properties file   721 does not exist.
 End of Minotr Frequency-dependent properties file   722 does not exist.

 **********************************************************************

            Population analysis using the SCF density.

 **********************************************************************

 Orbital symmetries:
       Occupied  (A) (A) (A) (A) (A) (A) (A) (A) (A) (A) (A) (A)
                 (A) (A) (A) (A) (A) (A) (A) (A) (A) (A) (A) (A)
                 (A) (A) (A) (A) (A) (A) (A) (A) (A) (A) (A) (A)
                 (A) (A) (A) (A) (A) (A) (A) (A) (A) (A) (A) (A)
                 (A) (A) (A) (A) (A) (A) (A) (A) (A) (A) (A) (A)
                 (A) (A) (A) (A) (A) (A) (A) (A) (A) (A) (A) (A)
                 (A) (A) (A) (A) (A) (A) (A) (A) (A) (A) (A) (A)
                 (A) (A) (A) (A) (A) (A) (A)
       Virtual   (A) (A) (A) (A) (A) (A) (A) (A) (A) (A) (A) (A)
                 (A) (A) (A) (A) (A) (A) (A) (A) (A) (A) (A) (A)
                 (A) (A) (A) (A) (A) (A) (A) (A) (A) (A) (A) (A)
                 (A) (A) (A) (A) (A) (A) (A) (A) (A) (A) (A) (A)
                 (A) (A) (A) (A) (A) (A) (A) (A) (A) (A) (A) (A)
                 (A) (A) (A) (A) (A) (A) (A) (A) (A) (A) (A) (A)
                 (A) (A) (A) (A) (A) (A) (A) (A) (A) (A) (A) (A)
                 (A) (A) (A) (A) (A) (A) (A) (A) (A) (A) (A) (A)
                 (A) (A) (A) (A) (A) (A) (A) (A) (A) (A) (A) (A)
                 (A) (A) (A) (A) (A) (A) (A) (A) (A) (A) (A) (A)
                 (A) (A) (A) (A) (A) (A) (A) (A) (A) (A) (A) (A)
                 (A) (A) (A) (A) (A) (A) (A) (A) (A) (A) (A) (A)
                 (A) (A) (A) (A) (A) (A) (A) (A) (A) (A) (A) (A)
                 (A) (A) (A) (A) (A) (A) (A) (A) (A) (A) (A) (A)
                 (A) (A) (A) (A) (A) (A) (A) (A) (A) (A) (A) (A)
                 (A) (A) (A) (A) (A) (A) (A) (A) (A) (A) (A) (A)
                 (A) (A) (A) (A) (A) (A) (A) (A) (A) (A) (A) (A)
                 (A) (A) (A) (A) (A) (A) (A) (A) (A) (A) (A) (A)
                 (A) (A) (A) (A) (A) (A) (A) (A) (A) (A) (A) (A)
                 (A) (A) (A) (A) (A) (A) (A) (A) (A) (A) (A) (A)
                 (A) (A) (A) (A) (A) (A) (A) (A) (A) (A) (A) (A)
                 (A) (A) (A) (A) (A) (A) (A) (A) (A) (A) (A) (A)
                 (A) (A) (A) (A) (A) (A) (A) (A) (A) (A) (A) (A)
                 (A) (A) (A) (A) (A) (A) (A) (A) (A) (A) (A) (A)
                 (A) (A) (A) (A) (A) (A) (A) (A) (A) (A) (A) (A)
                 (A) (A) (A) (A) (A) (A) (A) (A) (A) (A) (A) (A)
                 (A) (A) (A) (A) (A) (A) (A) (A) (A) (A) (A) (A)
                 (A) (A) (A) (A) (A) (A) (A) (A) (A) (A) (A) (A)
                 (A) (A) (A) (A) (A) (A) (A) (A) (A) (A) (A) (A)
                 (A) (A) (A) (A) (A) (A) (A) (A) (A) (A) (A) (A)
                 (A) (A) (A) (A) (A) (A) (A) (A) (A) (A) (A) (A)
                 (A) (A) (A) (A) (A) (A) (A) (A) (A) (A) (A) (A)
                 (A) (A) (A) (A) (A) (A) (A) (A) (A) (A) (A) (A)
                 (A) (A) (A) (A) (A) (A) (A) (A) (A) (A) (A) (A)
                 (A) (A) (A) (A) (A) (A) (A) (A) (A) (A) (A) (A)
                 (A) (A) (A) (A) (A) (A) (A) (A) (A) (A) (A) (A)
                 (A) (A) (A) (A) (A) (A) (A) (A) (A) (A) (A) (A)
                 (A) (A) (A) (A) (A) (A) (A) (A) (A) (A) (A) (A)
 The electronic state is 1-A.
 Alpha  occ. eigenvalues --  -19.20673 -19.19141 -19.19086 -19.19068 -19.18319
 Alpha  occ. eigenvalues --  -19.17806 -19.16637 -19.16089 -19.15877 -19.15477
 Alpha  occ. eigenvalues --  -19.14461 -10.31963 -10.29202 -10.27783 -10.27216
 Alpha  occ. eigenvalues --  -10.26350 -10.26275 -10.25838 -10.25641 -10.25061
 Alpha  occ. eigenvalues --  -10.23974 -10.23840 -10.22818  -1.09723  -1.07743
 Alpha  occ. eigenvalues --   -1.07018  -1.05344  -1.04771  -1.03686  -1.03115
 Alpha  occ. eigenvalues --   -1.02723  -1.01211  -1.00353  -0.99577  -0.82767
 Alpha  occ. eigenvalues --   -0.81917  -0.79444  -0.78118  -0.72256  -0.69805
 Alpha  occ. eigenvalues --   -0.67636  -0.64156  -0.63859  -0.62268  -0.61242
 Alpha  occ. eigenvalues --   -0.60231  -0.57424  -0.55990  -0.55236  -0.54549
 Alpha  occ. eigenvalues --   -0.53813  -0.53466  -0.53216  -0.52549  -0.51104
 Alpha  occ. eigenvalues --   -0.50337  -0.49287  -0.48972  -0.46961  -0.46622
 Alpha  occ. eigenvalues --   -0.46315  -0.45152  -0.44470  -0.44177  -0.43681
 Alpha  occ. eigenvalues --   -0.43130  -0.42585  -0.41174  -0.40339  -0.39610
 Alpha  occ. eigenvalues --   -0.38272  -0.38242  -0.37033  -0.36632  -0.36346
 Alpha  occ. eigenvalues --   -0.35406  -0.35230  -0.34116  -0.33581  -0.33253
 Alpha  occ. eigenvalues --   -0.32317  -0.31316  -0.30453  -0.30393  -0.29950
 Alpha  occ. eigenvalues --   -0.29666  -0.28829  -0.28124  -0.27259  -0.26658
 Alpha  occ. eigenvalues --   -0.26213
 Alpha virt. eigenvalues --   -0.03851  -0.02019  -0.01376  -0.00086   0.00630
 Alpha virt. eigenvalues --    0.01124   0.01577   0.02162   0.02990   0.03193
 Alpha virt. eigenvalues --    0.03728   0.04153   0.04527   0.05187   0.05635
 Alpha virt. eigenvalues --    0.05830   0.06608   0.07040   0.07470   0.07674
 Alpha virt. eigenvalues --    0.08425   0.08559   0.09257   0.09925   0.10463
 Alpha virt. eigenvalues --    0.10754   0.10924   0.11094   0.11602   0.11857
 Alpha virt. eigenvalues --    0.11892   0.12548   0.12651   0.13135   0.13389
 Alpha virt. eigenvalues --    0.13966   0.14227   0.14735   0.15011   0.15386
 Alpha virt. eigenvalues --    0.15617   0.15788   0.16018   0.16334   0.16555
 Alpha virt. eigenvalues --    0.17108   0.17636   0.18130   0.18160   0.18273
 Alpha virt. eigenvalues --    0.18857   0.18997   0.19246   0.19902   0.20106
 Alpha virt. eigenvalues --    0.20316   0.20853   0.20967   0.21357   0.21530
 Alpha virt. eigenvalues --    0.21917   0.22045   0.22514   0.22933   0.23158
 Alpha virt. eigenvalues --    0.23309   0.23731   0.24166   0.24606   0.24702
 Alpha virt. eigenvalues --    0.25149   0.25329   0.25468   0.25652   0.25966
 Alpha virt. eigenvalues --    0.26068   0.26188   0.26684   0.27060   0.27295
 Alpha virt. eigenvalues --    0.27501   0.28026   0.28091   0.28419   0.28623
 Alpha virt. eigenvalues --    0.29077   0.29473   0.29975   0.30152   0.30247
 Alpha virt. eigenvalues --    0.30671   0.30790   0.31003   0.31757   0.32012
 Alpha virt. eigenvalues --    0.32428   0.32840   0.33014   0.33793   0.33941
 Alpha virt. eigenvalues --    0.34490   0.34644   0.34756   0.35129   0.35613
 Alpha virt. eigenvalues --    0.36631   0.36661   0.36999   0.37237   0.37561
 Alpha virt. eigenvalues --    0.38200   0.38361   0.38800   0.38919   0.39283
 Alpha virt. eigenvalues --    0.39629   0.40384   0.40714   0.40985   0.41935
 Alpha virt. eigenvalues --    0.42206   0.42875   0.43279   0.43595   0.44151
 Alpha virt. eigenvalues --    0.44708   0.44838   0.45387   0.46188   0.46543
 Alpha virt. eigenvalues --    0.47056   0.48967   0.49093   0.49788   0.50725
 Alpha virt. eigenvalues --    0.52974   0.54212   0.55218   0.61251   0.62761
 Alpha virt. eigenvalues --    0.65298   0.66579   0.67974   0.68749   0.69367
 Alpha virt. eigenvalues --    0.70998   0.71954   0.73024   0.73789   0.74060
 Alpha virt. eigenvalues --    0.74771   0.76657   0.77219   0.77916   0.78792
 Alpha virt. eigenvalues --    0.80166   0.80549   0.81170   0.82057   0.82889
 Alpha virt. eigenvalues --    0.84614   0.86086   0.86856   0.88328   0.89270
 Alpha virt. eigenvalues --    0.90284   0.92545   0.93447   0.93852   0.95572
 Alpha virt. eigenvalues --    0.96607   0.98177   0.98744   1.00049   1.00953
 Alpha virt. eigenvalues --    1.01739   1.01955   1.02344   1.02918   1.04132
 Alpha virt. eigenvalues --    1.04155   1.04811   1.05127   1.05860   1.06458
 Alpha virt. eigenvalues --    1.07264   1.07514   1.08062   1.08939   1.09759
 Alpha virt. eigenvalues --    1.10535   1.12174   1.13090   1.13640   1.14975
 Alpha virt. eigenvalues --    1.16094   1.16873   1.17502   1.18389   1.20211
 Alpha virt. eigenvalues --    1.21240   1.22363   1.23207   1.24047   1.24995
 Alpha virt. eigenvalues --    1.25910   1.26722   1.27142   1.27514   1.28336
 Alpha virt. eigenvalues --    1.28387   1.29193   1.29682   1.30718   1.31018
 Alpha virt. eigenvalues --    1.31550   1.31873   1.32945   1.33054   1.33959
 Alpha virt. eigenvalues --    1.34608   1.35299   1.36162   1.36836   1.38058
 Alpha virt. eigenvalues --    1.39185   1.39736   1.40776   1.41312   1.42478
 Alpha virt. eigenvalues --    1.43178   1.44041   1.44188   1.45045   1.48474
 Alpha virt. eigenvalues --    1.48922   1.49769   1.51139   1.52259   1.53416
 Alpha virt. eigenvalues --    1.53567   1.55064   1.55338   1.56822   1.57423
 Alpha virt. eigenvalues --    1.57807   1.57915   1.59312   1.60410   1.61372
 Alpha virt. eigenvalues --    1.61689   1.62054   1.63131   1.64109   1.64986
 Alpha virt. eigenvalues --    1.65812   1.66539   1.66872   1.68216   1.68568
 Alpha virt. eigenvalues --    1.69699   1.71047   1.72041   1.72693   1.73196
 Alpha virt. eigenvalues --    1.74724   1.76029   1.76447   1.76908   1.78368
 Alpha virt. eigenvalues --    1.79097   1.79255   1.80431   1.81398   1.81434
 Alpha virt. eigenvalues --    1.82451   1.82826   1.83556   1.84395   1.85024
 Alpha virt. eigenvalues --    1.86723   1.87365   1.89317   1.89494   1.89990
 Alpha virt. eigenvalues --    1.91709   1.92338   1.92589   1.92791   1.94167
 Alpha virt. eigenvalues --    1.95005   1.96288   1.97409   1.97697   1.98158
 Alpha virt. eigenvalues --    1.99320   1.99651   2.00615   2.01620   2.03269
 Alpha virt. eigenvalues --    2.04066   2.04936   2.05301   2.06116   2.07761
 Alpha virt. eigenvalues --    2.08359   2.09080   2.09505   2.09806   2.11164
 Alpha virt. eigenvalues --    2.11356   2.12833   2.13786   2.14558   2.15362
 Alpha virt. eigenvalues --    2.15701   2.16234   2.16974   2.19807   2.21516
 Alpha virt. eigenvalues --    2.22741   2.23603   2.25428   2.26057   2.27742
 Alpha virt. eigenvalues --    2.29367   2.30832   2.31974   2.32493   2.33052
 Alpha virt. eigenvalues --    2.35747   2.36668   2.37515   2.37597   2.38830
 Alpha virt. eigenvalues --    2.39831   2.41121   2.41888   2.42766   2.43315
 Alpha virt. eigenvalues --    2.44003   2.45411   2.45811   2.47826   2.48367
 Alpha virt. eigenvalues --    2.49846   2.50300   2.52810   2.53485   2.53601
 Alpha virt. eigenvalues --    2.54062   2.55515   2.56845   2.57920   2.59789
 Alpha virt. eigenvalues --    2.60758   2.60984   2.62092   2.62822   2.64213
 Alpha virt. eigenvalues --    2.65044   2.65442   2.66542   2.67649   2.69078
 Alpha virt. eigenvalues --    2.69996   2.70313   2.72154   2.72562   2.73544
 Alpha virt. eigenvalues --    2.74185   2.75392   2.77139   2.78002   2.79454
 Alpha virt. eigenvalues --    2.80436   2.82276   2.83351   2.83895   2.84650
 Alpha virt. eigenvalues --    2.85442   2.86184   2.88157   2.88449   2.89593
 Alpha virt. eigenvalues --    2.89971   2.91419   2.91664   2.93067   2.94922
 Alpha virt. eigenvalues --    2.96256   2.96908   2.97107   2.97808   2.99029
 Alpha virt. eigenvalues --    3.02294   3.03075   3.04367   3.05165   3.05538
 Alpha virt. eigenvalues --    3.07111   3.08879   3.10246   3.12446   3.13802
 Alpha virt. eigenvalues --    3.14982   3.18076   3.20067   3.24394   3.27406
 Alpha virt. eigenvalues --    3.29441   3.35262   3.37730   3.40822   3.41773
 Alpha virt. eigenvalues --    3.43855   3.45252   3.46533   3.46888   3.47158
 Alpha virt. eigenvalues --    3.48286   3.50150   3.50954   3.51744   3.52301
 Alpha virt. eigenvalues --    3.55027   3.55472   3.59130   3.59500   3.60573
 Alpha virt. eigenvalues --    3.63527   3.65246   3.66214   4.25596   4.31651
 Alpha virt. eigenvalues --    4.34542   4.37292   4.37705   4.39807   4.44636
 Alpha virt. eigenvalues --    4.47919   4.48208   4.49391   4.52173   4.52646
 Alpha virt. eigenvalues --    4.59014   4.60057   4.61780   4.64948   4.70415
 Alpha virt. eigenvalues --    4.78241   4.79229   4.82695   4.86163   4.88999
 Alpha virt. eigenvalues --    4.90361
          Condensed to atoms (all electrons):
              1          2          3          4          5          6
     1  O    8.253406   0.423099  -0.125001  -0.012651   0.027988   0.001973
     2  C    0.423099  10.613854  -2.621560   0.054648  -0.050643  -2.587924
     3  C   -0.125001  -2.621560  10.074581   0.117064   0.002460   0.816973
     4  O   -0.012651   0.054648   0.117064   8.281173   0.201279  -0.112239
     5  H    0.027988  -0.050643   0.002460   0.201279   0.432674   0.009762
     6  C    0.001973  -2.587924   0.816973  -0.112239   0.009762  11.373198
     7  O   -0.000722   0.014037  -0.064641  -0.000734   0.000985   0.295489
     8  H   -0.000028   0.019034  -0.099662   0.011727  -0.000151   0.047504
     9  C   -0.001190   0.239396  -0.498806   0.011416  -0.005431   0.221529
    10  O   -0.000168   0.071998  -0.016187   0.000116  -0.000002  -0.011846
    11  H    0.000036  -0.012728   0.002838   0.000000   0.000000   0.001301
    12  C   -0.242574  -3.346520   0.785299  -0.007939   0.021166   1.027844
    13  O    0.007297   0.074944   0.028929  -0.002536  -0.000577  -0.072302
    14  C    0.011165   2.237065  -2.046237   0.023110   0.021993  -3.686670
    15  O    0.000259   0.001285  -0.030743   0.000114   0.000105  -0.003155
    16  C    0.002564   0.356987  -0.306816  -0.002921   0.001466  -0.348609
    17  C    0.000071  -0.018995  -0.064251   0.000810   0.000075  -0.516476
    18  O    0.000024   0.000975  -0.009582   0.000035   0.000000   0.021713
    19  H   -0.000009   0.003973   0.000941  -0.000001   0.000000  -0.005304
    20  C    0.000099   0.018509  -0.008167  -0.000048   0.000004   0.001660
    21  O    0.000000   0.000254  -0.000053   0.000000   0.000000   0.001003
    22  H    0.000000  -0.000087  -0.000014   0.000000   0.000000   0.000544
    23  C    0.000010   0.020105  -0.044870   0.001180  -0.000028  -0.046485
    24  O    0.000000  -0.000851  -0.004691   0.000055   0.000000   0.013399
    25  H    0.000000  -0.000111  -0.000278   0.000002   0.000000  -0.003362
    26  C    0.000091   0.022422   0.016764  -0.001586   0.000056  -0.131370
    27  O    0.000000   0.000497   0.000093   0.000000   0.000000  -0.006005
    28  C   -0.000002  -0.000419   0.001733   0.000019   0.000000  -0.014235
    29  O    0.000000  -0.000008   0.000011   0.000000   0.000000   0.000034
    30  H    0.235136   0.038036  -0.048594   0.001410  -0.001105   0.005126
    31  H    0.000000   0.000000   0.000000   0.000000   0.000000   0.000015
    32  H   -0.000289   0.010532  -0.018954   0.000053  -0.000001   0.012868
    33  H    0.005326   0.067658  -0.003488  -0.000052  -0.000001  -0.007815
    34  H    0.004706   0.043553  -0.093149   0.000101  -0.000016  -0.005121
    35  H    0.000013   0.020090  -0.014360  -0.000411  -0.000001  -0.186782
    36  H   -0.000590   0.046699  -0.089807   0.004159  -0.000144   0.269007
    37  H   -0.003484   0.077197   0.253052  -0.047914  -0.005738  -0.252510
    38  H   -0.051138   0.443129  -0.158787   0.003039  -0.000510  -0.002310
    39  H   -0.000001   0.001060   0.002080   0.000020   0.000000  -0.027285
    40  H    0.000000  -0.000047   0.000071   0.000000   0.000000   0.005275
    41  H    0.000000  -0.000007   0.000112   0.000000   0.000000   0.002138
    42  H    0.000000  -0.000008   0.000013   0.000000   0.000000   0.000090
    43  H    0.000000  -0.000009   0.000426   0.000000   0.000000  -0.003300
    44  H    0.000000  -0.000004  -0.000496   0.000000   0.000000   0.000469
    45  H    0.000000   0.000219   0.002378  -0.000012   0.000000  -0.010536
              7          8          9         10         11         12
     1  O   -0.000722  -0.000028  -0.001190  -0.000168   0.000036  -0.242574
     2  C    0.014037   0.019034   0.239396   0.071998  -0.012728  -3.346520
     3  C   -0.064641  -0.099662  -0.498806  -0.016187   0.002838   0.785299
     4  O   -0.000734   0.011727   0.011416   0.000116   0.000000  -0.007939
     5  H    0.000985  -0.000151  -0.005431  -0.000002   0.000000   0.021166
     6  C    0.295489   0.047504   0.221529  -0.011846   0.001301   1.027844
     7  O    8.234247   0.206587   0.000606  -0.000010   0.000000   0.028935
     8  H    0.206587   0.407695   0.000344   0.000001   0.000000  -0.008672
     9  C    0.000606   0.000344   7.545315   0.034713   0.022906  -2.143655
    10  O   -0.000010   0.000001   0.034713   8.342044   0.184315  -0.016517
    11  H    0.000000   0.000000   0.022906   0.184315   0.447219   0.010342
    12  C    0.028935  -0.008672  -2.143655  -0.016517   0.010342  12.180999
    13  O    0.013229  -0.001328   0.007724   0.009161   0.000209  -0.177150
    14  C   -0.084949   0.045550  -0.183906  -0.002344  -0.000869  -1.520687
    15  O   -0.006981   0.000032  -0.015612  -0.001837   0.000041  -0.000896
    16  C   -0.103136   0.009921  -0.200617   0.027861  -0.001683  -0.173589
    17  C    0.007068  -0.001123   0.041754  -0.012900   0.000540  -0.251723
    18  O    0.000332   0.000001   0.029046   0.000654   0.000158  -0.047888
    19  H   -0.000048   0.000000  -0.008302   0.005352  -0.000131   0.003571
    20  C    0.001854  -0.000089  -0.009973   0.000948  -0.000223  -0.037152
    21  O   -0.000002   0.000000  -0.000255  -0.000001  -0.000003   0.000164
    22  H   -0.000001   0.000000   0.000210  -0.000040   0.000000  -0.000249
    23  C   -0.019117   0.000530   0.003087   0.000051  -0.000001  -0.009107
    24  O    0.005122   0.000008   0.000123   0.000000   0.000000   0.002108
    25  H    0.000718  -0.000001   0.000011   0.000000   0.000000   0.000454
    26  C    0.013364   0.001585  -0.028755   0.000661  -0.000087  -0.169383
    27  O   -0.000020   0.000001  -0.000302   0.000001   0.000000  -0.000897
    28  C   -0.000028  -0.000008  -0.002886   0.000159   0.000004   0.011831
    29  O   -0.000003   0.000000   0.000016   0.000000   0.000000   0.000037
    30  H   -0.000054   0.000000   0.001345   0.000088  -0.000001   0.016518
    31  H    0.000000   0.000000   0.000000   0.000000   0.000000  -0.000001
    32  H    0.000001   0.000000   0.606525  -0.053276  -0.002520  -0.270900
    33  H   -0.000004   0.000000   0.379629  -0.045091  -0.010527  -0.078368
    34  H    0.000134   0.000000   0.069454   0.004197  -0.000042   0.176737
    35  H    0.008986  -0.000164   0.005290  -0.000434  -0.000002  -0.008972
    36  H   -0.048462  -0.007093   0.015623  -0.000055   0.000000   0.020561
    37  H    0.008388  -0.000208   0.023398   0.000056   0.000000   0.004105
    38  H    0.000064   0.000009   0.045614   0.000382  -0.000005  -0.107724
    39  H    0.000628   0.000003  -0.000216  -0.000003   0.000000   0.006413
    40  H    0.000046   0.000000  -0.000020   0.000058   0.000000   0.001736
    41  H    0.000013   0.000000  -0.000137   0.000004   0.000000   0.000433
    42  H    0.000000   0.000000   0.000000   0.000000   0.000000   0.000032
    43  H   -0.000010   0.000000   0.000049   0.000000   0.000000   0.001019
    44  H    0.000157   0.000000   0.000008   0.000000   0.000000   0.000047
    45  H    0.000814  -0.000053  -0.000053   0.000000   0.000000  -0.000805
             13         14         15         16         17         18
     1  O    0.007297   0.011165   0.000259   0.002564   0.000071   0.000024
     2  C    0.074944   2.237065   0.001285   0.356987  -0.018995   0.000975
     3  C    0.028929  -2.046237  -0.030743  -0.306816  -0.064251  -0.009582
     4  O   -0.002536   0.023110   0.000114  -0.002921   0.000810   0.000035
     5  H   -0.000577   0.021993   0.000105   0.001466   0.000075   0.000000
     6  C   -0.072302  -3.686670  -0.003155  -0.348609  -0.516476   0.021713
     7  O    0.013229  -0.084949  -0.006981  -0.103136   0.007068   0.000332
     8  H   -0.001328   0.045550   0.000032   0.009921  -0.001123   0.000001
     9  C    0.007724  -0.183906  -0.015612  -0.200617   0.041754   0.029046
    10  O    0.009161  -0.002344  -0.001837   0.027861  -0.012900   0.000654
    11  H    0.000209  -0.000869   0.000041  -0.001683   0.000540   0.000158
    12  C   -0.177150  -1.520687  -0.000896  -0.173589  -0.251723  -0.047888
    13  O    8.435094   0.170069  -0.002910   0.060768  -0.027892   0.001927
    14  C    0.170069  12.510587   0.265134   0.101437  -0.526034   0.022562
    15  O   -0.002910   0.265134   8.203723   0.164947  -0.072244   0.011864
    16  C    0.060768   0.101437   0.164947  20.118521  -6.445729  -0.277366
    17  C   -0.027892  -0.526034  -0.072244  -6.445729  12.165955   0.457728
    18  O    0.001927   0.022562   0.011864  -0.277366   0.457728   8.274868
    19  H    0.012473  -0.017133   0.011100  -0.057333   0.050212   0.223545
    20  C   -0.018411  -0.433902   0.024518  -2.270964   0.298901  -0.094210
    21  O    0.000147  -0.000572  -0.000366  -0.033100  -0.155588  -0.014603
    22  H   -0.000058   0.009103  -0.000058   0.048132  -0.104008   0.031034
    23  C   -0.003343   0.074531  -0.068016   1.340166  -0.878246   0.015312
    24  O    0.000253   0.011924   0.002027   0.117353  -0.051631  -0.000062
    25  H    0.000023   0.025089   0.001009  -0.000321  -0.000711  -0.000011
    26  C   -0.045529  -2.181525  -0.063872  -8.160319   2.973301  -0.000392
    27  O   -0.000151  -0.017470   0.004375  -0.223724  -0.036390   0.005066
    28  C    0.003717   0.103513   0.016852   1.179262  -0.645361  -0.020327
    29  O   -0.000001   0.004690   0.000112   0.029062  -0.003790   0.000290
    30  H   -0.000820  -0.000662   0.000006   0.000244  -0.000032   0.000000
    31  H    0.000000   0.000376   0.000002   0.006029   0.000349  -0.000007
    32  H    0.003104   0.010705  -0.000164  -0.003301   0.001892   0.000564
    33  H    0.004712   0.002485  -0.000031   0.001903  -0.000499  -0.000200
    34  H   -0.051006   0.078013  -0.001536   0.003698   0.008190   0.000725
    35  H   -0.052350   0.403263  -0.061028   0.035146   0.047357  -0.001012
    36  H    0.007224   0.018937  -0.006547  -0.003625   0.010140  -0.000039
    37  H    0.004252   0.132852  -0.000876   0.000014   0.003949   0.000092
    38  H    0.007217   0.046362  -0.000779  -0.003190   0.001420   0.000027
    39  H    0.001238   0.033285  -0.051037   0.428075  -0.158789  -0.001329
    40  H    0.001852   0.027723  -0.007709   0.080663   0.221103  -0.063165
    41  H    0.000264  -0.003887  -0.001499   0.129550  -0.161484   0.008220
    42  H    0.000005   0.003805  -0.000049   0.097044  -0.045265  -0.000671
    43  H    0.000012   0.057079   0.009776   0.144694  -0.111492  -0.001860
    44  H   -0.000004   0.001240  -0.001319   0.069071  -0.016747   0.000058
    45  H   -0.000497  -0.004411  -0.000321  -0.113709   0.009701   0.000020
             19         20         21         22         23         24
     1  O   -0.000009   0.000099   0.000000   0.000000   0.000010   0.000000
     2  C    0.003973   0.018509   0.000254  -0.000087   0.020105  -0.000851
     3  C    0.000941  -0.008167  -0.000053  -0.000014  -0.044870  -0.004691
     4  O   -0.000001  -0.000048   0.000000   0.000000   0.001180   0.000055
     5  H    0.000000   0.000004   0.000000   0.000000  -0.000028   0.000000
     6  C   -0.005304   0.001660   0.001003   0.000544  -0.046485   0.013399
     7  O   -0.000048   0.001854  -0.000002  -0.000001  -0.019117   0.005122
     8  H    0.000000  -0.000089   0.000000   0.000000   0.000530   0.000008
     9  C   -0.008302  -0.009973  -0.000255   0.000210   0.003087   0.000123
    10  O    0.005352   0.000948  -0.000001  -0.000040   0.000051   0.000000
    11  H   -0.000131  -0.000223  -0.000003   0.000000  -0.000001   0.000000
    12  C    0.003571  -0.037152   0.000164  -0.000249  -0.009107   0.002108
    13  O    0.012473  -0.018411   0.000147  -0.000058  -0.003343   0.000253
    14  C   -0.017133  -0.433902  -0.000572   0.009103   0.074531   0.011924
    15  O    0.011100   0.024518  -0.000366  -0.000058  -0.068016   0.002027
    16  C   -0.057333  -2.270964  -0.033100   0.048132   1.340166   0.117353
    17  C    0.050212   0.298901  -0.155588  -0.104008  -0.878246  -0.051631
    18  O    0.223545  -0.094210  -0.014603   0.031034   0.015312  -0.000062
    19  H    0.334322   0.014734   0.002348  -0.000918  -0.001404   0.000000
    20  C    0.014734   7.511594   0.404558   0.026988  -0.014734   0.010310
    21  O    0.002348   0.404558   8.180337   0.210377  -0.002490  -0.000070
    22  H   -0.000918   0.026988   0.210377   0.402772   0.001973  -0.000002
    23  C   -0.001404  -0.014734  -0.002490   0.001973   7.701851   0.452538
    24  O    0.000000   0.010310  -0.000070  -0.000002   0.452538   8.256751
    25  H    0.000000  -0.001531   0.000000   0.000000  -0.057198   0.227749
    26  C    0.011788   0.967059   0.048733  -0.016419  -3.255330  -0.428520
    27  O   -0.000052   0.014973   0.008005  -0.001060  -0.008920   0.013782
    28  C    0.002688  -0.190633  -0.163252   0.023680   0.002412   0.006995
    29  O    0.000017  -0.110185  -0.002931   0.000024  -0.003785  -0.000198
    30  H    0.000000   0.000000   0.000000   0.000000   0.000001   0.000000
    31  H    0.000000   0.030409  -0.000864   0.000016  -0.001742   0.000014
    32  H   -0.000008  -0.000075   0.000001   0.000000   0.000014   0.000000
    33  H    0.000029   0.000056   0.000000   0.000000  -0.000002   0.000000
    34  H    0.000206   0.000568   0.000005   0.000000   0.000011  -0.000001
    35  H    0.000103   0.009190   0.000014  -0.000004  -0.003508  -0.000136
    36  H    0.000006   0.000422   0.000000   0.000000   0.002764  -0.000020
    37  H   -0.000001   0.000078   0.000000   0.000000   0.000531  -0.000007
    38  H   -0.000001   0.000004   0.000000   0.000000   0.000055   0.000000
    39  H    0.000073   0.006686   0.000088  -0.000016   0.029430   0.009473
    40  H   -0.003312  -0.132706   0.008244  -0.000424   0.009870   0.000047
    41  H   -0.000019   0.256338  -0.033780  -0.004911   0.009027  -0.000121
    42  H    0.000020  -0.167843   0.008590  -0.000032   0.009355  -0.000022
    43  H    0.000070  -0.006026  -0.000135  -0.000010   0.034816   0.007959
    44  H    0.000000   0.004073  -0.000011   0.000000   0.590159  -0.080532
    45  H    0.000000   0.001633   0.000004   0.000000   0.447421  -0.046838
             25         26         27         28         29         30
     1  O    0.000000   0.000091   0.000000  -0.000002   0.000000   0.235136
     2  C   -0.000111   0.022422   0.000497  -0.000419  -0.000008   0.038036
     3  C   -0.000278   0.016764   0.000093   0.001733   0.000011  -0.048594
     4  O    0.000002  -0.001586   0.000000   0.000019   0.000000   0.001410
     5  H    0.000000   0.000056   0.000000   0.000000   0.000000  -0.001105
     6  C   -0.003362  -0.131370  -0.006005  -0.014235   0.000034   0.005126
     7  O    0.000718   0.013364  -0.000020  -0.000028  -0.000003  -0.000054
     8  H   -0.000001   0.001585   0.000001  -0.000008   0.000000   0.000000
     9  C    0.000011  -0.028755  -0.000302  -0.002886   0.000016   0.001345
    10  O    0.000000   0.000661   0.000001   0.000159   0.000000   0.000088
    11  H    0.000000  -0.000087   0.000000   0.000004   0.000000  -0.000001
    12  C    0.000454  -0.169383  -0.000897   0.011831   0.000037   0.016518
    13  O    0.000023  -0.045529  -0.000151   0.003717  -0.000001  -0.000820
    14  C    0.025089  -2.181525  -0.017470   0.103513   0.004690  -0.000662
    15  O    0.001009  -0.063872   0.004375   0.016852   0.000112   0.000006
    16  C   -0.000321  -8.160319  -0.223724   1.179262   0.029062   0.000244
    17  C   -0.000711   2.973301  -0.036390  -0.645361  -0.003790  -0.000032
    18  O   -0.000011  -0.000392   0.005066  -0.020327   0.000290   0.000000
    19  H    0.000000   0.011788  -0.000052   0.002688   0.000017   0.000000
    20  C   -0.001531   0.967059   0.014973  -0.190633  -0.110185   0.000000
    21  O    0.000000   0.048733   0.008005  -0.163252  -0.002931   0.000000
    22  H    0.000000  -0.016419  -0.001060   0.023680   0.000024   0.000000
    23  C   -0.057198  -3.255330  -0.008920   0.002412  -0.003785   0.000001
    24  O    0.227749  -0.428520   0.013782   0.006995  -0.000198   0.000000
    25  H    0.427079   0.040227  -0.000148   0.000723   0.000010   0.000000
    26  C    0.040227  17.253704   0.345929  -1.052825  -0.030731  -0.000001
    27  O   -0.000148   0.345929   8.452141  -0.049014  -0.053123   0.000000
    28  C    0.000723  -1.052825  -0.049014   5.597029   0.302017   0.000000
    29  O    0.000010  -0.030731  -0.053123   0.302017   8.195350   0.000000
    30  H    0.000000  -0.000001   0.000000   0.000000   0.000000   0.401091
    31  H    0.000000  -0.012522  -0.005882   0.002143   0.220583   0.000000
    32  H    0.000000   0.000062   0.000000  -0.000018   0.000000   0.000052
    33  H    0.000000   0.000057   0.000000   0.000002   0.000000  -0.000435
    34  H    0.000000   0.000911   0.000000  -0.000067   0.000000  -0.000083
    35  H    0.000000   0.027396   0.000233   0.000202  -0.000006   0.000001
    36  H    0.000001  -0.008730   0.000005   0.000022   0.000000   0.000011
    37  H    0.000000  -0.001809   0.000000  -0.000005   0.000000  -0.000031
    38  H    0.000000  -0.000360   0.000000  -0.000002   0.000000  -0.011885
    39  H   -0.000127  -0.073122   0.006983   0.024505  -0.000662   0.000000
    40  H    0.000000   0.015055  -0.002717   0.033086   0.001018   0.000000
    41  H   -0.000001   0.053482   0.006008  -0.032210   0.000985   0.000000
    42  H    0.000000  -0.025267  -0.063006   0.470394  -0.052291   0.000000
    43  H   -0.000116   0.104129  -0.049271   0.039096  -0.000867   0.000000
    44  H    0.002080  -0.257212  -0.012168  -0.005147  -0.000272   0.000000
    45  H   -0.014368   0.027493   0.009334  -0.000375   0.000022   0.000000
             31         32         33         34         35         36
     1  O    0.000000  -0.000289   0.005326   0.004706   0.000013  -0.000590
     2  C    0.000000   0.010532   0.067658   0.043553   0.020090   0.046699
     3  C    0.000000  -0.018954  -0.003488  -0.093149  -0.014360  -0.089807
     4  O    0.000000   0.000053  -0.000052   0.000101  -0.000411   0.004159
     5  H    0.000000  -0.000001  -0.000001  -0.000016  -0.000001  -0.000144
     6  C    0.000015   0.012868  -0.007815  -0.005121  -0.186782   0.269007
     7  O    0.000000   0.000001  -0.000004   0.000134   0.008986  -0.048462
     8  H    0.000000   0.000000   0.000000   0.000000  -0.000164  -0.007093
     9  C    0.000000   0.606525   0.379629   0.069454   0.005290   0.015623
    10  O    0.000000  -0.053276  -0.045091   0.004197  -0.000434  -0.000055
    11  H    0.000000  -0.002520  -0.010527  -0.000042  -0.000002   0.000000
    12  C   -0.000001  -0.270900  -0.078368   0.176737  -0.008972   0.020561
    13  O    0.000000   0.003104   0.004712  -0.051006  -0.052350   0.007224
    14  C    0.000376   0.010705   0.002485   0.078013   0.403263   0.018937
    15  O    0.000002  -0.000164  -0.000031  -0.001536  -0.061028  -0.006547
    16  C    0.006029  -0.003301   0.001903   0.003698   0.035146  -0.003625
    17  C    0.000349   0.001892  -0.000499   0.008190   0.047357   0.010140
    18  O   -0.000007   0.000564  -0.000200   0.000725  -0.001012  -0.000039
    19  H    0.000000  -0.000008   0.000029   0.000206   0.000103   0.000006
    20  C    0.030409  -0.000075   0.000056   0.000568   0.009190   0.000422
    21  O   -0.000864   0.000001   0.000000   0.000005   0.000014   0.000000
    22  H    0.000016   0.000000   0.000000   0.000000  -0.000004   0.000000
    23  C   -0.001742   0.000014  -0.000002   0.000011  -0.003508   0.002764
    24  O    0.000014   0.000000   0.000000  -0.000001  -0.000136  -0.000020
    25  H    0.000000   0.000000   0.000000   0.000000   0.000000   0.000001
    26  C   -0.012522   0.000062   0.000057   0.000911   0.027396  -0.008730
    27  O   -0.005882   0.000000   0.000000   0.000000   0.000233   0.000005
    28  C    0.002143  -0.000018   0.000002  -0.000067   0.000202   0.000022
    29  O    0.220583   0.000000   0.000000   0.000000  -0.000006   0.000000
    30  H    0.000000   0.000052  -0.000435  -0.000083   0.000001   0.000011
    31  H    0.417322   0.000000   0.000000   0.000000   0.000000   0.000000
    32  H    0.000000   0.602956  -0.052412   0.006401   0.000008  -0.000028
    33  H    0.000000  -0.052412   0.594057  -0.004684   0.000006  -0.000001
    34  H    0.000000   0.006401  -0.004684   0.599345   0.006046  -0.000013
    35  H    0.000000   0.000008   0.000006   0.006046   0.626987   0.005375
    36  H    0.000000  -0.000028  -0.000001  -0.000013   0.005375   0.612725
    37  H    0.000000   0.000005  -0.000031   0.004522   0.005141   0.007832
    38  H    0.000000   0.004036  -0.000638   0.007209   0.000039   0.004037
    39  H    0.000002   0.000000   0.000000  -0.000005   0.007884   0.000005
    40  H   -0.000008   0.000000   0.000000   0.000000  -0.000040  -0.000002
    41  H    0.000075   0.000000   0.000000   0.000000  -0.000075   0.000000
    42  H   -0.006390   0.000000   0.000000   0.000000   0.000000   0.000000
    43  H   -0.000024   0.000000   0.000000   0.000000  -0.000002   0.000002
    44  H    0.000007   0.000000   0.000000   0.000000   0.000000   0.000000
    45  H    0.000000   0.000000   0.000000   0.000000   0.000027  -0.000033
             37         38         39         40         41         42
     1  O   -0.003484  -0.051138  -0.000001   0.000000   0.000000   0.000000
     2  C    0.077197   0.443129   0.001060  -0.000047  -0.000007  -0.000008
     3  C    0.253052  -0.158787   0.002080   0.000071   0.000112   0.000013
     4  O   -0.047914   0.003039   0.000020   0.000000   0.000000   0.000000
     5  H   -0.005738  -0.000510   0.000000   0.000000   0.000000   0.000000
     6  C   -0.252510  -0.002310  -0.027285   0.005275   0.002138   0.000090
     7  O    0.008388   0.000064   0.000628   0.000046   0.000013   0.000000
     8  H   -0.000208   0.000009   0.000003   0.000000   0.000000   0.000000
     9  C    0.023398   0.045614  -0.000216  -0.000020  -0.000137   0.000000
    10  O    0.000056   0.000382  -0.000003   0.000058   0.000004   0.000000
    11  H    0.000000  -0.000005   0.000000   0.000000   0.000000   0.000000
    12  C    0.004105  -0.107724   0.006413   0.001736   0.000433   0.000032
    13  O    0.004252   0.007217   0.001238   0.001852   0.000264   0.000005
    14  C    0.132852   0.046362   0.033285   0.027723  -0.003887   0.003805
    15  O   -0.000876  -0.000779  -0.051037  -0.007709  -0.001499  -0.000049
    16  C    0.000014  -0.003190   0.428075   0.080663   0.129550   0.097044
    17  C    0.003949   0.001420  -0.158789   0.221103  -0.161484  -0.045265
    18  O    0.000092   0.000027  -0.001329  -0.063165   0.008220  -0.000671
    19  H   -0.000001  -0.000001   0.000073  -0.003312  -0.000019   0.000020
    20  C    0.000078   0.000004   0.006686  -0.132706   0.256338  -0.167843
    21  O    0.000000   0.000000   0.000088   0.008244  -0.033780   0.008590
    22  H    0.000000   0.000000  -0.000016  -0.000424  -0.004911  -0.000032
    23  C    0.000531   0.000055   0.029430   0.009870   0.009027   0.009355
    24  O   -0.000007   0.000000   0.009473   0.000047  -0.000121  -0.000022
    25  H    0.000000   0.000000  -0.000127   0.000000  -0.000001   0.000000
    26  C   -0.001809  -0.000360  -0.073122   0.015055   0.053482  -0.025267
    27  O    0.000000   0.000000   0.006983  -0.002717   0.006008  -0.063006
    28  C   -0.000005  -0.000002   0.024505   0.033086  -0.032210   0.470394
    29  O    0.000000   0.000000  -0.000662   0.001018   0.000985  -0.052291
    30  H   -0.000031  -0.011885   0.000000   0.000000   0.000000   0.000000
    31  H    0.000000   0.000000   0.000002  -0.000008   0.000075  -0.006390
    32  H    0.000005   0.004036   0.000000   0.000000   0.000000   0.000000
    33  H   -0.000031  -0.000638   0.000000   0.000000   0.000000   0.000000
    34  H    0.004522   0.007209  -0.000005   0.000000   0.000000   0.000000
    35  H    0.005141   0.000039   0.007884  -0.000040  -0.000075   0.000000
    36  H    0.007832   0.004037   0.000005  -0.000002   0.000000   0.000000
    37  H    0.644699   0.008165  -0.000008   0.000000   0.000000   0.000000
    38  H    0.008165   0.637085   0.000000   0.000000   0.000000   0.000000
    39  H   -0.000008   0.000000   0.598557   0.007449   0.002707  -0.000030
    40  H    0.000000   0.000000   0.007449   0.665232   0.006710   0.005451
    41  H    0.000000   0.000000   0.002707   0.006710   0.608888   0.004668
    42  H    0.000000   0.000000  -0.000030   0.005451   0.004668   0.629169
    43  H    0.000000   0.000000   0.006280   0.006286  -0.000107   0.004140
    44  H    0.000000   0.000000   0.000365  -0.000008  -0.000001  -0.000025
    45  H    0.000000   0.000000  -0.000280  -0.000024   0.000002   0.000009
             43         44         45
     1  O    0.000000   0.000000   0.000000
     2  C   -0.000009  -0.000004   0.000219
     3  C    0.000426  -0.000496   0.002378
     4  O    0.000000   0.000000  -0.000012
     5  H    0.000000   0.000000   0.000000
     6  C   -0.003300   0.000469  -0.010536
     7  O   -0.000010   0.000157   0.000814
     8  H    0.000000   0.000000  -0.000053
     9  C    0.000049   0.000008  -0.000053
    10  O    0.000000   0.000000   0.000000
    11  H    0.000000   0.000000   0.000000
    12  C    0.001019   0.000047  -0.000805
    13  O    0.000012  -0.000004  -0.000497
    14  C    0.057079   0.001240  -0.004411
    15  O    0.009776  -0.001319  -0.000321
    16  C    0.144694   0.069071  -0.113709
    17  C   -0.111492  -0.016747   0.009701
    18  O   -0.001860   0.000058   0.000020
    19  H    0.000070   0.000000   0.000000
    20  C   -0.006026   0.004073   0.001633
    21  O   -0.000135  -0.000011   0.000004
    22  H   -0.000010   0.000000   0.000000
    23  C    0.034816   0.590159   0.447421
    24  O    0.007959  -0.080532  -0.046838
    25  H   -0.000116   0.002080  -0.014368
    26  C    0.104129  -0.257212   0.027493
    27  O   -0.049271  -0.012168   0.009334
    28  C    0.039096  -0.005147  -0.000375
    29  O   -0.000867  -0.000272   0.000022
    30  H    0.000000   0.000000   0.000000
    31  H   -0.000024   0.000007   0.000000
    32  H    0.000000   0.000000   0.000000
    33  H    0.000000   0.000000   0.000000
    34  H    0.000000   0.000000   0.000000
    35  H   -0.000002   0.000000   0.000027
    36  H    0.000002   0.000000  -0.000033
    37  H    0.000000   0.000000   0.000000
    38  H    0.000000   0.000000   0.000000
    39  H    0.006280   0.000365  -0.000280
    40  H    0.006286  -0.000008  -0.000024
    41  H   -0.000107  -0.000001   0.000002
    42  H    0.004140  -0.000025   0.000009
    43  H    0.627091  -0.002872  -0.003185
    44  H   -0.002872   0.624364  -0.046239
    45  H   -0.003185  -0.046239   0.607305
 Mulliken atomic charges:
              1
     1  O   -0.535416
     2  C   -0.281338
     3  C    0.263377
     4  O   -0.522487
     5  H    0.344331
     6  C   -0.087273
     7  O   -0.512888
     8  H    0.368047
     9  C   -0.205013
    10  O   -0.522107
    11  H    0.358912
    12  C    0.321017
    13  O   -0.398976
    14  C    0.257610
    15  O   -0.317693
    16  C    0.175471
    17  C    0.006881
    18  O   -0.574114
    19  H    0.416404
    20  C   -0.109296
    21  O   -0.464796
    22  H    0.373458
    23  C   -0.328873
    24  O   -0.524286
    25  H    0.353107
    26  C    0.021394
    27  O   -0.337108
    28  C    0.354730
    29  O   -0.495426
    30  H    0.364639
    31  H    0.350097
    32  H    0.142169
    33  H    0.148358
    34  H    0.140991
    35  H    0.120490
    36  H    0.139637
    37  H    0.134294
    38  H    0.129436
    39  H    0.139621
    40  H    0.113207
    41  H    0.148616
    42  H    0.128113
    43  H    0.136365
    44  H    0.130959
    45  H    0.135357
 Sum of Mulliken atomic charges =   0.00000
 Mulliken charges with hydrogens summed into heavy atoms:
              1
     1  O   -0.170776
     2  C   -0.151903
     3  C    0.397671
     4  O   -0.178156
     6  C    0.052364
     7  O   -0.144841
     9  C    0.085513
    10  O   -0.163194
    12  C    0.462008
    13  O   -0.398976
    14  C    0.378100
    15  O   -0.317693
    16  C    0.315093
    17  C    0.120089
    18  O   -0.157710
    20  C    0.039320
    21  O   -0.091338
    23  C   -0.062557
    24  O   -0.171178
    26  C    0.157759
    27  O   -0.337108
    28  C    0.482843
    29  O   -0.145329
 Sum of Mulliken charges with hydrogens summed into heavy atoms =   0.00000
 APT atomic charges:
              1
     1  O   -0.649115
     2  C    0.427934
     3  C    0.335924
     4  O   -0.610740
     5  H    0.252274
     6  C    0.408701
     7  O   -0.617346
     8  H    0.266121
     9  C    0.432497
    10  O   -0.571111
    11  H    0.236435
    12  C    0.468137
    13  O   -0.851915
    14  C    0.971694
    15  O   -0.875298
    16  C    0.407756
    17  C    0.375867
    18  O   -0.726925
[...]
 369,-0.00010449,0.00004223,-0.00008124,0.00017615,0.00008752,0.0001384
 3,-0.00017603,-0.00032816,0.00023085,-0.00159496,0.00059327,0.00182708
 ,0.00073131,-0.00036516,0.00008882,-0.00000389,-0.00009574,-0.00008205
 ,-0.01307960,0.01886340,-0.00525332,0.00197953,-0.00003588,0.00137704,
 0.00032699,0.00010557,0.00020820,-0.00029206,0.00017352,0.00014676,0.0
 0006895,-0.00000020,-0.00001628,-0.00001895,0.00003685,0.00000244,0.00
 272590,-0.00057697,-0.00254815,0.01157380,-0.02518377,0.00715251,-0.17
 079582,0.15427198,-0.03610939,-0.01011998,0.01405334,0.01091136,-0.000
 00067,0.00000116,-0.00000147,0.00009528,-0.00071731,0.00016794,0.00000
 239,-0.00000138,-0.00000281,0.00000075,0.00000154,0.00000242,0.0000063
 5,-0.00000292,0.00000259,0.00001365,-0.00000853,0.00001112,0.00000400,
 0.00000145,-0.00000437,0.00000480,-0.00000146,0.00000025,0.00000254,0.
 00000014,-0.00000190,-0.00017657,-0.00022637,0.00012488,0.00147359,-0.
 00068954,0.00025076,-0.00163222,-0.00120457,-0.00303983,0.17929159,0.0
 0000996,0.00001943,0.00001671,-0.00000272,-0.00002035,-0.00000678,-0.0
 0000885,-0.00000009,-0.00000449,0.00000428,0.00001177,0.00001959,0.000
 00102,-0.00000507,-0.00000238,-0.00000377,-0.00006543,-0.00001832,0.00
 004003,0.00005632,0.00005957,-0.00000743,0.00000285,-0.00001684,-0.000
 01137,-0.00003922,0.00002986,0.00000705,0.00003039,-0.00003518,0.00000
 394,-0.00000403,0.00000305,-0.00002418,0.00000472,-0.00000134,0.000061
 21,0.00012732,0.00005371,-0.00013706,-0.00008518,-0.00012934,0.0002806
 6,0.00016065,0.00036371,-0.00113987,-0.00036232,-0.00009117,0.00001182
 ,0.00017581,0.00005770,-0.00033103,-0.00007023,-0.00069738,0.00004853,
 -0.00014071,0.00019321,-0.00344776,0.00410250,-0.00310496,-0.00004061,
 0.00143589,-0.00006817,0.00003055,0.00039949,-0.00001471,-0.00045345,0
 .00030599,0.00076276,0.00006913,-0.00005586,-0.00000311,-0.00003717,0.
 00007015,-0.00001083,0.00272167,-0.00105811,-0.00321445,0.00163211,-0.
 03476763,0.01168118,0.15595673,-0.22343903,0.03238369,0.00671032,-0.00
 006771,-0.00448391,0.00000034,-0.00000524,-0.00000358,0.00015892,-0.00
 011205,-0.00003501,0.00000286,0.00000232,-0.00000140,0.00000243,0.0000
 0744,-0.00000508,0.00000290,-0.00000460,0.00000546,0.00000676,-0.00000
 560,0.00001381,-0.00000202,0.00000794,0.00000003,-0.00000080,-0.000000
 48,-0.00000033,-0.00000084,0.00000156,0.00000049,0.00011557,0.00011409
 ,-0.00017370,-0.00066541,0.00051891,0.00004046,-0.00093672,-0.00027411
 ,-0.00083883,-0.15969234,0.25294517,-0.00000728,0.00000042,-0.00002400
 ,0.00000165,0.00000166,0.00001790,0.00000093,-0.00000597,0.00001630,0.
 00000383,0.00001394,-0.00002186,-0.00000022,-0.00000228,0.00000220,-0.
 00000975,-0.00001806,-0.00000375,0.00000544,0.00001523,-0.00000534,-0.
 00000313,-0.00000477,-0.00000055,-0.00000448,0.00000721,-0.00000135,0.
 00000073,-0.00001311,-0.00000537,0.00000014,0.00000402,-0.00000355,0.0
 0001487,0.00000518,0.00003601,-0.00000164,-0.00002969,-0.00006867,0.00
 003089,0.00002383,0.00011584,0.00010049,-0.00000663,-0.00026325,-0.000
 20110,-0.00005246,-0.00009189,-0.00275785,0.00169960,0.00027864,0.0004
 7016,-0.00047091,-0.00016089,0.00000552,-0.00003237,0.00001760,-0.0169
 2688,0.01730547,-0.00354606,0.00166360,-0.00028125,0.00112364,0.000329
 55,0.00023048,0.00007951,0.00013186,-0.00004706,0.00006165,-0.00001171
 ,-0.00000303,0.00002022,0.00000557,-0.00002800,-0.00001664,-0.00095639
 ,-0.00025821,0.00203922,-0.00027554,0.01120281,0.00194030,-0.03578894,
 0.03394360,-0.05122440,0.02940680,-0.02747183,-0.01176908,0.00000007,0
 .00000137,0.00000412,0.00102806,0.00002477,0.00193539,0.00000324,-0.00
 000053,-0.00000046,-0.00000140,-0.00000311,-0.00000243,0.00000002,-0.0
 0000100,0.00000018,0.00000216,-0.00000852,0.00000513,0.00000277,0.0000
 0154,-0.00000177,0.00000335,-0.00000090,-0.00000059,0.00000175,-0.0000
 0007,-0.00000343,0.00015783,-0.00014633,0.00005724,0.00036344,-0.00019
 694,-0.00109128,-0.00186358,-0.00126220,-0.00319875,0.02477497,-0.0338
 2004,0.06394844,0.00000403,0.00000260,-0.00000751,-0.00000401,-0.00000
 511,0.00001136,-0.00000731,0.00000736,0.00003155,0.00001302,0.00001596
 ,-0.00002132,-0.00000323,0.00000214,0.00000110,-0.00001699,-0.00011392
 ,-0.00003551,0.00008372,0.00008020,0.00006072,-0.00001672,-0.00000452,
 -0.00003244,-0.00001555,0.00001555,-0.00000772,0.00001783,-0.00001195,
 0.00000287,-0.00000826,0.00000253,-0.00000171,0.00000057,-0.00000867,0
 .00003137,0.00005361,-0.00008078,-0.00013388,0.00015526,-0.00004035,-0
 .00013122,0.00134746,-0.00049318,0.00020749,-0.01984093,0.01501486,-0.
 00316836,-0.00084258,0.00295855,-0.00100618,0.00092420,-0.00048468,0.0
 0035135,-0.00009048,0.00006720,-0.00011414,0.00010405,-0.00006132,0.00
 025827,-0.00011686,-0.00034189,-0.00019662,-0.00008339,-0.00000023,0.0
 0009486,0.00941864,-0.00933031,-0.00057371,-0.00107921,-0.00317617,0.0
 0060582,0.00031263,-0.00066482,-0.00015657,-0.22662715,0.15407633,-0.0
 0765712,-0.01573646,0.00618329,0.01720839,0.00118458,0.00362160,-0.000
 89198,-0.00026635,-0.00082841,0.00061671,-0.00000174,0.00000128,0.0000
 0109,0.00001247,0.00016472,-0.00019984,0.00000512,-0.00000315,-0.00000
 459,0.00000006,-0.00000572,-0.00000088,0.00000483,0.00000125,0.0000009
 1,0.00016154,-0.00006886,0.00024190,0.00001367,0.00001925,-0.00002864,
 0.00000904,-0.00000562,0.00000144,0.00000447,-0.00000176,-0.00000595,-
 0.00190074,-0.00175603,-0.00269066,0.00006805,-0.00165610,0.00030734,0
 .00024615,-0.00005413,-0.00012231,-0.00044035,-0.00082766,0.00031510,0
 .25110312,-0.00000532,0.00001327,-0.00000602,0.00000866,-0.00001446,0.
 00000615,0.00000364,0.00001064,0.00001891,-0.00000726,0.00002231,-0.00
 000589,0.00000409,-0.00000483,-0.00000189,0.00002399,-0.00013753,-0.00
 003343,-0.00001614,0.00012652,0.00006024,0.00001637,-0.00002627,-0.000
 00213,0.00001519,-0.00000102,-0.00000457,-0.00001388,0.00000056,0.0000
 0027,0.00000615,0.00000003,0.00000002,0.00002373,0.00000421,0.00003111
 ,0.00000581,0.00000529,-0.00001185,-0.00012132,0.00003165,0.00018283,0
 .00007363,0.00026510,0.00074660,-0.00586643,0.00374097,-0.00073890,-0.
 00260430,0.00094427,-0.00091401,-0.00002177,-0.00015973,0.00009469,0.0
 0007399,-0.00006309,0.00004875,-0.00049400,0.00000284,-0.00051436,0.00
 008751,0.00000757,0.00008161,0.00003760,0.00000274,-0.00006423,0.02397
 269,-0.01855361,0.00130387,-0.00490380,-0.00252511,0.00161185,0.000580
 46,-0.00120434,-0.00070105,0.15667206,-0.17718214,0.00303499,-0.003272
 50,0.00755194,-0.00280586,-0.00107366,0.00188797,-0.00021484,0.0001870
 4,-0.00021296,0.00010835,0.00000206,-0.00000318,0.00000036,0.00000299,
 -0.00003509,0.00008449,-0.00000400,0.00000215,0.00000370,-0.00000290,-
 0.00000158,-0.00000101,-0.00000626,0.00000328,-0.00000092,-0.00000889,
 -0.00002184,-0.00009535,-0.00000768,0.00002406,0.00002879,-0.00000904,
 -0.00000129,-0.00000541,-0.00000378,0.00000235,0.00000399,-0.00093832,
 -0.00005718,-0.00068027,-0.00077764,0.00016871,-0.00059732,-0.00000960
 ,-0.00016371,0.00024645,0.00100189,0.00030576,-0.00033798,-0.16317755,
 0.18366320,-0.00000534,-0.00001280,-0.00001523,0.00000259,0.00001605,0
 .00000846,-0.00001902,-0.00002280,0.00002584,0.00001270,-0.00000346,-0
 .00001646,-0.00000386,0.00000050,0.00000466,0.00008060,0.00003964,0.00
 005703,0.00002736,-0.00004061,-0.00004713,-0.00000268,-0.00000287,-0.0
 0000730,-0.00000064,0.00001845,0.00000100,0.00000579,-0.00002020,0.000
 00734,-0.00000322,0.00000302,-0.00000438,-0.00000071,0.00001897,0.0000
 4206,0.00013970,-0.00013358,-0.00003768,-0.00016952,0.00020171,0.00000
 668,0.00124542,-0.00051213,0.00226604,-0.02445104,0.01558273,-0.000802
 34,0.00025903,0.00247517,-0.00033988,0.00032090,-0.00056497,0.00005093
 ,-0.00008189,0.00003261,-0.00001738,-0.00001720,0.00039541,-0.00058538
 ,0.00010838,0.00010674,0.00043149,0.00007804,0.00007589,-0.00008142,-0
 .00194925,-0.00083650,-0.00061998,-0.00004439,0.00061139,0.00088578,0.
 00002025,-0.00004189,0.00015736,-0.00641469,0.00377051,-0.03603441,0.0
 3700731,-0.01528969,-0.01862626,-0.00114482,-0.00583034,0.00193856,0.0
 0035952,0.00118609,-0.00112145,-0.00000039,0.00000368,0.00000366,0.000
 06229,-0.00017985,0.00021170,0.00000229,-0.00000251,-0.00000240,-0.000
 00011,-0.00000164,0.00000061,0.00000523,0.00000424,0.00000195,0.000276
 11,-0.00009759,0.00009331,0.00001832,0.00001292,-0.00005003,0.00001043
 ,-0.00000580,0.00000729,0.00000360,-0.00000299,-0.00000533,-0.00266622
 ,-0.00196539,-0.00357532,0.00015094,-0.00062686,0.00037871,0.00005605,
 -0.00001250,-0.00008132,-0.00035941,0.00107307,-0.00017835,-0.00298497
 ,0.00031309,0.05522425,-0.00000965,-0.00000502,-0.00003426,0.00000099,
 0.00000713,0.00002598,-0.00000613,-0.00000584,0.00001548,0.00001262,0.
 00000406,-0.00002975,-0.00000369,0.00000183,0.00000674,-0.00005068,0.0
 0000527,-0.00003871,0.00010487,-0.00011792,0.00005957,-0.00001685,0.00
 003820,0.00000404,-0.00000899,0.00000729,0.00000441,-0.00000367,-0.000
 01421,-0.00001105,0.00000234,0.00000533,-0.00000476,0.00002312,0.00001
 113,0.00005217,0.00002698,-0.00002713,-0.00006617,-0.00002319,0.000026
 83,0.00000763,0.00049596,0.00046681,-0.00012177,-0.00040679,-0.0045033
 3,0.00180245,-0.00031474,0.00028621,-0.00122032,-0.00049613,-0.0006851
 0,-0.00003606,-0.00004521,0.00005505,0.00010934,0.00012705,0.00016168,
 -0.00030166,0.00001869,0.00000492,0.00025715,0.00008645,0.00004006,-0.
 00010228,-0.16870789,-0.03117233,-0.14540584,-0.01686677,0.01974274,-0
 .01721368,-0.00229165,-0.00014091,-0.00063148,-0.01318019,-0.00814160,
 -0.01770719,0.00158259,0.00219717,-0.00056035,-0.00021232,-0.00030538,
 0.00029025,0.00007900,0.00007829,0.00005568,-0.00000092,0.00000403,0.0
 0000720,-0.00007386,-0.00010119,0.00006181,0.00000476,-0.00000070,0.00
 000091,-0.00000131,-0.00000243,-0.00000455,0.00000035,-0.00000008,-0.0
 0000114,0.00002575,-0.00000884,0.00002748,0.00000762,-0.00001880,-0.00
 002242,0.00001271,0.00000019,0.00000383,0.00000338,-0.00000321,-0.0000
 0541,0.00028915,0.00030249,0.00022944,0.00000911,-0.00001999,-0.000072
 28,0.00000708,-0.00000419,0.00002385,0.00002790,0.00009136,-0.00002120
 ,0.00082296,0.00017128,0.00069584,0.18412229,-0.00000676,0.00003094,-0
 .00004961,-0.00000839,-0.00002915,0.00004471,0.00004141,0.00001246,0.0
 0004739,-0.00000083,0.00006800,-0.00005352,0.00000479,-0.00000724,-0.0
 0000370,-0.00012166,-0.00027162,-0.00009366,0.00005647,0.00028243,0.00
 008388,-0.00000512,-0.00002862,-0.00003580,-0.00002214,-0.00000613,0.0
 0000184,-0.00000581,-0.00000031,-0.00003231,0.00000686,0.00000452,-0.0
 0000563,0.00007155,0.00000050,0.00012253,-0.00004470,-0.00001441,-0.00
 026714,0.00030679,-0.00012082,0.00057111,0.00016169,0.00052121,-0.0000
 8616,-0.00284124,-0.00640198,0.00292763,-0.00046370,0.00088540,-0.0018
 9381,-0.00068367,-0.00130942,-0.00018123,-0.00007232,0.00007681,0.0001
 9606,0.00025181,0.00012344,-0.00034031,-0.00006779,-0.00002289,0.00029
 880,0.00013122,0.00003862,-0.00014518,-0.02929116,-0.03862536,-0.03084
 803,0.03305684,-0.01959688,0.02460071,0.00249555,-0.00036789,0.0018064
 7,-0.02418062,-0.00932036,-0.02445332,0.00195068,0.00180309,-0.0004998
 8,-0.00021253,-0.00030424,0.00013409,0.00006350,0.00006878,0.00006098,
 -0.00000178,-0.00000223,0.00000446,-0.00003570,-0.00004192,0.00004584,
 0.00000712,0.00000263,0.00000317,-0.00000257,-0.00000946,-0.00001114,-
 0.00000921,0.00000024,-0.00000473,-0.00002766,-0.00002308,-0.00001126,
 -0.00000133,0.00003845,0.00001722,-0.00000243,-0.00000478,-0.00000481,
 0.00000098,0.00000146,-0.00000275,0.00012474,0.00010599,0.00022338,0.0
 0009413,-0.00008398,0.00000357,-0.00001622,-0.00000386,0.00003080,0.00
 002716,0.00007596,-0.00000872,0.00042847,0.00091463,-0.00041980,0.0189
 1697,0.07067473,-0.00003396,-0.00001886,-0.00009300,0.00000138,0.00004
 050,0.00005550,0.00001563,-0.00005953,0.00004419,0.00000835,0.00003317
 ,-0.00009168,-0.00000572,-0.00000598,0.00000955,0.00003682,0.00016267,
 0.00011536,-0.00010429,-0.00000244,-0.00026585,-0.00002771,-0.00005848
 ,0.00000234,-0.00000746,0.00004111,-0.00001809,-0.00001328,-0.00003813
 ,0.00000450,0.00000214,0.00000854,-0.00000468,0.00008542,0.00001198,0.
 00009992,-0.00009087,-0.00018733,-0.00022985,0.00023683,0.00015679,0.0
 0055153,-0.00068161,-0.00045538,0.00006022,0.00109688,0.00035705,0.000
 14697,0.00005451,0.00013233,-0.00002571,-0.00003091,-0.00006477,0.0000
 5442,0.00000598,0.00008292,0.00001065,0.00009170,0.00006388,-0.0001132
 6,-0.00008340,-0.00011983,0.00006745,0.00003597,0.00002678,-0.00000582
 ,-0.14868134,-0.03156263,-0.22731755,-0.00191311,0.00846629,0.00687462
 ,-0.00072800,-0.00006078,0.00019217,0.00342810,0.00238541,0.00192067,-
 0.00009018,-0.00024872,0.00171818,0.00008758,0.00013198,0.00004531,-0.
 00008156,-0.00006426,0.00015509,-0.00000266,0.00000709,0.00001597,-0.0
 0002273,0.00001441,-0.00003516,0.00000460,-0.00000217,0.00000419,-0.00
 000594,-0.00001334,-0.00000455,-0.00000866,0.00000411,-0.00000866,-0.0
 0000376,0.00001235,-0.00003811,0.00000459,-0.00002185,-0.00000425,0.00
 000751,0.00000148,-0.00000054,0.00000496,-0.00000497,-0.00000752,0.000
 20403,0.00015805,0.00007083,-0.00000788,-0.00004330,0.00002276,0.00001
 330,-0.00001217,0.00000725,-0.00001210,-0.00006783,0.00000698,-0.00016
 296,-0.00109174,0.00020198,0.16640536,0.02705156,0.23574517,0.00005469
 ,0.00002047,0.00013334,-0.00000240,-0.00005537,-0.00007523,-0.00004919
 ,0.00009921,-0.00005245,0.00000689,-0.00005983,0.00013744,0.00000360,0
 .00001453,-0.00001032,-0.00007460,-0.00025493,-0.00022051,0.00026634,-
 0.00004167,0.00054369,0.00003085,0.00011237,0.00003403,-0.00000437,-0.
 00006467,0.00004164,0.00003398,0.00005570,-0.00001896,-0.00000842,-0.0
 0001043,0.00000612,-0.00014724,-0.00000194,-0.00013109,0.00021033,0.00
 030039,0.00037082,-0.00042731,-0.00014816,-0.00106680,0.00110548,0.000
 53162,-0.00001375,-0.00098377,-0.00007370,0.00122822,0.00015118,0.0001
 1300,0.00033003,0.00013956,0.00017238,-0.00021041,-0.00004206,-0.00011
 203,0.00003018,0.00000998,0.00013297,0.00017349,0.00002963,-0.00002423
 ,-0.00017104,-0.00005860,-0.00001271,0.00008000,-0.12665686,-0.0027621
 2,0.13249998,-0.01727713,0.01642242,0.01984882,0.00185728,-0.00100065,
 0.00005124,-0.01024692,-0.00052775,0.01689387,-0.00140136,-0.00466168,
 0.00065048,0.00081652,0.00050167,0.00057871,-0.00029905,-0.00015053,0.
 00028400,0.00000218,-0.00000674,-0.00001999,-0.00002316,0.00001697,-0.
 00006405,-0.00000013,0.00000129,-0.00000849,0.00001017,0.00002273,0.00
 000515,0.00001696,-0.00000976,0.00001140,0.00006024,-0.00002378,0.0000
 9632,0.00000602,0.00002379,-0.00000806,0.00000325,-0.00000213,0.000003
 08,-0.00000200,0.00000383,0.00000443,-0.00009938,0.00001132,-0.0001062
 2,-0.00000881,0.00001291,0.00000134,0.00000853,-0.00000493,-0.00002191
 ,-0.00009832,-0.00019905,0.00000633,0.00102723,0.00037521,-0.00062931,
 0.01482690,-0.00007339,-0.01903154,0.13723331,0.00000507,-0.00001472,0
 .00002731,-0.00000557,0.00002289,-0.00003508,-0.00000824,-0.00007386,-
 0.00006432,-0.00000692,-0.00003719,0.00003836,-0.00000306,-0.00000543,
 0.00000240,0.00001917,0.00035257,0.00001817,-0.00024822,-0.00034818,-0
 .00025647,0.00007916,0.00000726,0.00016480,-0.00000667,-0.00002980,0.0
 0003182,0.00001677,0.00002326,-0.00001467,-0.00000415,-0.00000539,0.00
 000431,-0.00006780,0.00000705,-0.00007776,0.00009672,0.00010434,0.0002
 1380,-0.00013237,-0.00000421,-0.00084077,0.00010681,-0.00029030,-0.000
 42081,-0.00072932,0.00040584,0.00031901,0.00008404,0.00003036,0.000525
 51,0.00016467,0.00016997,-0.00025335,-0.00003819,-0.00007139,0.0000199
 9,0.00014443,0.00001503,0.00037060,-0.00012939,-0.00014129,-0.00030731
 ,-0.00006871,-0.00003139,0.00010198,-0.00636504,-0.04009927,0.00224809
 ,0.02915099,-0.02429896,-0.02515113,0.00257027,0.00119487,-0.00210567,
 -0.01427389,0.00179016,0.02444507,-0.00480871,-0.00825763,0.00163080,0
 .00076311,0.00152964,0.00041198,-0.00078582,-0.00038277,0.00099455,0.0
 0000047,-0.00000170,-0.00000386,-0.00001843,0.00003915,-0.00019496,0.0
 0000222,-0.00000064,-0.00000600,0.00000578,0.00001257,0.00000128,0.000
 00872,-0.00000580,0.00000972,0.00007849,-0.00003760,0.00009606,0.00001
 297,-0.00003042,-0.00005295,-0.00000200,0.00000135,0.00001124,-0.00000
 013,0.00000047,0.00000043,0.00002189,-0.00005177,-0.00014008,0.0000037
 6,0.00002276,0.00003353,-0.00002378,-0.00001209,-0.00004068,-0.0001381
 1,-0.00029937,0.00003085,0.00053976,0.00066692,0.00068489,0.00265188,0
 .00086631,-0.00514598,-0.00866262,0.06726841,0.00001075,0.00001969,0.0
 0003308,0.00000332,-0.00004370,-0.00000994,-0.00000201,0.00006023,-0.0
 0000996,-0.00001041,-0.00000485,0.00003787,0.00000644,0.00000272,-0.00
 000643,-0.00000652,-0.00024746,-0.00010301,0.00011075,0.00010670,0.000
 18453,0.00005178,0.00004428,-0.00000615,0.00001208,-0.00000135,-0.0000
 1460,-0.00000836,0.00000693,0.00001048,0.00000291,-0.00000205,0.000000
 17,-0.00000419,-0.00001808,-0.00002552,-0.00004616,0.00001753,-0.00006
 523,-0.00012101,-0.00025124,0.00014021,-0.00129893,-0.00108372,-0.0007
 9749,0.00005100,0.00004234,-0.00037288,0.00010126,-0.00001767,-0.00003
 415,0.00003809,0.00010083,0.00013626,0.00002459,0.00000040,-0.00003105
 ,-0.00006181,0.00002253,-0.00012339,0.00008109,0.00010261,0.00009607,0
 .00001021,0.00000403,-0.00002901,0.14120996,-0.00113076,-0.27805846,-0
 .00154486,-0.00126895,0.00610860,-0.00029445,-0.00083653,0.00287073,0.
 00068857,-0.00087906,-0.00323687,0.00018058,0.00103627,0.00066602,-0.0
 0039796,-0.00054094,0.00064608,0.00003356,0.00001836,-0.00009340,0.000
 00308,-0.00000194,-0.00000572,-0.00001515,-0.00007022,0.00006076,-0.00
 000414,0.00000174,0.00000221,-0.00000080,-0.00000182,0.00000168,-0.000
 00407,0.00000073,-0.00000088,-0.00001980,0.00001895,-0.00004338,-0.000
 01355,0.00003251,-0.00001041,-0.00000644,-0.00000206,-0.00000153,-0.00
 000401,0.00000423,0.00000470,-0.00006982,-0.00000083,0.00001396,0.0000
 0552,-0.00000573,0.00000827,0.00000152,0.00000466,0.00000445,0.0000385
 6,0.00009114,-0.00002279,-0.00001283,0.00081792,0.00024275,0.01346571,
 0.00117634,-0.01993949,-0.15218401,0.00267529,0.29177286\\0.00940920,-
 0.00730625,-0.01351798,-0.02575350,0.00900743,0.00850743,0.01485000,-0
 .02823438,-0.00744172,0.01395072,0.02445926,0.03194923,-0.01748263,-0.
 01414991,-0.01815505,-0.01815291,-0.01084306,-0.00213357,-0.00367599,-
 0.01052110,0.01016276,0.02321815,0.02228424,-0.00820479,0.00178251,-0.
 01106714,-0.02037389,0.00499245,0.02586431,0.02372449,-0.00258326,-0.0
 2085826,-0.02391233,0.00960248,-0.00780309,-0.00944791,-0.00656985,0.0
 1502720,-0.00629934,-0.02919053,0.01029690,-0.00532529,0.00379773,-0.0
 0287989,0.00861947,0.02926133,0.02301174,-0.00333797,-0.00061400,0.016
 22354,0.03557011,0.00354698,-0.00698554,0.01942518,0.00833438,-0.01116
 295,-0.02430677,-0.01934522,0.03514402,-0.01674590,0.02116150,-0.01553
 008,0.02787306,-0.00483911,0.01683198,-0.02413706,-0.03945110,-0.01765
 883,-0.00207164,0.01968425,-0.00782960,0.01032465,0.01327251,0.0290655
 4,-0.01733710,0.02136796,-0.04103529,0.00500769,0.00115126,-0.00771389
 ,0.00241416,0.01690968,-0.03852208,-0.01627799,0.00197150,0.00898909,0
 .02973365,-0.00306757,0.00184245,0.00319883,-0.00736281,-0.00073649,-0
 .00198345,-0.01957381,0.00619689,0.00293871,0.00698252,-0.00364752,0.0
 1671641,0.02289900,-0.00358825,-0.00379216,0.01772088,-0.00450895,-0.0
 0732846,-0.01754034,0.01191247,0.00119891,0.02339586,-0.00834174,-0.00
 631147,-0.02093639,0.00767644,0.00633806,0.01154998,-0.01577038,0.0019
 8473,-0.01659743,0.01450258,-0.00519811,0.01350493,-0.01275947,-0.0021
 0514,-0.01088951,0.01624295,-0.00195519,-0.02101224,0.00680865,0.00307
 301,-0.01624437,0.00000055,-0.01489704,-0.01343519,0.00806592,0.013836
 80\\\@


 Standing in the middle of the road is very dangerous;
 you get knocked down by the traffic from both sides.
                                -- Margaret Thatcher
 Job cpu time:  0 days 12 hours 38 minutes 19.4 seconds.
 File lengths (MBytes):  RWF=   1329 Int=      0 D2E=      0 Chk=     19 Scr=      1
 Normal termination of Gaussian 09 at Thu Oct 22 02:20:26 2015.
Gaussian '09 finished on node011 at Thu Oct 22 02:20:27 EDT 2015.
