Gaussian '09 started on node031 at Mon Feb  8 13:53:38 EST 2016.
 Entering Gaussian System, Link 0=/usr/local/gaussian/g09/g09
 Initial command:
 /usr/local/gaussian/g09/l1.exe /home/srmcgrat/thesis/gaussian/cellobiose/290/10000/1/2dfp/gaussian16531/Gau-16567.inp -scrdir=/home/srmcgrat/thesis/gaussian/cellobiose/290/10000/1/2dfp/gaussian16531/
 Entering Link 1 = /usr/local/gaussian/g09/l1.exe PID=     16569.
  
 Copyright (c) 1988,1990,1992,1993,1995,1998,2003,2009,2010,
            Gaussian, Inc.  All Rights Reserved.
  
 This is part of the Gaussian(R) 09 program.  It is based on
 the Gaussian(R) 03 system (copyright 2003, Gaussian, Inc.),
 the Gaussian(R) 98 system (copyright 1998, Gaussian, Inc.),
 the Gaussian(R) 94 system (copyright 1995, Gaussian, Inc.),
 the Gaussian 92(TM) system (copyright 1992, Gaussian, Inc.),
 the Gaussian 90(TM) system (copyright 1990, Gaussian, Inc.),
 the Gaussian 88(TM) system (copyright 1988, Gaussian, Inc.),
 the Gaussian 86(TM) system (copyright 1986, Carnegie Mellon
 University), and the Gaussian 82(TM) system (copyright 1983,
 Carnegie Mellon University). Gaussian is a federally registered
 trademark of Gaussian, Inc.
  
 This software contains proprietary and confidential information,
 including trade secrets, belonging to Gaussian, Inc.
  
 This software is provided under written license and may be
 used, copied, transmitted, or stored only in accord with that
 written license.
  
 The following legend is applicable only to US Government
 contracts under FAR:
  
                    RESTRICTED RIGHTS LEGEND
  
 Use, reproduction and disclosure by the US Government is
 subject to restrictions as set forth in subparagraphs (a)
 and (c) of the Commercial Computer Software - Restricted
 Rights clause in FAR 52.227-19.
  
 Gaussian, Inc.
 340 Quinnipiac St., Bldg. 40, Wallingford CT 06492
  
  
 ---------------------------------------------------------------
 Warning -- This program may not be used in any manner that
 competes with the business of Gaussian, Inc. or will provide
 assistance to any competitor of Gaussian, Inc.  The licensee
 of this program is prohibited from giving any competitor of
 Gaussian, Inc. access to this program.  By using this program,
 the user acknowledges that Gaussian, Inc. is engaged in the
 business of creating and licensing software in the field of
 computational chemistry and represents and warrants to the
 licensee that it is not a competitor of Gaussian, Inc. and that
 it will not use this program in any manner prohibited above.
 ---------------------------------------------------------------
  

 Cite this work as:
 Gaussian 09, Revision B.01,
 M. J. Frisch, G. W. Trucks, H. B. Schlegel, G. E. Scuseria, 
 M. A. Robb, J. R. Cheeseman, G. Scalmani, V. Barone, B. Mennucci, 
 G. A. Petersson, H. Nakatsuji, M. Caricato, X. Li, H. P. Hratchian, 
 A. F. Izmaylov, J. Bloino, G. Zheng, J. L. Sonnenberg, M. Hada, 
 M. Ehara, K. Toyota, R. Fukuda, J. Hasegawa, M. Ishida, T. Nakajima, 
 Y. Honda, O. Kitao, H. Nakai, T. Vreven, J. A. Montgomery, Jr., 
 J. E. Peralta, F. Ogliaro, M. Bearpark, J. J. Heyd, E. Brothers, 
 K. N. Kudin, V. N. Staroverov, T. Keith, R. Kobayashi, J. Normand, 
 K. Raghavachari, A. Rendell, J. C. Burant, S. S. Iyengar, J. Tomasi, 
 M. Cossi, N. Rega, J. M. Millam, M. Klene, J. E. Knox, J. B. Cross, 
 V. Bakken, C. Adamo, J. Jaramillo, R. Gomperts, R. E. Stratmann, 
 O. Yazyev, A. J. Austin, R. Cammi, C. Pomelli, J. W. Ochterski, 
 R. L. Martin, K. Morokuma, V. G. Zakrzewski, G. A. Voth, 
 P. Salvador, J. J. Dannenberg, S. Dapprich, A. D. Daniels, 
 O. Farkas, J. B. Foresman, J. V. Ortiz, J. Cioslowski, 
 and D. J. Fox, Gaussian, Inc., Wallingford CT, 2010.
 
 ******************************************
 Gaussian 09:  EM64L-G09RevB.01 12-Aug-2010
                 8-Feb-2016 
 ******************************************
 --------------------------------------------------
 # freq=raman b3lyp/6-31+g(2df,p) geom=connectivity
 --------------------------------------------------
 1/10=4,30=1,38=1,57=2/1,3;
 2/12=2,17=6,18=5,40=1/2;
 3/5=1,6=6,7=114,11=2,16=1,25=1,30=1,71=2,74=-5/1,2,3;
 4//1;
 5/5=2,38=5,98=1/2;
 8/6=4,10=90,11=11/1;
 10/13=10,15=4/2;
 11/6=3,8=1,9=11,15=111,16=1/1,2,10;
 10/6=1/2;
 6/7=2,8=2,9=2,10=2,18=1,28=1/1;
 7/8=1,10=1,25=1/1,2,3,16;
 1/10=4,30=1/3;
 99//99;
 -------------
 290 10000.com
 -------------
 Symbolic Z-matrix:
 Charge =  0 Multiplicity = 1
 O                     7.607     7.544     12.321 
 C                     8.254     7.9       13.551 
 C                     7.658     9.203     14.057 
 O                     8.081     10.198    13.114 
 H                     7.623     10.071    12.234 
 C                     8.102     9.726     15.414 
 O                     7.488     10.892    15.982 
 H                     8.038     11.142    16.78 
 C                     8.658     5.557     14.336 
 O                     8.041     4.743     13.328 
 H                     8.371     3.826     13.552 
 C                     7.962     6.876     14.635 
 O                     8.574     7.332     15.85 
 C                     8.        8.543     16.364 
 O                     8.779     8.734     17.554 
 C                     8.105     8.393     18.774 
 C                     8.575     7.058     19.329 
 O                     8.064     6.07      18.421 
 H                     8.405     6.323     17.516 
 C                     8.259     6.659     20.761 
 O                     9.112     5.612     21.246 
 H                     8.699     5.215     22.066 
 C                     8.068     10.902    19.39 
 O                     8.701     11.607    18.312 
 H                     8.696     12.599    18.435 
 C                     8.389     9.475     19.802 
 O                     7.843     9.121     21.081 
 C                     8.42      7.915     21.602 
 O                     7.75      7.645     22.842 
 H                     8.27052   7.35111   11.65456 
 H                     8.40099   7.49489   23.5314 
 H                     9.46012   8.0781    21.7929 
 H                     7.24171   6.33171   20.81482 
 H                     9.64104   7.04617   19.23782 
 H                     7.05142   8.34737   18.59292 
 H                     9.45048   9.45893   19.93581 
 H                     8.21743   11.50207   20.2632 
 H                     7.01924   10.91939   19.17856 
 H                     9.14303   9.95496   15.32049 
 H                     6.97601   8.3754    16.62526 
 H                     6.59052   9.13179   14.03951 
 H                     9.30911   8.00201   13.40528 
 H                     6.90886   6.73672   14.76301 
 H                     8.70166   4.98984   15.24227 
 H                     9.65927   5.77103   14.02528 
 

 GradGradGradGradGradGradGradGradGradGradGradGradGradGradGradGradGradGrad
 Berny optimization.
 Initialization pass.
 Trust Radius=3.00D-01 FncErr=1.00D-07 GrdErr=1.00D-07
 Number of steps in this run=      2 maximum allowed number of steps=      2.
 GradGradGradGradGradGradGradGradGradGradGradGradGradGradGradGradGradGrad

                          Input orientation:                          
 ---------------------------------------------------------------------
 Center     Atomic      Atomic             Coordinates (Angstroms)
 Number     Number       Type             X           Y           Z
 ---------------------------------------------------------------------
      1          8           0        7.607000    7.544000   12.321000
      2          6           0        8.254000    7.900000   13.551000
      3          6           0        7.658000    9.203000   14.057000
      4          8           0        8.081000   10.198000   13.114000
      5          1           0        7.623000   10.071000   12.234000
      6          6           0        8.102000    9.726000   15.414000
      7          8           0        7.488000   10.892000   15.982000
      8          1           0        8.038000   11.142000   16.780000
      9          6           0        8.658000    5.557000   14.336000
     10          8           0        8.041000    4.743000   13.328000
     11          1           0        8.371000    3.826000   13.552000
     12          6           0        7.962000    6.876000   14.635000
     13          8           0        8.574000    7.332000   15.850000
     14          6           0        8.000000    8.543000   16.364000
     15          8           0        8.779000    8.734000   17.554000
     16          6           0        8.105000    8.393000   18.774000
     17          6           0        8.575000    7.058000   19.329000
     18          8           0        8.064000    6.070000   18.421000
     19          1           0        8.405000    6.323000   17.516000
     20          6           0        8.259000    6.659000   20.761000
     21          8           0        9.112000    5.612000   21.246000
     22          1           0        8.699000    5.215000   22.066000
     23          6           0        8.068000   10.902000   19.390000
     24          8           0        8.701000   11.607000   18.312000
     25          1           0        8.696000   12.599000   18.435000
     26          6           0        8.389000    9.475000   19.802000
     27          8           0        7.843000    9.121000   21.081000
     28          6           0        8.420000    7.915000   21.602000
     29          8           0        7.750000    7.645000   22.842000
     30          1           0        8.270517    7.351112   11.654562
     31          1           0        8.400995    7.494889   23.531400
     32          1           0        9.460123    8.078098   21.792900
     33          1           0        7.241706    6.331714   20.814818
     34          1           0        9.641043    7.046165   19.237824
     35          1           0        7.051421    8.347372   18.592923
     36          1           0        9.450478    9.458927   19.935812
     37          1           0        8.217428   11.502074   20.263202
     38          1           0        7.019243   10.919391   19.178562
     39          1           0        9.143026    9.954956   15.320486
     40          1           0        6.976011    8.375396   16.625258
     41          1           0        6.590515    9.131792   14.039513
     42          1           0        9.309112    8.002005   13.405282
     43          1           0        6.908855    6.736716   14.763007
     44          1           0        8.701659    4.989845   15.242272
     45          1           0        9.659272    5.771027   14.025279
 ---------------------------------------------------------------------
                    Distance matrix (angstroms):
                    1          2          3          4          5
     1  O    0.000000
     2  C    1.434658   0.000000
     3  C    2.401786   1.519559   0.000000
     4  O    2.810203   2.345571   1.434644   0.000000
     5  H    2.528548   2.616465   2.019400   1.000146   0.000000
     6  C    3.817433   2.613073   1.520564   2.348026   3.234326
     7  O    4.962478   3.930468   2.566563   3.009769   3.839241
     8  H    5.745785   4.580793   3.364350   3.785834   4.688857
     9  C    3.018774   2.503815   3.790931   4.833745   5.085846
    10  O    3.007990   3.172026   4.535386   5.459343   5.455194
    11  H    3.990311   4.075680   5.447524   6.393616   6.426247
    12  C    2.434511   1.519505   2.416905   3.655583   4.010953
    13  O    3.665225   2.389650   2.748553   3.992831   4.634865
    14  C    4.183097   2.896711   2.423801   3.648025   4.419707
    15  O    5.493084   4.122522   3.702109   4.726955   5.605917
    16  C    6.527635   5.248331   4.806870   5.940892   6.769018
    17  C    7.091212   5.847845   5.765058   6.980678   7.766820
    18  O    6.292180   5.205949   5.387487   6.723461   7.381155
    19  H    5.395894   4.269772   4.562575   5.873517   6.523692
    20  C    8.511282   7.316024   7.195607   8.428097   9.206301
    21  O    9.254905   8.073669   8.166463   9.392752  10.164445
    22  H   10.078776   8.939378   9.007325  10.264040  11.018472
    23  C    7.839608   6.568144   5.612093   6.315375   7.217820
    24  O    7.320989   6.050519   4.997208   5.421152   6.361090
    25  H    8.007493   6.791864   5.637122   5.869929   6.781926
    26  C    7.765671   6.447779   5.797704   6.734013   7.629980
    27  O    8.903944   7.639415   7.026914   8.042988   8.900579
    28  C    9.323925   8.052725   7.691984   8.796201   9.645878
    29  O   10.522457   9.308154   8.922559  10.062870  10.882613
    30  H    0.960000   1.974342   3.094571   3.204785   2.855314
    31  H   11.238590   9.989700   9.655772  10.767146  11.613478
    32  H    9.666241   8.331589   8.022294   9.039871   9.935756
    33  H    8.587667   7.499821   7.354297   8.657666   9.367928
    34  H    7.226868   5.915479   5.951918   7.061800   7.891493
    35  H    6.347527   5.202627   4.655603   5.873964   6.613131
    36  H    8.065403   6.680392   6.151334   6.997058   7.939283
    37  H    8.894805   7.617738   6.641961   7.268447   8.177372
    38  H    7.665825   6.504675   5.439154   6.198922   7.022195
    39  H    4.143549   2.853821   2.089769   2.460803   3.442432
    40  H    4.428996   3.363082   2.783162   4.107532   4.751507
    41  H    2.551002   2.126767   1.070000   2.053027   2.282107
    42  H    2.069449   1.070000   2.143197   2.532883   2.914724
    43  H    2.665053   2.152116   2.672493   4.009193   4.245389
    44  H    4.031850   3.395556   4.499419   5.660357   6.002612
    45  H    3.203095   2.594659   3.972976   4.787428   5.083783
                    6          7          8          9         10
     6  C    0.000000
     7  O    1.434983   0.000000
     8  H    1.968529   1.000902   0.000000
     9  C    4.341864   5.704423   6.127786   0.000000
    10  O    5.402352   6.720099   7.270730   1.435043   0.000000
    11  H    6.192690   7.524157   8.003420   1.921818   0.999982
    12  C    2.957861   4.262316   4.775516   1.521045   2.502834
    13  O    2.478733   3.724301   3.958320   2.334497   3.653422
    14  C    1.520655   2.434311   2.632357   3.669052   4.864049
    15  O    2.453975   2.965608   2.635644   4.523659   5.859335
    16  C    3.614761   3.797493   3.396693   5.295710   6.556334
    17  C    4.761216   5.204184   4.844051   5.214397   6.454176
    18  O    4.733902   5.434352   5.330923   4.159715   5.263089
    19  H    4.011312   4.906099   4.888675   3.280726   4.490906
    20  C    6.166161   6.430519   5.999541   6.531021   7.679067
    21  O    7.208143   7.630562   7.188848   6.925117   8.037221
    22  H    8.059444   8.408918   7.969194   7.737671   8.775443
    23  C    4.146409   3.457017   2.621183   7.379705   8.641866
    24  O    3.506475   2.722406   1.732864   7.239677   8.508252
    25  H    4.211105   3.223402   2.301051   8.148191   9.392934
    26  C    4.404533   4.172780   3.469088   6.730545   8.026556
    27  O    5.705085   5.409461   4.756161   7.672115   8.905902
    28  C    6.455400   6.427718   5.814734   7.642746   8.869290
    29  O    7.722024   7.594159   7.004270   8.805467   9.951004
    30  H    4.449928   5.645966   6.379264   3.249475   3.107301
    31  H    8.423743   8.328707   7.682095   9.400896  10.574113
    32  H    6.726845   6.750843   6.044758   7.912313   9.208220
    33  H    6.436623   6.649285   6.328719   6.676912   7.695150
    34  H    4.916482   5.479637   5.038502   5.216499   6.541462
    35  H    3.620758   3.671874   3.474187   5.337477   6.456793
    36  H    4.726151   4.640867   3.845384   6.871023   8.239525
    37  H    5.165513   4.385539   3.506358   8.406530   9.685724
    38  H    4.094932   3.230865   2.615438   7.408857   8.568597
    39  H    1.070000   2.013644   2.181819   4.532823   5.687614
    40  H    2.135212   2.647492   2.967468   4.001643   5.020001
    41  H    2.127647   2.770752   3.694106   4.140234   4.676714
    42  H    2.909334   4.278784   4.781633   2.695966   3.497885
    43  H    3.283779   4.368951   4.974912   2.152574   2.704792
    44  H    4.777054   6.070882   6.376054   1.070000   2.040059
    45  H    4.471628   5.896401   6.250149   1.070000   2.040059
                   11         12         13         14         15
    11  H    0.000000
    12  C    3.262311   0.000000
    13  O    4.196909   1.434819   0.000000
    14  C    5.504096   2.402035   1.435337   0.000000
    15  O    6.345938   3.555308   2.216133   1.435069   0.000000
    16  C    6.942444   4.410562   3.145705   2.416945   1.434907
    17  C    6.622777   4.737355   3.489773   3.365572   2.449738
    18  O    5.370004   3.872187   2.909087   3.217309   2.891334
    19  H    4.685025   2.966853   1.955044   2.533679   2.440131
    20  C    7.746490   6.137033   4.966898   4.790631   3.854980
    21  O    7.933254   6.828288   5.688995   5.801830   4.846508
    22  H    8.632792   7.649958   6.567798   6.639050   5.722579
    23  C    9.178444   6.231367   5.052973   3.837471   2.928590
    24  O    9.127456   6.037285   4.934896   3.697864   2.972335
    25  H   10.045638   6.908798   5.868424   4.607016   3.965006
    26  C    8.424608   5.799571   4.499442   3.583265   2.398892
    27  O    9.219634   6.826793   5.576580   4.754873   3.669550
    28  C    9.029110   7.058922   5.783520   5.292204   4.145594
    29  O   10.063523   8.245675   7.047341   6.544722   5.496154
    30  H    4.004595   3.033797   4.206443   4.865447   6.080649
    31  H   10.632501   8.928699   7.685074   7.254720   6.116175
    32  H    9.336967   7.411137   6.054745   5.641015   4.343088
    33  H    7.765464   6.245416   5.236888   5.027383   4.332111
    34  H    6.656656   4.902461   3.563374   3.632134   2.535186
    35  H    6.898913   4.319635   3.297401   2.430262   2.052650
    36  H    8.581853   6.081586   4.688912   3.962405   2.578649
    37  H   10.197349   7.289888   6.082189   4.899712   3.913742
    38  H    9.154323   6.154815   5.134780   3.811938   3.242203
    39  H    6.425548   3.368187   2.735704   2.095006   2.571348
    40  H    5.664619   2.679830   2.059919   1.070000   2.059594
    41  H    5.617760   2.706321   3.232851   2.781468   4.159245
    42  H    4.282593   2.143550   2.639307   3.280314   4.246021
    43  H    3.475151   1.070000   2.075723   2.648856   3.908481
    44  H    2.078675   2.115055   2.423081   3.791505   4.400996
    45  H    2.380497   2.115055   2.635158   3.988312   4.691051
                   16         17         18         19         20
    16  C    0.000000
    17  C    1.520247   0.000000
    18  O    2.350025   1.435872   0.000000
    19  H    2.440792   1.963694   0.999657   0.000000
    20  C    2.641712   1.519763   2.420856   3.265614   0.000000
    21  O    3.854711   2.460523   3.047736   3.862418   1.434937
    22  H    4.614085   3.301998   3.797404   4.692185   1.995435
    23  C    2.583777   3.877771   4.928205   4.959101   4.463090
    24  O    3.301281   4.663000   5.574587   5.351812   5.538562
    25  H    4.260826   5.613961   6.559532   6.349600   6.394126
    26  C    1.519264   2.469861   3.688741   3.893733   2.977656
    27  O    2.433285   2.803800   4.053769   4.566604   2.517320
    28  C    2.885358   2.434133   3.694526   4.385212   1.520111
    29  O    4.151404   3.656004   4.703665   5.526571   2.358355
    30  H    7.197174   7.686067   6.889744   5.952441   9.132708
    31  H    4.850471   4.228630   5.316019   6.128489   2.897238
    32  H    3.324046   2.809777   4.165492   4.741891   2.126347
    33  H    3.026403   2.124340   2.544607   3.497932   1.070000
    34  H    2.094880   1.070000   2.026614   2.239519   2.092846
    35  H    1.070000   2.127342   2.498259   2.662709   3.001567
    36  H    2.072756   2.626620   3.962550   4.096651   3.152800
    37  H    3.449160   4.555259   5.738003   5.865587   4.868768
    38  H    2.779422   4.165735   5.018168   5.080476   4.710843
    39  H    3.929881   4.978272   5.086292   4.307676   6.422151
    40  H    2.427347   3.406246   3.118214   2.654761   4.657943
    41  H    5.025420   6.018095   5.544651   4.823653   7.353702
    42  H    5.515967   6.043220   5.517280   4.531499   7.550694
    43  H    4.501345   4.871094   3.893557   3.160472   6.148565
    44  H    4.940706   4.581993   3.417259   2.652386   5.782593
    45  H    5.642770   5.564297   4.685791   3.750068   6.936800
                   21         22         23         24         25
    21  O    0.000000
    22  H    1.000289   0.000000
    23  C    5.702523   6.316732   0.000000
    24  O    6.687100   7.412839   1.435200   0.000000
    25  H    7.542741   8.228464   2.046025   0.999609   0.000000
    26  C    4.186960   4.834190   1.519577   2.619708   3.423787
    27  O    3.735059   4.118227   2.466185   3.818864   4.452573
    28  C    2.430928   2.753750   3.733499   4.953173   5.660912
    29  O    2.921532   2.721705   4.756625   6.092844   6.697662
    30  H    9.784083  10.636945   8.513919   7.913240   8.584620
    31  H    3.045300   2.726554   5.373126   6.651436   7.218883
    32  H    2.549888   2.975100   3.960601   5.014587   5.683127
    33  H    2.049855   2.221759   4.858022   6.018495   6.859838
    34  H    2.523784   3.498456   4.167143   4.747846   5.689605
    35  H    4.332097   4.958682   2.862672   3.664042   4.561351
    36  H    4.077990   4.807633   2.071622   2.795121   3.561142
    37  H    6.038139   6.558147   1.070000   2.012968   2.185086
    38  H    6.068141   6.610519   1.070000   2.012968   2.487064
    39  H    7.346696   8.256289   4.314338   3.445837   4.109866
    40  H    5.792241   6.523684   3.901277   4.032859   4.906359
    41  H    8.407156   9.176680   5.826174   5.369818   5.981212
    42  H    8.199258   9.118535   6.765144   6.118960   6.841515
    43  H    6.938879   7.671633   6.332635   6.287034   7.144494
    44  H    6.049811   6.827442   7.249742   7.294517   8.251836
    45  H    7.243177   8.116926   7.592053   7.304303   8.185032
                   26         27         28         29         30
    26  C    0.000000
    27  O    1.435017   0.000000
    28  C    2.382134   1.434854   0.000000
    29  O    3.605388   2.299640   1.435061   0.000000
    30  H    8.420551   9.600677   9.964529  11.203395   0.000000
    31  H    4.222488   2.993335   1.974700   0.960000  11.878425
    32  H    2.657503   2.051715   1.070000   2.052488  10.233746
    33  H    3.496045   2.865750   2.124812   2.468309   9.274045
    34  H    2.790187   3.306840   2.799133   4.113968   7.712146
    35  H    2.126624   2.723164   3.333841   4.363026   7.114744
    36  H    1.070000   2.002408   2.494349   3.824642   8.626372
    37  H    2.085947   2.545290   3.834125   4.663229   9.557300
    38  H    2.085947   2.744459   4.106280   4.967537   8.420740
    39  H    4.569779   5.963981   6.643915   7.990594   4.580423
    40  H    3.646554   4.600134   5.202406   6.307171   5.237626
    41  H    6.046370   7.152019   7.875202   9.002151   3.417780
    42  H    6.628297   7.894193   8.245258   9.571308   2.137138
    43  H    5.922878   6.817219   7.102376   8.173288   3.448773
    44  H    6.403553   7.203783   7.005855   8.106255   4.316611
    45  H    6.978790   8.019000   7.971143   9.213667   3.169480
                   31         32         33         34         35
    31  H    0.000000
    32  H    2.117609   0.000000
    33  H    3.174389   2.987955   0.000000
    34  H    4.491533   2.761527   2.958744   0.000000
    35  H    5.190051   4.014251   3.005977   2.969036   0.000000
    36  H    4.229316   2.314208   3.928204   2.518913   2.965532
    37  H    5.174200   3.950681   5.290457   4.788862   3.755203
    38  H    5.708209   4.567889   4.875818   4.677523   2.638047
    39  H    8.603583   6.746502   6.850590   4.904551   4.203330
    40  H    7.106382   5.741404   4.669008   3.961659   1.969309
    41  H    9.800674   8.334262   7.359975   6.377930   4.643414
    42  H   10.179396   8.389323   7.871802   5.919658   5.668163
    43  H    8.926703   7.597873   6.074474   5.252104   4.157258
    44  H    8.664600   7.281710   5.914841   4.590788   5.022264
    45  H    9.742756   8.105441   7.228889   5.366278   5.856775
                   36         37         38         39         40
    36  H    0.000000
    37  H    2.408744   0.000000
    38  H    2.935522   1.718026   0.000000
    39  H    4.652076   5.261250   4.508363   0.000000
    40  H    4.272797   4.954984   3.604599   2.982179   0.000000
    41  H    6.561459   6.855610   5.457942   2.972171   2.721548
    42  H    6.692565   7.776460   6.861880   2.740367   3.993874
    43  H    6.374025   7.394129   6.083097   3.957192   2.481484
    44  H    6.524013   8.237315   7.313304   4.985304   4.043818
    45  H    6.969836   8.592759   7.748014   4.410140   4.554395
                   41         42         43         44         45
    41  H    0.000000
    42  H    3.011550   0.000000
    43  H    2.522136   3.034074   0.000000
    44  H    4.802008   3.580034   2.548608   0.000000
    45  H    4.551067   2.341853   3.006924   1.734456   0.000000
 Stoichiometry    C12H22O11
 Framework group  C1[X(C12H22O11)]
 Deg. of freedom   129
 Full point group                 C1      NOp   1
 Largest Abelian subgroup         C1      NOp   1
 Largest concise Abelian subgroup C1      NOp   1
                         Standard orientation:                         
 ---------------------------------------------------------------------
 Center     Atomic      Atomic             Coordinates (Angstroms)
 Number     Number       Type             X           Y           Z
 ---------------------------------------------------------------------
      1          8           0        5.007985   -0.427835   -0.440029
      2          6           0        3.744672   -0.147825    0.179551
      3          6           0        3.220472    1.174132   -0.355900
      4          8           0        4.115946    2.168110    0.162112
      5          1           0        5.015625    2.094883   -0.268594
      6          6           0        1.832526    1.629544    0.066377
      7          8           0        1.251321    2.814130   -0.497655
      8          1           0        0.426355    3.006798    0.035369
      9          6           0        3.018758   -2.532864    0.411336
     10          8           0        4.073490   -3.278067   -0.214413
     11          1           0        3.866236   -4.219660    0.050941
     12          6           0        2.704476   -1.182839   -0.214953
     13          8           0        1.454311   -0.800479    0.376312
     14          6           0        0.924181    0.428109   -0.143041
     15          8           0       -0.298866    0.536557    0.599803
     16          6           0       -1.482207    0.202476   -0.139825
     17          6           0       -2.012182   -1.174293    0.227304
     18          8           0       -1.055792   -2.102482   -0.307029
     19          1           0       -0.172176   -1.844865    0.083063
     20          6           0       -3.418558   -1.594314   -0.166866
     21          8           0       -3.901579   -2.705215    0.602311
     22          1           0       -4.693178   -3.099633    0.134996
     23          6           0       -2.174259    2.690202   -0.049318
     24          8           0       -1.142588    3.385863    0.665880
     25          1           0       -1.296148    4.372340    0.715895
     26          6           0       -2.553089    1.234908    0.169140
     27          8           0       -3.799636    0.878304   -0.445861
     28          6           0       -4.303577   -0.375342    0.037066
     29          8           0       -5.509252   -0.639409   -0.695065
     30          1           0        5.655408   -0.641743    0.235758
     31          1           0       -6.216978   -0.848993   -0.081226
     32          1           0       -4.537352   -0.281918    1.077028
     33          1           0       -3.424942   -1.860010   -1.203333
     34          1           0       -1.959707   -1.248849    1.293412
     35          1           0       -1.261410    0.226793   -1.186514
     36          1           0       -2.725044    1.149911    1.221807
     37          1           0       -3.070599    3.254536    0.102346
     38          1           0       -1.925273    2.777973   -1.086238
     39          1           0        1.880754    1.796826    1.122119
     40          1           0        0.705870    0.316152   -1.184533
     41          1           0        3.279173    1.169060   -1.424277
     42          1           0        3.848482   -0.106559    1.243703
     43          1           0        2.619446   -1.260907   -1.278708
     44          1           0        2.129593   -3.127542    0.385960
     45          1           0        3.285860   -2.371772    1.434862
 ---------------------------------------------------------------------
 Rotational constants (GHZ):      0.4012559      0.1476365      0.1111146
 Standard basis: 6-31+G(2df,p) (6D, 7F)
 There are   846 symmetry adapted basis functions of A   symmetry.
 Integral buffers will be    131072 words long.
 Raffenetti 2 integral format.
 Two-electron integral symmetry is turned on.
   846 basis functions,  1258 primitive gaussians,   915 cartesian basis functions
    91 alpha electrons       91 beta electrons
       nuclear repulsion energy      2287.7287553892 Hartrees.
 NAtoms=   45 NActive=   45 NUniq=   45 SFac= 1.00D+00 NAtFMM=   50 NAOKFM=F Big=F
 One-electron integrals computed using PRISM.
 NBasis=   846 RedAO= T  NBF=   846
 NBsUse=   846 1.00D-06 NBFU=   846
 Harris functional with IExCor=  402 diagonalized for initial guess.
 ExpMin= 4.38D-02 ExpMax= 5.48D+03 ExpMxC= 8.25D+02 IAcc=2 IRadAn=         0 AccDes= 0.00D+00
 HarFok:  IExCor=  402 AccDes= 0.00D+00 IRadAn=         0 IDoV= 1
 ScaDFX=  1.000000  1.000000  1.000000  1.000000
 FoFCou: FMM=F IPFlag=           0 FMFlag=      100000 FMFlg1=           0
         NFxFlg=           0 DoJE=T BraDBF=F KetDBF=T FulRan=T
         Omega=  0.000000  0.000000  1.000000  0.000000  0.000000 ICntrl=     500 IOpCl=  0
         NMat0=    1 NMatS0=    1 NMatT0=    0 NMatD0=    1 NMtDS0=    0 NMtDT0=    0
         I1Cent=           4 NGrid=           0.
 Petite list used in FoFCou.
 Initial guess orbital symmetries:
       Occupied  (A) (A) (A) (A) (A) (A) (A) (A) (A) (A) (A) (A)
                 (A) (A) (A) (A) (A) (A) (A) (A) (A) (A) (A) (A)
                 (A) (A) (A) (A) (A) (A) (A) (A) (A) (A) (A) (A)
                 (A) (A) (A) (A) (A) (A) (A) (A) (A) (A) (A) (A)
                 (A) (A) (A) (A) (A) (A) (A) (A) (A) (A) (A) (A)
                 (A) (A) (A) (A) (A) (A) (A) (A) (A) (A) (A) (A)
                 (A) (A) (A) (A) (A) (A) (A) (A) (A) (A) (A) (A)
                 (A) (A) (A) (A) (A) (A) (A)
       Virtual   (A) (A) (A) (A) (A) (A) (A) (A) (A) (A) (A) (A)
                 (A) (A) (A) (A) (A) (A) (A) (A) (A) (A) (A) (A)
                 (A) (A) (A) (A) (A) (A) (A) (A) (A) (A) (A) (A)
                 (A) (A) (A) (A) (A) (A) (A) (A) (A) (A) (A) (A)
                 (A) (A) (A) (A) (A) (A) (A) (A) (A) (A) (A) (A)
                 (A) (A) (A) (A) (A) (A) (A) (A) (A) (A) (A) (A)
                 (A) (A) (A) (A) (A) (A) (A) (A) (A) (A) (A) (A)
                 (A) (A) (A) (A) (A) (A) (A) (A) (A) (A) (A) (A)
                 (A) (A) (A) (A) (A) (A) (A) (A) (A) (A) (A) (A)
                 (A) (A) (A) (A) (A) (A) (A) (A) (A) (A) (A) (A)
                 (A) (A) (A) (A) (A) (A) (A) (A) (A) (A) (A) (A)
                 (A) (A) (A) (A) (A) (A) (A) (A) (A) (A) (A) (A)
                 (A) (A) (A) (A) (A) (A) (A) (A) (A) (A) (A) (A)
                 (A) (A) (A) (A) (A) (A) (A) (A) (A) (A) (A) (A)
                 (A) (A) (A) (A) (A) (A) (A) (A) (A) (A) (A) (A)
                 (A) (A) (A) (A) (A) (A) (A) (A) (A) (A) (A) (A)
                 (A) (A) (A) (A) (A) (A) (A) (A) (A) (A) (A) (A)
                 (A) (A) (A) (A) (A) (A) (A) (A) (A) (A) (A) (A)
                 (A) (A) (A) (A) (A) (A) (A) (A) (A) (A) (A) (A)
                 (A) (A) (A) (A) (A) (A) (A) (A) (A) (A) (A) (A)
                 (A) (A) (A) (A) (A) (A) (A) (A) (A) (A) (A) (A)
                 (A) (A) (A) (A) (A) (A) (A) (A) (A) (A) (A) (A)
                 (A) (A) (A) (A) (A) (A) (A) (A) (A) (A) (A) (A)
                 (A) (A) (A) (A) (A) (A) (A) (A) (A) (A) (A) (A)
                 (A) (A) (A) (A) (A) (A) (A) (A) (A) (A) (A) (A)
                 (A) (A) (A) (A) (A) (A) (A) (A) (A) (A) (A) (A)
                 (A) (A) (A) (A) (A) (A) (A) (A) (A) (A) (A) (A)
                 (A) (A) (A) (A) (A) (A) (A) (A) (A) (A) (A) (A)
                 (A) (A) (A) (A) (A) (A) (A) (A) (A) (A) (A) (A)
                 (A) (A) (A) (A) (A) (A) (A) (A) (A) (A) (A) (A)
                 (A) (A) (A) (A) (A) (A) (A) (A) (A) (A) (A) (A)
                 (A) (A) (A) (A) (A) (A) (A) (A) (A) (A) (A) (A)
                 (A) (A) (A) (A) (A) (A) (A) (A) (A) (A) (A) (A)
                 (A) (A) (A) (A) (A) (A) (A) (A) (A) (A) (A) (A)
                 (A) (A) (A) (A) (A) (A) (A) (A) (A) (A) (A) (A)
                 (A) (A) (A) (A) (A) (A) (A) (A) (A) (A) (A) (A)
                 (A) (A) (A) (A) (A) (A) (A) (A) (A) (A) (A) (A)
                 (A) (A) (A) (A) (A) (A) (A) (A) (A) (A) (A) (A)
                 (A) (A) (A) (A) (A) (A) (A) (A) (A) (A) (A) (A)
                 (A) (A) (A) (A) (A) (A) (A) (A) (A) (A) (A) (A)
                 (A) (A) (A) (A) (A) (A) (A) (A) (A) (A) (A) (A)
                 (A) (A) (A) (A) (A) (A) (A) (A) (A) (A) (A) (A)
                 (A) (A) (A) (A) (A) (A) (A) (A) (A) (A) (A) (A)
                 (A) (A) (A) (A) (A) (A) (A) (A) (A) (A) (A) (A)
                 (A) (A) (A) (A) (A) (A) (A) (A) (A) (A) (A) (A)
                 (A) (A) (A) (A) (A) (A) (A) (A) (A) (A) (A) (A)
                 (A) (A) (A) (A) (A) (A) (A) (A) (A) (A) (A) (A)
                 (A) (A) (A) (A) (A) (A) (A) (A) (A) (A) (A) (A)
                 (A) (A) (A) (A) (A) (A) (A) (A) (A) (A) (A) (A)
                 (A) (A) (A) (A) (A) (A) (A) (A) (A) (A) (A) (A)
                 (A) (A) (A) (A) (A) (A) (A) (A) (A) (A) (A) (A)
                 (A) (A) (A) (A) (A) (A) (A) (A) (A) (A) (A) (A)
                 (A) (A) (A) (A) (A) (A) (A) (A) (A) (A) (A) (A)
                 (A) (A) (A) (A) (A) (A) (A) (A) (A) (A) (A) (A)
                 (A) (A) (A) (A) (A) (A) (A) (A) (A) (A) (A) (A)
                 (A) (A) (A) (A) (A) (A) (A) (A) (A) (A) (A) (A)
                 (A) (A) (A) (A) (A) (A) (A) (A) (A) (A) (A) (A)
                 (A) (A) (A) (A) (A) (A) (A) (A) (A) (A) (A) (A)
                 (A) (A) (A) (A) (A) (A) (A) (A) (A) (A) (A) (A)
                 (A) (A) (A) (A) (A) (A) (A) (A) (A) (A) (A) (A)
                 (A) (A) (A) (A) (A) (A) (A) (A) (A) (A) (A) (A)
                 (A) (A) (A) (A) (A) (A) (A) (A) (A) (A) (A) (A)
                 (A) (A) (A) (A) (A) (A) (A) (A) (A) (A) (A)
 The electronic state of the initial guess is 1-A.
 Requested convergence on RMS density matrix=1.00D-08 within 128 cycles.
 Requested convergence on MAX density matrix=1.00D-06.
 Requested convergence on             energy=1.00D-06.
 No special actions if energy rises.
 SCF Done:  E(RB3LYP) =  -1298.01411815     A.U. after   13 cycles
             Convg  =    0.3157D-08             -V/T =  2.0066
 Range of M.O.s used for correlation:     1   846
 NBasis=   846 NAE=    91 NBE=    91 NFC=     0 NFV=     0
 NROrb=    846 NOA=    91 NOB=    91 NVA=   755 NVB=   755

 **** Warning!!: The largest alpha MO coefficient is  0.72852122D+02

          Differentiating once with respect to electric field.
                with respect to dipole field.
          Electric field/nuclear overlap derivatives assumed to be zero.
          There are     3 degrees of freedom in the 1st order CPHF.  IDoFFX=0.
      3 vectors produced by pass  0 Test12= 2.29D-12 3.33D-08 XBig12= 1.21D+02 1.09D+00.
 AX will form     3 AO Fock derivatives at one time.
      3 vectors produced by pass  1 Test12= 2.29D-12 3.33D-08 XBig12= 2.74D+01 3.70D-01.
      3 vectors produced by pass  2 Test12= 2.29D-12 3.33D-08 XBig12= 1.12D+01 3.20D-01.
      3 vectors produced by pass  3 Test12= 2.29D-12 3.33D-08 XBig12= 1.08D+00 7.73D-02.
      3 vectors produced by pass  4 Test12= 2.29D-12 3.33D-08 XBig12= 2.90D-01 5.28D-02.
      3 vectors produced by pass  5 Test12= 2.29D-12 3.33D-08 XBig12= 5.98D-02 2.31D-02.
      3 vectors produced by pass  6 Test12= 2.29D-12 3.33D-08 XBig12= 1.82D-02 1.56D-02.
      3 vectors produced by pass  7 Test12= 2.29D-12 3.33D-08 XBig12= 2.48D-03 8.34D-03.
      3 vectors produced by pass  8 Test12= 2.29D-12 3.33D-08 XBig12= 4.48D-04 2.14D-03.
      3 vectors produced by pass  9 Test12= 2.29D-12 3.33D-08 XBig12= 1.13D-04 1.14D-03.
      3 vectors produced by pass 10 Test12= 2.29D-12 3.33D-08 XBig12= 3.25D-05 4.93D-04.
      3 vectors produced by pass 11 Test12= 2.29D-12 3.33D-08 XBig12= 8.09D-06 3.22D-04.
      3 vectors produced by pass 12 Test12= 2.29D-12 3.33D-08 XBig12= 9.67D-07 1.19D-04.
      3 vectors produced by pass 13 Test12= 2.29D-12 3.33D-08 XBig12= 1.94D-07 3.90D-05.
      3 vectors produced by pass 14 Test12= 2.29D-12 3.33D-08 XBig12= 4.13D-08 2.12D-05.
      3 vectors produced by pass 15 Test12= 2.29D-12 3.33D-08 XBig12= 1.37D-08 9.48D-06.
      3 vectors produced by pass 16 Test12= 2.29D-12 3.33D-08 XBig12= 1.68D-09 3.79D-06.
      3 vectors produced by pass 17 Test12= 2.29D-12 3.33D-08 XBig12= 2.36D-10 1.46D-06.
      3 vectors produced by pass 18 Test12= 2.29D-12 3.33D-08 XBig12= 3.70D-11 4.48D-07.
      3 vectors produced by pass 19 Test12= 2.29D-12 3.33D-08 XBig12= 1.38D-11 2.26D-07.
      2 vectors produced by pass 20 Test12= 2.29D-12 3.33D-08 XBig12= 1.09D-11 2.41D-07.
      2 vectors produced by pass 21 Test12= 2.29D-12 3.33D-08 XBig12= 3.24D-12 1.02D-07.
      1 vectors produced by pass 22 Test12= 2.29D-12 3.33D-08 XBig12= 2.51D-12 2.36D-07.
 Inverted reduced A of dimension    65 with in-core refinement.
 End of Minotr Frequency-dependent properties file   721 does not exist.
 End of Minotr Frequency-dependent properties file   722 does not exist.
 Symmetrizing basis deriv contribution to polar:
 IMax=3 JMax=2 DiffMx= 0.00D+00
 G2DrvN: will do     8 centers at a time, making    6 passes doing MaxLOS=3.
 Calling FoFCou, ICntrl=  3107 FMM=F I1Cent=   0 AccDes= 0.00D+00.
 Calling FoFCou, ICntrl=  3107 FMM=F I1Cent=   0 AccDes= 0.00D+00.
 Calling FoFCou, ICntrl=  3107 FMM=F I1Cent=   0 AccDes= 0.00D+00.
 Calling FoFCou, ICntrl=  3107 FMM=F I1Cent=   0 AccDes= 0.00D+00.
 Calling FoFCou, ICntrl=  3107 FMM=F I1Cent=   0 AccDes= 0.00D+00.
 Calling FoFCou, ICntrl=  3107 FMM=F I1Cent=   0 AccDes= 0.00D+00.
 FoFDir/FoFCou used for L=0 through L=3.
 End of G2Drv Frequency-dependent properties file   721 does not exist.
 End of G2Drv Frequency-dependent properties file   722 does not exist.
          IDoAtm=111111111111111111111111111111111111111111111
          Differentiating once with respect to electric field.
                with respect to dipole field.
          Differentiating once with respect to nuclear coordinates.
          There are   138 degrees of freedom in the 1st order CPHF.  IDoFFX=5.
 Will reuse    3 saved solutions.
    135 vectors produced by pass  0 Test12= 6.87D-14 1.00D-09 XBig12= 1.45D-01 7.39D-02.
 AX will form    27 AO Fock derivatives at one time.
    135 vectors produced by pass  1 Test12= 6.87D-14 1.00D-09 XBig12= 2.03D-02 1.15D-02.
    132 vectors produced by pass  2 Test12= 6.87D-14 1.00D-09 XBig12= 1.69D-04 1.22D-03.
    132 vectors produced by pass  3 Test12= 6.87D-14 1.00D-09 XBig12= 1.01D-06 7.95D-05.
    132 vectors produced by pass  4 Test12= 6.87D-14 1.00D-09 XBig12= 2.60D-09 3.66D-06.
    132 vectors produced by pass  5 Test12= 6.87D-14 1.00D-09 XBig12= 5.87D-12 1.39D-07.
     94 vectors produced by pass  6 Test12= 6.87D-14 1.00D-09 XBig12= 2.02D-13 3.26D-08.
      1 vectors produced by pass  7 Test12= 6.87D-14 1.00D-09 XBig12= 5.29D-16 1.13D-09.
 Inverted reduced A of dimension   893 with in-core refinement.
 Isotropic polarizability for W=    0.000000      191.46 Bohr**3.
 End of Minotr Frequency-dependent properties file   721 does not exist.
 End of Minotr Frequency-dependent properties file   722 does not exist.

 **********************************************************************

            Population analysis using the SCF density.

 **********************************************************************

 Orbital symmetries:
       Occupied  (A) (A) (A) (A) (A) (A) (A) (A) (A) (A) (A) (A)
                 (A) (A) (A) (A) (A) (A) (A) (A) (A) (A) (A) (A)
                 (A) (A) (A) (A) (A) (A) (A) (A) (A) (A) (A) (A)
                 (A) (A) (A) (A) (A) (A) (A) (A) (A) (A) (A) (A)
                 (A) (A) (A) (A) (A) (A) (A) (A) (A) (A) (A) (A)
                 (A) (A) (A) (A) (A) (A) (A) (A) (A) (A) (A) (A)
                 (A) (A) (A) (A) (A) (A) (A) (A) (A) (A) (A) (A)
                 (A) (A) (A) (A) (A) (A) (A)
       Virtual   (A) (A) (A) (A) (A) (A) (A) (A) (A) (A) (A) (A)
                 (A) (A) (A) (A) (A) (A) (A) (A) (A) (A) (A) (A)
                 (A) (A) (A) (A) (A) (A) (A) (A) (A) (A) (A) (A)
                 (A) (A) (A) (A) (A) (A) (A) (A) (A) (A) (A) (A)
                 (A) (A) (A) (A) (A) (A) (A) (A) (A) (A) (A) (A)
                 (A) (A) (A) (A) (A) (A) (A) (A) (A) (A) (A) (A)
                 (A) (A) (A) (A) (A) (A) (A) (A) (A) (A) (A) (A)
                 (A) (A) (A) (A) (A) (A) (A) (A) (A) (A) (A) (A)
                 (A) (A) (A) (A) (A) (A) (A) (A) (A) (A) (A) (A)
                 (A) (A) (A) (A) (A) (A) (A) (A) (A) (A) (A) (A)
                 (A) (A) (A) (A) (A) (A) (A) (A) (A) (A) (A) (A)
                 (A) (A) (A) (A) (A) (A) (A) (A) (A) (A) (A) (A)
                 (A) (A) (A) (A) (A) (A) (A) (A) (A) (A) (A) (A)
                 (A) (A) (A) (A) (A) (A) (A) (A) (A) (A) (A) (A)
                 (A) (A) (A) (A) (A) (A) (A) (A) (A) (A) (A) (A)
                 (A) (A) (A) (A) (A) (A) (A) (A) (A) (A) (A) (A)
                 (A) (A) (A) (A) (A) (A) (A) (A) (A) (A) (A) (A)
                 (A) (A) (A) (A) (A) (A) (A) (A) (A) (A) (A) (A)
                 (A) (A) (A) (A) (A) (A) (A) (A) (A) (A) (A) (A)
                 (A) (A) (A) (A) (A) (A) (A) (A) (A) (A) (A) (A)
                 (A) (A) (A) (A) (A) (A) (A) (A) (A) (A) (A) (A)
                 (A) (A) (A) (A) (A) (A) (A) (A) (A) (A) (A) (A)
                 (A) (A) (A) (A) (A) (A) (A) (A) (A) (A) (A) (A)
                 (A) (A) (A) (A) (A) (A) (A) (A) (A) (A) (A) (A)
                 (A) (A) (A) (A) (A) (A) (A) (A) (A) (A) (A) (A)
                 (A) (A) (A) (A) (A) (A) (A) (A) (A) (A) (A) (A)
                 (A) (A) (A) (A) (A) (A) (A) (A) (A) (A) (A) (A)
                 (A) (A) (A) (A) (A) (A) (A) (A) (A) (A) (A) (A)
                 (A) (A) (A) (A) (A) (A) (A) (A) (A) (A) (A) (A)
                 (A) (A) (A) (A) (A) (A) (A) (A) (A) (A) (A) (A)
                 (A) (A) (A) (A) (A) (A) (A) (A) (A) (A) (A) (A)
                 (A) (A) (A) (A) (A) (A) (A) (A) (A) (A) (A) (A)
                 (A) (A) (A) (A) (A) (A) (A) (A) (A) (A) (A) (A)
                 (A) (A) (A) (A) (A) (A) (A) (A) (A) (A) (A) (A)
                 (A) (A) (A) (A) (A) (A) (A) (A) (A) (A) (A) (A)
                 (A) (A) (A) (A) (A) (A) (A) (A) (A) (A) (A) (A)
                 (A) (A) (A) (A) (A) (A) (A) (A) (A) (A) (A) (A)
                 (A) (A) (A) (A) (A) (A) (A) (A) (A) (A) (A) (A)
                 (A) (A) (A) (A) (A) (A) (A) (A) (A) (A) (A) (A)
                 (A) (A) (A) (A) (A) (A) (A) (A) (A) (A) (A) (A)
                 (A) (A) (A) (A) (A) (A) (A) (A) (A) (A) (A) (A)
                 (A) (A) (A) (A) (A) (A) (A) (A) (A) (A) (A) (A)
                 (A) (A) (A) (A) (A) (A) (A) (A) (A) (A) (A) (A)
                 (A) (A) (A) (A) (A) (A) (A) (A) (A) (A) (A) (A)
                 (A) (A) (A) (A) (A) (A) (A) (A) (A) (A) (A) (A)
                 (A) (A) (A) (A) (A) (A) (A) (A) (A) (A) (A) (A)
                 (A) (A) (A) (A) (A) (A) (A) (A) (A) (A) (A) (A)
                 (A) (A) (A) (A) (A) (A) (A) (A) (A) (A) (A) (A)
                 (A) (A) (A) (A) (A) (A) (A) (A) (A) (A) (A) (A)
                 (A) (A) (A) (A) (A) (A) (A) (A) (A) (A) (A) (A)
                 (A) (A) (A) (A) (A) (A) (A) (A) (A) (A) (A) (A)
                 (A) (A) (A) (A) (A) (A) (A) (A) (A) (A) (A) (A)
                 (A) (A) (A) (A) (A) (A) (A) (A) (A) (A) (A) (A)
                 (A) (A) (A) (A) (A) (A) (A) (A) (A) (A) (A) (A)
                 (A) (A) (A) (A) (A) (A) (A) (A) (A) (A) (A) (A)
                 (A) (A) (A) (A) (A) (A) (A) (A) (A) (A) (A) (A)
                 (A) (A) (A) (A) (A) (A) (A) (A) (A) (A) (A) (A)
                 (A) (A) (A) (A) (A) (A) (A) (A) (A) (A) (A) (A)
                 (A) (A) (A) (A) (A) (A) (A) (A) (A) (A) (A) (A)
                 (A) (A) (A) (A) (A) (A) (A) (A) (A) (A) (A) (A)
                 (A) (A) (A) (A) (A) (A) (A) (A) (A) (A) (A) (A)
                 (A) (A) (A) (A) (A) (A) (A) (A) (A) (A) (A) (A)
                 (A) (A) (A) (A) (A) (A) (A) (A) (A) (A) (A)
 The electronic state is 1-A.
 Alpha  occ. eigenvalues --  -19.19069 -19.18192 -19.18165 -19.17780 -19.17392
 Alpha  occ. eigenvalues --  -19.17072 -19.16739 -19.16222 -19.14624 -19.13937
 Alpha  occ. eigenvalues --  -19.13873 -10.30203 -10.29727 -10.25826 -10.25431
 Alpha  occ. eigenvalues --  -10.25054 -10.24929 -10.24855 -10.24820 -10.24216
 Alpha  occ. eigenvalues --  -10.24144 -10.23917 -10.23737  -1.09747  -1.08646
 Alpha  occ. eigenvalues --   -1.05428  -1.05025  -1.03792  -1.03693  -1.02775
 Alpha  occ. eigenvalues --   -1.02459  -1.01756  -1.00833  -1.00131  -0.81727
 Alpha  occ. eigenvalues --   -0.79918  -0.79120  -0.78097  -0.71992  -0.69821
 Alpha  occ. eigenvalues --   -0.66930  -0.64637  -0.63297  -0.62241  -0.61026
 Alpha  occ. eigenvalues --   -0.59899  -0.56181  -0.55663  -0.54937  -0.54526
 Alpha  occ. eigenvalues --   -0.53938  -0.53162  -0.52653  -0.52278  -0.51194
 Alpha  occ. eigenvalues --   -0.50579  -0.49828  -0.48996  -0.48369  -0.46779
 Alpha  occ. eigenvalues --   -0.45980  -0.44727  -0.44237  -0.43421  -0.43068
 Alpha  occ. eigenvalues --   -0.42755  -0.41868  -0.41160  -0.40077  -0.38876
 Alpha  occ. eigenvalues --   -0.38726  -0.37776  -0.36833  -0.36392  -0.36075
 Alpha  occ. eigenvalues --   -0.35139  -0.34755  -0.34353  -0.33990  -0.33339
 Alpha  occ. eigenvalues --   -0.32496  -0.31671  -0.30967  -0.30673  -0.29939
 Alpha  occ. eigenvalues --   -0.29656  -0.28889  -0.28387  -0.27500  -0.26389
 Alpha  occ. eigenvalues --   -0.26184
 Alpha virt. eigenvalues --   -0.02166  -0.01654  -0.01563   0.00025   0.00368
 Alpha virt. eigenvalues --    0.00973   0.02071   0.02177   0.02838   0.03304
 Alpha virt. eigenvalues --    0.03799   0.04488   0.04964   0.05250   0.05601
 Alpha virt. eigenvalues --    0.06572   0.06849   0.07411   0.08042   0.08115
 Alpha virt. eigenvalues --    0.08488   0.08751   0.09065   0.09545   0.10120
 Alpha virt. eigenvalues --    0.10521   0.10858   0.11498   0.11978   0.12180
 Alpha virt. eigenvalues --    0.12434   0.12803   0.13386   0.13589   0.13716
 Alpha virt. eigenvalues --    0.13831   0.14391   0.14634   0.14904   0.15327
 Alpha virt. eigenvalues --    0.15656   0.16391   0.16981   0.17091   0.17275
 Alpha virt. eigenvalues --    0.17613   0.17749   0.17807   0.18227   0.18709
 Alpha virt. eigenvalues --    0.18987   0.19109   0.19600   0.19933   0.20130
 Alpha virt. eigenvalues --    0.20730   0.20891   0.21234   0.21666   0.21883
 Alpha virt. eigenvalues --    0.22224   0.22399   0.22436   0.23163   0.23181
 Alpha virt. eigenvalues --    0.23547   0.23674   0.24393   0.24603   0.24775
 Alpha virt. eigenvalues --    0.24916   0.25307   0.25754   0.25870   0.26114
 Alpha virt. eigenvalues --    0.26510   0.26548   0.26747   0.27262   0.27389
 Alpha virt. eigenvalues --    0.27561   0.28117   0.28337   0.28562   0.28923
 Alpha virt. eigenvalues --    0.29141   0.29251   0.29722   0.30303   0.30668
 Alpha virt. eigenvalues --    0.31076   0.31615   0.31735   0.31971   0.32374
 Alpha virt. eigenvalues --    0.32765   0.32877   0.33136   0.33447   0.33599
 Alpha virt. eigenvalues --    0.34259   0.34896   0.34982   0.35299   0.35497
 Alpha virt. eigenvalues --    0.36050   0.36192   0.36677   0.37060   0.37479
 Alpha virt. eigenvalues --    0.37743   0.37910   0.38400   0.39108   0.39701
 Alpha virt. eigenvalues --    0.40095   0.40237   0.40527   0.40931   0.41557
 Alpha virt. eigenvalues --    0.41762   0.42109   0.42637   0.43045   0.43206
 Alpha virt. eigenvalues --    0.44067   0.44301   0.44883   0.45605   0.46269
 Alpha virt. eigenvalues --    0.46490   0.46812   0.48153   0.48618   0.49293
 Alpha virt. eigenvalues --    0.49866   0.50089   0.54030   0.57292   0.58365
 Alpha virt. eigenvalues --    0.59049   0.60588   0.61117   0.61517   0.62201
 Alpha virt. eigenvalues --    0.62598   0.64095   0.64950   0.65105   0.66009
 Alpha virt. eigenvalues --    0.66712   0.67432   0.68225   0.68946   0.70036
 Alpha virt. eigenvalues --    0.70501   0.71178   0.71756   0.72527   0.73301
 Alpha virt. eigenvalues --    0.73622   0.74332   0.74784   0.75014   0.75623
 Alpha virt. eigenvalues --    0.76697   0.77785   0.79069   0.79223   0.80530
 Alpha virt. eigenvalues --    0.80950   0.82001   0.82424   0.82974   0.84815
 Alpha virt. eigenvalues --    0.86561   0.87424   0.88101   0.88520   0.89280
 Alpha virt. eigenvalues --    0.89492   0.89912   0.90317   0.90636   0.91310
 Alpha virt. eigenvalues --    0.92241   0.92446   0.92655   0.93597   0.93833
 Alpha virt. eigenvalues --    0.93999   0.94565   0.95271   0.95488   0.95870
 Alpha virt. eigenvalues --    0.96394   0.96914   0.97295   0.97967   0.98524
 Alpha virt. eigenvalues --    0.99347   0.99884   1.00552   1.02046   1.02297
 Alpha virt. eigenvalues --    1.02922   1.03380   1.04315   1.04981   1.05136
 Alpha virt. eigenvalues --    1.06048   1.06377   1.07187   1.07620   1.08001
 Alpha virt. eigenvalues --    1.08669   1.08969   1.09268   1.10207   1.10584
 Alpha virt. eigenvalues --    1.10829   1.11061   1.12953   1.13586   1.13927
 Alpha virt. eigenvalues --    1.14415   1.14863   1.15003   1.15365   1.16028
 Alpha virt. eigenvalues --    1.16329   1.16699   1.17825   1.18144   1.18979
 Alpha virt. eigenvalues --    1.19456   1.19561   1.20650   1.20790   1.21849
 Alpha virt. eigenvalues --    1.22188   1.22770   1.23287   1.23744   1.24184
 Alpha virt. eigenvalues --    1.25226   1.25540   1.26262   1.26879   1.27969
 Alpha virt. eigenvalues --    1.28115   1.28779   1.29543   1.29916   1.31501
 Alpha virt. eigenvalues --    1.31816   1.32344   1.32464   1.32745   1.33753
 Alpha virt. eigenvalues --    1.34264   1.35417   1.36138   1.36305   1.36550
 Alpha virt. eigenvalues --    1.37570   1.37956   1.39012   1.39403   1.40547
 Alpha virt. eigenvalues --    1.41107   1.41760   1.42553   1.42896   1.43647
 Alpha virt. eigenvalues --    1.44216   1.45536   1.45749   1.46562   1.47364
 Alpha virt. eigenvalues --    1.48300   1.49029   1.49501   1.50409   1.50541
 Alpha virt. eigenvalues --    1.52586   1.53019   1.53613   1.54244   1.55549
 Alpha virt. eigenvalues --    1.58183   1.58801   1.59038   1.59212   1.59986
 Alpha virt. eigenvalues --    1.60397   1.61371   1.61938   1.62181   1.63598
 Alpha virt. eigenvalues --    1.64224   1.64902   1.65867   1.67003   1.67947
 Alpha virt. eigenvalues --    1.67998   1.68524   1.69536   1.71031   1.72079
 Alpha virt. eigenvalues --    1.72531   1.73703   1.74987   1.75429   1.76115
 Alpha virt. eigenvalues --    1.76809   1.77443   1.78361   1.80593   1.81268
 Alpha virt. eigenvalues --    1.81712   1.82668   1.82819   1.84282   1.85076
 Alpha virt. eigenvalues --    1.86192   1.87112   1.88694   1.89753   1.91169
 Alpha virt. eigenvalues --    1.92655   1.93152   1.93750   1.94500   1.95975
 Alpha virt. eigenvalues --    1.96489   1.97497   1.98402   1.98791   1.99665
 Alpha virt. eigenvalues --    2.00898   2.02084   2.03923   2.04603   2.04845
 Alpha virt. eigenvalues --    2.05245   2.07168   2.09563   2.11327   2.13214
 Alpha virt. eigenvalues --    2.14477   2.16117   2.17333   2.19504   2.19706
 Alpha virt. eigenvalues --    2.20497   2.22983   2.23684   2.25139   2.25769
 Alpha virt. eigenvalues --    2.25947   2.27513   2.28545   2.30173   2.31973
 Alpha virt. eigenvalues --    2.33360   2.33848   2.35804   2.39995   2.42133
 Alpha virt. eigenvalues --    2.43242   2.44236   2.44924   2.47384   2.51121
 Alpha virt. eigenvalues --    2.51947   2.52373   2.53941   2.54697   2.55478
 Alpha virt. eigenvalues --    2.55816   2.57206   2.58739   2.59180   2.61295
 Alpha virt. eigenvalues --    2.61535   2.62592   2.62766   2.63287   2.64986
 Alpha virt. eigenvalues --    2.66478   2.67838   2.69354   2.70357   2.71542
 Alpha virt. eigenvalues --    2.73160   2.74551   2.76157   2.76987   2.77265
 Alpha virt. eigenvalues --    2.79129   2.79815   2.79962   2.81685   2.83255
 Alpha virt. eigenvalues --    2.84931   2.86044   2.86723   2.87835   2.88072
 Alpha virt. eigenvalues --    2.89418   2.89894   2.91452   2.91820   2.92128
 Alpha virt. eigenvalues --    2.93604   2.95368   2.95835   2.96961   2.98007
 Alpha virt. eigenvalues --    2.99215   2.99380   3.00490   3.01928   3.02228
 Alpha virt. eigenvalues --    3.02990   3.03962   3.05603   3.06004   3.07455
 Alpha virt. eigenvalues --    3.08947   3.09012   3.09698   3.10224   3.11883
 Alpha virt. eigenvalues --    3.12827   3.13792   3.14686   3.15639   3.18072
 Alpha virt. eigenvalues --    3.18246   3.20090   3.21080   3.22650   3.22863
 Alpha virt. eigenvalues --    3.23776   3.25203   3.26157   3.26584   3.27177
 Alpha virt. eigenvalues --    3.28182   3.30558   3.31498   3.31984   3.33815
 Alpha virt. eigenvalues --    3.34857   3.36909   3.38845   3.39053   3.39841
 Alpha virt. eigenvalues --    3.41517   3.41540   3.42594   3.43889   3.44476
 Alpha virt. eigenvalues --    3.45665   3.46833   3.47525   3.49994   3.52116
 Alpha virt. eigenvalues --    3.54707   3.58085   3.58643   3.60211   3.60718
 Alpha virt. eigenvalues --    3.61763   3.62306   3.63171   3.63885   3.65255
 Alpha virt. eigenvalues --    3.66166   3.67689   3.70077   3.72451   3.73099
 Alpha virt. eigenvalues --    3.74462   3.76475   3.77178   3.78255   3.78706
 Alpha virt. eigenvalues --    3.80773   3.82337   3.83334   3.84666   3.86259
 Alpha virt. eigenvalues --    3.87048   3.87577   3.88307   3.89750   3.90536
 Alpha virt. eigenvalues --    3.92138   3.93989   3.95692   3.99288   4.00108
 Alpha virt. eigenvalues --    4.03470   4.05446   4.08271   4.09410   4.14868
 Alpha virt. eigenvalues --    4.15760   4.16473   4.17010   4.18917   4.19295
 Alpha virt. eigenvalues --    4.20756   4.21651   4.22029   4.23683   4.25824
 Alpha virt. eigenvalues --    4.27943   4.28327   4.29018   4.29273   4.30891
 Alpha virt. eigenvalues --    4.31561   4.32131   4.33286   4.34048   4.35333
 Alpha virt. eigenvalues --    4.36196   4.36485   4.36839   4.37379   4.38851
 Alpha virt. eigenvalues --    4.39533   4.40010   4.41516   4.41712   4.42925
 Alpha virt. eigenvalues --    4.44319   4.45467   4.46204   4.46553   4.47984
 Alpha virt. eigenvalues --    4.48476   4.49542   4.50039   4.50307   4.50885
 Alpha virt. eigenvalues --    4.51534   4.53048   4.53336   4.53709   4.55046
 Alpha virt. eigenvalues --    4.55374   4.56866   4.57136   4.57656   4.58734
 Alpha virt. eigenvalues --    4.59911   4.60592   4.60753   4.61371   4.61793
 Alpha virt. eigenvalues --    4.62454   4.63209   4.63573   4.64245   4.65020
 Alpha virt. eigenvalues --    4.66006   4.67002   4.67960   4.68744   4.69421
 Alpha virt. eigenvalues --    4.69821   4.70531   4.71225   4.71586   4.72814
 Alpha virt. eigenvalues --    4.73881   4.74066   4.74528   4.75041   4.76266
 Alpha virt. eigenvalues --    4.76528   4.77080   4.78076   4.78493   4.79540
 Alpha virt. eigenvalues --    4.79760   4.81269   4.81750   4.82051   4.82389
 Alpha virt. eigenvalues --    4.83399   4.84131   4.84875   4.85444   4.85971
 Alpha virt. eigenvalues --    4.86926   4.87434   4.88852   4.89192   4.90091
 Alpha virt. eigenvalues --    4.90964   4.91579   4.92717   4.93420   4.95214
 Alpha virt. eigenvalues --    4.97371   4.98314   4.98822   5.01440   5.02641
 Alpha virt. eigenvalues --    5.03521   5.05373   5.06126   5.07180   5.09862
 Alpha virt. eigenvalues --    5.12190   5.14829   5.15088   5.16817   5.17773
 Alpha virt. eigenvalues --    5.19328   5.19980   5.20542   5.22946   5.23330
 Alpha virt. eigenvalues --    5.25471   5.25756   5.26772   5.27304   5.29617
 Alpha virt. eigenvalues --    5.30121   5.31094   5.31800   5.33856   5.35868
 Alpha virt. eigenvalues --    5.36822   5.38635   5.39172   5.39600   5.41485
 Alpha virt. eigenvalues --    5.41650   5.42103   5.42660   5.43579   5.44056
 Alpha virt. eigenvalues --    5.45010   5.45406   5.45727   5.46535   5.47513
 Alpha virt. eigenvalues --    5.47564   5.49803   5.50016   5.51512   5.52151
 Alpha virt. eigenvalues --    5.52302   5.53457   5.54243   5.55835   5.56636
 Alpha virt. eigenvalues --    5.57721   5.59562   5.61553   5.62641   5.65797
 Alpha virt. eigenvalues --    5.67924   5.68422   5.69904   5.70933   5.73786
 Alpha virt. eigenvalues --    5.78070   5.79407   5.80136   5.81772   5.82728
 Alpha virt. eigenvalues --    5.85408   5.85849   5.87073   5.88160   5.88854
 Alpha virt. eigenvalues --    5.90225   5.90916   5.91725   5.92511   5.94360
 Alpha virt. eigenvalues --    5.95445   5.97297   5.98009   5.98983   5.99842
 Alpha virt. eigenvalues --    6.02784   6.03490   6.04620   6.04726   6.07343
 Alpha virt. eigenvalues --    6.08062   6.08843   6.10476   6.11057   6.13145
 Alpha virt. eigenvalues --    6.13899   6.15288   6.18325   6.19823   6.20857
 Alpha virt. eigenvalues --    6.23647   6.24126   6.26581   6.31166   6.33570
 Alpha virt. eigenvalues --    6.52400   6.64089   6.93194   6.99377   7.07388
 Alpha virt. eigenvalues --    7.12340   7.15103   7.20050   7.25452   7.28336
 Alpha virt. eigenvalues --    7.30488   7.38661   7.48556   7.61809   7.66530
 Alpha virt. eigenvalues --    7.77223   8.07323  12.08245  12.09230  12.20292
 Alpha virt. eigenvalues --   12.35353  12.45136  12.53916  12.81718  12.92125
 Alpha virt. eigenvalues --   13.00868  13.03132  13.22728  13.36624  13.42729
 Alpha virt. eigenvalues --   13.47200  13.49152  13.52485  13.60167  13.68114
 Alpha virt. eigenvalues --   13.71722  13.74459  13.87174  14.11077  14.28453
          Condensed to atoms (all electrons):
              1          2          3          4          5          6
     1  O    8.069819   0.301626  -0.159699   0.002319   0.011919   0.025105
     2  C    0.301626   6.810702  -0.123442  -0.031248  -0.073176  -0.781457
     3  C   -0.159699  -0.123442   7.214575   0.158170   0.023356  -0.102933
     4  O    0.002319  -0.031248   0.158170   8.106854   0.247119  -0.007612
     5  H    0.011919  -0.073176   0.023356   0.247119   0.414494   0.021746
     6  C    0.025105  -0.781457  -0.102933  -0.007612   0.021746   7.881310
     7  O    0.000265   0.003332  -0.136401  -0.000716  -0.000592   0.406579
     8  H    0.000005  -0.001615   0.031113  -0.000368   0.000013  -0.005627
     9  C    0.011905   0.015053  -0.276223   0.012974  -0.001787   0.233047
    10  O   -0.008001   0.001263   0.015182  -0.000171  -0.000011  -0.005428
    11  H    0.000910  -0.010211  -0.001838   0.000002   0.000000   0.000667
    12  C   -0.071022  -0.724032  -0.512860   0.030480   0.011131   0.420132
    13  O    0.001744  -0.052875  -0.034524  -0.002456   0.000143   0.009746
    14  C   -0.008844   0.339040  -0.135337  -0.035028   0.004680  -1.480898
    15  O    0.000037  -0.006707   0.000907   0.000464  -0.000004  -0.089034
    16  C    0.001653   0.090579  -0.110703  -0.004578   0.000549  -0.340429
    17  C    0.000000  -0.054649   0.034128   0.000355   0.000000   0.080851
    18  O    0.000046   0.004288  -0.001150  -0.000007   0.000000  -0.001545
    19  H   -0.000044  -0.000757   0.003932   0.000003   0.000000   0.000913
    20  C    0.000034   0.011958  -0.012773   0.000046   0.000001  -0.042272
    21  O    0.000000   0.000047  -0.000028   0.000000   0.000000   0.000022
    22  H    0.000000  -0.000001   0.000001   0.000000   0.000000  -0.000021
    23  C    0.000095   0.013622  -0.037688  -0.000098   0.000013  -0.234210
    24  O    0.000005  -0.000010  -0.013247  -0.000127  -0.000002   0.015668
    25  H    0.000000   0.000085   0.001441   0.000004   0.000000  -0.000969
    26  C   -0.000024  -0.013059  -0.004020  -0.000097   0.000013   0.125679
    27  O    0.000000   0.000106   0.000302   0.000001   0.000000   0.002439
    28  C    0.000001  -0.001870   0.001674  -0.000008   0.000000   0.017752
    29  O    0.000000   0.000002   0.000021   0.000000   0.000000  -0.000198
    30  H    0.267210   0.048889  -0.012537  -0.003277  -0.000927  -0.007704
    31  H    0.000000   0.000000   0.000000   0.000000   0.000000   0.000005
    32  H    0.000000   0.000012   0.000005   0.000000   0.000000  -0.000095
    33  H    0.000000   0.000079  -0.000016   0.000000   0.000000   0.000083
    34  H    0.000000  -0.000317   0.000688   0.000000   0.000000   0.005198
    35  H   -0.000001  -0.004716   0.005422   0.000009   0.000000   0.006826
    36  H    0.000000  -0.000086   0.000290   0.000000   0.000000  -0.008448
    37  H    0.000000   0.000000   0.000006   0.000000   0.000000   0.001999
    38  H    0.000000  -0.000055  -0.000801   0.000000   0.000000  -0.012837
    39  H   -0.000117   0.018387  -0.135565   0.001621  -0.000034   0.421840
    40  H    0.000056  -0.002236  -0.042025   0.000157   0.000012   0.005303
    41  H    0.003017  -0.057488   0.227194  -0.005632  -0.007601  -0.008440
    42  H   -0.013197   0.281450  -0.023879   0.004238  -0.000362   0.024210
    43  H    0.004457   0.059590  -0.031662   0.000090   0.000010  -0.029117
    44  H   -0.000543  -0.025317   0.005616   0.000014   0.000000  -0.004479
    45  H    0.002093   0.027453  -0.002358  -0.000060   0.000000   0.009022
              7          8          9         10         11         12
     1  O    0.000265   0.000005   0.011905  -0.008001   0.000910  -0.071022
     2  C    0.003332  -0.001615   0.015053   0.001263  -0.010211  -0.724032
     3  C   -0.136401   0.031113  -0.276223   0.015182  -0.001838  -0.512860
     4  O   -0.000716  -0.000368   0.012974  -0.000171   0.000002   0.030480
     5  H   -0.000592   0.000013  -0.001787  -0.000011   0.000000   0.011131
     6  C    0.406579  -0.005627   0.233047  -0.005428   0.000667   0.420132
     7  O    8.086971   0.256968  -0.000432  -0.000007   0.000000   0.004152
     8  H    0.256968   0.330976  -0.000130   0.000000   0.000000  -0.003111
     9  C   -0.000432  -0.000130   6.711470   0.101249  -0.007486  -0.969251
    10  O   -0.000007   0.000000   0.101249   8.125637   0.231620   0.022104
    11  H    0.000000   0.000000  -0.007486   0.231620   0.444286   0.023555
    12  C    0.004152  -0.003111  -0.969251   0.022104   0.023555   8.717810
    13  O    0.001075  -0.000554  -0.024267   0.000468  -0.000793   0.023850
    14  C   -0.117725  -0.053242  -0.477042   0.012628  -0.003418  -0.746398
    15  O    0.007813   0.008527  -0.009005   0.000121  -0.000001  -0.014269
    16  C    0.043910   0.020795  -0.050016  -0.000563  -0.000300  -0.007461
    17  C   -0.007586   0.001960   0.002294  -0.000284   0.000064  -0.113720
    18  O   -0.000009  -0.000031  -0.005800  -0.000199  -0.000007   0.006025
    19  H   -0.000087  -0.000001  -0.005752  -0.000005  -0.000001   0.000912
    20  C    0.002334   0.000289  -0.004844  -0.000147   0.000015   0.003071
    21  O   -0.000001   0.000000   0.000243   0.000000   0.000000  -0.000179
    22  H    0.000000   0.000000  -0.000003   0.000000   0.000000   0.000013
    23  C    0.056162   0.001915  -0.002149  -0.000021   0.000000   0.005712
    24  O   -0.040258  -0.000951   0.000087   0.000000   0.000000   0.000592
    25  H    0.001518  -0.002171  -0.000008   0.000000   0.000000  -0.000102
    26  C   -0.052374  -0.017911   0.012752   0.000002   0.000000   0.030097
    27  O   -0.000210  -0.000027   0.000071   0.000000   0.000000  -0.000244
    28  C   -0.001386   0.000080   0.001306   0.000009   0.000000  -0.003316
    29  O   -0.000001   0.000000  -0.000011   0.000000   0.000000   0.000085
    30  H   -0.000015   0.000000  -0.004571  -0.000366  -0.000031  -0.027232
    31  H    0.000000   0.000000   0.000000   0.000000   0.000000  -0.000001
    32  H    0.000001   0.000000  -0.000008   0.000000   0.000000   0.000052
    33  H    0.000001   0.000000  -0.000023   0.000000   0.000000   0.000359
    34  H   -0.000021   0.000000   0.000582   0.000000   0.000000  -0.000866
    35  H   -0.002011  -0.000029   0.000066   0.000001   0.000000   0.006454
    36  H   -0.000135   0.000006   0.000045   0.000000   0.000000   0.000845
    37  H   -0.000684   0.000379  -0.000001   0.000000   0.000000   0.000014
    38  H    0.001807   0.000245  -0.000007   0.000000   0.000000   0.000252
    39  H   -0.033731  -0.005795   0.015057   0.000010   0.000000   0.052205
    40  H   -0.000885  -0.000045   0.020222   0.000058   0.000000   0.058459
    41  H    0.001133  -0.000052   0.010536  -0.000088   0.000000   0.057339
    42  H    0.000129   0.000002  -0.035836  -0.000678  -0.000017  -0.026257
    43  H    0.000229   0.000000   0.064038   0.002163  -0.000267   0.065229
    44  H   -0.000008   0.000000   0.394441  -0.020487  -0.012890  -0.008405
    45  H    0.000004   0.000000   0.567463  -0.047276  -0.000122  -0.244340
             13         14         15         16         17         18
     1  O    0.001744  -0.008844   0.000037   0.001653   0.000000   0.000046
     2  C   -0.052875   0.339040  -0.006707   0.090579  -0.054649   0.004288
     3  C   -0.034524  -0.135337   0.000907  -0.110703   0.034128  -0.001150
     4  O   -0.002456  -0.035028   0.000464  -0.004578   0.000355  -0.000007
     5  H    0.000143   0.004680  -0.000004   0.000549   0.000000   0.000000
     6  C    0.009746  -1.480898  -0.089034  -0.340429   0.080851  -0.001545
     7  O    0.001075  -0.117725   0.007813   0.043910  -0.007586  -0.000009
     8  H   -0.000554  -0.053242   0.008527   0.020795   0.001960  -0.000031
     9  C   -0.024267  -0.477042  -0.009005  -0.050016   0.002294  -0.005800
    10  O    0.000468   0.012628   0.000121  -0.000563  -0.000284  -0.000199
    11  H   -0.000793  -0.003418  -0.000001  -0.000300   0.000064  -0.000007
    12  C    0.023850  -0.746398  -0.014269  -0.007461  -0.113720   0.006025
    13  O    7.899562   0.253630   0.005458  -0.005711   0.027175  -0.024918
    14  C    0.253630   8.568743   0.278883  -0.969931   0.167300   0.024054
    15  O    0.005458   0.278883   7.751623   0.338254  -0.089682  -0.008384
    16  C   -0.005711  -0.969931   0.338254   9.887759  -1.425872  -0.088019
    17  C    0.027175   0.167300  -0.089682  -1.425872   8.213593   0.243828
    18  O   -0.024918   0.024054  -0.008384  -0.088019   0.243828   8.125963
    19  H    0.029069  -0.004897   0.008760  -0.048640   0.027719   0.237425
    20  C   -0.012029  -0.276820   0.025022  -0.525240  -1.154401  -0.045309
    21  O    0.000022  -0.000298   0.000372   0.045057  -0.007384   0.004304
    22  H   -0.000001   0.000282   0.000005  -0.008427   0.012772  -0.000533
    23  C    0.003062   0.063331   0.009444  -0.039645  -0.369393   0.008810
    24  O   -0.000420   0.052910  -0.019532  -0.001402  -0.002917   0.000015
    25  H   -0.000010  -0.004976   0.001946  -0.009997  -0.000933   0.000000
    26  C   -0.015039  -0.288220  -0.118869  -1.327298  -0.435515   0.047722
    27  O   -0.000062   0.006659   0.001680   0.020833   0.008434  -0.002460
    28  C   -0.000067   0.057934   0.000707   0.446683   0.522766  -0.016739
    29  O    0.000021  -0.000110   0.000003  -0.014570   0.003276   0.000510
    30  H   -0.000791   0.002281  -0.000001   0.000111  -0.000036  -0.000001
    31  H    0.000000  -0.000017   0.000002  -0.001071   0.008767  -0.000038
    32  H    0.000022  -0.000070   0.000454   0.037206  -0.042721   0.000496
    33  H    0.000083  -0.007803   0.000158   0.053371  -0.138388   0.004787
    34  H    0.000110   0.012261  -0.006313  -0.091369   0.324177  -0.026820
    35  H   -0.001481   0.030873  -0.037283   0.083929   0.068464  -0.005699
    36  H   -0.000298   0.055802  -0.002603  -0.095168  -0.027819   0.000377
    37  H    0.000031   0.005984   0.000913   0.019958   0.008336   0.000012
    38  H   -0.000006   0.009230   0.003113   0.010084  -0.004203   0.000017
    39  H    0.006591  -0.058131  -0.011263  -0.026445   0.005939   0.000074
    40  H   -0.032434   0.235158  -0.028292  -0.004806   0.018710  -0.002881
    41  H    0.003476   0.027393   0.000496  -0.008790   0.002448   0.000034
    42  H    0.005975   0.055533  -0.000117  -0.004562   0.001844   0.000019
    43  H   -0.013852   0.126308  -0.000311   0.003004   0.007747  -0.000015
    44  H   -0.005258  -0.002548  -0.000188   0.002445   0.002608  -0.000083
    45  H   -0.007336  -0.001068  -0.000559  -0.002957   0.001389  -0.000079
             19         20         21         22         23         24
     1  O   -0.000044   0.000034   0.000000   0.000000   0.000095   0.000005
     2  C   -0.000757   0.011958   0.000047  -0.000001   0.013622  -0.000010
     3  C    0.003932  -0.012773  -0.000028   0.000001  -0.037688  -0.013247
     4  O    0.000003   0.000046   0.000000   0.000000  -0.000098  -0.000127
     5  H    0.000000   0.000001   0.000000   0.000000   0.000013  -0.000002
     6  C    0.000913  -0.042272   0.000022  -0.000021  -0.234210   0.015668
     7  O   -0.000087   0.002334  -0.000001   0.000000   0.056162  -0.040258
     8  H   -0.000001   0.000289   0.000000   0.000000   0.001915  -0.000951
     9  C   -0.005752  -0.004844   0.000243  -0.000003  -0.002149   0.000087
    10  O   -0.000005  -0.000147   0.000000   0.000000  -0.000021   0.000000
    11  H   -0.000001   0.000015   0.000000   0.000000   0.000000   0.000000
    12  C    0.000912   0.003071  -0.000179   0.000013   0.005712   0.000592
    13  O    0.029069  -0.012029   0.000022  -0.000001   0.003062  -0.000420
    14  C   -0.004897  -0.276820  -0.000298   0.000282   0.063331   0.052910
    15  O    0.008760   0.025022   0.000372   0.000005   0.009444  -0.019532
    16  C   -0.048640  -0.525240   0.045057  -0.008427  -0.039645  -0.001402
    17  C    0.027719  -1.154401  -0.007384   0.012772  -0.369393  -0.002917
    18  O    0.237425  -0.045309   0.004304  -0.000533   0.008810   0.000015
    19  H    0.369302   0.006043  -0.000512   0.000015  -0.004273  -0.000006
    20  C    0.006043   7.703929   0.093990  -0.003117   0.220586  -0.004621
    21  O   -0.000512   0.093990   8.080596   0.250103  -0.001947   0.000003
    22  H    0.000015  -0.003117   0.250103   0.417255   0.000207   0.000000
    23  C   -0.004273   0.220586  -0.001947   0.000207   7.182015  -0.030256
    24  O   -0.000006  -0.004621   0.000003   0.000000  -0.030256   8.227312
    25  H    0.000000   0.001058   0.000000   0.000000  -0.003129   0.256661
    26  C   -0.004740   0.769551  -0.025917   0.003251  -1.085778   0.140248
    27  O    0.000184  -0.085960   0.002245  -0.000665  -0.100940   0.002565
    28  C    0.005598  -0.754614   0.021025  -0.016190  -0.291487   0.005805
    29  O    0.000017  -0.075948   0.018591   0.006411   0.011847   0.000027
    30  H    0.000000   0.000000   0.000000   0.000000  -0.000001   0.000000
    31  H    0.000000  -0.037502  -0.002792  -0.000778  -0.001469  -0.000001
    32  H    0.000009  -0.071032   0.000755  -0.000077   0.001018   0.000028
    33  H   -0.000059   0.376894  -0.020220  -0.007967   0.004674   0.000004
    34  H   -0.006405   0.003886  -0.005117  -0.000067   0.011651  -0.000021
    35  H   -0.000016   0.017301  -0.000392   0.000006  -0.020585  -0.000078
    36  H    0.000027  -0.027146   0.000241   0.000003   0.121352  -0.002140
    37  H    0.000000  -0.005098  -0.000001   0.000000   0.357412  -0.018942
    38  H    0.000001   0.001114   0.000004   0.000000   0.648934  -0.068085
    39  H   -0.000010   0.000549   0.000000   0.000000   0.003746   0.000823
    40  H   -0.000459   0.012070   0.000004   0.000000   0.000092   0.000154
    41  H   -0.000001   0.000068   0.000000   0.000000   0.000582   0.000048
    42  H   -0.000014   0.000020   0.000000   0.000000   0.000045   0.000007
    43  H   -0.000318   0.000249   0.000000   0.000000  -0.000090   0.000000
    44  H    0.001359  -0.000188   0.000000   0.000000   0.000010   0.000000
    45  H    0.000005  -0.000012   0.000000   0.000000  -0.000026   0.000000
             25         26         27         28         29         30
     1  O    0.000000  -0.000024   0.000000   0.000001   0.000000   0.267210
     2  C    0.000085  -0.013059   0.000106  -0.001870   0.000002   0.048889
     3  C    0.001441  -0.004020   0.000302   0.001674   0.000021  -0.012537
     4  O    0.000004  -0.000097   0.000001  -0.000008   0.000000  -0.003277
     5  H    0.000000   0.000013   0.000000   0.000000   0.000000  -0.000927
     6  C   -0.000969   0.125679   0.002439   0.017752  -0.000198  -0.007704
     7  O    0.001518  -0.052374  -0.000210  -0.001386  -0.000001  -0.000015
     8  H   -0.002171  -0.017911  -0.000027   0.000080   0.000000   0.000000
     9  C   -0.000008   0.012752   0.000071   0.001306  -0.000011  -0.004571
    10  O    0.000000   0.000002   0.000000   0.000009   0.000000  -0.000366
    11  H    0.000000   0.000000   0.000000   0.000000   0.000000  -0.000031
    12  C   -0.000102   0.030097  -0.000244  -0.003316   0.000085  -0.027232
    13  O   -0.000010  -0.015039  -0.000062  -0.000067   0.000021  -0.000791
    14  C   -0.004976  -0.288220   0.006659   0.057934  -0.000110   0.002281
    15  O    0.001946  -0.118869   0.001680   0.000707   0.000003  -0.000001
    16  C   -0.009997  -1.327298   0.020833   0.446683  -0.014570   0.000111
    17  C   -0.000933  -0.435515   0.008434   0.522766   0.003276  -0.000036
    18  O    0.000000   0.047722  -0.002460  -0.016739   0.000510  -0.000001
    19  H    0.000000  -0.004740   0.000184   0.005598   0.000017   0.000000
    20  C    0.001058   0.769551  -0.085960  -0.754614  -0.075948   0.000000
    21  O    0.000000  -0.025917   0.002245   0.021025   0.018591   0.000000
    22  H    0.000000   0.003251  -0.000665  -0.016190   0.006411   0.000000
    23  C   -0.003129  -1.085778  -0.100940  -0.291487   0.011847  -0.000001
    24  O    0.256661   0.140248   0.002565   0.005805   0.000027   0.000000
    25  H    0.391154   0.004901  -0.000604  -0.001810  -0.000001   0.000000
    26  C    0.004901   8.958702   0.207880  -0.888939  -0.013867  -0.000007
    27  O   -0.000604   0.207880   7.880862   0.239525  -0.023572   0.000000
    28  C   -0.001810  -0.888939   0.239525   5.939393   0.282659   0.000000
    29  O   -0.000001  -0.013867  -0.023572   0.282659   8.048881   0.000000
    30  H    0.000000  -0.000007   0.000000   0.000000   0.000000   0.401456
    31  H    0.000000  -0.001522   0.003243   0.020576   0.267177   0.000000
    32  H    0.000000   0.004683  -0.042014   0.400863  -0.022404   0.000000
    33  H    0.000000   0.038472  -0.001050  -0.034093  -0.003407   0.000000
    34  H    0.000000   0.070496  -0.000909  -0.042984   0.000003   0.000000
    35  H   -0.000006   0.093333   0.001017   0.006152  -0.000300   0.000000
    36  H   -0.000136   0.217447  -0.037744   0.036770   0.000063   0.000000
    37  H   -0.011199  -0.042627  -0.002201   0.008245  -0.000087   0.000000
    38  H    0.000637  -0.292047   0.000386  -0.002779   0.000016   0.000000
    39  H   -0.000003  -0.009090   0.000005  -0.000093   0.000000   0.000014
    40  H    0.000005   0.020537   0.000401  -0.000889  -0.000004   0.000002
    41  H    0.000000  -0.001358   0.000000  -0.000003   0.000000  -0.000095
    42  H    0.000000  -0.000287   0.000000   0.000001   0.000000  -0.011620
    43  H    0.000000  -0.000441   0.000001   0.000079   0.000000  -0.000167
    44  H    0.000000   0.000220   0.000000   0.000023   0.000000   0.000012
    45  H    0.000000  -0.000098   0.000000   0.000012   0.000000  -0.000317
             31         32         33         34         35         36
     1  O    0.000000   0.000000   0.000000   0.000000  -0.000001   0.000000
     2  C    0.000000   0.000012   0.000079  -0.000317  -0.004716  -0.000086
     3  C    0.000000   0.000005  -0.000016   0.000688   0.005422   0.000290
     4  O    0.000000   0.000000   0.000000   0.000000   0.000009   0.000000
     5  H    0.000000   0.000000   0.000000   0.000000   0.000000   0.000000
     6  C    0.000005  -0.000095   0.000083   0.005198   0.006826  -0.008448
     7  O    0.000000   0.000001   0.000001  -0.000021  -0.002011  -0.000135
     8  H    0.000000   0.000000   0.000000   0.000000  -0.000029   0.000006
     9  C    0.000000  -0.000008  -0.000023   0.000582   0.000066   0.000045
    10  O    0.000000   0.000000   0.000000   0.000000   0.000001   0.000000
    11  H    0.000000   0.000000   0.000000   0.000000   0.000000   0.000000
    12  C   -0.000001   0.000052   0.000359  -0.000866   0.006454   0.000845
    13  O    0.000000   0.000022   0.000083   0.000110  -0.001481  -0.000298
    14  C   -0.000017  -0.000070  -0.007803   0.012261   0.030873   0.055802
    15  O    0.000002   0.000454   0.000158  -0.006313  -0.037283  -0.002603
    16  C   -0.001071   0.037206   0.053371  -0.091369   0.083929  -0.095168
    17  C    0.008767  -0.042721  -0.138388   0.324177   0.068464  -0.027819
    18  O   -0.000038   0.000496   0.004787  -0.026820  -0.005699   0.000377
    19  H    0.000000   0.000009  -0.000059  -0.006405  -0.000016   0.000027
    20  C   -0.037502  -0.071032   0.376894   0.003886   0.017301  -0.027146
    21  O   -0.002792   0.000755  -0.020220  -0.005117  -0.000392   0.000241
    22  H   -0.000778  -0.000077  -0.007967  -0.000067   0.000006   0.000003
    23  C   -0.001469   0.001018   0.004674   0.011651  -0.020585   0.121352
    24  O   -0.000001   0.000028   0.000004  -0.000021  -0.000078  -0.002140
    25  H    0.000000   0.000000   0.000000   0.000000  -0.000006  -0.000136
    26  C   -0.001522   0.004683   0.038472   0.070496   0.093333   0.217447
    27  O    0.003243  -0.042014  -0.001050  -0.000909   0.001017  -0.037744
    28  C    0.020576   0.400863  -0.034093  -0.042984   0.006152   0.036770
    29  O    0.267177  -0.022404  -0.003407   0.000003  -0.000300   0.000063
    30  H    0.000000   0.000000   0.000000   0.000000   0.000000   0.000000
    31  H    0.405155  -0.009302   0.000102   0.000016   0.000001   0.000010
    32  H   -0.009302   0.597871   0.005251   0.001094  -0.000034   0.004776
    33  H    0.000102   0.005251   0.572625   0.005999   0.000531  -0.000021
    34  H    0.000016   0.001094   0.005999   0.600633   0.005771   0.001930
    35  H    0.000001  -0.000034   0.000531   0.005771   0.604899   0.006774
    36  H    0.000010   0.004776  -0.000021   0.001930   0.006774   0.630335
    37  H    0.000000  -0.000042   0.000000   0.000006  -0.000016  -0.004663
    38  H    0.000000  -0.000010  -0.000003  -0.000004   0.002686   0.006797
    39  H    0.000000   0.000000   0.000000  -0.000003  -0.000010  -0.000002
    40  H    0.000000   0.000000  -0.000004  -0.000048   0.008137  -0.000017
    41  H    0.000000   0.000000   0.000000   0.000000  -0.000004   0.000000
    42  H    0.000000   0.000000   0.000000   0.000000   0.000000   0.000000
    43  H    0.000000   0.000000   0.000000  -0.000001  -0.000012   0.000000
    44  H    0.000000   0.000000   0.000000  -0.000004   0.000000   0.000000
    45  H    0.000000   0.000000   0.000000   0.000000   0.000000   0.000000
             37         38         39         40         41         42
[...]
 092870,-0.00057211,0.00019811,0.00015549,0.00016015,0.00003629,-0.0000
 3630,0.00000802,-0.00671435,0.00004534,0.00067728,0.00166409,0.0007311
 1,0.00036838,-0.00017901,0.00006726,0.00010215,0.00006093,-0.00000334,
 0.00006159,-0.00000781,-0.00000195,0.00000897,-0.00000423,0.00001708,0
 .00000811,0.00001492,-0.00002003,-0.00002769,-0.00000907,0.00000895,0.
 00004706,-0.00000563,-0.00000608,0.00000305,0.00000517,-0.00000023,-0.
 00000315,-0.00000139,-0.00000095,0.00000026,-0.00001211,0.00000243,0.0
 0000095,0.00003254,0.00000719,0.00002422,-0.00000893,-0.00000106,0.000
 00225,-0.00000910,0.00000020,0.00000427,0.00000961,-0.00000276,-0.0000
 0560,-0.00000835,0.00000617,0.00000520,0.00000561,-0.00000151,-0.00000
 916,0.00106574,0.00024758,-0.00050305,-0.00000076,0.00000036,0.0000017
 2,0.00000207,0.00000027,0.00000046,0.00000154,0.00000162,-0.00000187,0
 .00000419,-0.00000075,0.00000602,0.00000805,0.00000149,-0.00000703,0.0
 0000536,-0.00000039,0.00000417,-0.00000017,-0.00000167,0.00000026,0.00
 000464,-0.00000024,-0.00000154,0.00056073,0.00021185,0.00038885,0.0000
 4786,-0.00001855,-0.00012484,0.00000053,0.00168522,0.00077960,0.374323
 86,-0.00936635,-0.00036915,-0.00404542,-0.02650883,-0.04482184,0.00522
 532,0.03057150,-0.00015622,-0.00574412,-0.00114704,0.00332841,-0.00071
 386,0.00022158,-0.00014419,0.00004306,0.00079432,0.00127631,0.00104168
 ,-0.00046197,-0.00031300,-0.00011708,0.00001998,-0.00002310,0.00007522
 ,-0.00280290,0.00124927,-0.00009793,0.00053891,0.00005889,0.00010791,-
 0.00003415,-0.00009055,0.00000113,-0.02528783,-0.00430490,0.00618913,0
 .00129275,0.00126208,-0.00169198,0.00027801,-0.00057871,0.00000415,0.0
 0001287,0.00012762,-0.00005274,-0.00003595,0.00001815,-0.00000064,0.00
 001311,-0.00000834,-0.00002079,0.00003540,0.00000845,-0.00001847,-0.00
 005550,-0.00000121,0.00002375,-0.00000483,0.00000144,0.00000168,0.0000
 0204,0.00000184,-0.00000330,-0.00000082,-0.00000036,-0.00000028,0.0000
 0135,-0.00000716,0.00000695,-0.00003863,-0.00001426,-0.00005673,0.0000
 1192,0.00000518,-0.00000624,0.00000309,-0.00000200,0.00000594,-0.00000
 175,0.00000509,-0.00000707,0.00000104,-0.00000481,0.00000747,0.0000015
 6,0.00000067,-0.00000573,-0.00085016,0.00122813,0.00017454,0.00000013,
 0.00000058,0.00000113,-0.00000022,0.00000075,-0.00000002,0.00000063,-0
 .00000061,-0.00000209,0.00000434,0.00000587,0.00000499,-0.00000010,-0.
 00000662,0.00000347,-0.00000156,0.00000181,-0.00000089,0.,0.00000139,-
 0.00000414,-0.00000212,0.00000054,0.00000407,-0.00046739,-0.00007443,-
 0.00022983,-0.00005707,-0.00012362,-0.00002025,0.00184941,-0.00467169,
 -0.00123313,0.03067621,0.04983585,-0.03872186,-0.00771675,-0.01126389,
 0.05397624,0.00334284,-0.05063089,0.01219474,0.00216816,-0.00126847,-0
 .00166003,0.00107954,0.00043593,-0.00024176,-0.00021013,-0.00007855,0.
 00066187,0.00056409,0.00060071,-0.00028036,-0.00009222,-0.00004328,0.0
 0003250,0.00001055,0.00003104,0.00088602,-0.00143071,0.00038588,-0.000
 22832,0.00001278,0.00010337,0.00004533,-0.00000717,0.00007080,0.022701
 12,0.00350523,-0.00384053,-0.00065508,-0.00015915,0.00240663,0.0004027
 5,-0.00021251,-0.00017699,-0.00006204,0.00001175,-0.00017373,-0.000007
 39,-0.00002816,0.00001196,0.00002090,0.00001863,0.00002102,-0.00006391
 ,-0.00002238,-0.00001304,0.00008145,0.00002139,-0.00002022,0.00000383,
 -0.00000966,0.00000965,-0.00001098,0.00000989,-0.00001133,0.00000188,-
 0.00000089,0.00000233,0.00001056,0.00000437,-0.00000356,-0.00002814,-0
 .00001408,-0.00002374,0.00000800,0.00000269,0.00000047,0.00001306,0.00
 001156,0.00001059,-0.00000951,0.00000370,-0.00001862,0.00000933,-0.000
 00534,0.00001791,0.00000070,0.00000013,-0.00001428,-0.00249208,0.00065
 990,0.00334016,0.00000103,0.00000048,0.00000252,-0.00000287,-0.0000008
 8,-0.00000208,-0.00000235,-0.00000008,0.00000387,-0.00001176,-0.000005
 30,-0.00001280,-0.00001175,0.00000297,0.00001174,-0.00000635,-0.000001
 38,-0.00000612,-0.00000129,-0.00000270,-0.00000203,-0.00000417,0.00000
 165,0.00000361,-0.00017763,-0.00023642,-0.00011084,-0.00017813,0.00002
 569,0.00011332,0.00047945,-0.00221261,-0.00047196,-0.04592104,-0.00179
 084,0.06335315,0.00122910,0.00025385,0.00088083,-0.00637675,0.00004505
 ,0.00046634,-0.00054338,0.00064133,-0.00024010,0.00049780,0.00017409,0
 .00000725,-0.00006309,-0.00000274,0.00008256,0.00004731,0.00001267,-0.
 00014678,0.00009671,-0.00019975,0.00003125,0.00000124,0.00003202,0.000
 00718,-0.01483949,-0.00222869,0.00310817,0.00188941,-0.00007212,0.0002
 3871,0.00013316,-0.00012959,-0.00000733,-0.34398733,-0.03733903,0.0474
 4167,-0.01287787,-0.00545778,-0.00995455,0.00026810,0.00213550,0.00111
 655,0.00052872,-0.00002327,-0.00032038,-0.00017233,-0.00008315,0.00014
 981,0.00000060,0.00000206,-0.00004215,0.00022447,0.00014325,-0.0001762
 9,-0.00038110,-0.00033449,0.00041745,-0.00001471,-0.00002482,0.0000200
 7,0.00000995,0.00002461,-0.00001514,-0.00000635,-0.00000644,-0.0000037
 7,-0.00002347,0.00001120,0.00001792,0.00001388,-0.00001209,-0.00001328
 ,-0.00000353,0.00000259,-0.00000417,0.00002086,0.00002779,0.00001735,0
 .00000940,0.00000927,-0.00006875,-0.00000186,-0.00001798,0.00003680,0.
 00001426,0.00000501,-0.00003517,0.00016664,0.00005982,-0.00004882,-0.0
 0000054,-0.00000001,0.00000482,0.00000210,0.00000326,0.00000036,0.0000
 0423,0.00000234,-0.00001269,0.00003267,0.00002059,0.00003890,0.0000268
 9,-0.00001176,-0.00002798,0.00000738,0.00000202,0.00000759,-0.00000092
 ,-0.00000538,-0.00000330,0.00000490,0.00000084,0.00000365,0.00003886,0
 .00014061,0.00007987,0.00045532,-0.00126894,-0.00088680,0.00094994,-0.
 00037783,-0.00019844,0.00056090,-0.00053404,0.00012756,0.37210178,0.00
 137529,0.00058607,-0.00096839,-0.02423049,-0.00296260,0.00489961,-0.00
 160787,0.00061098,0.00025973,0.00072822,-0.00005627,-0.00026098,-0.000
 05126,0.00004240,0.00002688,0.00007641,-0.00031419,-0.00017177,0.00012
 665,-0.00012173,0.00000707,-0.00000801,0.00000106,-0.00002281,0.031273
 74,0.00377602,-0.00519986,-0.00236297,0.00216468,0.00093941,0.00000608
 ,0.00041415,0.00025929,-0.03537268,-0.05023871,0.00812819,-0.01260101,
 -0.00198785,-0.00562459,-0.00315473,0.00141368,0.00103952,0.00047369,-
 0.00007290,-0.00013691,0.00000821,-0.00002678,-0.00002374,0.00003746,0
 .00012187,0.00008000,-0.00005322,-0.00006689,-0.00023076,0.00010437,-0
 .00007763,0.00028049,-0.00000036,-0.00003002,-0.00000078,-0.00000956,-
 0.00000201,-0.00001093,0.00000337,0.00000071,0.00000433,-0.00001243,0.
 00000870,-0.00001346,0.00000840,-0.00000637,0.00001509,-0.00000317,-0.
 00000050,-0.00000032,0.00002683,0.00000573,0.00000118,0.00000083,-0.00
 002105,-0.00000089,-0.00000572,0.00003463,0.00000124,0.00000350,-0.000
 00997,-0.00001622,0.00016655,0.00010080,-0.00025133,0.00000105,0.00000
 085,0.00000210,-0.00000072,-0.00000368,-0.00000167,-0.00000338,0.00000
 365,0.00000482,-0.00001250,-0.00002352,-0.00000359,0.00002200,0.000011
 79,-0.00003989,0.00000108,0.00000330,0.00000623,0.00000286,-0.00000350
 ,0.00000167,0.00000456,-0.00000297,-0.00000119,0.00012074,0.00012864,0
 .00002289,0.00057060,0.00017998,0.00001084,0.00049329,-0.00044108,0.00
 014785,-0.00037465,-0.00256292,0.00260654,0.04213012,0.05336928,-0.001
 13091,-0.00089982,0.00197204,0.02540883,0.00324838,-0.00190916,0.00060
 565,-0.00117031,0.00028769,-0.00063322,0.00030220,0.00005514,0.0000855
 0,-0.00002228,-0.00000169,0.00026853,-0.00000967,-0.00052155,0.0000888
 6,-0.00028761,0.00024594,-0.00001562,0.00006591,0.00000539,0.00640394,
 0.00187580,0.00015904,-0.00040666,0.00047415,0.00027301,-0.00006597,0.
 00008052,-0.00002468,0.05095216,0.00730455,-0.04990272,-0.03810211,-0.
 01078383,-0.00808445,-0.00378749,0.00341862,0.00294227,0.00059682,-0.0
 0006705,-0.00077235,-0.00007965,-0.00018928,0.00027389,-0.00002472,-0.
 00006655,-0.00006801,0.00023805,0.00014974,-0.00002077,-0.00047444,-0.
 00033588,0.00034232,0.00000263,-0.00001552,0.00003449,-0.00000315,0.00
 003924,-0.00002199,-0.00000432,-0.00000595,-0.00000342,-0.00000719,0.0
 0002915,0.00000965,-0.00000313,-0.00002802,0.00000497,0.00000599,0.000
 00339,-0.00000735,0.00003713,0.00005130,0.00002997,-0.00000406,0.00001
 740,-0.00009574,0.00001061,-0.00004032,0.00004970,0.00000861,0.0000097
 2,-0.00003463,-0.00002183,-0.00015710,0.00045983,0.00000135,-0.0000000
 7,0.00000490,-0.00000112,0.00000350,-0.00000113,0.00000248,0.00000237,
 -0.00001380,0.00003179,0.00001467,0.00003884,0.00003318,-0.00000763,-0
 .00007909,0.00000097,0.00000152,0.00000494,-0.00000168,-0.00000806,-0.
 00000247,0.00000025,0.00000138,0.00000434,-0.00001618,0.00003909,-0.00
 012741,0.00109111,0.00015364,-0.00002056,-0.00048829,0.00045479,0.0001
 9532,0.00042773,0.00326232,-0.00313211,-0.04140206,-0.00504468,0.05705
 191,0.00009297,-0.00031318,-0.00002884,-0.00158892,0.00199233,0.002236
 25,0.00091576,0.00015774,-0.00078430,-0.00010333,0.00070965,-0.0001255
 9,0.00001318,0.00000105,0.00004362,0.00000278,-0.00004711,-0.00013218,
 0.00001580,-0.00004941,0.00006427,-0.00000518,0.00001368,-0.00000816,-
 0.04800022,0.00261109,0.00049239,-0.00145460,0.00346288,-0.02295893,0.
 00109621,0.00123012,0.00044811,0.00009575,0.01384700,-0.01574584,0.000
 64113,-0.00271702,-0.00081025,-0.00025384,0.00005332,0.00004827,-0.000
 06891,-0.00004189,-0.00010313,0.00000581,-0.00003233,0.00000444,0.0000
 5682,0.00007248,0.00006958,-0.00024904,-0.00008829,-0.00014083,0.00042
 504,0.00011127,0.00014920,0.00001175,-0.00003994,0.00001101,-0.0000274
 9,0.00001811,-0.00001543,0.00000430,0.00000038,0.00000545,0.00000537,0
 .00001024,-0.00001161,-0.00000504,-0.00001081,0.00001191,0.00000210,0.
 00000220,-0.00000097,0.00001043,0.00000838,0.00001822,-0.00000935,-0.0
 0000038,-0.00001618,0.00000934,0.00000948,0.00001582,-0.00000021,-0.00
 000271,-0.00002009,-0.00019053,0.00006267,-0.00015539,0.00000248,-0.00
 000059,0.00000242,-0.00000415,-0.00000396,-0.00000352,-0.00000672,0.00
 000442,0.00001052,-0.00002948,-0.00004007,-0.00003655,-0.00000891,0.00
 001400,-0.00000062,-0.00000465,-0.00000254,-0.00000416,-0.00000049,-0.
 00000517,0.00000015,-0.00000196,0.00000121,0.00000084,0.00000382,0.000
 01251,0.00001472,0.00000254,0.00003496,-0.00000044,0.00000338,-0.00013
 465,-0.00002296,0.00040504,0.00033937,-0.00015330,0.00044617,-0.000790
 52,-0.00026838,0.04582373,-0.00006215,0.00061663,-0.00000913,0.0036356
 3,-0.00484993,-0.00401645,-0.00074358,0.00014222,0.00178017,0.00010006
 ,-0.00150130,0.00029367,-0.00007709,0.00006754,-0.00013774,-0.00001641
 ,0.00022819,0.00061694,-0.00005455,0.00004370,-0.00037734,0.00007323,-
 0.00000654,0.00013702,0.00612338,-0.13870124,0.14901521,-0.00659517,0.
 00541741,-0.02946360,-0.00067676,0.00416633,-0.00223090,-0.00014736,-0
 .01843647,0.02460669,-0.00009623,0.00238232,0.00068353,0.00005498,-0.0
 0000950,-0.00015123,-0.00004103,0.00006792,-0.00034309,-0.00001997,-0.
 00007089,0.00012239,-0.00018923,-0.00037022,-0.00026220,0.00006473,0.0
 0056667,0.00042447,0.00009499,-0.00080548,-0.00072523,0.00002199,0.000
 10920,-0.00001165,0.00001516,-0.00000056,0.00004764,-0.00000497,0.0000
 0572,-0.00001105,-0.00002071,-0.00005541,0.00008792,-0.00001165,0.0000
 4193,-0.00012502,0.00000291,-0.00000720,0.00000890,0.00000326,-0.00000
 144,-0.00003492,-0.00001462,0.00007214,-0.00002453,0.00002695,-0.00012
 602,-0.00002441,-0.00002210,0.00003526,0.00007391,-0.00000787,-0.00013
 991,-0.00012804,-0.00000155,-0.00000318,-0.00001260,-0.00000040,0.0000
 0926,0.00000459,0.00000456,-0.00000786,-0.00001221,0.00003993,0.000026
 10,0.00000101,0.00000820,-0.00001023,-0.00000521,-0.00000210,-0.000000
 24,0.00000057,0.00000141,0.00001870,-0.00000996,-0.00000050,0.00000517
 ,-0.00000128,-0.00000407,-0.00002477,-0.00002830,-0.00005239,0.0000364
 3,0.00003271,0.00011925,-0.00004693,-0.00008278,0.00010329,0.00030549,
 -0.00016022,0.00009591,0.00087942,-0.00027240,-0.00283566,0.15159664,0
 .00002474,0.00040375,0.00007396,-0.00016705,-0.00142629,-0.00029684,-0
 .00008581,-0.00021958,0.00025933,0.00002891,-0.00013207,0.00008119,0.0
 0001026,-0.00005698,-0.00000835,0.00002569,-0.00004579,-0.00012553,0.0
 0000716,-0.00001254,0.00009288,-0.00001394,0.00000919,-0.00003055,-0.0
 0185505,0.14451420,-0.25665816,-0.00904875,-0.00157472,-0.03065902,-0.
 00128666,0.00027526,-0.00015445,0.00077028,-0.00305359,0.00358704,0.00
 068014,-0.00150520,0.00131911,-0.00006010,-0.00006270,0.00043905,-0.00
 000066,0.00004881,0.00007714,0.00001616,0.00003968,-0.00001059,0.00000
 646,0.00007398,0.00001481,0.00003234,-0.00020782,-0.00014218,0.0000008
 2,0.00007238,-0.00002512,-0.00001630,0.00000250,-0.00000941,0.00000561
 ,-0.00002927,-0.00001300,0.00000289,0.00000575,0.00000830,0.00000552,0
 .00001758,-0.00002299,0.00000164,-0.00001515,0.00003146,-0.00000076,0.
 00000408,-0.00000285,-0.00000578,0.00000568,0.00000148,0.00000652,-0.0
 0003258,0.00001377,-0.00001443,0.00003950,0.00000687,0.00000909,-0.000
 01513,-0.00002033,0.00000851,-0.00022634,0.00009055,-0.00000087,0.0000
 0427,0.00000619,0.00000160,-0.00000158,-0.00000039,0.00000005,0.000001
 83,0.00000270,-0.00000346,0.00000208,0.00000429,0.00000070,-0.00000155
 ,0.00000116,0.00000187,0.00000041,0.00000051,-0.00000108,-0.00000424,0
 .00000212,0.00000069,-0.00000157,0.00000099,-0.00001317,-0.00000512,0.
 00000894,0.00000493,-0.00000693,-0.00000965,-0.00000055,0.00003628,0.0
 0000903,-0.00008968,-0.00020598,0.00003588,-0.00034248,0.00039881,0.00
 034138,0.01113805,-0.14480676,0.28899159,0.00040841,-0.00009385,-0.000
 29961,0.00040776,-0.00232877,0.00093799,0.00063981,-0.00000501,0.00003
 037,0.00004627,0.00014688,-0.00006207,-0.00004070,0.00003102,0.0000082
 4,-0.00006380,-0.00002680,0.00012034,0.00003457,0.00001401,-0.00007935
 ,-0.00000348,-0.00001278,0.00001918,-0.30649850,-0.05000094,0.09554072
 ,-0.01423079,-0.01430065,-0.00913265,-0.00091499,0.00022794,-0.0005123
 0,-0.01996221,-0.00163808,0.00685465,0.00111362,0.00033629,0.00027417,
 0.00032656,0.00003797,0.00006658,0.00010447,0.00016765,0.00020118,-0.0
 0000458,0.00003775,-0.00002569,-0.00004202,-0.00002743,-0.00003002,0.0
 0008811,0.00000969,0.00005676,-0.00011533,0.00002309,-0.00003816,-0.00
 000712,0.00000798,-0.00000132,0.00001653,-0.00000080,0.00000547,-0.000
 00351,-0.00000329,-0.00000308,-0.00001599,-0.00001658,0.00001628,0.000
 01748,0.00001465,-0.00002291,-0.00000756,-0.00000057,0.00000248,-0.000
 02066,-0.00001805,-0.00000071,0.00001315,0.00000877,0.00000847,-0.0000
 1331,-0.00000480,-0.00000277,0.00000581,0.00000306,0.00000148,-0.00033
 663,0.00020330,-0.00034521,-0.00000235,-0.00000073,0.00000021,0.000004
 34,0.00000251,0.00000248,0.00000485,-0.00000011,-0.00000632,0.00001746
 ,0.00001191,0.00001745,0.00000848,-0.00000849,-0.00000342,0.00000758,0
 .00000129,0.00000551,0.00000070,0.00000355,-0.00000189,0.00000532,-0.0
 0000008,-0.00000064,0.00003536,0.00004549,0.00000644,0.00010804,-0.000
 18294,-0.00014907,0.00020841,-0.00030296,-0.00007328,0.00078544,0.0009
 8969,-0.00072619,-0.00049006,0.00288934,0.00064002,0.00192131,0.001108
 31,0.00021595,0.33644380,-0.00021106,0.00013265,0.00044061,0.00219535,
 0.00181931,-0.00111968,0.00043275,0.00014877,-0.00031195,-0.00020746,0
 .00007042,0.00011882,0.00002085,-0.00003905,-0.00001107,0.00000870,0.0
 0007669,0.00002018,-0.00002033,0.00000703,0.00002241,0.00000009,0.0000
 1068,0.00000554,-0.05270468,-0.05327965,0.02540270,-0.02505246,-0.0103
 4714,-0.00786523,-0.00139723,-0.00030684,0.00015548,0.03128541,0.00009
 902,-0.00926899,-0.00065109,0.00137475,0.00136139,0.00013590,0.0001295
 9,0.00006454,-0.00009898,-0.00007966,-0.00015295,-0.00001738,-0.000026
 72,0.00009455,-0.00005650,-0.00006221,-0.00005263,0.00004008,0.0001521
 8,0.00008314,-0.00003597,-0.00022097,-0.00005669,0.00000097,0.00001255
 ,0.00001090,0.00000764,0.00001383,0.00000096,-0.00000379,-0.00000408,-
 0.00000415,0.00000139,0.00000518,0.00000824,0.00000127,-0.00000501,-0.
 00000328,-0.00000015,0.00000112,-0.00000169,-0.00000953,0.00001453,0.0
 0000494,0.00000101,0.00001229,-0.00002529,0.00000241,-0.00002735,0.000
 01430,0.00000313,0.00000760,-0.00000318,0.00002775,-0.00018402,0.00020
 191,-0.00000141,-0.00000050,0.00000091,0.00000109,0.00000335,0.0000007
 9,0.00000296,-0.00000244,-0.00000536,0.00001324,0.00001292,0.00000989,
 0.00000424,-0.00000172,0.00000859,0.00000188,-0.00000105,-0.00000142,-
 0.00000196,-0.00000049,-0.00000122,-0.00000088,0.00000143,0.00000157,-
 0.00002038,-0.00003174,-0.00001312,-0.00019434,0.00001109,0.00005534,-
 0.00025141,-0.00008259,0.00004278,-0.00043256,-0.00044408,0.00025508,0
 .00215411,-0.00482527,-0.00159128,-0.01762427,-0.00166508,0.00769348,0
 .06265156,0.06752066,0.00022798,-0.00012429,0.00023342,-0.00111840,0.0
 0088927,0.00005526,-0.00022244,0.00000392,0.00002000,0.00003039,-0.000
 16769,0.00000831,-0.00001029,0.00003781,-0.00001288,0.00004335,0.00003
 394,0.00003181,-0.00002831,-0.00004448,-0.00004184,0.00002529,0.000012
 67,0.00002465,0.09798123,0.02458283,-0.07699422,-0.03342657,-0.0164154
 9,0.00192455,-0.00068956,0.00020447,-0.00004564,0.00515177,0.00192872,
 0.00039245,-0.00036559,-0.00003420,0.00067441,0.00002851,0.00003569,0.
 00008380,-0.00008811,-0.00002744,-0.00005820,0.00000447,-0.00001417,-0
 .00002938,0.00012482,0.00012682,0.00011530,-0.00015424,-0.00019565,-0.
 00024105,0.00022928,0.00026174,0.00020279,-0.00000351,-0.00004603,0.00
 000776,-0.00002610,0.00001153,-0.00002453,0.00000412,-0.00000047,0.000
 00700,0.00000734,0.00000427,-0.00001358,-0.00002261,-0.00001327,-0.000
 00965,0.00000730,0.00000372,0.00000113,0.00001684,-0.00000317,0.000027
 32,-0.00001147,-0.00000386,-0.00001250,0.00001079,0.00002383,0.0000234
 3,0.00000325,-0.00000731,-0.00003195,-0.00013488,0.00013425,-0.0001306
 7,0.00000293,0.00000030,0.00000440,-0.00000494,-0.00000484,-0.00000468
 ,-0.00000692,0.00000361,0.00001237,-0.00003596,-0.00002903,-0.00003318
 ,-0.00001545,0.00000995,0.00000425,-0.00000815,-0.00000177,-0.00000814
 ,-0.00000017,-0.00000668,-0.00000147,-0.00000318,0.00000174,0.00000254
 ,-0.00001656,-0.00002974,0.00000291,-0.00011099,0.00003614,0.00001523,
 -0.00003324,0.00011471,0.00000552,-0.00025643,-0.00011436,0.00034653,-
 0.00035223,-0.00111903,0.00005811,0.02676240,0.00553092,-0.00731227,-0
 .09351575,-0.01558983,0.08072059\\-0.00017902,-0.00837508,-0.00699711,
 0.02804851,0.00651620,-0.01730905,-0.00672750,-0.04385723,0.03243869,0
 .01648111,-0.01092894,0.02907028,-0.01274682,0.00051266,-0.03091993,-0
 .01703560,0.00970146,-0.01881363,0.00068844,0.01682752,0.00656579,0.00
 995038,0.00416956,0.01490044,0.00994783,0.00898548,0.00425936,-0.00888
 314,0.02498041,-0.01287715,0.01484049,-0.02768418,0.01353530,-0.026655
 38,0.01461402,0.01158922,0.01027920,-0.00455733,0.00951315,-0.03326449
 ,0.00951130,-0.02293168,0.02019727,-0.00365657,0.00351232,-0.00255883,
 -0.01533032,-0.02024107,0.00020878,0.03207055,0.03204730,-0.00948570,0
 .00107066,0.01604076,0.00878770,0.00906941,-0.02104809,0.00135264,-0.0
 1547388,0.01222523,0.01130015,0.00085562,-0.01600910,-0.01025076,-0.01
 470377,0.02825569,0.03067284,-0.02392922,-0.01610711,-0.02002601,-0.00
 669769,0.00722010,0.00363597,0.03592971,-0.00479908,-0.03462224,0.0079
 2471,0.01166181,0.01015713,0.00342058,0.00781379,0.02299812,0.00055333
 ,-0.02713421,-0.00321657,-0.00700686,0.00936474,-0.00045168,0.00203068
 ,-0.00044240,-0.00171847,-0.00452164,-0.00128179,-0.02046221,-0.004852
 83,-0.00182751,0.01789193,0.00267456,-0.00083930,-0.02299834,-0.002358
 18,-0.00028175,0.01794150,0.00189996,0.00188280,-0.02585996,0.00045371
 ,-0.00043379,-0.00053944,-0.00667738,-0.01799707,0.02175271,-0.0020056
 3,0.00217047,-0.02090499,-0.00093226,0.00420145,0.01894631,0.00392491,
 -0.00438818,0.02100412,0.00397229,0.00091417,-0.01615202,-0.00244251,0
 .00008254,0.01896112,0.00267469,-0.00173551,-0.00160086,0.00697332,-0.
 01753115,-0.01970421,-0.00532579,0.00268028\\\@


 IF AT FIRST YOU DON'T SUCCEED, TRY LOOKING IN 
 THE WASTEBASKET FOR THE DIRECTIONS.
 Job cpu time:  3 days 23 hours 44 minutes  4.9 seconds.
 File lengths (MBytes):  RWF=   2340 Int=      0 D2E=      0 Chk=     43 Scr=      1
 Normal termination of Gaussian 09 at Fri Feb 12 13:39:57 2016.
Gaussian '09 finished on node031 at Fri Feb 12 13:39:57 EST 2016.
