Gaussian '09 started on node030 at Wed Jan 20 15:58:13 EST 2016.
 Entering Gaussian System, Link 0=/usr/local/gaussian/g09/g09
 Initial command:
 /usr/local/gaussian/g09/l1.exe /home/srmcgrat/thesis/gaussian/cellobiose/280/5000/gaussian14238/Gau-14274.inp -scrdir=/home/srmcgrat/thesis/gaussian/cellobiose/280/5000/gaussian14238/
 Entering Link 1 = /usr/local/gaussian/g09/l1.exe PID=     14276.
  
 Copyright (c) 1988,1990,1992,1993,1995,1998,2003,2009,2010,
            Gaussian, Inc.  All Rights Reserved.
  
 This is part of the Gaussian(R) 09 program.  It is based on
 the Gaussian(R) 03 system (copyright 2003, Gaussian, Inc.),
 the Gaussian(R) 98 system (copyright 1998, Gaussian, Inc.),
 the Gaussian(R) 94 system (copyright 1995, Gaussian, Inc.),
 the Gaussian 92(TM) system (copyright 1992, Gaussian, Inc.),
 the Gaussian 90(TM) system (copyright 1990, Gaussian, Inc.),
 the Gaussian 88(TM) system (copyright 1988, Gaussian, Inc.),
 the Gaussian 86(TM) system (copyright 1986, Carnegie Mellon
 University), and the Gaussian 82(TM) system (copyright 1983,
 Carnegie Mellon University). Gaussian is a federally registered
 trademark of Gaussian, Inc.
  
 This software contains proprietary and confidential information,
 including trade secrets, belonging to Gaussian, Inc.
  
 This software is provided under written license and may be
 used, copied, transmitted, or stored only in accord with that
 written license.
  
 The following legend is applicable only to US Government
 contracts under FAR:
  
                    RESTRICTED RIGHTS LEGEND
  
 Use, reproduction and disclosure by the US Government is
 subject to restrictions as set forth in subparagraphs (a)
 and (c) of the Commercial Computer Software - Restricted
 Rights clause in FAR 52.227-19.
  
 Gaussian, Inc.
 340 Quinnipiac St., Bldg. 40, Wallingford CT 06492
  
  
 ---------------------------------------------------------------
 Warning -- This program may not be used in any manner that
 competes with the business of Gaussian, Inc. or will provide
 assistance to any competitor of Gaussian, Inc.  The licensee
 of this program is prohibited from giving any competitor of
 Gaussian, Inc. access to this program.  By using this program,
 the user acknowledges that Gaussian, Inc. is engaged in the
 business of creating and licensing software in the field of
 computational chemistry and represents and warrants to the
 licensee that it is not a competitor of Gaussian, Inc. and that
 it will not use this program in any manner prohibited above.
 ---------------------------------------------------------------
  

 Cite this work as:
 Gaussian 09, Revision B.01,
 M. J. Frisch, G. W. Trucks, H. B. Schlegel, G. E. Scuseria, 
 M. A. Robb, J. R. Cheeseman, G. Scalmani, V. Barone, B. Mennucci, 
 G. A. Petersson, H. Nakatsuji, M. Caricato, X. Li, H. P. Hratchian, 
 A. F. Izmaylov, J. Bloino, G. Zheng, J. L. Sonnenberg, M. Hada, 
 M. Ehara, K. Toyota, R. Fukuda, J. Hasegawa, M. Ishida, T. Nakajima, 
 Y. Honda, O. Kitao, H. Nakai, T. Vreven, J. A. Montgomery, Jr., 
 J. E. Peralta, F. Ogliaro, M. Bearpark, J. J. Heyd, E. Brothers, 
 K. N. Kudin, V. N. Staroverov, T. Keith, R. Kobayashi, J. Normand, 
 K. Raghavachari, A. Rendell, J. C. Burant, S. S. Iyengar, J. Tomasi, 
 M. Cossi, N. Rega, J. M. Millam, M. Klene, J. E. Knox, J. B. Cross, 
 V. Bakken, C. Adamo, J. Jaramillo, R. Gomperts, R. E. Stratmann, 
 O. Yazyev, A. J. Austin, R. Cammi, C. Pomelli, J. W. Ochterski, 
 R. L. Martin, K. Morokuma, V. G. Zakrzewski, G. A. Voth, 
 P. Salvador, J. J. Dannenberg, S. Dapprich, A. D. Daniels, 
 O. Farkas, J. B. Foresman, J. V. Ortiz, J. Cioslowski, 
 and D. J. Fox, Gaussian, Inc., Wallingford CT, 2010.
 
 ******************************************
 Gaussian 09:  EM64L-G09RevB.01 12-Aug-2010
                20-Jan-2016 
 ******************************************
 ------------------------------------------------
 # freq=raman b3lyp/6-31+g(d,p) geom=connectivity
 ------------------------------------------------
 1/10=4,30=1,38=1,57=2/1,3;
 2/12=2,17=6,18=5,40=1/2;
 3/5=1,6=6,7=111,11=2,16=1,25=1,30=1,71=2,74=-5/1,2,3;
 4//1;
 5/5=2,38=5,98=1/2;
 8/6=4,10=90,11=11/1;
 10/13=10,15=4/2;
 11/6=3,8=1,9=11,15=111,16=1/1,2,10;
 10/6=1/2;
 6/7=2,8=2,9=2,10=2,18=1,28=1/1;
 7/8=1,10=1,25=1/1,2,3,16;
 1/10=4,30=1/3;
 99//99;
 ------------
 280 5000.com
 ------------
 Symbolic Z-matrix:
 Charge =  0 Multiplicity = 1
 O                     7.63      7.47      12.175 
 C                     8.112     7.746     13.498 
 C                     7.673     9.139     13.92 
 O                     8.187     10.174    13.07 
 H                     8.166     9.907     12.106 
 C                     8.054     9.5       15.346 
 O                     7.52      10.768    15.756 
 H                     7.825     10.951    16.691 
 C                     8.428     5.398     14.342 
 O                     7.984     4.644     13.205 
 H                     8.248     3.685     13.308 
 C                     7.789     6.753     14.602 
 O                     8.195     7.19      15.907 
 C                     7.673     8.444     16.371 
 O                     8.532     8.729     17.484 
 C                     8.141     8.34      18.809 
 C                     8.922     7.173     19.39 
 O                     8.881     5.984     18.587 
 H                     8.895     6.31      17.641 
 C                     8.375     6.739     20.741 
 O                     9.14      5.655     21.288 
 H                     8.84      5.389     22.204 
 C                     7.842     10.787    19.415 
 O                     8.222     11.464    18.208 
 H                     7.904     12.402    18.34 
 C                     8.43      9.443     19.813 
 O                     7.806     9.103     21.06 
 C                     8.434     7.955     21.65 
 O                     7.77401   7.64656   22.88052 
 H                     8.37501   7.34636   11.58231 
 H                     6.60543   9.17013   13.85507 
 H                     9.17921   7.77329   13.42578 
 H                     9.12017   9.58734   15.36959 
 H                     6.72775   6.61735   14.61797 
 H                     8.27106   4.79441   15.21146 
 H                     9.4815    5.55239   14.23613 
 H                     6.63214   8.42317   16.61814 
 H                     8.04486   11.46086   20.22102 
 H                     9.48671   9.5377    19.95195 
 H                     7.09577   8.11141   18.82047 
 H                     9.94259   7.47052   19.51157 
 H                     7.35652   6.43113   20.62782 
 H                     9.45859   8.18642   21.85387 
 H                     6.78088   10.6564   19.37186 
 H                     8.42926   7.47598   23.56108 
 

 GradGradGradGradGradGradGradGradGradGradGradGradGradGradGradGradGradGrad
 Berny optimization.
 Initialization pass.
 Trust Radius=3.00D-01 FncErr=1.00D-07 GrdErr=1.00D-07
 Number of steps in this run=      2 maximum allowed number of steps=      2.
 GradGradGradGradGradGradGradGradGradGradGradGradGradGradGradGradGradGrad

                          Input orientation:                          
 ---------------------------------------------------------------------
 Center     Atomic      Atomic             Coordinates (Angstroms)
 Number     Number       Type             X           Y           Z
 ---------------------------------------------------------------------
      1          8           0        7.630000    7.470000   12.175000
      2          6           0        8.112000    7.746000   13.498000
      3          6           0        7.673000    9.139000   13.920000
      4          8           0        8.187000   10.174000   13.070000
      5          1           0        8.166000    9.907000   12.106000
      6          6           0        8.054000    9.500000   15.346000
      7          8           0        7.520000   10.768000   15.756000
      8          1           0        7.825000   10.951000   16.691000
      9          6           0        8.428000    5.398000   14.342000
     10          8           0        7.984000    4.644000   13.205000
     11          1           0        8.248000    3.685000   13.308000
     12          6           0        7.789000    6.753000   14.602000
     13          8           0        8.195000    7.190000   15.907000
     14          6           0        7.673000    8.444000   16.371000
     15          8           0        8.532000    8.729000   17.484000
     16          6           0        8.141000    8.340000   18.809000
     17          6           0        8.922000    7.173000   19.390000
     18          8           0        8.881000    5.984000   18.587000
     19          1           0        8.895000    6.310000   17.641000
     20          6           0        8.375000    6.739000   20.741000
     21          8           0        9.140000    5.655000   21.288000
     22          1           0        8.840000    5.389000   22.204000
     23          6           0        7.842000   10.787000   19.415000
     24          8           0        8.222000   11.464000   18.208000
     25          1           0        7.904000   12.402000   18.340000
     26          6           0        8.430000    9.443000   19.813000
     27          8           0        7.806000    9.103000   21.060000
     28          6           0        8.434000    7.955000   21.650000
     29          8           0        7.774012    7.646564   22.880521
     30          1           0        8.375007    7.346356   11.582314
     31          1           0        6.605425    9.170126   13.855071
     32          1           0        9.179211    7.773293   13.425783
     33          1           0        9.120168    9.587345   15.369588
     34          1           0        6.727754    6.617347   14.617975
     35          1           0        8.271062    4.794413   15.211456
     36          1           0        9.481497    5.552386   14.236131
     37          1           0        6.632140    8.423172   16.618136
     38          1           0        8.044865   11.460855   20.221018
     39          1           0        9.486705    9.537696   19.951947
     40          1           0        7.095767    8.111406   18.820468
     41          1           0        9.942589    7.470521   19.511567
     42          1           0        7.356519    6.431126   20.627823
     43          1           0        9.458588    8.186422   21.853870
     44          1           0        6.780877   10.656399   19.371861
     45          1           0        8.429256    7.475979   23.561077
 ---------------------------------------------------------------------
                    Distance matrix (angstroms):
                    1          2          3          4          5
     1  O    0.000000
     2  C    1.434862   0.000000
     3  C    2.415043   1.520281   0.000000
     4  O    2.902222   2.466575   1.434546   0.000000
     5  H    2.496202   2.571089   2.030633   1.000513   0.000000
     6  C    3.788920   2.548526   1.519526   2.377423   3.267383
     7  O    4.869545   3.818575   2.459257   2.830604   3.805409
     8  H    5.705229   4.533171   3.314346   3.721077   4.714705
     9  C    3.102560   2.515014   3.839686   4.948357   5.039784
    10  O    3.028612   3.118435   4.562124   5.535371   5.379600
    11  H    3.998980   4.067716   5.518268   6.493650   6.337571
    12  C    2.535685   1.519603   2.484266   3.769439   4.039785
    13  O    3.784897   2.473723   2.831829   4.117389   4.672315
    14  C    4.307777   2.988989   2.547631   3.762140   4.535818
    15  O    5.530295   4.126849   3.688913   4.657300   5.517656
    16  C    6.710289   5.344193   4.975917   6.025097   6.883772
    17  C    7.335782   5.974955   5.945255   7.034815   7.816837
    18  O    6.699772   5.440030   5.761439   6.962401   7.609502
    19  H    5.729134   4.454170   4.831394   6.027089   6.641240
    20  C    8.629354   7.317395   7.264905   8.407069   9.200170
    21  O    9.413878   8.131000   8.281170   9.426828  10.165496
    22  H   10.313850   9.048750   9.167827  10.332114  11.083150
    23  C    7.966494   6.658188   5.739294   6.383872   7.368912
    24  O    7.259448   6.001643   4.908561   5.297581   6.297761
    25  H    7.899805   6.720607   5.498812   5.728610   6.719853
    26  C    7.929172   6.546767   5.949194   6.786859   7.725467
    27  O    9.035535   7.688883   7.141329   8.070459   8.997229
    28  C    9.521411   8.161034   7.857091   8.865741   9.745259
    29  O   10.707946   9.389134   9.084521  10.139271  11.016058
    30  H    0.960000   1.974523   3.028393   3.200645   2.621990
    31  H    2.600542   2.103664   1.070000   2.031127   2.457158
    32  H    2.014075   1.070000   2.092386   2.621919   2.705759
    33  H    4.112072   2.812435   2.096810   2.550112   3.415204
    34  H    2.740290   2.108160   2.781976   4.144322   4.381824
    35  H    4.097535   3.416591   4.571758   5.790756   5.982762
    36  H    3.369503   2.689294   4.029194   4.939120   5.023013
    37  H    4.652496   3.519062   2.979218   4.251148   4.991377
    38  H    8.990965   7.681382   6.725483   7.267273   8.263332
    39  H    8.258549   6.837647   6.311329   7.032447   7.964894
    40  H    6.697690   5.430923   5.040212   6.205882   7.032328
    41  H    7.692418   6.292054   6.261029   7.203102   7.995945
    42  H    8.520814   7.289309   7.240693   8.474638   9.238962
    43  H    9.876108   8.475130   8.187919   9.095261   9.982592
    44  H    7.916373   6.689137   5.728977   6.474824   7.434575
    45  H   11.414097  10.071697   9.812641  10.835161  11.713153
                    6          7          8          9         10
     6  C    0.000000
     7  O    1.435646   0.000000
     8  H    1.991700   1.000369   0.000000
     9  C    4.239610   5.626789   6.059473   0.000000
    10  O    5.307496   6.650284   7.208032   1.434720   0.000000
    11  H    6.164844   7.529381   8.026106   2.008961   0.999993
    12  C    2.858281   4.186204   4.689181   1.520508   2.537226
    13  O    2.381324   3.644243   3.859621   2.390560   3.718527
    14  C    1.520172   2.408861   2.531907   3.736975   4.955833
    15  O    2.322492   2.857910   2.462921   4.580234   5.941159
    16  C    3.653155   3.949890   3.376848   5.356475   6.714900
    17  C    4.745765   5.300527   4.770880   5.373729   6.747585
    18  O    4.852862   5.723071   5.420428   4.309133   5.618375
    19  H    4.018757   5.031661   4.856571   3.454451   4.825305
    20  C    6.068953   6.466382   5.869067   6.538218   7.831552
    21  O    7.160362   7.705206   7.135072   6.987125   8.227597
    22  H    8.034319   8.500161   7.896787   7.872793   9.070268
    23  C    4.272947   3.673190   2.728985   7.424288   8.736173
    24  O    3.475135   2.643771   1.649869   7.196162   8.461622
    25  H    4.172306   3.081309   2.197918   8.081745   9.303827
    26  C    4.483159   4.363826   3.519513   6.803960   8.178935
    27  O    5.733141   5.566546   4.743799   7.697105   9.034124
    28  C    6.501680   6.594513   5.825683   7.742425   9.082029
    29  O    7.764189   7.782461   7.016557   8.853818  10.132877
    30  H    4.348167   5.464279   6.276515   3.378574   3.176275
    31  H    2.104770   2.646352   3.563898   4.217560   4.775864
    32  H    2.816887   4.141397   4.753247   2.654390   3.357044
    33  H    1.070000   2.025784   2.298510   4.368712   5.514796
    34  H    3.255555   4.376148   4.927670   2.110404   2.732902
    35  H    4.712512   6.045193   6.347565   1.070000   2.032460
    36  H    4.342029   5.775821   6.157549   1.070000   2.032460
    37  H    2.190793   2.651376   2.796094   4.190176   5.268696
    38  H    5.254602   4.548837   3.573419   8.453866   9.782522
    39  H    4.823776   4.794533   3.923323   7.051911   8.469219
    40  H    3.862426   4.077798   3.623495   5.403156   6.659230
    41  H    5.003749   5.553971   4.955151   5.771806   7.183181
    42  H    6.148343   6.524558   6.012263   6.459643   7.660669
    43  H    6.786068   6.899760   6.080027   8.078713   9.461824
    44  H    4.377860   3.692318   2.892058   7.460783   8.696357
    45  H    8.469060   8.519588   7.722620   9.450364  10.745543
                   11         12         13         14         15
    11  H    0.000000
    12  C    3.361211   0.000000
    13  O    4.363787   1.434862   0.000000
    14  C    5.688644   2.449959   1.435373   0.000000
    15  O    6.554507   3.572471   2.229130   1.434530   0.000000
    16  C    7.207043   4.510135   3.122022   2.484690   1.435210
    17  C    7.043518   4.938120   3.558104   3.505682   2.491199
    18  O    5.792576   4.202862   3.017852   3.524418   2.978831
    19  H    5.107262   3.264201   2.066678   2.767696   2.451118
    20  C    8.036948   6.166921   4.858329   4.743072   3.820052
    21  O    8.267827   6.908936   5.674893   5.840163   4.928444
    22  H    9.077053   7.794582   6.581173   6.687212   5.790411
    23  C    9.375430   6.280202   5.036773   3.845016   2.905207
    24  O    9.193667   5.948466   4.854112   3.577201   2.846138
    25  H   10.071020   6.774738   5.759263   4.426747   3.823356
    26  C    8.689230   5.899280   4.515315   3.663115   2.438122
    27  O    9.468030   6.872303   5.510381   4.736950   3.668069
    28  C    9.373178   7.178797   5.798655   5.355939   4.238424
    29  O   10.370719   8.326620   7.001120   6.558962   5.555957
    30  H    4.049648   3.132727   4.331254   4.962776   6.063518
    31  H    5.751865   2.793072   3.264669   2.827875   4.132240
    32  H    4.194659   2.087384   2.732277   3.375326   4.219169
    33  H    6.312566   3.224083   2.625264   2.098657   2.356573
    34  H    3.553286   1.070000   2.035271   2.702452   3.991050
    35  H    2.203287   2.107103   2.495677   3.875784   4.551211
    36  H    2.422823   2.107103   2.669955   4.023650   4.641237
    37  H    6.001523   2.862272   2.113991   1.070000   2.110147
    38  H   10.406489   7.335035   6.072355   4.905338   3.897640
    39  H    8.940384   6.265674   4.851987   4.160394   2.766986
    40  H    7.162961   4.485679   3.247399   2.538447   2.056778
    41  H    7.462309   5.408940   4.015678   3.995230   2.772104
    42  H    7.868656   6.049891   4.854391   4.719360   4.067629
    43  H    9.734486   7.578380   6.160744   5.772047   4.499857
    44  H    9.355387   6.245351   5.101071   3.833505   3.216414
    45  H   10.932976   9.010976   7.662999   7.294258   6.205762
                   16         17         18         19         20
    16  C    0.000000
    17  C    1.519675   0.000000
    18  O    2.479439   1.435344   0.000000
    19  H    2.460415   1.950512   1.000694   0.000000
    20  C    2.520036   1.520778   2.337900   3.172450   0.000000
    21  O    3.788491   2.440134   2.733262   3.713443   1.435092
    22  H    4.552255   3.332863   3.665842   4.655345   2.044283
    23  C    2.538591   3.772005   4.983364   4.929444   4.292863
    24  O    3.182316   4.505530   5.532479   5.228588   5.363313
    25  H    4.095848   5.429665   6.496635   6.211533   6.168972
    26  C    1.519258   2.360909   3.697453   3.840508   2.859340
    27  O    2.400291   2.785544   4.123047   4.547123   2.452349
    28  C    2.881901   2.440752   3.669689   4.357824   1.519348
    29  O    4.146423   3.704845   4.735384   5.522282   2.400502
    30  H    7.298430   7.828743   7.153857   6.168638   9.178802
    31  H    5.252477   6.323802   6.141726   5.268371   7.513840
    32  H    5.511630   5.999866   5.470709   4.471024   7.431616
    33  H    3.787373   4.693831   4.836635   3.993871   6.125391
    34  H    4.746524   5.281637   4.559688   3.732305   6.341897
    35  H    5.052764   4.851971   3.630625   2.930697   5.862430
    36  H    5.520766   5.431556   4.413270   3.537102   6.704156
    37  H    2.661477   3.806523   3.857895   3.260718   4.782468
    38  H    3.426773   4.454847   5.776251   5.823275   4.761857
    39  H    2.133478   2.495288   3.854700   4.013554   3.113068
    40  H    1.070000   2.130751   2.787009   2.805967   2.684842
    41  H    2.120217   1.070000   2.047325   2.437883   2.122254
    42  H    2.750878   2.129158   2.586295   3.361950   1.070000
    43  H    3.321273   2.717647   3.982048   4.646166   2.123128
    44  H    2.744531   4.088863   5.182455   5.133866   4.445423
    45  H    4.838581   4.210995   5.212631   6.051755   2.915290
                   21         22         23         24         25
    21  O    0.000000
    22  H    0.999906   0.000000
    23  C    5.615190   6.157348   0.000000
    24  O    6.638795   7.297641   1.435123   0.000000
    25  H    7.465950   8.061561   1.941055   0.999196   0.000000
    26  C    4.126581   4.724394   1.520028   2.589156   3.346952
    27  O    3.704085   4.021404   2.354395   3.725759   4.276845
    28  C    2.432998   2.656334   3.655942   4.919897   5.568915
    29  O    2.892814   2.586620   4.677264   6.050287   6.576276
    30  H    9.881611  10.810535   8.571645   7.802443   8.452674
    31  H    8.603989   9.433709   5.920829   5.179108   5.678547
    32  H    8.142675   9.102583   6.836760   6.116140   6.870271
    33  H    7.105725   8.025820   4.408883   3.519251   4.269040
    34  H    7.157812   7.969830   6.452829   6.213783   6.978483
    35  H    6.198391   7.040802   7.332460   7.311981   8.233948
    36  H    7.060879   7.995321   7.543860   7.232514   8.139254
    37  H    5.979947   6.729244   3.856669   3.781793   4.518132
    38  H    6.003809   6.436760   1.070000   2.020799   2.108038
    39  H    4.120749   4.764625   2.134040   2.889892   3.647954
    40  H    4.037515   4.679971   2.840623   3.589347   4.392413
    41  H    2.663828   3.577377   3.926937   4.539559   5.463324
    42  H    2.054023   2.402307   4.547556   5.651055   6.417570
    43  H    2.613390   2.886315   3.914645   5.056089   5.703956
    44  H    5.852439   6.325068   1.070000   2.020799   2.318031
    45  H    2.997999   2.523063   5.338323   6.678526   7.197307
                   26         27         28         29         30
    26  C    0.000000
    27  O    1.435265   0.000000
    28  C    2.364049   1.435405   0.000000
    29  O    3.614857   2.331636   1.430000   0.000000
    30  H    8.493711   9.655884  10.086240  11.318163   0.000000
    31  H    6.237023   7.304580   8.098218   9.227437   3.409249
    32  H    6.644229   7.869886   8.259909   9.559431   2.056063
    33  H    4.499009   5.860241   6.525255   7.873557   4.463265
    34  H    6.153880   6.988617   7.358666   8.391878   3.529891
    35  H    6.542846   7.279126   7.174309   8.197340   4.437779
    36  H    6.880697   7.872696   7.863540   9.056852   3.389011
    37  H    3.805195   4.644381   5.365216   6.412836   5.436600
    38  H    2.094409   2.514046   3.805842   4.657804   9.574200
    39  H    1.070000   2.059494   2.548823   3.884102   8.722878
    40  H    2.130362   2.550136   3.133940   4.142478   7.390036
    41  H    2.503890   3.102845   2.661476   4.010433   8.083674
    42  H    3.299649   2.743669   2.127911   2.593500   9.148562
    43  H    2.608089   2.049730   1.070000   2.045301  10.362660
    44  H    2.094409   2.512715   3.901319   4.728226   8.612472
    45  H    4.232878   3.048120   1.970203   0.960000  11.979587
                   31         32         33         34         35
    31  H    0.000000
    32  H    2.959697   0.000000
    33  H    2.965091   2.659445   0.000000
    34  H    2.667146   2.960941   3.887088   0.000000
    35  H    4.874525   3.589859   4.870131   2.461119   0.000000
    36  H    4.637353   2.383373   4.206682   2.977088   1.729432
    37  H    2.862374   4.135340   3.017359   2.696440   4.222879
    38  H    6.916987   7.814095   5.310621   7.522529   8.341962
    39  H    6.753427   6.767458   4.597263   6.677687   6.815334
    40  H    5.100637   5.792900   4.264408   4.475332   5.040707
    41  H    6.783898   6.140944   4.723697   5.916952   5.333527
    42  H    7.344143   7.549371   6.381318   6.045519   5.731688
    43  H    8.549210   8.442830   6.642517   7.891617   7.552324
    44  H    5.716185   7.029947   4.757453   6.238285   7.341151
    45  H   10.020133  10.167351   8.487386   9.143929   8.771089
                   36         37         38         39         40
    36  H    0.000000
    37  H    4.694060   0.000000
    38  H    8.531870   4.919763   0.000000
    39  H    6.968018   4.528245   2.418645   0.000000
    40  H    5.766840   2.272095   3.752484   3.005185   0.000000
    41  H    5.632236   4.498729   4.475204   2.162170   2.998792
    42  H    6.792750   4.535478   5.092886   3.826916   2.481504
    43  H    8.060311   5.954643   3.922592   2.333247   3.845787
    44  H    7.727874   3.548581   1.722174   2.984879   2.623010
    45  H    9.579251   7.234033   5.213731   4.288904   4.965414
                   41         42         43         44         45
    41  H    0.000000
    42  H    3.002354   0.000000
    43  H    2.496628   3.000492   0.000000
    44  H    4.490631   4.445417   4.408093   0.000000
    45  H    4.323047   3.293397   2.116320   5.511965   0.000000
 Stoichiometry    C12H22O11
 Framework group  C1[X(C12H22O11)]
 Deg. of freedom   129
 Full point group                 C1      NOp   1
 Largest Abelian subgroup         C1      NOp   1
 Largest concise Abelian subgroup C1      NOp   1
                         Standard orientation:                         
 ---------------------------------------------------------------------
 Center     Atomic      Atomic             Coordinates (Angstroms)
 Number     Number       Type             X           Y           Z
 ---------------------------------------------------------------------
      1          8           0       -5.139455   -0.365373    0.326793
      2          6           0       -3.783398   -0.193342   -0.109493
      3          6           0       -3.323981    1.222267    0.200734
      4          8           0       -4.101798    2.226482   -0.465952
      5          1           0       -5.076285    1.999782   -0.468869
      6          6           0       -1.866506    1.485840   -0.138757
      7          8           0       -1.429196    2.788056    0.278463
      8          1           0       -0.473131    2.901532    0.006800
      9          6           0       -3.026971   -2.591842   -0.127220
     10          8           0       -4.216197   -3.249824    0.332368
     11          1           0       -4.141718   -4.235029    0.178066
     12          6           0       -2.740805   -1.186149    0.376847
     13          8           0       -1.399537   -0.845249   -0.002121
     14          6           0       -0.908352    0.439726    0.407603
     15          8           0        0.257328    0.587611   -0.415315
     16          6           0        1.543157    0.193878    0.086129
     17          6           0        2.111358   -1.072118   -0.533397
     18          8           0        1.256678   -2.218578   -0.409455
     19          1           0        0.327523   -1.860696   -0.509355
     20          6           0        3.413415   -1.494572    0.129133
     21          8           0        3.950480   -2.675102   -0.485197
     22          1           0        4.838048   -2.941166   -0.109370
     23          6           0        2.238699    2.634355    0.154980
     24          8           0        1.082512    3.310936   -0.359849
     25          1           0        1.238923    4.272315   -0.136964
     26          6           0        2.607035    1.220394   -0.263978
     27          8           0        3.805546    0.903596    0.459345
     28          6           0        4.375928   -0.327233   -0.009816
     29          8           0        5.557568   -0.608145    0.744980
     30          1           0       -5.699086   -0.546897   -0.431799
     31          1           0       -3.440599    1.371676    1.253814
     32          1           0       -3.801122   -0.279525   -1.175870
     33          1           0       -1.786090    1.455822   -1.205309
     34          1           0       -2.783587   -1.206141    1.445805
     35          1           0       -2.193310   -3.207053    0.140035
     36          1           0       -3.073464   -2.549019   -1.195351
     37          1           0       -0.714499    0.522889    1.456605
     38          1           0        3.082189    3.251381   -0.074591
     39          1           0        2.802406    1.194370   -1.315668
     40          1           0        1.492659    0.079990    1.148851
     41          1           0        2.296353   -0.892084   -1.571792
     42          1           0        3.236449   -1.685436    1.166993
     43          1           0        4.640389   -0.216388   -1.040676
     44          1           0        2.137156    2.621590    1.220074
     45          1           0        6.261907   -0.874413    0.149490
 ---------------------------------------------------------------------
 Rotational constants (GHZ):      0.4086523      0.1432909      0.1089135
 Standard basis: 6-31+G(d,p) (6D, 7F)
 There are   547 symmetry adapted basis functions of A   symmetry.
 Integral buffers will be    131072 words long.
 Raffenetti 2 integral format.
 Two-electron integral symmetry is turned on.
   547 basis functions,   890 primitive gaussians,   547 cartesian basis functions
    91 alpha electrons       91 beta electrons
       nuclear repulsion energy      2280.2202420101 Hartrees.
 NAtoms=   45 NActive=   45 NUniq=   45 SFac= 1.00D+00 NAtFMM=   50 NAOKFM=F Big=F
 One-electron integrals computed using PRISM.
 NBasis=   547 RedAO= T  NBF=   547
 NBsUse=   547 1.00D-06 NBFU=   547
 Harris functional with IExCor=  402 diagonalized for initial guess.
 ExpMin= 4.38D-02 ExpMax= 5.48D+03 ExpMxC= 8.25D+02 IAcc=2 IRadAn=         0 AccDes= 0.00D+00
 HarFok:  IExCor=  402 AccDes= 0.00D+00 IRadAn=         0 IDoV= 1
 ScaDFX=  1.000000  1.000000  1.000000  1.000000
 FoFCou: FMM=F IPFlag=           0 FMFlag=      100000 FMFlg1=           0
         NFxFlg=           0 DoJE=T BraDBF=F KetDBF=T FulRan=T
         Omega=  0.000000  0.000000  1.000000  0.000000  0.000000 ICntrl=     500 IOpCl=  0
         NMat0=    1 NMatS0=    1 NMatT0=    0 NMatD0=    1 NMtDS0=    0 NMtDT0=    0
         I1Cent=           4 NGrid=           0.
 Petite list used in FoFCou.
 Initial guess orbital symmetries:
       Occupied  (A) (A) (A) (A) (A) (A) (A) (A) (A) (A) (A) (A)
                 (A) (A) (A) (A) (A) (A) (A) (A) (A) (A) (A) (A)
                 (A) (A) (A) (A) (A) (A) (A) (A) (A) (A) (A) (A)
                 (A) (A) (A) (A) (A) (A) (A) (A) (A) (A) (A) (A)
                 (A) (A) (A) (A) (A) (A) (A) (A) (A) (A) (A) (A)
                 (A) (A) (A) (A) (A) (A) (A) (A) (A) (A) (A) (A)
                 (A) (A) (A) (A) (A) (A) (A) (A) (A) (A) (A) (A)
                 (A) (A) (A) (A) (A) (A) (A)
       Virtual   (A) (A) (A) (A) (A) (A) (A) (A) (A) (A) (A) (A)
                 (A) (A) (A) (A) (A) (A) (A) (A) (A) (A) (A) (A)
                 (A) (A) (A) (A) (A) (A) (A) (A) (A) (A) (A) (A)
                 (A) (A) (A) (A) (A) (A) (A) (A) (A) (A) (A) (A)
                 (A) (A) (A) (A) (A) (A) (A) (A) (A) (A) (A) (A)
                 (A) (A) (A) (A) (A) (A) (A) (A) (A) (A) (A) (A)
                 (A) (A) (A) (A) (A) (A) (A) (A) (A) (A) (A) (A)
                 (A) (A) (A) (A) (A) (A) (A) (A) (A) (A) (A) (A)
                 (A) (A) (A) (A) (A) (A) (A) (A) (A) (A) (A) (A)
                 (A) (A) (A) (A) (A) (A) (A) (A) (A) (A) (A) (A)
                 (A) (A) (A) (A) (A) (A) (A) (A) (A) (A) (A) (A)
                 (A) (A) (A) (A) (A) (A) (A) (A) (A) (A) (A) (A)
                 (A) (A) (A) (A) (A) (A) (A) (A) (A) (A) (A) (A)
                 (A) (A) (A) (A) (A) (A) (A) (A) (A) (A) (A) (A)
                 (A) (A) (A) (A) (A) (A) (A) (A) (A) (A) (A) (A)
                 (A) (A) (A) (A) (A) (A) (A) (A) (A) (A) (A) (A)
                 (A) (A) (A) (A) (A) (A) (A) (A) (A) (A) (A) (A)
                 (A) (A) (A) (A) (A) (A) (A) (A) (A) (A) (A) (A)
                 (A) (A) (A) (A) (A) (A) (A) (A) (A) (A) (A) (A)
                 (A) (A) (A) (A) (A) (A) (A) (A) (A) (A) (A) (A)
                 (A) (A) (A) (A) (A) (A) (A) (A) (A) (A) (A) (A)
                 (A) (A) (A) (A) (A) (A) (A) (A) (A) (A) (A) (A)
                 (A) (A) (A) (A) (A) (A) (A) (A) (A) (A) (A) (A)
                 (A) (A) (A) (A) (A) (A) (A) (A) (A) (A) (A) (A)
                 (A) (A) (A) (A) (A) (A) (A) (A) (A) (A) (A) (A)
                 (A) (A) (A) (A) (A) (A) (A) (A) (A) (A) (A) (A)
                 (A) (A) (A) (A) (A) (A) (A) (A) (A) (A) (A) (A)
                 (A) (A) (A) (A) (A) (A) (A) (A) (A) (A) (A) (A)
                 (A) (A) (A) (A) (A) (A) (A) (A) (A) (A) (A) (A)
                 (A) (A) (A) (A) (A) (A) (A) (A) (A) (A) (A) (A)
                 (A) (A) (A) (A) (A) (A) (A) (A) (A) (A) (A) (A)
                 (A) (A) (A) (A) (A) (A) (A) (A) (A) (A) (A) (A)
                 (A) (A) (A) (A) (A) (A) (A) (A) (A) (A) (A) (A)
                 (A) (A) (A) (A) (A) (A) (A) (A) (A) (A) (A) (A)
                 (A) (A) (A) (A) (A) (A) (A) (A) (A) (A) (A) (A)
                 (A) (A) (A) (A) (A) (A) (A) (A) (A) (A) (A) (A)
                 (A) (A) (A) (A) (A) (A) (A) (A) (A) (A) (A) (A)
                 (A) (A) (A) (A) (A) (A) (A) (A) (A) (A) (A) (A)
 The electronic state of the initial guess is 1-A.
 Requested convergence on RMS density matrix=1.00D-08 within 128 cycles.
 Requested convergence on MAX density matrix=1.00D-06.
 Requested convergence on             energy=1.00D-06.
 No special actions if energy rises.
 SCF Done:  E(RB3LYP) =  -1297.94286716     A.U. after   14 cycles
             Convg  =    0.2205D-08             -V/T =  2.0087
 Range of M.O.s used for correlation:     1   547
 NBasis=   547 NAE=    91 NBE=    91 NFC=     0 NFV=     0
 NROrb=    547 NOA=    91 NOB=    91 NVA=   456 NVB=   456

 **** Warning!!: The largest alpha MO coefficient is  0.66502694D+02

          Differentiating once with respect to electric field.
                with respect to dipole field.
          Electric field/nuclear overlap derivatives assumed to be zero.
          There are     3 degrees of freedom in the 1st order CPHF.  IDoFFX=0.
      3 vectors produced by pass  0 Test12= 1.38D-12 3.33D-08 XBig12= 1.20D+02 1.11D+00.
 AX will form     3 AO Fock derivatives at one time.
      3 vectors produced by pass  1 Test12= 1.38D-12 3.33D-08 XBig12= 2.05D+01 4.04D-01.
      3 vectors produced by pass  2 Test12= 1.38D-12 3.33D-08 XBig12= 8.89D+00 1.75D-01.
      3 vectors produced by pass  3 Test12= 1.38D-12 3.33D-08 XBig12= 9.17D-01 7.92D-02.
      3 vectors produced by pass  4 Test12= 1.38D-12 3.33D-08 XBig12= 3.03D-01 4.25D-02.
      3 vectors produced by pass  5 Test12= 1.38D-12 3.33D-08 XBig12= 4.99D-02 1.42D-02.
      3 vectors produced by pass  6 Test12= 1.38D-12 3.33D-08 XBig12= 1.84D-02 1.31D-02.
      3 vectors produced by pass  7 Test12= 1.38D-12 3.33D-08 XBig12= 1.93D-03 4.91D-03.
      3 vectors produced by pass  8 Test12= 1.38D-12 3.33D-08 XBig12= 4.54D-04 1.93D-03.
      3 vectors produced by pass  9 Test12= 1.38D-12 3.33D-08 XBig12= 1.11D-04 1.16D-03.
      3 vectors produced by pass 10 Test12= 1.38D-12 3.33D-08 XBig12= 3.72D-05 6.58D-04.
      3 vectors produced by pass 11 Test12= 1.38D-12 3.33D-08 XBig12= 5.82D-06 2.94D-04.
      3 vectors produced by pass 12 Test12= 1.38D-12 3.33D-08 XBig12= 6.63D-07 8.38D-05.
      3 vectors produced by pass 13 Test12= 1.38D-12 3.33D-08 XBig12= 2.14D-07 3.21D-05.
      3 vectors produced by pass 14 Test12= 1.38D-12 3.33D-08 XBig12= 2.62D-08 1.20D-05.
      3 vectors produced by pass 15 Test12= 1.38D-12 3.33D-08 XBig12= 6.45D-09 8.04D-06.
      3 vectors produced by pass 16 Test12= 1.38D-12 3.33D-08 XBig12= 7.93D-10 2.64D-06.
      3 vectors produced by pass 17 Test12= 1.38D-12 3.33D-08 XBig12= 5.04D-11 5.28D-07.
      3 vectors produced by pass 18 Test12= 1.38D-12 3.33D-08 XBig12= 1.46D-11 2.94D-07.
      3 vectors produced by pass 19 Test12= 1.38D-12 3.33D-08 XBig12= 2.42D-11 4.82D-07.
      3 vectors produced by pass 20 Test12= 1.38D-12 3.33D-08 XBig12= 6.20D-12 1.97D-07.
      1 vectors produced by pass 21 Test12= 1.38D-12 3.33D-08 XBig12= 2.01D-12 1.06D-07.
 Inverted reduced A of dimension    64 with in-core refinement.
 End of Minotr Frequency-dependent properties file   721 does not exist.
 End of Minotr Frequency-dependent properties file   722 does not exist.
 Symmetrizing basis deriv contribution to polar:
 IMax=3 JMax=2 DiffMx= 0.00D+00
 G2DrvN: will do    23 centers at a time, making    2 passes doing MaxLOS=2.
 Calling FoFCou, ICntrl=  3107 FMM=F I1Cent=   0 AccDes= 0.00D+00.
 Calling FoFCou, ICntrl=  3107 FMM=F I1Cent=   0 AccDes= 0.00D+00.
 FoFDir/FoFCou used for L=0 through L=2.
 End of G2Drv Frequency-dependent properties file   721 does not exist.
 End of G2Drv Frequency-dependent properties file   722 does not exist.
          IDoAtm=111111111111111111111111111111111111111111111
          Differentiating once with respect to electric field.
                with respect to dipole field.
          Differentiating once with respect to nuclear coordinates.
          There are   138 degrees of freedom in the 1st order CPHF.  IDoFFX=5.
 Will reuse    3 saved solutions.
    135 vectors produced by pass  0 Test12= 4.15D-14 1.00D-09 XBig12= 2.10D-01 7.65D-02.
 AX will form    68 AO Fock derivatives at one time.
    135 vectors produced by pass  1 Test12= 4.15D-14 1.00D-09 XBig12= 3.46D-02 1.70D-02.
    132 vectors produced by pass  2 Test12= 4.15D-14 1.00D-09 XBig12= 2.10D-04 1.39D-03.
    132 vectors produced by pass  3 Test12= 4.15D-14 1.00D-09 XBig12= 7.12D-07 8.35D-05.
    132 vectors produced by pass  4 Test12= 4.15D-14 1.00D-09 XBig12= 1.20D-09 2.71D-06.
    130 vectors produced by pass  5 Test12= 4.15D-14 1.00D-09 XBig12= 3.53D-12 1.35D-07.
     77 vectors produced by pass  6 Test12= 4.15D-14 1.00D-09 XBig12= 1.20D-13 3.63D-08.
 Inverted reduced A of dimension   873 with in-core refinement.
 Isotropic polarizability for W=    0.000000      187.89 Bohr**3.
 End of Minotr Frequency-dependent properties file   721 does not exist.
 End of Minotr Frequency-dependent properties file   722 does not exist.

 **********************************************************************

            Population analysis using the SCF density.

 **********************************************************************

 Orbital symmetries:
       Occupied  (A) (A) (A) (A) (A) (A) (A) (A) (A) (A) (A) (A)
                 (A) (A) (A) (A) (A) (A) (A) (A) (A) (A) (A) (A)
                 (A) (A) (A) (A) (A) (A) (A) (A) (A) (A) (A) (A)
                 (A) (A) (A) (A) (A) (A) (A) (A) (A) (A) (A) (A)
                 (A) (A) (A) (A) (A) (A) (A) (A) (A) (A) (A) (A)
                 (A) (A) (A) (A) (A) (A) (A) (A) (A) (A) (A) (A)
                 (A) (A) (A) (A) (A) (A) (A) (A) (A) (A) (A) (A)
                 (A) (A) (A) (A) (A) (A) (A)
       Virtual   (A) (A) (A) (A) (A) (A) (A) (A) (A) (A) (A) (A)
                 (A) (A) (A) (A) (A) (A) (A) (A) (A) (A) (A) (A)
                 (A) (A) (A) (A) (A) (A) (A) (A) (A) (A) (A) (A)
                 (A) (A) (A) (A) (A) (A) (A) (A) (A) (A) (A) (A)
                 (A) (A) (A) (A) (A) (A) (A) (A) (A) (A) (A) (A)
                 (A) (A) (A) (A) (A) (A) (A) (A) (A) (A) (A) (A)
                 (A) (A) (A) (A) (A) (A) (A) (A) (A) (A) (A) (A)
                 (A) (A) (A) (A) (A) (A) (A) (A) (A) (A) (A) (A)
                 (A) (A) (A) (A) (A) (A) (A) (A) (A) (A) (A) (A)
                 (A) (A) (A) (A) (A) (A) (A) (A) (A) (A) (A) (A)
                 (A) (A) (A) (A) (A) (A) (A) (A) (A) (A) (A) (A)
                 (A) (A) (A) (A) (A) (A) (A) (A) (A) (A) (A) (A)
                 (A) (A) (A) (A) (A) (A) (A) (A) (A) (A) (A) (A)
                 (A) (A) (A) (A) (A) (A) (A) (A) (A) (A) (A) (A)
                 (A) (A) (A) (A) (A) (A) (A) (A) (A) (A) (A) (A)
                 (A) (A) (A) (A) (A) (A) (A) (A) (A) (A) (A) (A)
                 (A) (A) (A) (A) (A) (A) (A) (A) (A) (A) (A) (A)
                 (A) (A) (A) (A) (A) (A) (A) (A) (A) (A) (A) (A)
                 (A) (A) (A) (A) (A) (A) (A) (A) (A) (A) (A) (A)
                 (A) (A) (A) (A) (A) (A) (A) (A) (A) (A) (A) (A)
                 (A) (A) (A) (A) (A) (A) (A) (A) (A) (A) (A) (A)
                 (A) (A) (A) (A) (A) (A) (A) (A) (A) (A) (A) (A)
                 (A) (A) (A) (A) (A) (A) (A) (A) (A) (A) (A) (A)
                 (A) (A) (A) (A) (A) (A) (A) (A) (A) (A) (A) (A)
                 (A) (A) (A) (A) (A) (A) (A) (A) (A) (A) (A) (A)
                 (A) (A) (A) (A) (A) (A) (A) (A) (A) (A) (A) (A)
                 (A) (A) (A) (A) (A) (A) (A) (A) (A) (A) (A) (A)
                 (A) (A) (A) (A) (A) (A) (A) (A) (A) (A) (A) (A)
                 (A) (A) (A) (A) (A) (A) (A) (A) (A) (A) (A) (A)
                 (A) (A) (A) (A) (A) (A) (A) (A) (A) (A) (A) (A)
                 (A) (A) (A) (A) (A) (A) (A) (A) (A) (A) (A) (A)
                 (A) (A) (A) (A) (A) (A) (A) (A) (A) (A) (A) (A)
                 (A) (A) (A) (A) (A) (A) (A) (A) (A) (A) (A) (A)
                 (A) (A) (A) (A) (A) (A) (A) (A) (A) (A) (A) (A)
                 (A) (A) (A) (A) (A) (A) (A) (A) (A) (A) (A) (A)
                 (A) (A) (A) (A) (A) (A) (A) (A) (A) (A) (A) (A)
                 (A) (A) (A) (A) (A) (A) (A) (A) (A) (A) (A) (A)
                 (A) (A) (A) (A) (A) (A) (A) (A) (A) (A) (A) (A)
 The electronic state is 1-A.
 Alpha  occ. eigenvalues --  -19.20137 -19.19566 -19.19276 -19.19207 -19.19085
 Alpha  occ. eigenvalues --  -19.17706 -19.17323 -19.17050 -19.15557 -19.15017
 Alpha  occ. eigenvalues --  -19.13077 -10.31296 -10.31203 -10.27078 -10.26358
 Alpha  occ. eigenvalues --  -10.26080 -10.25875 -10.25346 -10.25256 -10.24786
 Alpha  occ. eigenvalues --  -10.24480 -10.24087 -10.23796  -1.10151  -1.09473
 Alpha  occ. eigenvalues --   -1.06180  -1.05081  -1.04390  -1.03895  -1.03072
 Alpha  occ. eigenvalues --   -1.02569  -1.01500  -1.00795  -0.99206  -0.82939
 Alpha  occ. eigenvalues --   -0.80345  -0.79798  -0.78261  -0.72320  -0.69972
 Alpha  occ. eigenvalues --   -0.67400  -0.65024  -0.63243  -0.62750  -0.62056
 Alpha  occ. eigenvalues --   -0.59998  -0.56725  -0.56014  -0.55311  -0.55132
 Alpha  occ. eigenvalues --   -0.54274  -0.53754  -0.53141  -0.51800  -0.51007
 Alpha  occ. eigenvalues --   -0.50736  -0.50386  -0.49680  -0.48730  -0.46811
 Alpha  occ. eigenvalues --   -0.46277  -0.45365  -0.44325  -0.43821  -0.43496
 Alpha  occ. eigenvalues --   -0.42598  -0.41646  -0.41040  -0.40581  -0.39838
 Alpha  occ. eigenvalues --   -0.38453  -0.38123  -0.37896  -0.36078  -0.35410
 Alpha  occ. eigenvalues --   -0.35171  -0.34714  -0.34451  -0.34333  -0.33477
 Alpha  occ. eigenvalues --   -0.32868  -0.31487  -0.31314  -0.30470  -0.29673
 Alpha  occ. eigenvalues --   -0.29311  -0.28732  -0.28661  -0.26999  -0.26674
 Alpha  occ. eigenvalues --   -0.26013
 Alpha virt. eigenvalues --   -0.02328  -0.02131  -0.01910  -0.00389   0.00027
 Alpha virt. eigenvalues --    0.00888   0.01638   0.02338   0.03007   0.03418
 Alpha virt. eigenvalues --    0.03730   0.04338   0.04521   0.05157   0.05721
 Alpha virt. eigenvalues --    0.06205   0.06391   0.07346   0.07783   0.07908
 Alpha virt. eigenvalues --    0.08776   0.08859   0.09207   0.09563   0.09975
 Alpha virt. eigenvalues --    0.10208   0.10802   0.11358   0.11730   0.11882
 Alpha virt. eigenvalues --    0.12570   0.12907   0.13064   0.13690   0.13817
 Alpha virt. eigenvalues --    0.14245   0.14431   0.14856   0.14992   0.15569
 Alpha virt. eigenvalues --    0.15913   0.16100   0.16521   0.16703   0.17244
 Alpha virt. eigenvalues --    0.17376   0.17662   0.17824   0.18097   0.18649
 Alpha virt. eigenvalues --    0.18699   0.19065   0.19291   0.19694   0.20050
 Alpha virt. eigenvalues --    0.20351   0.20807   0.21116   0.21391   0.21910
 Alpha virt. eigenvalues --    0.22153   0.22319   0.22468   0.23056   0.23262
 Alpha virt. eigenvalues --    0.23592   0.23885   0.24175   0.24366   0.24617
 Alpha virt. eigenvalues --    0.24925   0.25044   0.25342   0.25561   0.25897
 Alpha virt. eigenvalues --    0.26417   0.26756   0.26958   0.27044   0.27455
 Alpha virt. eigenvalues --    0.27779   0.27945   0.28229   0.28459   0.28632
 Alpha virt. eigenvalues --    0.29070   0.29261   0.30023   0.30339   0.31003
 Alpha virt. eigenvalues --    0.31146   0.31324   0.31754   0.32018   0.32343
 Alpha virt. eigenvalues --    0.32574   0.32728   0.33115   0.34085   0.34293
 Alpha virt. eigenvalues --    0.34431   0.34857   0.35195   0.35627   0.35660
 Alpha virt. eigenvalues --    0.36445   0.36594   0.36975   0.37373   0.37689
 Alpha virt. eigenvalues --    0.37974   0.38159   0.39082   0.39269   0.39802
 Alpha virt. eigenvalues --    0.40009   0.40545   0.40935   0.41464   0.41553
 Alpha virt. eigenvalues --    0.42178   0.42394   0.43383   0.43550   0.44326
 Alpha virt. eigenvalues --    0.44564   0.45488   0.46035   0.46392   0.46924
 Alpha virt. eigenvalues --    0.47366   0.48312   0.49328   0.49538   0.50285
 Alpha virt. eigenvalues --    0.51568   0.51823   0.56557   0.62731   0.63325
 Alpha virt. eigenvalues --    0.64387   0.66052   0.67881   0.68808   0.69917
 Alpha virt. eigenvalues --    0.70898   0.71259   0.71921   0.73479   0.74492
 Alpha virt. eigenvalues --    0.74853   0.75688   0.76592   0.77956   0.79303
 Alpha virt. eigenvalues --    0.79438   0.80481   0.81729   0.82512   0.83390
 Alpha virt. eigenvalues --    0.85331   0.85795   0.87881   0.88181   0.89301
 Alpha virt. eigenvalues --    0.90849   0.91975   0.92441   0.93452   0.94585
 Alpha virt. eigenvalues --    0.95747   0.96009   0.97352   0.98972   1.00261
 Alpha virt. eigenvalues --    1.01229   1.02800   1.02997   1.03510   1.04589
 Alpha virt. eigenvalues --    1.04977   1.05287   1.06153   1.07124   1.07797
 Alpha virt. eigenvalues --    1.08497   1.08982   1.09403   1.10087   1.10959
 Alpha virt. eigenvalues --    1.11299   1.12302   1.12647   1.14963   1.15798
 Alpha virt. eigenvalues --    1.16303   1.18000   1.18813   1.19547   1.20855
 Alpha virt. eigenvalues --    1.21969   1.22818   1.23762   1.24793   1.25334
 Alpha virt. eigenvalues --    1.25591   1.25815   1.27215   1.27757   1.28645
 Alpha virt. eigenvalues --    1.29298   1.29597   1.30230   1.30607   1.31690
 Alpha virt. eigenvalues --    1.31994   1.33189   1.33595   1.34515   1.34974
 Alpha virt. eigenvalues --    1.35410   1.36672   1.37337   1.37600   1.37732
 Alpha virt. eigenvalues --    1.39293   1.40035   1.41753   1.43235   1.43353
 Alpha virt. eigenvalues --    1.44891   1.45662   1.46435   1.48089   1.48422
 Alpha virt. eigenvalues --    1.49141   1.49871   1.50424   1.52443   1.53083
 Alpha virt. eigenvalues --    1.54465   1.55881   1.56697   1.57065   1.57615
 Alpha virt. eigenvalues --    1.58664   1.59454   1.59838   1.60051   1.61234
 Alpha virt. eigenvalues --    1.61813   1.63458   1.63923   1.64571   1.65244
 Alpha virt. eigenvalues --    1.66745   1.66961   1.67835   1.68575   1.69003
 Alpha virt. eigenvalues --    1.69482   1.71669   1.72150   1.73042   1.74111
 Alpha virt. eigenvalues --    1.75176   1.76303   1.76733   1.77319   1.77870
 Alpha virt. eigenvalues --    1.78557   1.79100   1.79637   1.81257   1.81655
 Alpha virt. eigenvalues --    1.82664   1.83423   1.85188   1.85992   1.86630
 Alpha virt. eigenvalues --    1.87407   1.87948   1.89501   1.89718   1.91612
 Alpha virt. eigenvalues --    1.92723   1.93062   1.93574   1.93977   1.94112
 Alpha virt. eigenvalues --    1.95022   1.95800   1.96308   1.97388   1.98338
 Alpha virt. eigenvalues --    1.99069   1.99513   2.00527   2.01161   2.02254
 Alpha virt. eigenvalues --    2.02826   2.03711   2.05534   2.06215   2.06414
 Alpha virt. eigenvalues --    2.08278   2.08811   2.09716   2.10554   2.10851
 Alpha virt. eigenvalues --    2.11378   2.12880   2.13465   2.15146   2.15526
 Alpha virt. eigenvalues --    2.16719   2.17753   2.18386   2.19022   2.20924
 Alpha virt. eigenvalues --    2.21822   2.22857   2.24782   2.25628   2.26989
 Alpha virt. eigenvalues --    2.29368   2.30645   2.32029   2.34174   2.34739
 Alpha virt. eigenvalues --    2.35703   2.36387   2.36703   2.37565   2.37816
 Alpha virt. eigenvalues --    2.41213   2.42173   2.42989   2.43347   2.44529
 Alpha virt. eigenvalues --    2.45313   2.46834   2.46989   2.48936   2.50077
 Alpha virt. eigenvalues --    2.50512   2.52294   2.52810   2.54523   2.55559
 Alpha virt. eigenvalues --    2.57102   2.57969   2.59553   2.60228   2.61087
 Alpha virt. eigenvalues --    2.61494   2.61737   2.62482   2.63384   2.64552
 Alpha virt. eigenvalues --    2.66295   2.66969   2.67737   2.68629   2.69670
 Alpha virt. eigenvalues --    2.70305   2.71414   2.72479   2.73157   2.73678
 Alpha virt. eigenvalues --    2.75783   2.76823   2.77269   2.79232   2.79627
 Alpha virt. eigenvalues --    2.81375   2.82279   2.83372   2.84825   2.84993
 Alpha virt. eigenvalues --    2.87135   2.87638   2.88776   2.89088   2.89622
 Alpha virt. eigenvalues --    2.90810   2.91234   2.92534   2.92973   2.93267
 Alpha virt. eigenvalues --    2.94606   2.96752   2.98241   2.98750   2.99969
 Alpha virt. eigenvalues --    3.01654   3.03240   3.03802   3.05371   3.06193
 Alpha virt. eigenvalues --    3.07417   3.07996   3.09292   3.11326   3.13052
 Alpha virt. eigenvalues --    3.17327   3.18562   3.21966   3.24507   3.29889
 Alpha virt. eigenvalues --    3.33974   3.36549   3.37037   3.38583   3.41306
 Alpha virt. eigenvalues --    3.42697   3.45031   3.46216   3.46268   3.47946
 Alpha virt. eigenvalues --    3.48487   3.50447   3.52216   3.52634   3.53042
 Alpha virt. eigenvalues --    3.55507   3.56484   3.60616   3.61727   3.63322
 Alpha virt. eigenvalues --    3.67296   3.69777   3.74786   4.28893   4.33710
 Alpha virt. eigenvalues --    4.34295   4.36227   4.40471   4.40977   4.46123
 Alpha virt. eigenvalues --    4.48442   4.50407   4.52834   4.54149   4.55364
 Alpha virt. eigenvalues --    4.56805   4.59547   4.62225   4.64905   4.71705
 Alpha virt. eigenvalues --    4.77555   4.82091   4.84783   4.86848   4.90345
 Alpha virt. eigenvalues --    4.93484
          Condensed to atoms (all electrons):
              1          2          3          4          5          6
     1  O    8.248082   0.362906  -0.173196  -0.010427   0.024780   0.074866
     2  C    0.362906  10.447752  -2.414729   0.034885  -0.043306  -3.240753
     3  C   -0.173196  -2.414729  10.389354   0.133692   0.033946  -0.528661
     4  O   -0.010427   0.034885   0.133692   8.275341   0.188840  -0.131993
     5  H    0.024780  -0.043306   0.033946   0.188840   0.435451   0.005892
     6  C    0.074866  -3.240753  -0.528661  -0.131993   0.005892  12.291620
     7  O   -0.001467   0.060023  -0.168139   0.007559  -0.000598   0.312368
     8  H    0.000022  -0.012086   0.041396  -0.000554   0.000013   0.015451
     9  C    0.006616   0.188616  -0.109657   0.009299  -0.003436   0.045124
    10  O   -0.004203   0.030599   0.023711  -0.000029  -0.000051  -0.009486
    11  H    0.000372  -0.010252  -0.002789   0.000003   0.000000  -0.000381
    12  C   -0.209065  -1.553895  -0.332129  -0.001843   0.017416   0.660463
    13  O    0.007856  -0.043131  -0.023017   0.000353   0.000073  -0.182412
    14  C    0.012306   1.433536  -0.413974   0.070388  -0.005546  -3.236163
    15  O    0.000231  -0.061855   0.059467  -0.001501   0.000080   0.152307
    16  C    0.001177   0.135395  -0.415268  -0.003959   0.000859  -0.002635
    17  C    0.000606  -0.036010   0.024770   0.000515   0.000066   0.112642
    18  O    0.000007   0.006121  -0.002702  -0.000013   0.000000   0.019126
    19  H   -0.000008  -0.004195   0.007085   0.000002   0.000000   0.001236
    20  C    0.000049  -0.006462  -0.002975  -0.000125   0.000001   0.067026
    21  O    0.000000   0.000058  -0.000031   0.000000   0.000000  -0.000748
    22  H    0.000000   0.000001   0.000002   0.000000   0.000000  -0.000027
    23  C    0.000102   0.007004  -0.020712   0.000173  -0.000001  -0.115217
    24  O   -0.000001   0.004990   0.002649  -0.000137  -0.000006  -0.022178
    25  H    0.000000  -0.000126   0.000099  -0.000003   0.000000  -0.000932
    26  C   -0.000335   0.071416  -0.048023   0.001336   0.000007  -0.283840
    27  O    0.000000  -0.000041   0.000626   0.000001   0.000000   0.006018
    28  C   -0.000001  -0.001276  -0.000634  -0.000003   0.000000   0.001316
    29  O    0.000000   0.000008   0.000047   0.000000   0.000000  -0.000405
    30  H    0.237300   0.018039  -0.006019   0.000342  -0.003158   0.003044
    31  H   -0.011441   0.223833   0.236909  -0.047965  -0.002552  -0.333924
    32  H   -0.056503   0.542787  -0.147359   0.000823  -0.001581  -0.020198
    33  H   -0.001047   0.123266  -0.229412   0.005992  -0.000014   0.291123
    34  H    0.005719   0.061090  -0.080391  -0.000165  -0.000018  -0.005220
    35  H   -0.000102  -0.017586  -0.002511   0.000020   0.000000   0.001838
    36  H    0.003000  -0.003292   0.001245  -0.000033   0.000000   0.010832
    37  H   -0.000007   0.030632  -0.059156  -0.000448   0.000004  -0.025927
    38  H    0.000000   0.000024   0.000005   0.000000   0.000000   0.001599
    39  H    0.000000  -0.000192   0.001142   0.000000   0.000000   0.004432
    40  H   -0.000001  -0.001275   0.001926  -0.000002   0.000000   0.005950
    41  H    0.000000   0.000611  -0.000105   0.000000   0.000000   0.003048
    42  H    0.000000   0.000028   0.000078   0.000000   0.000000  -0.000342
    43  H    0.000000  -0.000005   0.000024   0.000000   0.000000  -0.000038
    44  H    0.000000  -0.000101   0.000644   0.000001   0.000000   0.000468
    45  H    0.000000   0.000000   0.000000   0.000000   0.000000   0.000003
              7          8          9         10         11         12
     1  O   -0.001467   0.000022   0.006616  -0.004203   0.000372  -0.209065
     2  C    0.060023  -0.012086   0.188616   0.030599  -0.010252  -1.553895
     3  C   -0.168139   0.041396  -0.109657   0.023711  -0.002789  -0.332129
     4  O    0.007559  -0.000554   0.009299  -0.000029   0.000003  -0.001843
     5  H   -0.000598   0.000013  -0.003436  -0.000051   0.000000   0.017416
     6  C    0.312368   0.015451   0.045124  -0.009486  -0.000381   0.660463
     7  O    8.297329   0.206344   0.000728   0.000029   0.000000   0.022561
     8  H    0.206344   0.342054   0.000086   0.000000   0.000000  -0.000432
     9  C    0.000728   0.000086   6.763422   0.001107   0.023223  -1.676587
    10  O    0.000029   0.000000   0.001107   8.354364   0.189037   0.057137
    11  H    0.000000   0.000000   0.023223   0.189037   0.440702   0.015835
    12  C    0.022561  -0.000432  -1.676587   0.057137   0.015835  10.186416
    13  O    0.012625   0.000552   0.020848  -0.000633  -0.000394  -0.125430
    14  C   -0.122053  -0.036175  -0.237214   0.011194  -0.003247  -0.929586
    15  O   -0.006500   0.022233  -0.014378  -0.000133   0.000007   0.037776
    16  C    0.006105  -0.004276  -0.090762  -0.001344   0.000063   0.124392
    17  C    0.004477   0.002656  -0.040919  -0.000315  -0.000018  -0.112558
    18  O   -0.000090   0.000012   0.008686  -0.000045   0.000008  -0.015623
    19  H   -0.000059  -0.000003  -0.000672  -0.000020  -0.000002   0.001834
    20  C    0.002227   0.000665   0.006673   0.000133   0.000003  -0.020856
    21  O   -0.000004   0.000000   0.000056   0.000000   0.000000  -0.000025
    22  H    0.000000   0.000000   0.000002   0.000000   0.000000   0.000018
    23  C    0.001652   0.019411  -0.001076  -0.000016   0.000000  -0.005750
    24  O   -0.023147  -0.022953   0.000401   0.000000   0.000000   0.000936
    25  H    0.002609  -0.001857  -0.000011   0.000000   0.000000  -0.000247
    26  C    0.001035  -0.032296   0.009993   0.000074   0.000009   0.052796
    27  O    0.000134   0.000085  -0.000125   0.000000   0.000000  -0.000192
    28  C    0.000172  -0.000164  -0.001002  -0.000002   0.000000   0.005573
    29  O   -0.000003   0.000000  -0.000013   0.000000   0.000000   0.000052
    30  H   -0.000028   0.000000  -0.011443  -0.000304   0.000008   0.011847
    31  H    0.008505  -0.000102   0.019300   0.000182   0.000000  -0.055937
    32  H    0.000120   0.000005   0.021205   0.000049  -0.000001  -0.214760
    33  H   -0.044455  -0.007047   0.012119   0.000027   0.000000  -0.004279
    34  H   -0.000157   0.000002   0.066490   0.005243  -0.000124   0.144621
    35  H   -0.000012   0.000000   0.399274  -0.042612  -0.011334  -0.008265
    36  H   -0.000013   0.000000   0.599295  -0.066457  -0.002038  -0.269220
    37  H    0.002128  -0.000825   0.006070   0.000042   0.000000  -0.000902
    38  H   -0.000540   0.000239  -0.000004   0.000000   0.000000  -0.000095
    39  H   -0.000025   0.000022   0.000038   0.000000   0.000000   0.000038
    40  H   -0.000363   0.000076   0.000166   0.000001   0.000000   0.000033
    41  H   -0.000015   0.000003  -0.000008   0.000000   0.000000   0.001605
    42  H    0.000000   0.000000  -0.000068   0.000000   0.000000   0.000636
    43  H    0.000000   0.000000  -0.000002   0.000000   0.000000   0.000021
    44  H    0.001078   0.000806   0.000011   0.000000   0.000000   0.000432
    45  H    0.000000   0.000000   0.000000   0.000000   0.000000   0.000000
             13         14         15         16         17         18
     1  O    0.007856   0.012306   0.000231   0.001177   0.000606   0.000007
     2  C   -0.043131   1.433536  -0.061855   0.135395  -0.036010   0.006121
     3  C   -0.023017  -0.413974   0.059467  -0.415268   0.024770  -0.002702
     4  O    0.000353   0.070388  -0.001501  -0.003959   0.000515  -0.000013
     5  H    0.000073  -0.005546   0.000080   0.000859   0.000066   0.000000
     6  C   -0.182412  -3.236163   0.152307  -0.002635   0.112642   0.019126
     7  O    0.012625  -0.122053  -0.006500   0.006105   0.004477  -0.000090
     8  H    0.000552  -0.036175   0.022233  -0.004276   0.002656   0.000012
     9  C    0.020848  -0.237214  -0.014378  -0.090762  -0.040919   0.008686
    10  O   -0.000633   0.011194  -0.000133  -0.001344  -0.000315  -0.000045
    11  H   -0.000394  -0.003247   0.000007   0.000063  -0.000018   0.000008
    12  C   -0.125430  -0.929586   0.037776   0.124392  -0.112558  -0.015623
    13  O    8.515843   0.247514  -0.057496   0.139115  -0.113749   0.021259
    14  C    0.247514   9.642351   0.067464  -0.694739  -0.126771  -0.069566
    15  O   -0.057496   0.067464   8.360442  -0.215016   0.179563  -0.006643
    16  C    0.139115  -0.694739  -0.215016  14.366848  -3.455205  -0.042166
    17  C   -0.113749  -0.126771   0.179563  -3.455205   9.444189   0.318687
    18  O    0.021259  -0.069566  -0.006643  -0.042166   0.318687   8.240429
    19  H    0.015629  -0.005935   0.022732  -0.157974   0.102544   0.184251
    20  C   -0.018633  -0.162796   0.047673  -2.180059   0.174012  -0.162743
    21  O   -0.000070   0.000091  -0.000650   0.000172  -0.111155   0.006057
    22  H   -0.000004  -0.000118   0.000034  -0.004599   0.016211  -0.000548
    23  C    0.032694  -0.067574  -0.042098   0.680809  -0.704832   0.014414
    24  O   -0.002452   0.084434  -0.027901  -0.043898  -0.005221  -0.000002
    25  H    0.000024  -0.008415   0.002015   0.001600  -0.000976   0.000000
    26  C   -0.019613  -0.355673  -0.096831  -3.374066   0.310345  -0.005104
    27  O    0.000391  -0.009383   0.011487  -0.073794  -0.062124   0.002435
    28  C    0.002188   0.020040   0.012043   0.773209   0.066177   0.030091
    29  O    0.000019  -0.000936   0.000207  -0.004960   0.013428  -0.000597
    30  H   -0.000940  -0.002382  -0.000015   0.000090  -0.000043   0.000000
    31  H    0.009263   0.162698  -0.001540   0.007960   0.000054   0.000002
    32  H    0.013643   0.082580  -0.001073   0.002447   0.000497   0.000018
    33  H    0.022504   0.029876  -0.018900   0.038223  -0.001439  -0.000001
    34  H   -0.034099   0.073882  -0.002134   0.002347   0.002607  -0.000036
    35  H   -0.002739   0.002091  -0.000386   0.002071   0.000739  -0.000387
    36  H    0.006256   0.005228  -0.000574  -0.002552   0.000089   0.000003
    37  H   -0.049141   0.305896  -0.063438   0.046083   0.022373  -0.000616
    38  H   -0.000008  -0.003506  -0.000142   0.025448  -0.007954   0.000036
    39  H   -0.000291   0.029482   0.005220   0.019268   0.008009  -0.000032
    40  H   -0.001829   0.007557  -0.056648   0.314303  -0.013536   0.000081
    41  H    0.003016   0.008706  -0.013191   0.128853   0.218190  -0.043114
    42  H    0.000502   0.001688  -0.001477   0.118827  -0.226183   0.007056
    43  H    0.000013   0.004005   0.000177   0.084767  -0.007303  -0.000979
    44  H    0.000133   0.004105   0.004236  -0.001439   0.010988   0.000006
    45  H    0.000000  -0.000026  -0.000003  -0.002549   0.006161  -0.000048
             19         20         21         22         23         24
     1  O   -0.000008   0.000049   0.000000   0.000000   0.000102  -0.000001
     2  C   -0.004195  -0.006462   0.000058   0.000001   0.007004   0.004990
     3  C    0.007085  -0.002975  -0.000031   0.000002  -0.020712   0.002649
     4  O    0.000002  -0.000125   0.000000   0.000000   0.000173  -0.000137
     5  H    0.000000   0.000001   0.000000   0.000000  -0.000001  -0.000006
     6  C    0.001236   0.067026  -0.000748  -0.000027  -0.115217  -0.022178
     7  O   -0.000059   0.002227  -0.000004   0.000000   0.001652  -0.023147
     8  H   -0.000003   0.000665   0.000000   0.000000   0.019411  -0.022953
     9  C   -0.000672   0.006673   0.000056   0.000002  -0.001076   0.000401
    10  O   -0.000020   0.000133   0.000000   0.000000  -0.000016   0.000000
    11  H   -0.000002   0.000003   0.000000   0.000000   0.000000   0.000000
    12  C    0.001834  -0.020856  -0.000025   0.000018  -0.005750   0.000936
    13  O    0.015629  -0.018633  -0.000070  -0.000004   0.032694  -0.002452
    14  C   -0.005935  -0.162796   0.000091  -0.000118  -0.067574   0.084434
    15  O    0.022732   0.047673  -0.000650   0.000034  -0.042098  -0.027901
    16  C   -0.157974  -2.180059   0.000172  -0.004599   0.680809  -0.043898
    17  C    0.102544   0.174012  -0.111155   0.016211  -0.704832  -0.005221
    18  O    0.184251  -0.162743   0.006057  -0.000548   0.014414  -0.000002
    19  H    0.385378   0.031944  -0.001108   0.000018  -0.005624   0.000047
    20  C    0.031944   8.647418   0.189188  -0.001574  -0.073186  -0.006366
    21  O   -0.001108   0.189188   8.247181   0.203779   0.007094   0.000041
    22  H    0.000018  -0.001574   0.203779   0.431723   0.000126   0.000000
    23  C   -0.005624  -0.073186   0.007094   0.000126   6.851161  -0.139655
    24  O    0.000047  -0.006366   0.000041   0.000000  -0.139655   8.540149
    25  H    0.000000   0.000723   0.000000   0.000000   0.028533   0.197818
    26  C    0.032880   0.685723   0.024070   0.004860  -1.260909   0.161220
    27  O    0.000147  -0.149540   0.011061   0.000218  -0.060012   0.000633
    28  C   -0.006603  -1.220860  -0.023175  -0.012509  -0.119946   0.008374
    29  O    0.000036  -0.164111   0.007491   0.018767  -0.012197   0.000096
    30  H    0.000000   0.000000   0.000000   0.000000   0.000003   0.000000
    31  H    0.000000  -0.000033   0.000000   0.000000   0.000503   0.000121
    32  H    0.000005   0.000039   0.000000   0.000000   0.000167   0.000010
    33  H    0.000022   0.000459   0.000001   0.000000   0.005733   0.001817
    34  H    0.000102   0.000503   0.000000   0.000000   0.000370   0.000004
    35  H    0.000367  -0.001132  -0.000001   0.000000  -0.000008   0.000000
    36  H    0.000042   0.000224   0.000000   0.000000   0.000028   0.000000
    37  H    0.000306   0.008944  -0.000002   0.000000   0.007730   0.000400
    38  H    0.000000   0.002157  -0.000006   0.000000   0.480447  -0.045605
    39  H    0.000021  -0.036248  -0.000141   0.000005  -0.007363   0.004937
    40  H   -0.000262   0.039414  -0.000741   0.000003   0.012806  -0.000429
    41  H   -0.003783  -0.086806   0.003977  -0.000136   0.040451  -0.000264
    42  H    0.000012   0.400259  -0.042322  -0.005185   0.018244  -0.000014
    43  H    0.000003  -0.141744   0.003366  -0.000572  -0.000233   0.000019
    44  H    0.000001  -0.002903  -0.000005   0.000000   0.533102  -0.075120
    45  H    0.000000  -0.028015  -0.001207  -0.001697   0.000140   0.000000
             25         26         27         28         29         30
     1  O    0.000000  -0.000335   0.000000  -0.000001   0.000000   0.237300
     2  C   -0.000126   0.071416  -0.000041  -0.001276   0.000008   0.018039
     3  C    0.000099  -0.048023   0.000626  -0.000634   0.000047  -0.006019
     4  O   -0.000003   0.001336   0.000001  -0.000003   0.000000   0.000342
     5  H    0.000000   0.000007   0.000000   0.000000   0.000000  -0.003158
     6  C   -0.000932  -0.283840   0.006018   0.001316  -0.000405   0.003044
     7  O    0.002609   0.001035   0.000134   0.000172  -0.000003  -0.000028
     8  H   -0.001857  -0.032296   0.000085  -0.000164   0.000000   0.000000
     9  C   -0.000011   0.009993  -0.000125  -0.001002  -0.000013  -0.011443
    10  O    0.000000   0.000074   0.000000  -0.000002   0.000000  -0.000304
    11  H    0.000000   0.000009   0.000000   0.000000   0.000000   0.000008
    12  C   -0.000247   0.052796  -0.000192   0.005573   0.000052   0.011847
    13  O    0.000024  -0.019613   0.000391   0.002188   0.000019  -0.000940
    14  C   -0.008415  -0.355673  -0.009383   0.020040  -0.000936  -0.002382
    15  O    0.002015  -0.096831   0.011487   0.012043   0.000207  -0.000015
    16  C    0.001600  -3.374066  -0.073794   0.773209  -0.004960   0.000090
    17  C   -0.000976   0.310345  -0.062124   0.066177   0.013428  -0.000043
    18  O    0.000000  -0.005104   0.002435   0.030091  -0.000597   0.000000
    19  H    0.000000   0.032880   0.000147  -0.006603   0.000036   0.000000
    20  C    0.000723   0.685723  -0.149540  -1.220860  -0.164111   0.000000
    21  O    0.000000   0.024070   0.011061  -0.023175   0.007491   0.000000
    22  H    0.000000   0.004860   0.000218  -0.012509   0.018767   0.000000
    23  C    0.028533  -1.260909  -0.060012  -0.119946  -0.012197   0.000003
    24  O    0.197818   0.161220   0.000633   0.008374   0.000096   0.000000
    25  H    0.412538   0.001028  -0.000289  -0.002396   0.000002   0.000000
    26  C    0.001028  10.838924   0.330580  -0.858713  -0.048207  -0.000011
    27  O   -0.000289   0.330580   8.309140   0.107047  -0.032768   0.000000
    28  C   -0.002396  -0.858713   0.107047   6.180124   0.371290   0.000000
    29  O    0.000002  -0.048207  -0.032768   0.371290   8.240552   0.000000
    30  H    0.000000  -0.000011   0.000000   0.000000   0.000000   0.396078
    31  H    0.000000   0.001447   0.000000  -0.000015   0.000000   0.000196
    32  H    0.000000   0.000375   0.000000  -0.000010   0.000000  -0.011821
    33  H   -0.000022   0.008054   0.000004  -0.000159   0.000000   0.000021
    34  H    0.000000   0.000092   0.000000  -0.000072   0.000000  -0.000109
    35  H    0.000000  -0.000208   0.000000   0.000087   0.000000  -0.000013
    36  H    0.000000  -0.000056   0.000000  -0.000015   0.000000  -0.000080
    37  H    0.000016   0.006714   0.000113  -0.001558  -0.000003   0.000001
    38  H   -0.010225  -0.111812  -0.001957  -0.001059  -0.000122   0.000000
    39  H   -0.000144   0.198741  -0.037985   0.046260  -0.000756   0.000000
    40  H    0.000004  -0.066621   0.003127  -0.002941  -0.000843   0.000000
    41  H    0.000000  -0.040240   0.005076  -0.012509  -0.000584   0.000000
    42  H    0.000000  -0.006355   0.005463  -0.020935  -0.003649   0.000000
    43  H    0.000000  -0.068153  -0.060744   0.464999  -0.053915   0.000000
    44  H   -0.002998  -0.207059   0.008539   0.012060  -0.000118   0.000000
    45  H    0.000000   0.012639   0.003085   0.017249   0.234553   0.000000
             31         32         33         34         35         36
     1  O   -0.011441  -0.056503  -0.001047   0.005719  -0.000102   0.003000
     2  C    0.223833   0.542787   0.123266   0.061090  -0.017586  -0.003292
     3  C    0.236909  -0.147359  -0.229412  -0.080391  -0.002511   0.001245
     4  O   -0.047965   0.000823   0.005992  -0.000165   0.000020  -0.000033
     5  H   -0.002552  -0.001581  -0.000014  -0.000018   0.000000   0.000000
     6  C   -0.333924  -0.020198   0.291123  -0.005220   0.001838   0.010832
     7  O    0.008505   0.000120  -0.044455  -0.000157  -0.000012  -0.000013
     8  H   -0.000102   0.000005  -0.007047   0.000002   0.000000   0.000000
     9  C    0.019300   0.021205   0.012119   0.066490   0.399274   0.599295
    10  O    0.000182   0.000049   0.000027   0.005243  -0.042612  -0.066457
    11  H    0.000000  -0.000001   0.000000  -0.000124  -0.011334  -0.002038
    12  C   -0.055937  -0.214760  -0.004279   0.144621  -0.008265  -0.269220
    13  O    0.009263   0.013643   0.022504  -0.034099  -0.002739   0.006256
    14  C    0.162698   0.082580   0.029876   0.073882   0.002091   0.005228
    15  O   -0.001540  -0.001073  -0.018900  -0.002134  -0.000386  -0.000574
    16  C    0.007960   0.002447   0.038223   0.002347   0.002071  -0.002552
    17  C    0.000054   0.000497  -0.001439   0.002607   0.000739   0.000089
    18  O    0.000002   0.000018  -0.000001  -0.000036  -0.000387   0.000003
    19  H    0.000000   0.000005   0.000022   0.000102   0.000367   0.000042
    20  C   -0.000033   0.000039   0.000459   0.000503  -0.001132   0.000224
    21  O    0.000000   0.000000   0.000001   0.000000  -0.000001   0.000000
    22  H    0.000000   0.000000   0.000000   0.000000   0.000000   0.000000
    23  C    0.000503   0.000167   0.005733   0.000370  -0.000008   0.000028
    24  O    0.000121   0.000010   0.001817   0.000004   0.000000   0.000000
    25  H    0.000000   0.000000  -0.000022   0.000000   0.000000   0.000000
    26  C    0.001447   0.000375   0.008054   0.000092  -0.000208  -0.000056
    27  O    0.000000   0.000000   0.000004   0.000000   0.000000   0.000000
    28  C   -0.000015  -0.000010  -0.000159  -0.000072   0.000087  -0.000015
    29  O    0.000000   0.000000   0.000000   0.000000   0.000000   0.000000
    30  H    0.000196  -0.011821   0.000021  -0.000109  -0.000013  -0.000080
    31  H    0.626262   0.007043   0.007572   0.003133   0.000006   0.000002
    32  H    0.007043   0.638697   0.003244   0.007354   0.000095   0.006825
    33  H    0.007572   0.003244   0.602984   0.000035   0.000003  -0.000017
    34  H    0.003133   0.007354   0.000035   0.610416  -0.007520   0.006919
    35  H    0.000006   0.000095   0.000003  -0.007520   0.601136  -0.051154
    36  H    0.000002   0.006825  -0.000017   0.006919  -0.051154   0.625836
    37  H    0.001930   0.000004   0.004823   0.003609  -0.000022  -0.000007
    38  H    0.000000   0.000000   0.000001   0.000000   0.000000   0.000000
    39  H    0.000000   0.000000  -0.000013   0.000000   0.000000   0.000000
    40  H   -0.000002   0.000000   0.000003  -0.000005   0.000000   0.000000
    41  H    0.000000   0.000000  -0.000006   0.000000   0.000000   0.000000
    42  H    0.000000   0.000000   0.000000   0.000000   0.000000   0.000000
    43  H    0.000000   0.000000   0.000000   0.000000   0.000000   0.000000
    44  H    0.000000   0.000000  -0.000007   0.000000   0.000000   0.000000
    45  H    0.000000   0.000000   0.000000   0.000000   0.000000   0.000000
             37         38         39         40         41         42
     1  O   -0.000007   0.000000   0.000000  -0.000001   0.000000   0.000000
     2  C    0.030632   0.000024  -0.000192  -0.001275   0.000611   0.000028
     3  C   -0.059156   0.000005   0.001142   0.001926  -0.000105   0.000078
     4  O   -0.000448   0.000000   0.000000  -0.000002   0.000000   0.000000
     5  H    0.000004   0.000000   0.000000   0.000000   0.000000   0.000000
     6  C   -0.025927   0.001599   0.004432   0.005950   0.003048  -0.000342
     7  O    0.002128  -0.000540  -0.000025  -0.000363  -0.000015   0.000000
     8  H   -0.000825   0.000239   0.000022   0.000076   0.000003   0.000000
     9  C    0.006070  -0.000004   0.000038   0.000166  -0.000008  -0.000068
    10  O    0.000042   0.000000   0.000000   0.000001   0.000000   0.000000
    11  H    0.000000   0.000000   0.000000   0.000000   0.000000   0.000000
    12  C   -0.000902  -0.000095   0.000038   0.000033   0.001605   0.000636
    13  O   -0.049141  -0.000008  -0.000291  -0.001829   0.003016   0.000502
    14  C    0.305896  -0.003506   0.029482   0.007557   0.008706   0.001688
    15  O   -0.063438  -0.000142   0.005220  -0.056648  -0.013191  -0.001477
    16  C    0.046083   0.025448   0.019268   0.314303   0.128853   0.118827
    17  C    0.022373  -0.007954   0.008009  -0.013536   0.218190  -0.226183
    18  O   -0.000616   0.000036  -0.000032   0.000081  -0.043114   0.007056
    19  H    0.000306   0.000000   0.000021  -0.000262  -0.003783   0.000012
    20  C    0.008944   0.002157  -0.036248   0.039414  -0.086806   0.400259
    21  O   -0.000002  -0.000006  -0.000141  -0.000741   0.003977  -0.042322
    22  H    0.000000   0.000000   0.000005   0.000003  -0.000136  -0.005185
    23  C    0.007730   0.480447  -0.007363   0.012806   0.040451   0.018244
    24  O    0.000400  -0.045605   0.004937  -0.000429  -0.000264  -0.000014
    25  H    0.000016  -0.010225  -0.000144   0.000004   0.000000   0.000000
    26  C    0.006714  -0.111812   0.198741  -0.066621  -0.040240  -0.006355
    27  O    0.000113  -0.001957  -0.037985   0.003127   0.005076   0.005463
    28  C   -0.001558  -0.001059   0.046260  -0.002941  -0.012509  -0.020935
    29  O   -0.000003  -0.000122  -0.000756  -0.000843  -0.000584  -0.003649
    30  H    0.000001   0.000000   0.000000   0.000000   0.000000   0.000000
    31  H    0.001930   0.000000   0.000000  -0.000002   0.000000   0.000000
    32  H    0.000004   0.000000   0.000000   0.000000   0.000000   0.000000
    33  H    0.004823   0.000001  -0.000013   0.000003  -0.000006   0.000000
    34  H    0.003609   0.000000   0.000000  -0.000005   0.000000   0.000000
    35  H   -0.000022   0.000000   0.000000   0.000000   0.000000   0.000000
    36  H   -0.000007   0.000000   0.000000   0.000000   0.000000   0.000000
    37  H    0.608212   0.000003  -0.000009   0.008322   0.000000  -0.000007
    38  H    0.000003   0.587726  -0.008076  -0.000021   0.000003   0.000002
    39  H   -0.000009  -0.008076   0.607605   0.005532   0.003835   0.000055
    40  H    0.008322  -0.000021   0.005532   0.599736   0.006046   0.003155
    41  H    0.000000   0.000003   0.003835   0.006046   0.631393   0.006317
    42  H   -0.000007   0.000002   0.000055   0.003155   0.006317   0.587964
    43  H    0.000000  -0.000018   0.007697   0.000001   0.003212   0.005584
    44  H    0.000011  -0.045956   0.006505   0.003408  -0.000006  -0.000007
    45  H    0.000000  -0.000001   0.000007   0.000000   0.000008   0.000150
             43         44         45
     1  O    0.000000   0.000000   0.000000
     2  C   -0.000005  -0.000101   0.000000
     3  C    0.000024   0.000644   0.000000
     4  O    0.000000   0.000001   0.000000
     5  H    0.000000   0.000000   0.000000
     6  C   -0.000038   0.000468   0.000003
     7  O    0.000000   0.001078   0.000000
     8  H    0.000000   0.000806   0.000000
     9  C   -0.000002   0.000011   0.000000
    10  O    0.000000   0.000000   0.000000
    11  H    0.000000   0.000000   0.000000
    12  C    0.000021   0.000432   0.000000
    13  O    0.000013   0.000133   0.000000
    14  C    0.004005   0.004105  -0.000026
    15  O    0.000177   0.004236  -0.000003
    16  C    0.084767  -0.001439  -0.002549
    17  C   -0.007303   0.010988   0.006161
    18  O   -0.000979   0.000006  -0.000048
    19  H    0.000003   0.000001   0.000000
    20  C   -0.141744  -0.002903  -0.028015
    21  O    0.003366  -0.000005  -0.001207
    22  H   -0.000572   0.000000  -0.001697
    23  C   -0.000233   0.533102   0.000140
    24  O    0.000019  -0.075120   0.000000
    25  H    0.000000  -0.002998   0.000000
    26  C   -0.068153  -0.207059   0.012639
    27  O   -0.060744   0.008539   0.003085
    28  C    0.464999   0.012060   0.017249
    29  O   -0.053915  -0.000118   0.234553
    30  H    0.000000   0.000000   0.000000
    31  H    0.000000   0.000000   0.000000
    32  H    0.000000   0.000000   0.000000
    33  H    0.000000  -0.000007   0.000000
    34  H    0.000000   0.000000   0.000000
    35  H    0.000000   0.000000   0.000000
    36  H    0.000000   0.000000   0.000000
    37  H    0.000000   0.000011   0.000000
    38  H   -0.000018  -0.045956  -0.000001
    39  H    0.007697   0.006505   0.000007
    40  H    0.000001   0.003408   0.000000
    41  H    0.003212  -0.000006   0.000008
    42  H    0.005584  -0.000007   0.000150
    43  H    0.642335  -0.000006  -0.008878
    44  H   -0.000006   0.598780   0.000000
    45  H   -0.008878   0.000000   0.402389
 Mulliken atomic charges:
              1
     1  O   -0.518194
     2  C   -0.333052
     3  C    0.222771
     4  O   -0.530362
     5  H    0.352838
     6  C    0.053690
     7  O   -0.582137
     8  H    0.466639
     9  C   -0.021469
    10  O   -0.547278
    11  H    0.361307
    12  C    0.195240
    13  O   -0.396236
    14  C    0.184670
    15  O   -0.294870
    16  C   -0.249172
    17  C   -0.014287
    18  O   -0.507730
    19  H    0.399607
    20  C    0.161707
    21  O   -0.522294
    22  H    0.351201
    23  C   -0.106487
    24  O   -0.593746
    25  H    0.381630
    26  C    0.129767
    27  O   -0.316457
    28  C    0.168259
    29  O   -0.562363
    30  H    0.369396
    31  H    0.136587
    32  H    0.125276
    33  H    0.148914
    34  H    0.135511
    35  H    0.138265
    36  H    0.129684
    37  H    0.137709
    38  H    0.139415
    39  H    0.142424
    40  H    0.133870
    41  H    0.136415
    42  H    0.150526
    43  H    0.126368
    44  H    0.150411
    45  H    0.366038
 Sum of Mulliken atomic charges =   0.00000
 Mulliken charges with hydrogens summed into heavy atoms:
              1
     1  O   -0.148798
     2  C   -0.207776
     3  C    0.359359
     4  O   -0.177524
     6  C    0.202604
     7  O   -0.115498
     9  C    0.246480
    10  O   -0.185971
    12  C    0.330751
    13  O   -0.396236
    14  C    0.322379
    15  O   -0.294870
    16  C   -0.115301
    17  C    0.122128
    18  O   -0.108123
    20  C    0.312233
    21  O   -0.171093
    23  C    0.183339
    24  O   -0.212117
    26  C    0.272191
    27  O   -0.316457
    28  C    0.294627
    29  O   -0.196325
 Sum of Mulliken charges with hydrogens summed into heavy atoms =   0.00000
 APT atomic charges:
              1
     1  O   -0.629539
     2  C    0.402704
     3  C    0.420741
     4  O   -0.630488
     5  H    0.255527
     6  C    0.380367
     7  O   -0.767980
     8  H    0.498474
     9  C    0.479015
    10  O   -0.618455
    11  H    0.255028
    12  C    0.452728
    13  O   -0.844434
    14  C    0.923609
    15  O   -0.856314
    16  C    0.446128
    17  C    0.358275
    18  O   -0.645394
    19  H    0.326260
    20  C    0.392763
    21  O   -0.617754
    22  H    0.257117
    23  C    0.444566
    24  O   -0.663741
    25  H    0.259926
    26  C    0.445577
    27  O   -0.788069
    28  C    0.921406
    29  O   -0.684712
    30  H    0.261597
    31  H   -0.059163
    32  H   -0.055403
    33  H   -0.031323
    34  H   -0.060440
    35  H   -0.046834
    36  H   -0.059114
    37  H   -0.059836
    38  H   -0.047231
    39  H   -0.046752
    40  H   -0.033016
    41  H   -0.055338
    42  H   -0.036125
    43  H   -0.081322
    44  H   -0.034015
    45  H    0.270981
 Sum of APT charges=   0.00000
 APT Atomic charges with hydrogens summed into heavy atoms:
              1
     1  O   -0.367942
     2  C    0.347301
     3  C    0.361578
     4  O   -0.374961
[...]
 ,0.00002233,0.00001478,-0.00001253,-0.00002183,-0.00000971,0.00000269,
 0.00000552,-0.00000454,0.00001345,0.00004377,0.00003668,0.00000912,-0.
 00007819,-0.00007887,-0.00008033,0.00010242,0.00054964,0.00016935,0.00
 001460,-0.00070771,0.00104372,-0.00062502,-0.01205880,-0.00692237,-0.0
 0051429,0.00181733,0.00050102,-0.00097670,0.00014327,0.00008489,-0.000
 06929,-0.32618862,-0.09663912,-0.02760699,-0.02026256,0.00912704,-0.00
 957298,-0.00018511,0.00015716,0.00046821,0.00001693,-0.00001959,0.0000
 0131,0.00002957,0.00003197,-0.00000725,-0.00001052,-0.00000674,-0.0000
 0231,0.00002396,0.00003788,-0.00018285,0.00133582,-0.00118402,0.000388
 50,-0.00164774,-0.00011487,0.00116642,0.00116602,0.00010667,-0.0003779
 5,-0.00000391,0.00000135,0.00000430,0.00000465,0.00000009,-0.00000031,
 0.00000527,0.00000121,-0.00000422,0.00000141,0.00000589,-0.00000845,0.
 00000676,-0.00000389,0.00000315,-0.00000764,0.00000856,-0.00000202,0.0
 0000933,0.00000347,-0.00000825,0.00002522,-0.00001467,0.00001861,0.000
 00262,0.00000680,0.00001493,0.00002156,0.00019408,0.00004054,0.0008900
 7,-0.00040698,0.00007385,-0.00001218,-0.00055123,0.00177371,0.35434858
 ,0.00000139,-0.00000180,0.00000581,0.00000091,0.00000162,-0.00000490,-
 0.00000617,0.00000332,0.00000250,0.00000498,-0.00000487,0.00000078,-0.
 00000161,0.00000159,-0.00000063,0.00000790,-0.00000838,0.00000470,0.00
 001454,0.00000467,0.00000415,-0.00001486,-0.00000649,-0.00001914,-0.00
 000062,0.00000705,-0.00001726,-0.00000082,0.00000132,0.00001345,0.0000
 0356,-0.00000102,-0.00000518,-0.00000353,-0.00000022,-0.00000396,0.000
 02857,-0.00002966,0.00001230,-0.00006727,0.00003377,0.00003338,0.00028
 474,-0.00002290,-0.00001052,-0.00129903,0.00022577,0.00001429,-0.00815
 192,-0.00279495,-0.00094695,0.00123887,0.00070106,-0.00026425,0.000063
 14,-0.00001202,-0.00002937,-0.09792650,-0.07211741,-0.01163532,0.03682
 199,-0.00269461,0.01010607,0.00058166,0.00123395,-0.00050004,-0.000042
 47,0.00003735,-0.00003844,0.00002808,-0.00001638,0.00000684,-0.0000097
 1,0.00000134,0.00000142,-0.00017354,-0.00019903,-0.00000025,0.00134257
 ,0.00224577,0.00044210,-0.02884437,-0.00920709,-0.00343355,0.00175184,
 0.00185029,0.00193758,0.00000015,0.00000041,-0.00000152,0.00000229,0.0
 0000020,0.00000083,0.00000142,-0.00000013,-0.00000062,0.00000232,0.000
 00401,-0.00000809,0.00000172,0.00000320,0.00000076,0.00000035,-0.00000
 564,0.00000156,0.00000054,-0.00000243,0.00000151,0.00002246,-0.0000068
 2,0.00001405,0.00000590,-0.00001053,0.00000090,0.00020620,0.00019361,-
 0.00002609,0.00025180,-0.00019173,0.00046850,-0.00021026,-0.00018476,0
 .00153688,0.09375513,0.08461550,-0.00000280,-0.00000986,0.00000094,0.0
 0000295,0.00001004,-0.00000353,0.00000518,0.00001371,0.00000688,-0.000
 00217,-0.00001007,-0.00000532,0.00000071,0.00000334,-0.00000157,-0.000
 00834,-0.00000802,-0.00001549,-0.00001151,-0.00001210,-0.00001233,0.00
 001064,-0.00000281,0.00001614,0.00000730,0.00001653,-0.00002790,-0.000
 00591,-0.00000540,0.00001613,0.00000468,-0.00000063,-0.00000812,0.0000
 1213,-0.00000683,-0.00000272,-0.00000142,-0.00011648,0.00002368,0.0000
 3981,0.00019054,0.00012371,-0.00055415,-0.00020838,-0.00028651,0.00174
 123,-0.00091418,0.00125369,0.03084141,0.01240396,0.00051452,-0.0017519
 8,0.00033791,0.00278110,-0.00013745,0.00021903,0.00025953,-0.02704446,
 -0.01222388,-0.04664089,-0.01740301,0.00504336,-0.00176793,-0.00092777
 ,-0.00040398,0.00036267,0.00004639,0.00000470,0.00007656,-0.00000884,0
 .00000926,-0.00000696,-0.00000618,-0.00000397,-0.00000024,0.00036215,0
 .00016284,-0.00043425,0.00139187,0.00083996,0.00074218,-0.02288604,-0.
 01036128,-0.00340993,0.00054416,0.00131262,0.00264841,0.00000086,0.000
 00239,-0.00000064,-0.00000178,-0.00000052,-0.00000194,-0.00000252,-0.0
 0000026,0.00000209,-0.00000102,-0.00000671,0.00001334,-0.00000680,0.00
 000314,-0.00000863,0.00000044,-0.00001244,0.00000343,-0.00000441,-0.00
 000165,0.00000513,-0.00003576,-0.00000060,-0.00004650,-0.00001299,0.00
 003480,0.00000590,-0.00016038,-0.00008398,-0.00016369,-0.00056727,0.00
 025905,-0.00009358,0.00182356,0.00132053,-0.00530189,0.03526942,0.0049
 9949,0.05153764,0.00000308,-0.00000892,-0.00002546,-0.00000853,0.00001
 010,0.00001499,-0.00000245,-0.00000648,0.00002583,0.00001354,0.0000080
 2,-0.00002871,-0.00000415,-0.00000017,0.00000170,-0.00003045,0.0000115
 2,0.00000628,0.00001496,-0.00002299,-0.00007448,0.00000130,0.00001555,
 0.00009196,-0.00001565,0.00001416,-0.00000009,0.00000917,-0.00001415,-
 0.00000859,-0.00000443,0.00000104,0.00000042,0.00000569,0.00000191,0.0
 0003230,0.00003022,-0.00008132,-0.00007286,0.00004610,0.00008806,0.000
 13967,0.00004813,-0.00013606,-0.00041407,0.00023098,0.00066865,0.00011
 899,-0.00046726,-0.00054353,0.00043184,0.00036352,0.00022136,0.0001343
 3,-0.00002620,0.00000905,-0.00008893,-0.00397346,0.00038577,-0.0014894
 7,0.00212253,-0.00039315,0.00140323,-0.00029407,-0.00010854,-0.0000627
 0,0.00061879,-0.00016291,-0.00003180,0.00003127,0.00026966,-0.00019822
 ,-0.00001557,-0.00002216,-0.00003629,-0.00063305,-0.00103234,0.0022542
 2,-0.01611641,0.01097105,-0.01066329,-0.32352232,-0.07537009,-0.059286
 68,-0.01489416,-0.00762793,0.00790219,-0.00000371,0.00000211,0.0000035
 6,0.00000342,0.00000047,-0.00000014,0.00000427,-0.00000019,-0.00000257
 ,0.00000501,-0.00000304,-0.00000032,0.00000207,-0.00000042,-0.00000207
 ,-0.00000368,-0.00000099,0.00000053,0.00000616,0.00000093,-0.00000371,
 0.00000502,-0.00000815,-0.00000547,-0.00004144,-0.00000645,0.00001083,
 0.00086533,0.00042207,-0.00128871,0.00009833,-0.00005032,0.00029719,0.
 00078700,0.00030128,-0.00019638,0.00052614,0.00017451,-0.00041824,0.35
 344870,0.00000094,0.00001353,0.00000746,-0.00000076,-0.00001435,-0.000
 00078,-0.00000506,0.00000053,-0.00001078,-0.00000218,0.00000863,0.0000
 0767,0.00000093,-0.00000237,0.00000025,0.00001610,-0.00004398,-0.00001
 264,0.00000237,0.00006003,0.00008248,-0.00001870,-0.00004244,-0.000120
 90,-0.00000071,-0.00001491,0.00001670,0.00000466,0.00000901,-0.0000093
 0,-0.00000485,-0.00000036,0.00000555,-0.00001161,0.00000662,0.00000209
 ,-0.00001537,0.00011001,0.00001662,-0.00006317,-0.00008790,-0.00009839
 ,-0.00000529,0.00028687,0.00025701,-0.00022231,-0.00050149,0.00027284,
 -0.00124072,-0.00035269,0.00124220,0.00069138,0.00003606,-0.00041535,0
 .00017000,-0.00002651,0.00000783,-0.02725152,-0.00608429,-0.00889125,0
 .00078682,0.00371967,0.00118981,-0.00038037,-0.00038103,0.00006580,0.0
 0034494,0.00015120,-0.00013470,-0.00019395,-0.00018015,0.00020643,0.00
 000172,0.00004175,0.00000672,0.00412114,0.00165940,-0.00366761,0.03545
 078,-0.00573614,0.01725917,-0.07599025,-0.06282186,-0.01861167,-0.0068
 5932,0.00144104,0.00408016,0.00000033,-0.00000304,-0.00000046,0.000001
 36,-0.00000011,0.00000035,0.00000053,0.00000074,-0.00000063,-0.0000017
 4,0.00000344,-0.00000274,0.00000335,-0.00000223,0.00000214,0.00000084,
 0.00000869,-0.00000237,0.00000148,0.00000169,-0.00000176,0.00000301,0.
 00000009,0.00000049,0.00002837,-0.00002204,-0.00001742,-0.00124486,0.0
 0012505,-0.00020906,0.00000414,-0.00020382,0.00007950,0.00063790,0.000
 39232,-0.00035080,0.00048628,-0.00360982,-0.00297789,0.07202439,0.0713
 6349,-0.00000061,-0.00000422,-0.00003114,-0.00000688,0.00000398,0.0000
 2050,0.00000374,-0.00000628,0.00002547,0.00000825,0.00001313,-0.000027
 89,-0.00000167,-0.00000155,0.00000168,-0.00001688,-0.00001136,-0.00000
 225,0.00000459,0.00000299,-0.00004436,-0.00000094,0.00000157,0.0000534
 4,-0.00000693,0.00001414,0.00001609,0.00000151,-0.00001925,-0.00002154
 ,-0.00000204,0.00000353,0.00000333,0.00001103,0.00001375,0.00004528,0.
 00000982,-0.00004391,-0.00007663,0.00005336,0.00006936,0.00010922,-0.0
 0000051,0.00001328,-0.00032537,0.00031054,-0.00022860,-0.00008749,-0.0
 0173766,-0.00022203,0.00081198,0.00062093,0.00004421,-0.00006713,0.000
 01342,0.00005439,0.00004409,-0.02296014,-0.00737882,-0.00281920,0.0018
 3045,0.00144961,0.00138291,0.00021748,-0.00032127,-0.00008844,-0.00000
 674,0.00005285,0.00000326,0.00008525,0.00014988,-0.00016306,-0.0000088
 0,-0.00002033,-0.00000850,-0.00337027,-0.00026425,0.00289029,-0.015502
 49,0.00754805,-0.00529302,-0.06482762,-0.02126204,-0.05912853,0.040197
 68,0.01267956,-0.01013082,-0.00000256,0.00000156,0.00000478,0.00000093
 ,-0.00000002,-0.00000105,0.00000209,-0.00000014,-0.00000187,0.00000087
 ,-0.00000011,-0.00000229,-0.00000156,-0.00000132,-0.00000328,-0.000000
 93,0.00000445,-0.00000150,0.00000214,-0.00000007,-0.00000289,0.0000040
 5,-0.00000793,0.00000300,-0.00000156,-0.00001953,-0.00000045,0.0008344
 9,0.00021757,-0.00009337,0.00021723,0.00006248,0.00012987,0.00051757,-
 0.00002638,-0.00043417,0.00042078,-0.00309922,-0.00253121,0.06063165,0
 .01075526,0.07266248,0.00000727,0.00002582,0.00001682,0.00000138,-0.00
 003180,0.00000789,-0.00004336,0.00004260,0.00000939,0.00002378,0.00002
 346,-0.00000847,-0.00000475,0.00000258,-0.00000110,0.00007553,-0.00026
 308,0.00005369,0.00029178,0.00054573,0.00054857,-0.00048187,-0.0006601
 2,-0.00091891,-0.00000856,-0.00000357,-0.00000815,0.00001232,0.0000078
 0,0.00000289,-0.00000543,-0.00000166,0.00000058,-0.00001753,-0.0000025
 5,0.00003452,0.00011178,0.00002119,-0.00004462,-0.00045001,0.00012992,
 0.00013512,0.00047567,-0.00010142,0.00025814,0.00048783,-0.00120425,-0
 .00035230,0.00020165,0.00000579,-0.00002055,0.00010708,0.00016272,0.00
 003086,-0.00004067,0.00000279,-0.00002555,-0.00003822,-0.00003238,0.00
 005424,0.00004695,-0.00004540,-0.00000088,-0.00001028,0.00000018,-0.00
 000743,-0.35212635,-0.03358037,-0.02531328,-0.00555845,-0.00844181,0.0
 1195839,-0.00035922,0.00015627,0.00059729,-0.01928598,-0.00046753,-0.0
 0283770,0.00174345,-0.00063265,0.00021862,0.00039477,0.00010729,-0.000
 13093,0.00003564,0.00011918,-0.00010896,-0.00000092,-0.00000324,-0.000
 00115,0.00001567,0.00000103,0.00000766,0.00000576,-0.00000054,-0.00000
 320,0.00000599,0.00000307,-0.00004137,0.00000721,0.00000470,0.00000156
 ,-0.00000266,0.00000400,-0.00000067,0.00000636,-0.00000056,-0.00000190
 ,0.00014012,0.00004942,0.00004441,-0.00552784,-0.00012261,-0.00133511,
 0.00012219,0.00293144,-0.00058702,0.00044961,0.00091367,0.00043307,0.0
 0025569,-0.00017168,0.00011089,0.00002881,0.00004948,-0.00001642,0.000
 16775,-0.00023387,0.00017868,0.37873929,0.00000255,0.00002952,0.000046
 73,0.00000932,-0.00003579,-0.00001328,-0.00002580,0.00004700,-0.000033
 47,0.00000327,-0.00000145,0.00004081,-0.00000064,0.00000453,-0.0000062
 4,0.00007098,-0.00019165,-0.00007025,0.00016135,0.00023012,0.00045741,
 -0.00032696,-0.00028133,-0.00103193,0.00000435,-0.00002253,-0.00000595
 ,0.00000278,0.00002380,0.00001058,-0.00000159,-0.00000381,0.00000086,-
 0.00001591,-0.00002684,-0.00004043,-0.00005949,0.00012799,0.00000969,0
 .00017420,-0.00020590,-0.00016353,-0.00047274,0.00030217,-0.00034708,0
 .00105872,0.00222987,0.00048071,0.00051976,0.00019803,0.00040712,-0.00
 028658,-0.00011054,-0.00020388,0.00004661,-0.00005853,0.00004958,0.000
 03039,0.00010058,-0.00002340,-0.00004959,-0.00000106,-0.00002833,0.000
 00083,0.00001460,0.00000069,-0.03392270,-0.05048302,-0.00929167,-0.018
 54804,-0.00514192,0.01366244,-0.00144447,-0.00008578,0.00023846,0.0359
 4935,-0.00071002,0.00422745,-0.00096675,0.00177045,-0.00174843,0.00035
 133,0.00009452,-0.00008562,-0.00017009,-0.00006114,0.00005794,0.000002
 72,-0.00000430,-0.00000568,0.00000414,0.00000348,0.00000198,-0.0000000
 4,-0.00000068,0.00000097,-0.00000764,-0.00001739,-0.00000728,0.0000040
 3,-0.00000126,0.00000126,0.00000228,0.00000477,-0.00000123,-0.00000096
 ,0.00000087,0.00000247,-0.00003776,-0.00002041,-0.00005270,-0.02334305
 ,-0.00111204,-0.00270997,0.00176065,-0.00528907,0.00232697,-0.00050020
 ,-0.00041526,-0.00015073,-0.00038473,-0.00016705,-0.00013253,-0.000032
 65,-0.00005512,0.00002368,-0.00026547,-0.00003008,-0.00005305,0.040691
 52,0.05933198,-0.00000014,-0.00000511,0.00003390,0.00000545,0.00000509
 ,-0.00002463,0.00000782,0.00000220,-0.00004694,-0.00002418,-0.00003598
 ,0.00004211,0.00000103,0.00000332,0.00000038,-0.00000391,0.00005788,-0
 .00001437,-0.00049474,-0.00024721,-0.00004575,0.00102246,0.00055977,0.
 00068458,0.00000499,-0.00002053,-0.00000904,-0.00000002,0.00002304,0.0
 0002138,0.00000038,-0.00000368,-0.00000147,-0.00001227,-0.00001630,-0.
 00007698,-0.00006373,0.00008340,0.00013366,0.00017218,-0.00015245,-0.0
 0027643,-0.00025020,0.00005292,0.00031740,0.00082601,-0.00005267,-0.00
 003837,-0.00003130,-0.00008597,0.00004869,-0.00000650,0.00012839,0.000
 01960,0.00001779,-0.00001962,-0.00002663,0.00000274,-0.00006792,0.0001
 0694,0.00001836,-0.00000918,-0.00005105,-0.00000703,0.00000432,-0.0000
 0013,-0.02859714,-0.00961016,-0.04349958,0.04027715,0.01764070,-0.0151
 0457,0.00089319,-0.00075608,0.00010946,-0.00525555,-0.00040705,0.00150
 257,-0.00014199,0.00014247,0.00062176,-0.00023842,-0.00013708,-0.00010
 371,0.00009896,-0.00001173,-0.00009428,0.00000268,0.00000077,-0.000005
 34,-0.00001065,-0.00000455,-0.00000914,-0.00000369,0.00000202,0.000002
 74,-0.00002618,0.00004646,0.00004128,0.00000387,-0.00000285,0.00000673
 ,-0.00000007,-0.00000492,0.00000159,-0.00000172,0.00000204,0.00000067,
 -0.00005871,-0.00006680,-0.00003853,-0.02575278,-0.00268080,0.00037429
 ,0.00029608,0.00141650,-0.00000874,0.00005415,0.00001557,0.00020339,0.
 00006072,-0.00002986,-0.00001029,0.00000475,0.00002500,-0.00000231,0.0
 0013974,0.00002788,-0.00001818,0.01707329,-0.00581034,0.05521503,-0.00
 000179,0.00000207,0.00000873,0.00000502,-0.00000176,-0.00000416,0.0000
 0083,0.00000243,-0.00000850,-0.00000446,-0.00000328,0.00001065,0.00000
 182,0.00000026,-0.00000061,0.00001534,-0.00000450,0.00000066,-0.000003
 25,0.00000881,0.00002489,-0.00000255,-0.00000776,-0.00003443,0.0000081
 1,-0.00000285,-0.00000197,-0.00000449,0.00000492,0.00000456,0.00000291
 ,-0.00000062,-0.00000021,-0.00000349,-0.00000571,-0.00001408,-0.000001
 01,0.00001867,0.00003373,-0.00003263,-0.00002213,-0.00003909,0.0000192
 6,0.00002690,0.00011760,-0.00010544,-0.00005834,-0.00013164,0.00027381
 ,0.00062211,0.00010038,-0.00013049,0.00005712,0.00035357,-0.00001589,0
 .00006769,0.00003755,-0.00127638,-0.00173378,0.00215553,-0.00078953,0.
 00055974,-0.00068283,0.00077136,0.00032091,0.00039214,-0.00017719,0.00
 010217,0.00019842,0.00002233,-0.00013882,0.00005459,0.00000462,-0.0000
 0513,0.00002749,0.00090410,-0.00055533,0.00049705,-0.00133552,-0.00072
 072,0.00268434,0.00870859,-0.00422673,0.02416645,-0.28351272,0.0637689
 1,-0.27656975,0.00000194,-0.00000066,-0.00000071,-0.00000096,-0.000000
 20,0.00000029,-0.00000165,0.,0.00000088,-0.00000118,0.00000159,0.00000
 058,0.,0.00000091,0.00000206,0.00000057,-0.00000119,-0.00000031,-0.000
 00242,-0.00000108,0.00000110,0.00000077,0.00000097,0.00000230,0.000001
 95,-0.00001068,-0.00000652,-0.00001744,0.00003450,-0.00011554,0.000001
 78,-0.00000752,0.00001917,-0.00002976,-0.00002540,-0.00002946,0.000180
 66,0.00010366,-0.00012526,0.00059852,-0.00103715,0.00227828,0.00000078
 ,0.00001272,-0.00000284,0.27592516,0.00000072,-0.00000958,0.00001351,0
 .00000340,0.00000461,-0.00001222,-0.00000156,0.00000661,-0.00001268,-0
 .00000288,-0.00001986,0.00001684,-0.00000061,0.00000517,-0.00000158,0.
 00000297,0.00003250,0.00001323,0.00000185,-0.00003760,-0.00000891,0.00
 000329,0.00002012,0.00000902,0.00000235,0.00000439,-0.00001246,-0.0000
 0227,-0.00000107,0.00001310,0.00000255,0.00000125,-0.00000727,-0.00000
 399,0.00000307,-0.00001320,0.00000714,-0.00001236,0.00004070,-0.000063
 86,0.00000890,-0.00004947,0.00004358,-0.00001874,0.00016749,-0.0001643
 0,-0.00016184,0.00003056,0.00057653,-0.00056586,0.00013624,0.00003854,
 -0.00016481,-0.00029076,0.00002900,-0.00007990,-0.00006561,-0.00028012
 ,0.00244872,-0.00429265,0.00067154,-0.00063373,0.00175423,0.00022985,-
 0.00224578,-0.00156942,-0.00034929,0.00025009,0.00036555,0.00004294,-0
 .00024175,0.00000227,0.00001654,-0.00000580,0.00007314,0.00086695,-0.0
 0097467,0.00023146,-0.00160968,-0.00395437,0.00590773,0.00963680,-0.00
 329525,0.00010375,0.04717395,-0.00781698,0.07373463,0.00000106,0.00000
 408,-0.00000336,-0.00000054,0.00000004,0.00000092,-0.00000036,0.000000
 35,0.00000083,0.00000305,0.00000113,-0.00000185,0.00000082,0.00000095,
 0.00000145,-0.00000184,-0.00000448,0.00000438,-0.00000019,0.00000020,-
 0.00000033,0.00000412,0.00000203,0.00000477,-0.00001954,-0.00007759,-0
 .00000905,-0.00016248,-0.00003218,0.00011914,-0.00001990,0.00000875,-0
 .00000395,-0.00004439,0.00004620,-0.00008515,0.00025045,0.00001804,0.0
 0016099,0.00026412,0.00072177,-0.00016392,-0.00000056,0.00001969,-0.00
 000089,-0.05714573,0.01674554,0.00000724,0.00000927,0.00008869,0.00000
 828,-0.00000985,-0.00005692,-0.00000939,0.00002040,-0.00006282,-0.0000
 0945,-0.00004064,0.00007367,-0.00000097,0.00000827,-0.00000811,0.00001
 104,0.00004563,0.00000401,0.00001180,-0.00003253,0.00007751,-0.0000146
 8,0.00001416,-0.00008908,-0.00000197,-0.00003977,-0.00005608,0.0000106
 0,0.00005672,0.00006745,0.00000003,-0.00001263,-0.00001251,-0.00003681
 ,-0.00004654,-0.00010951,0.00001107,0.00007044,0.00020273,-0.00011614,
 -0.00010042,-0.00026508,0.00009476,-0.00007693,0.00040262,-0.00003947,
 0.00012227,-0.00011458,0.00011960,-0.00070250,-0.00021747,0.00006609,0
 .00009936,0.00015960,-0.00000026,-0.00003856,-0.00012516,0.00171495,0.
 00131599,-0.00457666,0.00021633,0.00070531,0.00152708,0.00004106,-0.00
 216810,0.00004573,0.00018311,0.00014630,-0.00021734,-0.00004732,-0.000
 12934,0.00018457,0.00000162,0.00004087,-0.00000838,-0.00037210,0.00047
 382,-0.00028649,0.00327494,-0.00172497,-0.00158166,-0.02878905,0.00415
 460,-0.02251922,-0.22207311,0.07367417,-0.27991499,0.00000495,-0.00000
 330,-0.00001601,0.00000159,-0.00000093,0.00000439,0.00000030,0.0000005
 7,0.00000227,0.00000617,0.00000152,-0.00000540,0.00001061,0.00000272,0
 .00001126,-0.00000380,-0.00001330,0.00000644,0.00000283,0.00000287,0.0
 0000027,0.00000449,0.00001241,0.00001213,-0.00001054,-0.00000540,0.000
 00628,0.00005597,0.00007604,-0.00002100,-0.00001517,-0.00000527,0.0000
 0763,0.00012315,0.00007473,-0.00006949,0.00021587,0.00041045,0.0003804
 6,0.00075781,-0.00005592,0.00319797,-0.00001090,-0.00003081,0.00001830
 ,0.24459490,-0.07630119,0.30385290\\0.01439294,-0.00034593,-0.01309357
 ,-0.01874492,-0.02247590,-0.00137766,0.00566010,-0.01672744,0.01096601
 ,-0.00788222,0.00819953,0.02236493,0.00562318,-0.00184905,-0.03138574,
 0.00934684,-0.02419882,-0.00883045,0.00381962,0.01020251,0.00116809,0.
 00257347,0.00424579,0.01721080,-0.00689186,0.01842572,-0.00435970,0.00
 457438,0.01274683,0.00370095,0.00679375,-0.03242502,-0.00153824,0.0213
 2681,0.01531544,0.02057854,-0.00029961,0.01246189,0.00831095,-0.058580
 72,0.00426331,0.00527925,0.01138102,0.00209683,-0.00794764,-0.00857430
 ,0.00202294,-0.00395430,0.00488714,0.05035862,0.01892489,0.00146067,-0
 .02007578,0.03092031,-0.00053706,0.01312503,-0.01964519,-0.00860962,-0
 .00817848,-0.01149903,-0.00122869,-0.00041613,-0.01516914,-0.00021099,
 -0.01354297,0.02992724,0.01356014,-0.01122011,-0.00907353,-0.00564532,
 -0.02044616,-0.00842930,-0.01144890,0.02676394,0.00782282,0.01472634,-
 0.01487247,0.01837246,-0.00231126,0.00647353,-0.00386409,0.01863378,0.
 00508011,-0.01683069,0.00411452,-0.00706675,0.01483182,-0.00271733,0.0
 0552555,-0.00041547,0.02355852,0.00019348,0.00232971,-0.02213717,-0.00
 151150,-0.00191512,-0.02066932,0.00387636,-0.00157519,0.02272294,0.003
 95192,0.00044335,0.00163303,0.00680722,-0.01850063,-0.02143784,-0.0043
 5443,-0.00120984,0.01732583,0.00388873,-0.00666771,-0.00283522,-0.0087
 9632,-0.01661343,-0.02015240,-0.00227575,-0.00180290,0.01892017,0.0021
 8353,-0.00000258,-0.02095968,-0.00530977,-0.00075150,0.01856133,0.0040
 0540,0.00257114,-0.02027881,-0.00571752,-0.00351746,0.02033490,0.00424
 870,-0.00242707,-0.00377817,-0.00465660,-0.00332611\\\@


 IBM COMPATIBILITY IS LIKE PREGNANCY. YOU ARE OR
 OR YOU ARE NOT. -- ADAM OSBORNE
 Job cpu time:  0 days 13 hours  3 minutes  6.2 seconds.
 File lengths (MBytes):  RWF=   1323 Int=      0 D2E=      0 Chk=     19 Scr=      1
 Normal termination of Gaussian 09 at Thu Jan 21 05:02:24 2016.
Gaussian '09 finished on node030 at Thu Jan 21 05:02:24 EST 2016.
