Gaussian '09 started on node012 at Fri Mar 25 20:51:53 EDT 2016.
 Entering Gaussian System, Link 0=/usr/local/gaussian/g09/g09
 Initial command:
 /usr/local/gaussian/g09/l1.exe /home/srmcgrat/thesis/gaussian/cellobiose/423K/5000ps/1/2dp/gaussian18173/Gau-18209.inp -scrdir=/home/srmcgrat/thesis/gaussian/cellobiose/423K/5000ps/1/2dp/gaussian18173/
 Entering Link 1 = /usr/local/gaussian/g09/l1.exe PID=     18211.
  
 Copyright (c) 1988,1990,1992,1993,1995,1998,2003,2009,2010,
            Gaussian, Inc.  All Rights Reserved.
  
 This is part of the Gaussian(R) 09 program.  It is based on
 the Gaussian(R) 03 system (copyright 2003, Gaussian, Inc.),
 the Gaussian(R) 98 system (copyright 1998, Gaussian, Inc.),
 the Gaussian(R) 94 system (copyright 1995, Gaussian, Inc.),
 the Gaussian 92(TM) system (copyright 1992, Gaussian, Inc.),
 the Gaussian 90(TM) system (copyright 1990, Gaussian, Inc.),
 the Gaussian 88(TM) system (copyright 1988, Gaussian, Inc.),
 the Gaussian 86(TM) system (copyright 1986, Carnegie Mellon
 University), and the Gaussian 82(TM) system (copyright 1983,
 Carnegie Mellon University). Gaussian is a federally registered
 trademark of Gaussian, Inc.
  
 This software contains proprietary and confidential information,
 including trade secrets, belonging to Gaussian, Inc.
  
 This software is provided under written license and may be
 used, copied, transmitted, or stored only in accord with that
 written license.
  
 The following legend is applicable only to US Government
 contracts under FAR:
  
                    RESTRICTED RIGHTS LEGEND
  
 Use, reproduction and disclosure by the US Government is
 subject to restrictions as set forth in subparagraphs (a)
 and (c) of the Commercial Computer Software - Restricted
 Rights clause in FAR 52.227-19.
  
 Gaussian, Inc.
 340 Quinnipiac St., Bldg. 40, Wallingford CT 06492
  
  
 ---------------------------------------------------------------
 Warning -- This program may not be used in any manner that
 competes with the business of Gaussian, Inc. or will provide
 assistance to any competitor of Gaussian, Inc.  The licensee
 of this program is prohibited from giving any competitor of
 Gaussian, Inc. access to this program.  By using this program,
 the user acknowledges that Gaussian, Inc. is engaged in the
 business of creating and licensing software in the field of
 computational chemistry and represents and warrants to the
 licensee that it is not a competitor of Gaussian, Inc. and that
 it will not use this program in any manner prohibited above.
 ---------------------------------------------------------------
  

 Cite this work as:
 Gaussian 09, Revision B.01,
 M. J. Frisch, G. W. Trucks, H. B. Schlegel, G. E. Scuseria, 
 M. A. Robb, J. R. Cheeseman, G. Scalmani, V. Barone, B. Mennucci, 
 G. A. Petersson, H. Nakatsuji, M. Caricato, X. Li, H. P. Hratchian, 
 A. F. Izmaylov, J. Bloino, G. Zheng, J. L. Sonnenberg, M. Hada, 
 M. Ehara, K. Toyota, R. Fukuda, J. Hasegawa, M. Ishida, T. Nakajima, 
 Y. Honda, O. Kitao, H. Nakai, T. Vreven, J. A. Montgomery, Jr., 
 J. E. Peralta, F. Ogliaro, M. Bearpark, J. J. Heyd, E. Brothers, 
 K. N. Kudin, V. N. Staroverov, T. Keith, R. Kobayashi, J. Normand, 
 K. Raghavachari, A. Rendell, J. C. Burant, S. S. Iyengar, J. Tomasi, 
 M. Cossi, N. Rega, J. M. Millam, M. Klene, J. E. Knox, J. B. Cross, 
 V. Bakken, C. Adamo, J. Jaramillo, R. Gomperts, R. E. Stratmann, 
 O. Yazyev, A. J. Austin, R. Cammi, C. Pomelli, J. W. Ochterski, 
 R. L. Martin, K. Morokuma, V. G. Zakrzewski, G. A. Voth, 
 P. Salvador, J. J. Dannenberg, S. Dapprich, A. D. Daniels, 
 O. Farkas, J. B. Foresman, J. V. Ortiz, J. Cioslowski, 
 and D. J. Fox, Gaussian, Inc., Wallingford CT, 2010.
 
 ******************************************
 Gaussian 09:  EM64L-G09RevB.01 12-Aug-2010
                25-Mar-2016 
 ******************************************
 -------------------------------------------------
 # freq=raman b3lyp/6-31+g(2d,p) geom=connectivity
 -------------------------------------------------
 1/10=4,30=1,38=1,57=2/1,3;
 2/12=2,17=6,18=5,40=1/2;
 3/5=1,6=6,7=112,11=2,16=1,25=1,30=1,71=2,74=-5/1,2,3;
 4//1;
 5/5=2,38=5,98=1/2;
 8/6=4,10=90,11=11/1;
 10/13=10,15=4/2;
 11/6=3,8=1,9=11,15=111,16=1/1,2,10;
 10/6=1/2;
 6/7=2,8=2,9=2,10=2,18=1,28=1/1;
 7/8=1,10=1,25=1/1,2,3,16;
 1/10=4,30=1/3;
 99//99;
 -----------------
 423 5000/5000.com
 -----------------
 Symbolic Z-matrix:
 Charge =  0 Multiplicity = 1
 O                     7.722     7.527     12.288 
 C                     8.359     7.948     13.502 
 C                     7.707     9.253     13.929 
 O                     7.757     10.311    12.961 
 H                     7.56      9.785     12.134 
 C                     8.303     9.707     15.252 
 O                     7.822     10.933    15.821 
 H                     8.39      11.107    16.625 
 C                     8.571     5.516     14.353 
 O                     8.107     4.929     13.129 
 H                     8.205     3.934     13.125 
 C                     8.027     6.918     14.57 
 O                     8.556     7.329     15.839 
 C                     8.05      8.602     16.265 
 O                     8.86      8.823     17.428 
 C                     8.367     8.511     18.739 
 C                     8.754     7.12      19.214 
 O                     8.276     6.088     18.338 
 H                     8.487     6.463     17.436 
 C                     8.314     6.87      20.647 
 O                     8.642     5.507     20.952 
 H                     8.337     5.238     21.865 
 C                     8.298     10.86     19.395 
 O                     8.878     11.51     18.255 
 H                     8.699     12.487    18.369 
 C                     8.73      9.477     19.855 
 O                     8.219     9.204     21.168 
 C                     8.704     7.943     21.651 
 O                     7.752     7.802     22.715 
 H                     8.21678   7.69165   23.54771 
 H                     8.39079   7.30135   11.6373 
 H                     9.6399    5.55959   14.33184 
 H                     8.26606   4.8967    15.17055 
 H                     6.96212   6.85498   14.65344 
 H                     9.41576   8.05813   13.3754 
 H                     6.6731    9.04173   14.10599 
 H                     9.36078   9.79986   15.12015 
 H                     7.01357   8.53953   16.52347 
 H                     8.44124   11.51727   20.22709 
 H                     7.24494   10.80633   19.21309 
 H                     9.79736   9.48494   19.92969 
 H                     7.29953   8.52148   18.66617 
 H                     9.82281   7.07127   19.20127 
 H                     7.24471   6.89941   20.62122 
 H                     9.72789   7.93836   21.9617 
 

 GradGradGradGradGradGradGradGradGradGradGradGradGradGradGradGradGradGrad
 Berny optimization.
 Initialization pass.
 Trust Radius=3.00D-01 FncErr=1.00D-07 GrdErr=1.00D-07
 Number of steps in this run=      2 maximum allowed number of steps=      2.
 GradGradGradGradGradGradGradGradGradGradGradGradGradGradGradGradGradGrad

                          Input orientation:                          
 ---------------------------------------------------------------------
 Center     Atomic      Atomic             Coordinates (Angstroms)
 Number     Number       Type             X           Y           Z
 ---------------------------------------------------------------------
      1          8           0        7.722000    7.527000   12.288000
      2          6           0        8.359000    7.948000   13.502000
      3          6           0        7.707000    9.253000   13.929000
      4          8           0        7.757000   10.311000   12.961000
      5          1           0        7.560000    9.785000   12.134000
      6          6           0        8.303000    9.707000   15.252000
      7          8           0        7.822000   10.933000   15.821000
      8          1           0        8.390000   11.107000   16.625000
      9          6           0        8.571000    5.516000   14.353000
     10          8           0        8.107000    4.929000   13.129000
     11          1           0        8.205000    3.934000   13.125000
     12          6           0        8.027000    6.918000   14.570000
     13          8           0        8.556000    7.329000   15.839000
     14          6           0        8.050000    8.602000   16.265000
     15          8           0        8.860000    8.823000   17.428000
     16          6           0        8.367000    8.511000   18.739000
     17          6           0        8.754000    7.120000   19.214000
     18          8           0        8.276000    6.088000   18.338000
     19          1           0        8.487000    6.463000   17.436000
     20          6           0        8.314000    6.870000   20.647000
     21          8           0        8.642000    5.507000   20.952000
     22          1           0        8.337000    5.238000   21.865000
     23          6           0        8.298000   10.860000   19.395000
     24          8           0        8.878000   11.510000   18.255000
     25          1           0        8.699000   12.487000   18.369000
     26          6           0        8.730000    9.477000   19.855000
     27          8           0        8.219000    9.204000   21.168000
     28          6           0        8.704000    7.943000   21.651000
     29          8           0        7.752000    7.802000   22.715000
     30          1           0        8.216777    7.691650   23.547710
     31          1           0        8.390785    7.301346   11.637303
     32          1           0        9.639902    5.559586   14.331841
     33          1           0        8.266065    4.896700   15.170546
     34          1           0        6.962121    6.854982   14.653436
     35          1           0        9.415761    8.058131   13.375400
     36          1           0        6.673105    9.041727   14.105988
     37          1           0        9.360777    9.799859   15.120151
     38          1           0        7.013568    8.539531   16.523468
     39          1           0        8.441236   11.517274   20.227090
     40          1           0        7.244944   10.806327   19.213085
     41          1           0        9.797360    9.484939   19.929692
     42          1           0        7.299533    8.521484   18.666171
     43          1           0        9.822814    7.071272   19.201272
     44          1           0        7.244715    6.899407   20.621225
     45          1           0        9.727886    7.938363   21.961703
 ---------------------------------------------------------------------
                    Distance matrix (angstroms):
                    1          2          3          4          5
     1  O    0.000000
     2  C    1.434157   0.000000
     3  C    2.381634   1.520019   0.000000
     4  O    2.864404   2.497770   1.434883   0.000000
     5  H    2.269036   2.425777   1.877940   0.999707   0.000000
     6  C    3.724951   2.481878   1.520415   2.431381   3.206253
     7  O    4.908454   3.817899   2.532842   2.927577   3.870467
     8  H    5.663232   4.442226   3.342487   3.802526   4.754542
     9  C    3.004854   2.585299   3.858943   5.058882   4.916344
    10  O    2.757736   3.052375   4.415538   5.395984   4.986980
    11  H    3.720686   4.034605   5.402424   6.394820   5.969280
    12  C    2.381476   1.520443   2.442439   3.764868   3.791025
    13  O    3.652993   2.425601   2.840894   4.220617   4.555324
    14  C    4.132764   2.856110   2.449152   3.731346   4.324899
    15  O    5.421647   4.053406   3.709085   4.835788   5.535511
    16  C    6.557414   5.267182   4.911442   6.082547   6.774980
    17  C    7.014282   5.785201   5.794577   7.090592   7.658607
    18  O    6.243407   5.182025   5.457130   6.856764   7.257416
    19  H    5.312177   4.206895   4.548796   5.946901   6.325047
    20  C    8.405653   7.226004   7.153926   8.439510   9.029779
    21  O    8.943808   7.844812   8.014317   9.365774   9.860483
    22  H    9.865935   8.791152   8.916121  10.264158  10.768997
    23  C    7.870839   6.573501   5.727904   6.480003   7.377153
    24  O    7.266754   5.962232   5.017924   5.542624   6.494566
    25  H    7.907888   6.663768   5.581794   5.904981   6.890091
    26  C    7.878963   6.544929   6.017822   7.012098   7.815216
    27  O    9.050621   7.769472   7.257249   8.294199   9.076618
    28  C    9.423542   8.156301   7.895530   9.056508   9.760891
    29  O   10.430669   9.234129   8.905123  10.071525  10.766927
    30  H   11.271778  10.049986   9.757933  10.915622  11.622660
    31  H    0.960000   1.973896   3.086809   3.348413   2.665605
    32  H    3.424376   2.834408   4.188042   5.291546   5.197174
    33  H    3.939995   3.478953   4.564136   5.869914   5.797812
    34  H    2.573773   2.114654   2.613454   3.929406   3.910246
    35  H    2.081674   1.070000   2.157324   2.828186   2.822588
    36  H    2.588370   2.098400   1.070000   2.024075   2.286433
    37  H    3.984038   2.655439   2.110184   2.737755   3.487136
    38  H    4.412061   3.359965   2.778695   4.047465   4.595346
    39  H    8.914524   7.614021   6.732903   7.397252   8.323188
    40  H    7.677133   6.482874   5.527014   6.292545   7.159317
    41  H    8.156967   6.763601   6.358594   7.308086   8.115950
    42  H    6.469045   5.302831   4.810607   5.996718   6.658346
    43  H    7.239782   5.949210   6.085512   7.328330   7.901328
    44  H    8.370443   7.281795   7.109077   8.401217   8.969896
    45  H    9.888040   8.569744   8.386690   9.514539  10.231986
                    6          7          8          9         10
     6  C    0.000000
     7  O    1.434642   0.000000
     8  H    1.962829   0.999658   0.000000
     9  C    4.294707   5.662147   6.037717   0.000000
    10  O    5.232096   6.586054   7.104209   1.434587   0.000000
    11  H    6.153151   7.510067   7.983493   2.035845   0.999822
    12  C    2.884410   4.210374   4.680012   1.519417   2.457438
    13  O    2.462410   3.678029   3.862465   2.344225   3.647698
    14  C    1.520264   2.383837   2.553473   3.667503   4.829977
    15  O    2.413852   2.848156   2.466245   4.524975   5.849072
    16  C    3.686961   3.831166   3.347946   5.314945   6.661113
    17  C    4.753253   5.188453   4.767765   5.122072   6.499717
    18  O    4.756184   5.478634   5.304501   4.036636   5.339056
    19  H    3.915003   4.799099   4.715280   3.226260   4.587789
    20  C    6.095467   6.327741   5.842468   6.443120   7.767281
    21  O    7.088365   7.512725   7.081415   6.599388   7.862547
    22  H    7.981534   8.320348   7.868009   7.520783   8.744488
    23  C    4.300451   3.606297   2.782512   7.352185   8.629948
    24  O    3.549569   2.715220   1.748557   7.158763   8.377343
    25  H    4.195343   3.110683   2.245310   8.046085   9.215825
    26  C    4.628481   4.383783   3.633923   6.781357   8.143188
    27  O    5.937939   5.633601   4.928438   7.756898   9.105695
    28  C    6.649789   6.611121   5.947282   7.692127   9.058978
    29  O    7.721981   7.572007   6.958317   8.707445  10.013568
    30  H    8.537439   8.388339   7.721304   9.455243  10.779323
    31  H    4.342915   5.569178   6.273765   3.254988   2.816686
    32  H    4.453655   5.864805   6.131446   1.070000   2.047988
    33  H    4.811132   6.087463   6.379547   1.070000   2.047988
    34  H    3.207841   4.328144   4.899547   2.114622   2.709992
    35  H    2.734709   4.097060   4.572492   2.851623   3.400739
    36  H    2.100593   2.799668   3.682187   4.011704   4.463752
    37  H    1.070000   2.035444   2.217114   4.423089   5.409428
    38  H    2.154588   2.622159   2.914922   4.034634   5.074834
    39  H    5.296010   4.487589   3.625742   8.398635   9.690199
    40  H    4.244785   3.443150   2.846005   7.305232   8.503071
    41  H    4.915611   4.783334   3.941159   6.953843   8.358428
    42  H    3.750861   3.766083   3.469927   5.408605   6.649677
    43  H    4.985343   5.508397   4.997723   5.243248   6.663770
    44  H    6.150701   6.296450   5.914840   6.554654   7.794836
    45  H    7.083678   7.092847   6.349063   8.068370   9.471018
                   11         12         13         14         15
    11  H    0.000000
    12  C    3.320236   0.000000
    13  O    4.360622   1.434964   0.000000
    14  C    5.627952   2.389437   1.434587   0.000000
    15  O    6.545774   3.534272   2.202129   1.434402   0.000000
    16  C    7.245148   4.475914   3.137331   2.495886   1.434961
    17  C    6.894049   4.704898   3.387257   3.374691   2.470069
    18  O    5.640933   3.866358   2.804190   3.266282   2.940983
    19  H    5.006005   2.938125   1.818001   2.477404   2.389308
    20  C    8.075423   6.083963   4.835919   4.719263   3.804509
    21  O    7.995450   6.564988   5.428614   5.647783   4.843754
    22  H    8.837728   7.492364   6.382235   6.539026   5.728239
    23  C    9.342967   6.236460   5.017934   3.867424   2.886919
    24  O    9.174181   5.948940   4.839577   3.619689   2.811445
    25  H   10.044769   6.774788   5.746852   4.465562   3.786330
    26  C    8.734608   5.913875   4.557679   3.757143   2.516932
    27  O    9.615765   6.985432   5.659279   4.942709   3.813613
    28  C    9.434710   7.186760   5.846216   5.465436   4.316534
    29  O   10.350591   8.197445   6.938986   6.506251   5.497497
    30  H   11.079393   9.012981   7.724687   7.341281   6.256559
    31  H    3.686025   2.979934   4.205035   4.819068   6.005644
    32  H    2.481520   2.122136   2.564605   3.939692   4.565558
    33  H    2.261588   2.122136   2.539090   3.869595   4.567788
    34  H    3.523208   1.070000   2.042231   2.613942   3.895285
    35  H    4.305473   2.157689   2.709270   3.242049   4.161425
    36  H    5.421984   2.560968   3.079295   2.598179   3.983229
    37  H    6.302758   3.222847   2.696211   2.112743   2.555621
    38  H    5.846367   2.733577   2.076772   1.070000   2.075535
    39  H   10.392379   7.302574   6.067137   4.934577   3.907606
    40  H    9.231217   6.106467   5.019474   3.768074   3.119058
    41  H    8.924818   6.200779   4.787777   4.154855   2.752321
    42  H    7.250480   4.458586   3.315663   2.517003   2.014705
    43  H    7.027153   4.969620   3.602237   3.756020   2.672088
    44  H    8.118446   6.101609   4.977318   4.745946   4.062763
    45  H    9.820459   7.653197   6.263556   5.975629   4.700029
                   16         17         18         19         20
    16  C    0.000000
    17  C    1.519959   0.000000
    18  O    2.457643   1.435578   0.000000
    19  H    2.430332   1.914216   0.999375   0.000000
    20  C    2.517172   1.519733   2.438124   3.241311   0.000000
    21  O    3.741258   2.373806   2.702686   3.646946   1.434705
    22  H    4.526069   3.277745   3.628491   4.597735   2.036536
    23  C    2.439856   3.772041   4.887711   4.817366   4.181849
    24  O    3.080483   4.495237   5.455949   5.127948   5.250653
    25  H    4.006956   5.433391   6.413041   6.099509   6.073566
    26  C    1.519994   2.442725   3.740685   3.872313   2.756224
    27  O    2.530256   2.906441   4.209704   4.638182   2.393329
    28  C    2.985957   2.572702   3.821018   4.472551   1.520344
    29  O    4.085276   3.704879   4.729746   5.495542   2.336898
    30  H    4.880327   4.404138   5.451264   6.239839   3.016402
    31  H    7.204022   7.587566   6.810633   5.859776   9.020344
    32  H    5.454739   5.201460   4.264828   3.432367   6.584560
    33  H    5.080080   4.640115   3.384089   2.763040   5.821319
    34  H    4.626869   4.907119   3.986296   3.197119   6.144153
    35  H    5.483903   5.950400   5.459658   4.460438   7.449946
    36  H    4.961426   5.840800   5.404045   4.585742   7.084756
    37  H    3.967974   4.930459   5.030824   4.154669   6.342387
    38  H    2.596378   3.504731   3.300950   2.704755   4.634865
    39  H    3.355236   4.523295   5.750912   5.773904   4.667941
    40  H    2.598517   3.983247   4.908305   4.854403   4.323617
    41  H    2.100532   2.682117   4.048113   4.131303   3.090759
    42  H    1.070000   2.092785   2.642542   2.675959   2.771322
    43  H    2.099025   1.070000   2.026005   2.295774   2.099324
    44  H    2.720207   2.075304   2.633448   3.446648   1.070000
    45  H    3.544818   3.027878   4.320074   4.919195   2.206562
                   21         22         23         24         25
    21  O    0.000000
    22  H    0.999477   0.000000
    23  C    5.585445   6.140790   0.000000
    24  O    6.585250   7.256912   1.434747   0.000000
    25  H    7.442818   8.056119   1.964842   0.999783   0.000000
    26  C    4.119715   4.707831   1.520169   2.591330   3.356971
    27  O    3.727384   4.028510   2.427366   3.773259   4.340840
    28  C    2.535062   2.738158   3.709887   4.928142   5.605309
    29  O    3.027754   2.763842   4.546634   5.908362   6.460166
    30  H    3.419243   2.977644   5.223986   6.559709   7.074387
    31  H    9.489277  10.433891   8.535484   7.857739   8.503043
    32  H    6.695153   7.651762   7.451890   7.167921   8.072980
    33  H    5.825719   6.703524   7.308076   7.322845   8.248042
    34  H    6.656648   7.517419   6.348793   6.189592   6.967194
    35  H    8.031926   9.010559   6.733160   6.001256   6.713022
    36  H    7.952278   8.799952   5.824092   5.307375   5.843580
    37  H    7.277070   8.206806   4.530753   3.603461   4.267750
    38  H    5.608916   6.417441   3.908969   3.911265   4.672171
    39  H    6.057161   6.490216   1.070000   2.019890   2.111707
    40  H    5.749648   6.263506   1.070000   2.019890   2.377271
    41  H    4.266611   4.890251   2.103514   2.784006   3.557320
    42  H    4.014268   4.700012   2.645144   3.404680   4.215701
    43  H    2.627988   3.558648   4.088648   4.635775   5.593366
    44  H    2.000154   2.345280   4.277772   5.433618   6.197472
    45  H    2.847837   3.039058   4.143489   5.217139   5.886953
                   26         27         28         29         30
    26  C    0.000000
    27  O    1.435137   0.000000
    28  C    2.362086   1.434794   0.000000
    29  O    3.455678   2.139370   1.434671   0.000000
    30  H    4.133640   2.819614   1.974353   0.960000   0.000000
    31  H    8.507590   9.720277  10.039121  11.107388  11.918071
    32  H    6.832228   7.876153   7.754138   8.880875   9.565731
    33  H    6.567990   7.384071   7.174121   8.100853   8.831254
    34  H    6.087417   7.038265   7.292725   8.155340   9.021213
    35  H    6.668483   7.966797   8.306949   9.490091  10.249280
    36  H    6.121390   7.231053   7.890433   8.764475   9.661870
    37  H    4.787579   6.183460   6.821383   8.016317   8.762250
    38  H    3.863172   4.844199   5.431850   6.278878   7.176809
    39  H    2.093933   2.507178   3.856423   4.524158   5.070729
    40  H    2.093933   2.708861   4.033722   4.641820   5.425370
    41  H    1.070000   2.025723   2.556543   3.843660   4.336378
    42  H    2.091067   2.751435   3.349086   4.137076   5.035810
    43  H    2.721971   3.314931   2.830693   4.143491   4.675013
    44  H    3.071996   2.561122   2.068583   2.335788   3.183845
    45  H    2.793095   2.123332   1.070000   2.119004   2.204481
                   31         32         33         34         35
    31  H    0.000000
    32  H    3.443045   0.000000
    33  H    4.275709   1.740768   0.000000
    34  H    3.367102   2.991987   2.408846   0.000000
    35  H    2.155059   2.684724   3.813004   3.016835   0.000000
    36  H    3.474731   4.580197   4.566405   2.272682   3.003894
    37  H    4.394734   4.321951   5.024133   3.826706   2.465927
    38  H    5.225365   4.536622   4.082814   2.517414   3.989061
    39  H    9.568753   8.466688   8.332546   7.415550   7.736990
    40  H    8.425575   7.555836   7.232462   6.040159   6.807613
    41  H    8.689664   6.838796   6.785741   6.541723   6.718641
    42  H    7.216963   5.747746   5.127635   4.358110   5.717112
    43  H    7.701770   5.101961   4.837250   5.377096   5.922868
    44  H    9.065643   6.862098   5.896091   5.974642   7.652323
    45  H   10.430094   7.992566   7.583432   7.888849   8.592809
                   36         37         38         39         40
    36  H    0.000000
    37  H    2.971006   0.000000
    38  H    2.492453   3.011165   0.000000
    39  H    6.835387   5.465884   4.962057   0.000000
    40  H    5.433531   4.716125   3.525045   1.721850   0.000000
    41  H    6.623665   4.839573   4.499518   2.461281   2.962165
    42  H    4.632314   4.296188   2.161777   3.565770   2.350022
    43  H    6.305971   4.930944   4.149492   4.767389   4.538302
    44  H    6.882193   6.569030   4.419847   4.786617   4.152936
    45  H    8.500668   7.099772   6.107645   4.180066   4.684561
                   41         42         43         44         45
    41  H    0.000000
    42  H    2.960384   0.000000
    43  H    2.521315   2.959121   0.000000
    44  H    3.698539   2.540939   2.948288   0.000000
    45  H    2.554563   4.134907   2.894968   3.007067   0.000000
 Stoichiometry    C12H22O11
 Framework group  C1[X(C12H22O11)]
 Deg. of freedom   129
 Full point group                 C1      NOp   1
 Largest Abelian subgroup         C1      NOp   1
 Largest concise Abelian subgroup C1      NOp   1
                         Standard orientation:                         
 ---------------------------------------------------------------------
 Center     Atomic      Atomic             Coordinates (Angstroms)
 Number     Number       Type             X           Y           Z
 ---------------------------------------------------------------------
      1          8           0        4.972315   -0.452073   -0.345421
      2          6           0        3.713116   -0.095700    0.241285
      3          6           0        3.263589    1.206006   -0.402100
      4          8           0        4.183363    2.300819   -0.282562
      5          1           0        5.039885    1.813507   -0.450818
      6          6           0        1.896174    1.591902    0.139123
      7          8           0        1.300125    2.804910   -0.342059
      8          1           0        0.463635    2.932769    0.190156
      9          6           0        2.954790   -2.564465    0.359235
     10          8           0        4.222683   -3.090340   -0.057829
     11          1           0        4.263368   -4.086402    0.018656
     12          6           0        2.705711   -1.159923   -0.164072
     13          8           0        1.397143   -0.813212    0.311915
     14          6           0        0.943040    0.453120   -0.186318
     15          8           0       -0.265133    0.607685    0.571268
     16          6           0       -1.537265    0.254650    0.008986
     17          6           0       -1.971848   -1.163185    0.342388
     18          8           0       -1.032119   -2.147317   -0.115082
     19          1           0       -0.157460   -1.741230    0.147241
     20          6           0       -3.370819   -1.460475   -0.171506
     21          8           0       -3.634112   -2.842070    0.111782
     22          1           0       -4.519708   -3.140496   -0.242642
     23          6           0       -2.286265    2.576166   -0.040621
     24          8           0       -1.202947    3.257856    0.607622
     25          1           0       -1.348836    4.233403    0.444557
     26          6           0       -2.708338    1.165865    0.338615
     27          8           0       -3.983235    0.852132   -0.240893
     28          6           0       -4.435835   -0.438486    0.192804
     29          8           0       -5.446856   -0.599867   -0.812220
     30          1           0       -6.295308   -0.754766   -0.390633
     31          1           0        5.599472   -0.666966    0.348910
     32          1           0        2.923555   -2.545338    1.428608
     33          1           0        2.179005   -3.208947    0.001884
     34          1           0        2.675409   -1.201075   -1.232851
     35          1           0        3.784923   -0.005550    1.305059
     36          1           0        3.144613    1.012246   -1.447662
     37          1           0        1.973889    1.664989    1.203792
     38          1           0        0.736686    0.404764   -1.235117
     39          1           0       -3.150778    3.195674    0.076546
     40          1           0       -2.052690    2.554803   -1.084597
     41          1           0       -2.833681    1.145543    1.401053
     42          1           0       -1.414542    0.293302   -1.053250
     43          1           0       -2.007658   -1.236609    1.409265
     44          1           0       -3.295757   -1.404782   -1.237416
     45          1           0       -4.794142   -0.479889    1.200178
 ---------------------------------------------------------------------
 Rotational constants (GHZ):      0.4130402      0.1466203      0.1110104
 Standard basis: 6-31+G(2d,p) (6D, 7F)
 There are   685 symmetry adapted basis functions of A   symmetry.
 Integral buffers will be    131072 words long.
 Raffenetti 2 integral format.
 Two-electron integral symmetry is turned on.
   685 basis functions,  1028 primitive gaussians,   685 cartesian basis functions
    91 alpha electrons       91 beta electrons
       nuclear repulsion energy      2293.6742110802 Hartrees.
 NAtoms=   45 NActive=   45 NUniq=   45 SFac= 1.00D+00 NAtFMM=   50 NAOKFM=F Big=F
 One-electron integrals computed using PRISM.
 NBasis=   685 RedAO= T  NBF=   685
 NBsUse=   685 1.00D-06 NBFU=   685
 Harris functional with IExCor=  402 diagonalized for initial guess.
 ExpMin= 4.38D-02 ExpMax= 5.48D+03 ExpMxC= 8.25D+02 IAcc=2 IRadAn=         0 AccDes= 0.00D+00
 HarFok:  IExCor=  402 AccDes= 0.00D+00 IRadAn=         0 IDoV= 1
 ScaDFX=  1.000000  1.000000  1.000000  1.000000
 FoFCou: FMM=F IPFlag=           0 FMFlag=      100000 FMFlg1=           0
         NFxFlg=           0 DoJE=T BraDBF=F KetDBF=T FulRan=T
         Omega=  0.000000  0.000000  1.000000  0.000000  0.000000 ICntrl=     500 IOpCl=  0
         NMat0=    1 NMatS0=    1 NMatT0=    0 NMatD0=    1 NMtDS0=    0 NMtDT0=    0
         I1Cent=           4 NGrid=           0.
 Petite list used in FoFCou.
 Initial guess orbital symmetries:
       Occupied  (A) (A) (A) (A) (A) (A) (A) (A) (A) (A) (A) (A)
                 (A) (A) (A) (A) (A) (A) (A) (A) (A) (A) (A) (A)
                 (A) (A) (A) (A) (A) (A) (A) (A) (A) (A) (A) (A)
                 (A) (A) (A) (A) (A) (A) (A) (A) (A) (A) (A) (A)
                 (A) (A) (A) (A) (A) (A) (A) (A) (A) (A) (A) (A)
                 (A) (A) (A) (A) (A) (A) (A) (A) (A) (A) (A) (A)
                 (A) (A) (A) (A) (A) (A) (A) (A) (A) (A) (A) (A)
                 (A) (A) (A) (A) (A) (A) (A)
       Virtual   (A) (A) (A) (A) (A) (A) (A) (A) (A) (A) (A) (A)
                 (A) (A) (A) (A) (A) (A) (A) (A) (A) (A) (A) (A)
                 (A) (A) (A) (A) (A) (A) (A) (A) (A) (A) (A) (A)
                 (A) (A) (A) (A) (A) (A) (A) (A) (A) (A) (A) (A)
                 (A) (A) (A) (A) (A) (A) (A) (A) (A) (A) (A) (A)
                 (A) (A) (A) (A) (A) (A) (A) (A) (A) (A) (A) (A)
                 (A) (A) (A) (A) (A) (A) (A) (A) (A) (A) (A) (A)
                 (A) (A) (A) (A) (A) (A) (A) (A) (A) (A) (A) (A)
                 (A) (A) (A) (A) (A) (A) (A) (A) (A) (A) (A) (A)
                 (A) (A) (A) (A) (A) (A) (A) (A) (A) (A) (A) (A)
                 (A) (A) (A) (A) (A) (A) (A) (A) (A) (A) (A) (A)
                 (A) (A) (A) (A) (A) (A) (A) (A) (A) (A) (A) (A)
                 (A) (A) (A) (A) (A) (A) (A) (A) (A) (A) (A) (A)
                 (A) (A) (A) (A) (A) (A) (A) (A) (A) (A) (A) (A)
                 (A) (A) (A) (A) (A) (A) (A) (A) (A) (A) (A) (A)
                 (A) (A) (A) (A) (A) (A) (A) (A) (A) (A) (A) (A)
                 (A) (A) (A) (A) (A) (A) (A) (A) (A) (A) (A) (A)
                 (A) (A) (A) (A) (A) (A) (A) (A) (A) (A) (A) (A)
                 (A) (A) (A) (A) (A) (A) (A) (A) (A) (A) (A) (A)
                 (A) (A) (A) (A) (A) (A) (A) (A) (A) (A) (A) (A)
                 (A) (A) (A) (A) (A) (A) (A) (A) (A) (A) (A) (A)
                 (A) (A) (A) (A) (A) (A) (A) (A) (A) (A) (A) (A)
                 (A) (A) (A) (A) (A) (A) (A) (A) (A) (A) (A) (A)
                 (A) (A) (A) (A) (A) (A) (A) (A) (A) (A) (A) (A)
                 (A) (A) (A) (A) (A) (A) (A) (A) (A) (A) (A) (A)
                 (A) (A) (A) (A) (A) (A) (A) (A) (A) (A) (A) (A)
                 (A) (A) (A) (A) (A) (A) (A) (A) (A) (A) (A) (A)
                 (A) (A) (A) (A) (A) (A) (A) (A) (A) (A) (A) (A)
                 (A) (A) (A) (A) (A) (A) (A) (A) (A) (A) (A) (A)
                 (A) (A) (A) (A) (A) (A) (A) (A) (A) (A) (A) (A)
                 (A) (A) (A) (A) (A) (A) (A) (A) (A) (A) (A) (A)
                 (A) (A) (A) (A) (A) (A) (A) (A) (A) (A) (A) (A)
                 (A) (A) (A) (A) (A) (A) (A) (A) (A) (A) (A) (A)
                 (A) (A) (A) (A) (A) (A) (A) (A) (A) (A) (A) (A)
                 (A) (A) (A) (A) (A) (A) (A) (A) (A) (A) (A) (A)
                 (A) (A) (A) (A) (A) (A) (A) (A) (A) (A) (A) (A)
                 (A) (A) (A) (A) (A) (A) (A) (A) (A) (A) (A) (A)
                 (A) (A) (A) (A) (A) (A) (A) (A) (A) (A) (A) (A)
                 (A) (A) (A) (A) (A) (A) (A) (A) (A) (A) (A) (A)
                 (A) (A) (A) (A) (A) (A) (A) (A) (A) (A) (A) (A)
                 (A) (A) (A) (A) (A) (A) (A) (A) (A) (A) (A) (A)
                 (A) (A) (A) (A) (A) (A) (A) (A) (A) (A) (A) (A)
                 (A) (A) (A) (A) (A) (A) (A) (A) (A) (A) (A) (A)
                 (A) (A) (A) (A) (A) (A) (A) (A) (A) (A) (A) (A)
                 (A) (A) (A) (A) (A) (A) (A) (A) (A) (A) (A) (A)
                 (A) (A) (A) (A) (A) (A) (A) (A) (A) (A) (A) (A)
                 (A) (A) (A) (A) (A) (A) (A) (A) (A) (A) (A) (A)
                 (A) (A) (A) (A) (A) (A) (A) (A) (A) (A) (A) (A)
                 (A) (A) (A) (A) (A) (A) (A) (A) (A) (A) (A) (A)
                 (A) (A) (A) (A) (A) (A)
 The electronic state of the initial guess is 1-A.
 Requested convergence on RMS density matrix=1.00D-08 within 128 cycles.
 Requested convergence on MAX density matrix=1.00D-06.
 Requested convergence on             energy=1.00D-06.
 No special actions if energy rises.
 SCF Done:  E(RB3LYP) =  -1297.98058539     A.U. after   13 cycles
             Convg  =    0.4401D-08             -V/T =  2.0063
 Range of M.O.s used for correlation:     1   685
 NBasis=   685 NAE=    91 NBE=    91 NFC=     0 NFV=     0
 NROrb=    685 NOA=    91 NOB=    91 NVA=   594 NVB=   594

 **** Warning!!: The largest alpha MO coefficient is  0.65841586D+02

          Differentiating once with respect to electric field.
                with respect to dipole field.
          Electric field/nuclear overlap derivatives assumed to be zero.
          There are     3 degrees of freedom in the 1st order CPHF.  IDoFFX=0.
      3 vectors produced by pass  0 Test12= 1.80D-12 3.33D-08 XBig12= 1.24D+02 1.13D+00.
 AX will form     3 AO Fock derivatives at one time.
      3 vectors produced by pass  1 Test12= 1.80D-12 3.33D-08 XBig12= 2.44D+01 3.78D-01.
      3 vectors produced by pass  2 Test12= 1.80D-12 3.33D-08 XBig12= 1.06D+01 2.64D-01.
      3 vectors produced by pass  3 Test12= 1.80D-12 3.33D-08 XBig12= 1.13D+00 9.41D-02.
      3 vectors produced by pass  4 Test12= 1.80D-12 3.33D-08 XBig12= 3.06D-01 4.89D-02.
      3 vectors produced by pass  5 Test12= 1.80D-12 3.33D-08 XBig12= 6.28D-02 2.27D-02.
      3 vectors produced by pass  6 Test12= 1.80D-12 3.33D-08 XBig12= 2.13D-02 1.88D-02.
      3 vectors produced by pass  7 Test12= 1.80D-12 3.33D-08 XBig12= 2.98D-03 7.56D-03.
      3 vectors produced by pass  8 Test12= 1.80D-12 3.33D-08 XBig12= 5.17D-04 1.95D-03.
      3 vectors produced by pass  9 Test12= 1.80D-12 3.33D-08 XBig12= 1.83D-04 1.03D-03.
      3 vectors produced by pass 10 Test12= 1.80D-12 3.33D-08 XBig12= 4.14D-05 4.17D-04.
      3 vectors produced by pass 11 Test12= 1.80D-12 3.33D-08 XBig12= 9.58D-06 2.81D-04.
      3 vectors produced by pass 12 Test12= 1.80D-12 3.33D-08 XBig12= 1.19D-06 8.42D-05.
      3 vectors produced by pass 13 Test12= 1.80D-12 3.33D-08 XBig12= 4.47D-07 5.38D-05.
      3 vectors produced by pass 14 Test12= 1.80D-12 3.33D-08 XBig12= 4.88D-08 2.00D-05.
      3 vectors produced by pass 15 Test12= 1.80D-12 3.33D-08 XBig12= 7.69D-09 5.26D-06.
      3 vectors produced by pass 16 Test12= 1.80D-12 3.33D-08 XBig12= 1.79D-09 3.03D-06.
      3 vectors produced by pass 17 Test12= 1.80D-12 3.33D-08 XBig12= 1.81D-10 8.99D-07.
      3 vectors produced by pass 18 Test12= 1.80D-12 3.33D-08 XBig12= 2.45D-11 2.98D-07.
      3 vectors produced by pass 19 Test12= 1.80D-12 3.33D-08 XBig12= 1.39D-11 4.05D-07.
      3 vectors produced by pass 20 Test12= 1.80D-12 3.33D-08 XBig12= 6.40D-12 3.15D-07.
      3 vectors produced by pass 21 Test12= 1.80D-12 3.33D-08 XBig12= 2.42D-12 1.20D-07.
      1 vectors produced by pass 22 Test12= 1.80D-12 3.33D-08 XBig12= 5.85D-13 4.14D-08.
 Inverted reduced A of dimension    67 with in-core refinement.
 End of Minotr Frequency-dependent properties file   721 does not exist.
 End of Minotr Frequency-dependent properties file   722 does not exist.
 Symmetrizing basis deriv contribution to polar:
 IMax=3 JMax=2 DiffMx= 0.00D+00
 G2DrvN: will do    16 centers at a time, making    3 passes doing MaxLOS=2.
 Calling FoFCou, ICntrl=  3107 FMM=F I1Cent=   0 AccDes= 0.00D+00.
 Calling FoFCou, ICntrl=  3107 FMM=F I1Cent=   0 AccDes= 0.00D+00.
 Calling FoFCou, ICntrl=  3107 FMM=F I1Cent=   0 AccDes= 0.00D+00.
 FoFDir/FoFCou used for L=0 through L=2.
 End of G2Drv Frequency-dependent properties file   721 does not exist.
 End of G2Drv Frequency-dependent properties file   722 does not exist.
          IDoAtm=111111111111111111111111111111111111111111111
          Differentiating once with respect to electric field.
                with respect to dipole field.
          Differentiating once with respect to nuclear coordinates.
          There are   138 degrees of freedom in the 1st order CPHF.  IDoFFX=5.
 Will reuse    3 saved solutions.
    135 vectors produced by pass  0 Test12= 5.41D-14 1.00D-09 XBig12= 1.60D-01 7.19D-02.
 AX will form    45 AO Fock derivatives at one time.
    135 vectors produced by pass  1 Test12= 5.41D-14 1.00D-09 XBig12= 1.76D-02 1.31D-02.
    132 vectors produced by pass  2 Test12= 5.41D-14 1.00D-09 XBig12= 1.56D-04 1.25D-03.
    132 vectors produced by pass  3 Test12= 5.41D-14 1.00D-09 XBig12= 7.50D-07 6.85D-05.
    132 vectors produced by pass  4 Test12= 5.41D-14 1.00D-09 XBig12= 2.04D-09 3.23D-06.
    132 vectors produced by pass  5 Test12= 5.41D-14 1.00D-09 XBig12= 4.69D-12 1.30D-07.
     82 vectors produced by pass  6 Test12= 5.41D-14 1.00D-09 XBig12= 1.71D-13 2.60D-08.
 Inverted reduced A of dimension   880 with in-core refinement.
 Isotropic polarizability for W=    0.000000      192.11 Bohr**3.
 End of Minotr Frequency-dependent properties file   721 does not exist.
 End of Minotr Frequency-dependent properties file   722 does not exist.

 **********************************************************************

            Population analysis using the SCF density.

 **********************************************************************

 Orbital symmetries:
       Occupied  (A) (A) (A) (A) (A) (A) (A) (A) (A) (A) (A) (A)
                 (A) (A) (A) (A) (A) (A) (A) (A) (A) (A) (A) (A)
                 (A) (A) (A) (A) (A) (A) (A) (A) (A) (A) (A) (A)
                 (A) (A) (A) (A) (A) (A) (A) (A) (A) (A) (A) (A)
                 (A) (A) (A) (A) (A) (A) (A) (A) (A) (A) (A) (A)
                 (A) (A) (A) (A) (A) (A) (A) (A) (A) (A) (A) (A)
                 (A) (A) (A) (A) (A) (A) (A) (A) (A) (A) (A) (A)
                 (A) (A) (A) (A) (A) (A) (A)
       Virtual   (A) (A) (A) (A) (A) (A) (A) (A) (A) (A) (A) (A)
                 (A) (A) (A) (A) (A) (A) (A) (A) (A) (A) (A) (A)
                 (A) (A) (A) (A) (A) (A) (A) (A) (A) (A) (A) (A)
                 (A) (A) (A) (A) (A) (A) (A) (A) (A) (A) (A) (A)
                 (A) (A) (A) (A) (A) (A) (A) (A) (A) (A) (A) (A)
                 (A) (A) (A) (A) (A) (A) (A) (A) (A) (A) (A) (A)
                 (A) (A) (A) (A) (A) (A) (A) (A) (A) (A) (A) (A)
                 (A) (A) (A) (A) (A) (A) (A) (A) (A) (A) (A) (A)
                 (A) (A) (A) (A) (A) (A) (A) (A) (A) (A) (A) (A)
                 (A) (A) (A) (A) (A) (A) (A) (A) (A) (A) (A) (A)
                 (A) (A) (A) (A) (A) (A) (A) (A) (A) (A) (A) (A)
                 (A) (A) (A) (A) (A) (A) (A) (A) (A) (A) (A) (A)
                 (A) (A) (A) (A) (A) (A) (A) (A) (A) (A) (A) (A)
                 (A) (A) (A) (A) (A) (A) (A) (A) (A) (A) (A) (A)
                 (A) (A) (A) (A) (A) (A) (A) (A) (A) (A) (A) (A)
                 (A) (A) (A) (A) (A) (A) (A) (A) (A) (A) (A) (A)
                 (A) (A) (A) (A) (A) (A) (A) (A) (A) (A) (A) (A)
                 (A) (A) (A) (A) (A) (A) (A) (A) (A) (A) (A) (A)
                 (A) (A) (A) (A) (A) (A) (A) (A) (A) (A) (A) (A)
                 (A) (A) (A) (A) (A) (A) (A) (A) (A) (A) (A) (A)
                 (A) (A) (A) (A) (A) (A) (A) (A) (A) (A) (A) (A)
                 (A) (A) (A) (A) (A) (A) (A) (A) (A) (A) (A) (A)
                 (A) (A) (A) (A) (A) (A) (A) (A) (A) (A) (A) (A)
                 (A) (A) (A) (A) (A) (A) (A) (A) (A) (A) (A) (A)
                 (A) (A) (A) (A) (A) (A) (A) (A) (A) (A) (A) (A)
                 (A) (A) (A) (A) (A) (A) (A) (A) (A) (A) (A) (A)
                 (A) (A) (A) (A) (A) (A) (A) (A) (A) (A) (A) (A)
                 (A) (A) (A) (A) (A) (A) (A) (A) (A) (A) (A) (A)
                 (A) (A) (A) (A) (A) (A) (A) (A) (A) (A) (A) (A)
                 (A) (A) (A) (A) (A) (A) (A) (A) (A) (A) (A) (A)
                 (A) (A) (A) (A) (A) (A) (A) (A) (A) (A) (A) (A)
                 (A) (A) (A) (A) (A) (A) (A) (A) (A) (A) (A) (A)
                 (A) (A) (A) (A) (A) (A) (A) (A) (A) (A) (A) (A)
                 (A) (A) (A) (A) (A) (A) (A) (A) (A) (A) (A) (A)
                 (A) (A) (A) (A) (A) (A) (A) (A) (A) (A) (A) (A)
                 (A) (A) (A) (A) (A) (A) (A) (A) (A) (A) (A) (A)
                 (A) (A) (A) (A) (A) (A) (A) (A) (A) (A) (A) (A)
                 (A) (A) (A) (A) (A) (A) (A) (A) (A) (A) (A) (A)
                 (A) (A) (A) (A) (A) (A) (A) (A) (A) (A) (A) (A)
                 (A) (A) (A) (A) (A) (A) (A) (A) (A) (A) (A) (A)
                 (A) (A) (A) (A) (A) (A) (A) (A) (A) (A) (A) (A)
                 (A) (A) (A) (A) (A) (A) (A) (A) (A) (A) (A) (A)
                 (A) (A) (A) (A) (A) (A) (A) (A) (A) (A) (A) (A)
                 (A) (A) (A) (A) (A) (A) (A) (A) (A) (A) (A) (A)
                 (A) (A) (A) (A) (A) (A) (A) (A) (A) (A) (A) (A)
                 (A) (A) (A) (A) (A) (A) (A) (A) (A) (A) (A) (A)
                 (A) (A) (A) (A) (A) (A) (A) (A) (A) (A) (A) (A)
                 (A) (A) (A) (A) (A) (A) (A) (A) (A) (A) (A) (A)
                 (A) (A) (A) (A) (A) (A) (A) (A) (A) (A) (A) (A)
                 (A) (A) (A) (A) (A) (A)
 The electronic state is 1-A.
 Alpha  occ. eigenvalues --  -19.18605 -19.18552 -19.18250 -19.17745 -19.17466
 Alpha  occ. eigenvalues --  -19.16939 -19.16091 -19.15821 -19.15185 -19.13474
 Alpha  occ. eigenvalues --  -19.13378 -10.31074 -10.30229 -10.25879 -10.25429
 Alpha  occ. eigenvalues --  -10.25293 -10.25062 -10.24826 -10.24320 -10.24197
 Alpha  occ. eigenvalues --  -10.24137 -10.24048 -10.23401  -1.10072  -1.09701
 Alpha  occ. eigenvalues --   -1.05509  -1.05240  -1.03574  -1.03017  -1.02585
 Alpha  occ. eigenvalues --   -1.02278  -1.01967  -1.00338  -0.99899  -0.82305
 Alpha  occ. eigenvalues --   -0.80639  -0.78924  -0.78302  -0.71554  -0.69934
 Alpha  occ. eigenvalues --   -0.67411  -0.64485  -0.62887  -0.62390  -0.61201
 Alpha  occ. eigenvalues --   -0.60426  -0.56603  -0.55733  -0.54712  -0.54491
 Alpha  occ. eigenvalues --   -0.54056  -0.53497  -0.52660  -0.51357  -0.50890
 Alpha  occ. eigenvalues --   -0.50488  -0.49625  -0.49198  -0.48365  -0.46204
 Alpha  occ. eigenvalues --   -0.45658  -0.44960  -0.44191  -0.43509  -0.42772
 Alpha  occ. eigenvalues --   -0.42528  -0.41333  -0.40765  -0.40022  -0.39255
 Alpha  occ. eigenvalues --   -0.38697  -0.38592  -0.37139  -0.36682  -0.36240
 Alpha  occ. eigenvalues --   -0.35766  -0.34879  -0.34482  -0.33818  -0.33192
 Alpha  occ. eigenvalues --   -0.32583  -0.31027  -0.30476  -0.30015  -0.29648
 Alpha  occ. eigenvalues --   -0.29189  -0.28848  -0.28044  -0.27368  -0.26769
 Alpha  occ. eigenvalues --   -0.25976
 Alpha virt. eigenvalues --   -0.01778  -0.01761  -0.01692   0.00055   0.00367
 Alpha virt. eigenvalues --    0.01053   0.02108   0.02189   0.02933   0.03437
 Alpha virt. eigenvalues --    0.03958   0.04283   0.04962   0.05573   0.05747
 Alpha virt. eigenvalues --    0.06112   0.06681   0.07235   0.08030   0.08153
 Alpha virt. eigenvalues --    0.08530   0.08883   0.08938   0.09437   0.10086
 Alpha virt. eigenvalues --    0.10535   0.11105   0.11389   0.12140   0.12311
 Alpha virt. eigenvalues --    0.12749   0.12877   0.13385   0.13507   0.13870
 Alpha virt. eigenvalues --    0.14098   0.14156   0.14654   0.15491   0.15581
 Alpha virt. eigenvalues --    0.15802   0.16255   0.16819   0.17139   0.17333
 Alpha virt. eigenvalues --    0.17498   0.17627   0.17850   0.18370   0.18670
 Alpha virt. eigenvalues --    0.18834   0.19055   0.19819   0.20057   0.20304
 Alpha virt. eigenvalues --    0.20779   0.21098   0.21565   0.21655   0.21907
 Alpha virt. eigenvalues --    0.22066   0.22307   0.22669   0.22934   0.23401
 Alpha virt. eigenvalues --    0.23726   0.24188   0.24278   0.24454   0.24597
 Alpha virt. eigenvalues --    0.25035   0.25339   0.25707   0.25810   0.26168
 Alpha virt. eigenvalues --    0.26310   0.26504   0.26598   0.26973   0.27329
 Alpha virt. eigenvalues --    0.27778   0.28004   0.28236   0.28601   0.28842
 Alpha virt. eigenvalues --    0.29079   0.29364   0.29861   0.30255   0.30690
 Alpha virt. eigenvalues --    0.31334   0.31569   0.31927   0.32268   0.32580
 Alpha virt. eigenvalues --    0.32803   0.33150   0.33454   0.33678   0.33997
 Alpha virt. eigenvalues --    0.34447   0.34630   0.34838   0.35197   0.35572
 Alpha virt. eigenvalues --    0.35964   0.36053   0.36945   0.37563   0.37805
 Alpha virt. eigenvalues --    0.38014   0.38161   0.38906   0.38959   0.39118
 Alpha virt. eigenvalues --    0.40396   0.40564   0.40705   0.40933   0.41672
 Alpha virt. eigenvalues --    0.42407   0.43214   0.43349   0.43747   0.44265
 Alpha virt. eigenvalues --    0.45042   0.45741   0.45800   0.46759   0.47337
 Alpha virt. eigenvalues --    0.47638   0.48096   0.48501   0.49223   0.49815
 Alpha virt. eigenvalues --    0.50623   0.51635   0.54735   0.58135   0.58958
 Alpha virt. eigenvalues --    0.59714   0.60496   0.61377   0.62010   0.62071
 Alpha virt. eigenvalues --    0.63408   0.63824   0.65230   0.66247   0.66805
 Alpha virt. eigenvalues --    0.67199   0.67550   0.69085   0.70116   0.71014
 Alpha virt. eigenvalues --    0.71340   0.71761   0.72832   0.74386   0.74738
 Alpha virt. eigenvalues --    0.75178   0.75537   0.76152   0.76601   0.77829
 Alpha virt. eigenvalues --    0.78609   0.79507   0.80137   0.80967   0.81963
 Alpha virt. eigenvalues --    0.82601   0.83241   0.84370   0.84547   0.85836
 Alpha virt. eigenvalues --    0.85924   0.87428   0.88044   0.89407   0.89884
 Alpha virt. eigenvalues --    0.90292   0.90637   0.91773   0.92151   0.92358
 Alpha virt. eigenvalues --    0.92570   0.93203   0.93494   0.93921   0.94299
 Alpha virt. eigenvalues --    0.94584   0.95301   0.96135   0.96230   0.97494
 Alpha virt. eigenvalues --    0.97863   0.98573   0.98710   0.98807   0.99492
 Alpha virt. eigenvalues --    1.00383   1.00661   1.02067   1.02363   1.02979
 Alpha virt. eigenvalues --    1.03217   1.03710   1.04220   1.05478   1.06301
 Alpha virt. eigenvalues --    1.06563   1.06943   1.07497   1.07827   1.08689
 Alpha virt. eigenvalues --    1.09032   1.09534   1.10191   1.10871   1.11676
 Alpha virt. eigenvalues --    1.12632   1.13189   1.13601   1.14413   1.15029
 Alpha virt. eigenvalues --    1.15510   1.15990   1.16759   1.17007   1.17286
 Alpha virt. eigenvalues --    1.17702   1.18836   1.19273   1.19981   1.20463
 Alpha virt. eigenvalues --    1.20600   1.21749   1.22534   1.22833   1.23240
 Alpha virt. eigenvalues --    1.23820   1.24115   1.24878   1.25596   1.25928
 Alpha virt. eigenvalues --    1.26423   1.26786   1.27605   1.28119   1.28647
 Alpha virt. eigenvalues --    1.29544   1.29944   1.30287   1.30972   1.31611
 Alpha virt. eigenvalues --    1.32550   1.32848   1.33796   1.34456   1.35009
 Alpha virt. eigenvalues --    1.36072   1.36555   1.36926   1.37042   1.38093
 Alpha virt. eigenvalues --    1.38889   1.39757   1.40247   1.40793   1.41419
 Alpha virt. eigenvalues --    1.41930   1.42448   1.42725   1.43909   1.44513
 Alpha virt. eigenvalues --    1.44884   1.45490   1.46438   1.46501   1.47557
 Alpha virt. eigenvalues --    1.48055   1.49549   1.50915   1.51565   1.52255
 Alpha virt. eigenvalues --    1.52932   1.54813   1.55584   1.56263   1.57009
 Alpha virt. eigenvalues --    1.57125   1.57782   1.58968   1.60084   1.61001
 Alpha virt. eigenvalues --    1.61867   1.63160   1.63975   1.64204   1.64933
 Alpha virt. eigenvalues --    1.65838   1.66934   1.67578   1.69140   1.69381
 Alpha virt. eigenvalues --    1.70197   1.71120   1.71475   1.72097   1.74147
 Alpha virt. eigenvalues --    1.74698   1.76020   1.76534   1.77833   1.78502
 Alpha virt. eigenvalues --    1.79680   1.80043   1.81931   1.82640   1.84095
 Alpha virt. eigenvalues --    1.84938   1.86385   1.86522   1.87864   1.89574
 Alpha virt. eigenvalues --    1.90219   1.90892   1.91322   1.92275   1.93695
 Alpha virt. eigenvalues --    1.95333   1.96632   1.97935   1.98075   2.00382
 Alpha virt. eigenvalues --    2.01152   2.01544   2.02497   2.04503   2.06059
 Alpha virt. eigenvalues --    2.06429   2.07607   2.08812   2.09219   2.09853
 Alpha virt. eigenvalues --    2.13446   2.14322   2.16805   2.17757   2.17881
 Alpha virt. eigenvalues --    2.19467   2.21185   2.23306   2.23881   2.25578
 Alpha virt. eigenvalues --    2.27177   2.28739   2.28884   2.30536   2.31922
 Alpha virt. eigenvalues --    2.33907   2.37279   2.37954   2.38155   2.39837
 Alpha virt. eigenvalues --    2.41576   2.42299   2.44723   2.45908   2.52772
 Alpha virt. eigenvalues --    2.52905   2.54303   2.57131   2.57895   2.60015
 Alpha virt. eigenvalues --    2.63016   2.64403   2.65356   2.66306   2.67392
 Alpha virt. eigenvalues --    2.68214   2.69184   2.69658   2.71053   2.71348
 Alpha virt. eigenvalues --    2.74060   2.74462   2.75555   2.77681   2.78960
 Alpha virt. eigenvalues --    2.79810   2.81243   2.83318   2.84866   2.86944
 Alpha virt. eigenvalues --    2.89789   2.90131   2.91193   2.92091   2.92541
 Alpha virt. eigenvalues --    2.93826   2.94090   2.95082   2.96611   2.97074
 Alpha virt. eigenvalues --    2.98456   2.99092   2.99864   3.00311   3.00485
 Alpha virt. eigenvalues --    3.02060   3.03050   3.03439   3.04372   3.04992
 Alpha virt. eigenvalues --    3.06339   3.07101   3.07429   3.07900   3.09378
 Alpha virt. eigenvalues --    3.09815   3.11540   3.13136   3.13691   3.13934
 Alpha virt. eigenvalues --    3.17155   3.18296   3.19015   3.20601   3.25136
 Alpha virt. eigenvalues --    3.25514   3.26470   3.31512   3.76951   3.79149
 Alpha virt. eigenvalues --    3.97006   4.05691   4.07095   4.10116   4.12290
 Alpha virt. eigenvalues --    4.14483   4.14972   4.16027   4.16855   4.17592
 Alpha virt. eigenvalues --    4.18463   4.19640   4.21278   4.22729   4.23664
 Alpha virt. eigenvalues --    4.24356   4.24942   4.25324   4.26331   4.27085
 Alpha virt. eigenvalues --    4.27859   4.29104   4.29292   4.30476   4.31340
 Alpha virt. eigenvalues --    4.31597   4.31997   4.32536   4.33168   4.33564
 Alpha virt. eigenvalues --    4.33833   4.34571   4.34897   4.35640   4.36115
 Alpha virt. eigenvalues --    4.36661   4.36943   4.37768   4.38783   4.39919
 Alpha virt. eigenvalues --    4.40210   4.41578   4.42583   4.42930   4.43597
 Alpha virt. eigenvalues --    4.44769   4.45827   4.47487   4.48831   4.50051
 Alpha virt. eigenvalues --    4.50650   4.52704   4.52882   4.54523   4.55328
 Alpha virt. eigenvalues --    4.55851   4.56766   4.58698   4.60269   4.61246
 Alpha virt. eigenvalues --    4.61817   4.62295   4.62742   4.63685   4.64134
 Alpha virt. eigenvalues --    4.64359   4.65204   4.66026   4.66367   4.67308
 Alpha virt. eigenvalues --    4.68179   4.68931   4.70173   4.70801   4.71259
 Alpha virt. eigenvalues --    4.72110   4.72555   4.72849   4.73763   4.74311
 Alpha virt. eigenvalues --    4.74663   4.75946   4.76203   4.76792   4.77858
 Alpha virt. eigenvalues --    4.78389   4.79121   4.79768   4.79973   4.80663
 Alpha virt. eigenvalues --    4.81611   4.82377   4.83851   4.85359   4.86396
 Alpha virt. eigenvalues --    4.87492   4.87901   4.89148   4.90123   4.90937
 Alpha virt. eigenvalues --    4.92076   4.95293   4.96237   4.97297   4.97989
 Alpha virt. eigenvalues --    5.00265   5.01315   5.03040   5.03427   5.07688
 Alpha virt. eigenvalues --    5.08476   5.09859   5.11194   5.14206   5.16197
 Alpha virt. eigenvalues --    5.22698   5.25133   5.31328   5.34861   5.41735
 Alpha virt. eigenvalues --    5.51135   5.85041   6.02842   6.23619   6.61267
 Alpha virt. eigenvalues --    6.75342   6.76581   6.77594   6.80061   6.84691
 Alpha virt. eigenvalues --    6.88246   6.93199   6.95295   7.00712   7.03492
 Alpha virt. eigenvalues --    7.09847  11.88651  11.92456  12.08717  12.19524
 Alpha virt. eigenvalues --   12.24685  12.37499  12.68941  12.82457  12.84872
 Alpha virt. eigenvalues --   12.94774  13.15899  13.18019  13.21796  13.28567
 Alpha virt. eigenvalues --   13.30490  13.33801  13.39978  13.43025  13.50976
 Alpha virt. eigenvalues --   13.53705  13.66922  13.75562  13.91652
          Condensed to atoms (all electrons):
              1          2          3          4          5          6
     1  O    8.229461   0.135179  -0.003371  -0.022610   0.022168   0.011559
     2  C    0.135179   7.061115  -0.333777   0.045364  -0.065832  -1.163569
     3  C   -0.003371  -0.333777   6.186134   0.188614   0.021895   0.664683
     4  O   -0.022610   0.045364   0.188614   8.214645   0.233295  -0.117002
     5  H    0.022168  -0.065832   0.021895   0.233295   0.427209   0.005012
     6  C    0.011559  -1.163569   0.664683  -0.117002   0.005012   7.533894
     7  O   -0.000413   0.006624  -0.088112   0.006542  -0.000214   0.287174
     8  H    0.000004  -0.003579   0.013542  -0.000211   0.000011   0.040342
     9  C   -0.005376   0.120690  -0.341180   0.010915  -0.004279   0.122434
    10  O   -0.032842   0.046045   0.012638  -0.000119  -0.000043  -0.004848
    11  H    0.003231  -0.011141  -0.000230   0.000001   0.000000   0.000151
    12  C   -0.071720  -0.891966   0.080343   0.015295   0.005053   0.255112
    13  O    0.002405  -0.036426  -0.053671  -0.000935  -0.000092   0.044702
    14  C    0.004524   0.514247  -0.249908  -0.006968   0.016172  -1.624951
    15  O   -0.000157  -0.003318  -0.016207   0.000342  -0.000016   0.022736
    16  C    0.000396   0.102915  -0.124787  -0.005803   0.000909  -0.152492
    17  C    0.000275  -0.047622   0.004863   0.000709   0.000024   0.034395
    18  O    0.000033   0.006335  -0.000254  -0.000007   0.000000  -0.004756
    19  H   -0.000038  -0.002918   0.004920   0.000003   0.000000   0.004712
    20  C    0.000052   0.006754  -0.011556  -0.000055   0.000002   0.054126
    21  O    0.000000  -0.000039  -0.000044   0.000000   0.000000  -0.000372
    22  H    0.000000   0.000001   0.000002   0.000000   0.000000  -0.000032
    23  C   -0.000017   0.015184  -0.009861  -0.000274  -0.000007  -0.086606
    24  O    0.000001  -0.001315  -0.001543  -0.000126  -0.000001   0.003351
    25  H    0.000000   0.000120   0.000894   0.000002   0.000000  -0.001557
    26  C   -0.000040  -0.009123  -0.041945   0.000327   0.000017   0.017775
    27  O    0.000000   0.000050   0.000147   0.000000   0.000000   0.001491
    28  C   -0.000003   0.000678   0.002068   0.000012   0.000000  -0.014293
    29  O    0.000000   0.000010   0.000005   0.000000   0.000000  -0.000215
    30  H    0.000000   0.000000   0.000000   0.000000   0.000000   0.000003
    31  H    0.268046   0.061669  -0.036887   0.001805  -0.002356   0.003635
    32  H    0.001758   0.004649  -0.004869   0.000000   0.000000   0.007195
    33  H   -0.000629  -0.004353  -0.001080   0.000009   0.000000  -0.000519
    34  H    0.005528   0.076668  -0.056737   0.000746   0.000013  -0.027112
    35  H   -0.007019   0.307522  -0.025197   0.002741   0.000171  -0.013810
    36  H    0.002928  -0.035514   0.269283  -0.021121  -0.002465  -0.146061
    37  H    0.000248   0.028648  -0.137705   0.004468  -0.000234   0.367732
    38  H   -0.000023   0.001047  -0.042675   0.000328  -0.000001  -0.004877
    39  H    0.000000  -0.000028   0.000144   0.000000   0.000000   0.001263
    40  H    0.000000   0.000195   0.000104   0.000001   0.000000  -0.007252
    41  H    0.000000  -0.000009   0.000556   0.000000   0.000000  -0.005308
    42  H    0.000000  -0.002773   0.003987   0.000008   0.000000   0.014814
    43  H    0.000000  -0.000714   0.000937   0.000000   0.000000   0.010675
    44  H    0.000000   0.000130  -0.000039   0.000000   0.000000   0.000967
    45  H    0.000000   0.000005   0.000003   0.000000   0.000000  -0.000070
              7          8          9         10         11         12
     1  O   -0.000413   0.000004  -0.005376  -0.032842   0.003231  -0.071720
     2  C    0.006624  -0.003579   0.120690   0.046045  -0.011141  -0.891966
     3  C   -0.088112   0.013542  -0.341180   0.012638  -0.000230   0.080343
     4  O    0.006542  -0.000211   0.010915  -0.000119   0.000001   0.015295
     5  H   -0.000214   0.000011  -0.004279  -0.000043   0.000000   0.005053
     6  C    0.287174   0.040342   0.122434  -0.004848   0.000151   0.255112
     7  O    8.209392   0.248390   0.000779   0.000002   0.000000   0.014909
     8  H    0.248390   0.350491  -0.000267   0.000000   0.000000  -0.002619
     9  C    0.000779  -0.000267   7.076861   0.029965  -0.015629  -1.208782
    10  O    0.000002   0.000000   0.029965   8.310616   0.227189   0.014550
    11  H    0.000000   0.000000  -0.015629   0.227189   0.433579   0.029987
    12  C    0.014909  -0.002619  -1.208782   0.014550   0.029987   8.677350
    13  O    0.001861  -0.000670  -0.030871  -0.001917  -0.000277  -0.010565
    14  C   -0.072614  -0.075528  -0.540966   0.013153  -0.002538  -0.690694
    15  O    0.008016   0.008026  -0.001904  -0.000011   0.000003  -0.006514
    16  C    0.017015   0.021125  -0.085911  -0.000614  -0.000177  -0.033368
    17  C   -0.004062   0.001697   0.004048   0.000321   0.000042  -0.137662
    18  O    0.000064  -0.000022   0.001154  -0.000126  -0.000005  -0.006214
    19  H   -0.000105  -0.000003  -0.002767   0.000008  -0.000002  -0.005367
    20  C    0.001858   0.000631   0.002589   0.000023   0.000004  -0.019055
    21  O   -0.000002   0.000000   0.000415   0.000000   0.000000  -0.000478
    22  H    0.000000   0.000000   0.000001   0.000000   0.000000   0.000016
    23  C    0.018901   0.000383  -0.004426  -0.000006   0.000000  -0.008644
    24  O   -0.044958   0.004156   0.000324   0.000000   0.000000   0.003743
    25  H    0.002126  -0.003268  -0.000015   0.000000   0.000000  -0.000241
    26  C   -0.028935  -0.011173   0.011514  -0.000004  -0.000003   0.013300
    27  O   -0.000071  -0.000023   0.000045   0.000000   0.000000  -0.000020
    28  C   -0.000354  -0.000057   0.000717   0.000005   0.000000   0.003587
    29  O   -0.000003   0.000000  -0.000004   0.000000   0.000000   0.000051
    30  H    0.000000   0.000000   0.000000   0.000000   0.000000  -0.000002
    31  H    0.000001   0.000000   0.004722   0.000631  -0.000098  -0.038838
    32  H    0.000006   0.000000   0.600639  -0.050911  -0.000657  -0.244423
    33  H   -0.000009   0.000000   0.385804  -0.017668  -0.009535  -0.010357
    34  H    0.000066   0.000002   0.046977   0.002350  -0.000305   0.077475
    35  H    0.000548   0.000002  -0.030780  -0.001226  -0.000008  -0.047547
    36  H    0.005717  -0.000101   0.022083  -0.000350   0.000000   0.071818
    37  H   -0.027051  -0.006735   0.019570   0.000026   0.000000   0.058892
    38  H   -0.001413   0.000137   0.018744   0.000079   0.000000   0.053555
    39  H   -0.000641   0.000317  -0.000003   0.000000   0.000000   0.000052
    40  H    0.001627   0.000006  -0.000023   0.000000   0.000000  -0.000113
    41  H   -0.000110  -0.000010   0.000035   0.000000   0.000000   0.000375
    42  H   -0.001599   0.000044  -0.000371   0.000000   0.000000  -0.002984
    43  H   -0.000009   0.000000  -0.001097   0.000000   0.000000  -0.001456
    44  H    0.000003   0.000000  -0.000097   0.000000   0.000000   0.000195
    45  H    0.000000   0.000000   0.000002   0.000000   0.000000   0.000042
             13         14         15         16         17         18
     1  O    0.002405   0.004524  -0.000157   0.000396   0.000275   0.000033
     2  C   -0.036426   0.514247  -0.003318   0.102915  -0.047622   0.006335
     3  C   -0.053671  -0.249908  -0.016207  -0.124787   0.004863  -0.000254
     4  O   -0.000935  -0.006968   0.000342  -0.005803   0.000709  -0.000007
     5  H   -0.000092   0.016172  -0.000016   0.000909   0.000024   0.000000
     6  C    0.044702  -1.624951   0.022736  -0.152492   0.034395  -0.004756
     7  O    0.001861  -0.072614   0.008016   0.017015  -0.004062   0.000064
     8  H   -0.000670  -0.075528   0.008026   0.021125   0.001697  -0.000022
     9  C   -0.030871  -0.540966  -0.001904  -0.085911   0.004048   0.001154
    10  O   -0.001917   0.013153  -0.000011  -0.000614   0.000321  -0.000126
    11  H   -0.000277  -0.002538   0.000003  -0.000177   0.000042  -0.000005
    12  C   -0.010565  -0.690694  -0.006514  -0.033368  -0.137662  -0.006214
    13  O    8.196267   0.224556  -0.020367  -0.031570   0.035746  -0.018212
    14  C    0.224556   8.776552   0.120297  -0.576653  -0.017038  -0.016685
    15  O   -0.020367   0.120297   8.101543   0.243722  -0.018717  -0.006098
    16  C   -0.031570  -0.576653   0.243722  10.721914  -2.285022   0.035722
    17  C    0.035746  -0.017038  -0.018717  -2.285022   8.054989   0.173804
    18  O   -0.018212  -0.016685  -0.006098   0.035722   0.173804   8.216865
    19  H    0.028555   0.011556   0.009861  -0.090099   0.061508   0.226742
    20  C   -0.006600  -0.273746   0.002902  -1.201065   0.135235  -0.061308
    21  O   -0.000157   0.002460   0.000105   0.025727  -0.032845  -0.006213
    22  H    0.000001  -0.000101  -0.000004  -0.000844   0.009949   0.000318
    23  C    0.007307  -0.011717   0.001023   0.409407  -0.433903   0.012636
    24  O   -0.001405   0.088801  -0.035706  -0.004141  -0.001155  -0.000054
    25  H    0.000000  -0.008603   0.003034  -0.020657  -0.001640  -0.000001
    26  C   -0.030848  -0.600178  -0.075509  -2.480023   0.539407   0.018849
    27  O    0.000142   0.008678   0.001409   0.066403  -0.006021  -0.000701
    28  C    0.002447   0.092846   0.007062   0.953638  -0.265113   0.012625
    29  O    0.000014   0.000409  -0.000100  -0.001341  -0.012507   0.000176
    30  H    0.000000  -0.000041   0.000001  -0.000742   0.010290  -0.000018
    31  H   -0.000608   0.000901  -0.000002   0.000166  -0.000063  -0.000001
    32  H   -0.005360   0.003485  -0.000579  -0.004972   0.003353  -0.000010
    33  H   -0.004543  -0.006216  -0.000352   0.006192  -0.001412   0.000169
    34  H   -0.023557   0.145726  -0.001961   0.000448   0.007445  -0.000115
    35  H    0.006277   0.079796   0.000037  -0.004069   0.001727   0.000037
    36  H    0.004923   0.058373   0.001113  -0.007487   0.002479   0.000083
    37  H    0.007595  -0.042742  -0.007146  -0.022216   0.000474   0.000099
    38  H   -0.039278   0.266127  -0.028309   0.021181  -0.005925  -0.001733
    39  H    0.000038   0.008085   0.000296   0.027846   0.003394   0.000008
    40  H    0.000109   0.000430   0.002473   0.067536  -0.014420   0.000062
    41  H   -0.000246   0.027630  -0.001988   0.001491  -0.070966   0.000069
    42  H   -0.003709  -0.054588  -0.039753   0.150921   0.056412  -0.003932
    43  H   -0.001180  -0.004500  -0.005387  -0.102274   0.332707  -0.031744
    44  H    0.000120  -0.010472   0.000520   0.105133  -0.207453   0.007328
    45  H    0.000009   0.001235   0.000139   0.076380  -0.025258   0.000110
             19         20         21         22         23         24
     1  O   -0.000038   0.000052   0.000000   0.000000  -0.000017   0.000001
     2  C   -0.002918   0.006754  -0.000039   0.000001   0.015184  -0.001315
     3  C    0.004920  -0.011556  -0.000044   0.000002  -0.009861  -0.001543
     4  O    0.000003  -0.000055   0.000000   0.000000  -0.000274  -0.000126
     5  H    0.000000   0.000002   0.000000   0.000000  -0.000007  -0.000001
     6  C    0.004712   0.054126  -0.000372  -0.000032  -0.086606   0.003351
     7  O   -0.000105   0.001858  -0.000002   0.000000   0.018901  -0.044958
     8  H   -0.000003   0.000631   0.000000   0.000000   0.000383   0.004156
     9  C   -0.002767   0.002589   0.000415   0.000001  -0.004426   0.000324
    10  O    0.000008   0.000023   0.000000   0.000000  -0.000006   0.000000
    11  H   -0.000002   0.000004   0.000000   0.000000   0.000000   0.000000
    12  C   -0.005367  -0.019055  -0.000478   0.000016  -0.008644   0.003743
    13  O    0.028555  -0.006600  -0.000157   0.000001   0.007307  -0.001405
    14  C    0.011556  -0.273746   0.002460  -0.000101  -0.011717   0.088801
    15  O    0.009861   0.002902   0.000105  -0.000004   0.001023  -0.035706
    16  C   -0.090099  -1.201065   0.025727  -0.000844   0.409407  -0.004141
    17  C    0.061508   0.135235  -0.032845   0.009949  -0.433903  -0.001155
    18  O    0.226742  -0.061308  -0.006213   0.000318   0.012636  -0.000054
    19  H    0.369555   0.000869   0.000056   0.000015  -0.004972   0.000014
    20  C    0.000869   7.166119   0.079536  -0.017202   0.099761  -0.008831
    21  O    0.000056   0.079536   8.268555   0.226949  -0.001086   0.000009
    22  H    0.000015  -0.017202   0.226949   0.440292   0.000001   0.000000
    23  C   -0.004972   0.099761  -0.001086   0.000001   6.339195  -0.041892
    24  O    0.000014  -0.008831   0.000009   0.000000  -0.041892   8.344137
    25  H    0.000000   0.000945   0.000000   0.000000  -0.003032   0.244270
    26  C   -0.000230   0.679332  -0.009042   0.000168  -0.885953   0.086510
    27  O    0.000020  -0.153555   0.003662  -0.000548  -0.077042   0.001753
    28  C   -0.000006  -0.772078   0.028855   0.003869  -0.112928   0.007000
    29  O    0.000001   0.008361   0.002066   0.009957   0.008597   0.000012
    30  H    0.000000  -0.040997  -0.000318  -0.000935  -0.000214  -0.000001
    31  H    0.000000   0.000000   0.000000   0.000000   0.000003   0.000000
    32  H   -0.000009   0.000288   0.000001   0.000000  -0.000021   0.000000
    33  H    0.000628  -0.000582   0.000000   0.000000   0.000003   0.000000
    34  H   -0.000185   0.000549   0.000000   0.000000   0.000127  -0.000001
    35  H   -0.000014   0.000019   0.000000   0.000000   0.000012   0.000007
    36  H   -0.000002   0.000033   0.000000   0.000000   0.000031   0.000034
    37  H   -0.000022   0.000588   0.000000   0.000000   0.002137   0.000712
    38  H   -0.000729   0.010362   0.000009   0.000000   0.003185  -0.000241
    39  H    0.000000  -0.000942  -0.000009   0.000000   0.400376  -0.025121
    40  H    0.000000   0.000716   0.000009   0.000000   0.605538  -0.063826
    41  H    0.000019  -0.026330   0.000117   0.000003   0.093468  -0.000194
    42  H    0.000206   0.045659  -0.000533   0.000010  -0.027779   0.000104
    43  H   -0.003007   0.002230  -0.002207  -0.000182   0.013309   0.000012
    44  H   -0.000149   0.356525  -0.030506  -0.005132   0.010022   0.000024
    45  H    0.000002  -0.127153   0.006733   0.000081  -0.001472   0.000036
             25         26         27         28         29         30
     1  O    0.000000  -0.000040   0.000000  -0.000003   0.000000   0.000000
     2  C    0.000120  -0.009123   0.000050   0.000678   0.000010   0.000000
     3  C    0.000894  -0.041945   0.000147   0.002068   0.000005   0.000000
     4  O    0.000002   0.000327   0.000000   0.000012   0.000000   0.000000
     5  H    0.000000   0.000017   0.000000   0.000000   0.000000   0.000000
     6  C   -0.001557   0.017775   0.001491  -0.014293  -0.000215   0.000003
     7  O    0.002126  -0.028935  -0.000071  -0.000354  -0.000003   0.000000
     8  H   -0.003268  -0.011173  -0.000023  -0.000057   0.000000   0.000000
     9  C   -0.000015   0.011514   0.000045   0.000717  -0.000004   0.000000
    10  O    0.000000  -0.000004   0.000000   0.000005   0.000000   0.000000
    11  H    0.000000  -0.000003   0.000000   0.000000   0.000000   0.000000
    12  C   -0.000241   0.013300  -0.000020   0.003587   0.000051  -0.000002
    13  O    0.000000  -0.030848   0.000142   0.002447   0.000014   0.000000
    14  C   -0.008603  -0.600178   0.008678   0.092846   0.000409  -0.000041
    15  O    0.003034  -0.075509   0.001409   0.007062  -0.000100   0.000001
    16  C   -0.020657  -2.480023   0.066403   0.953638  -0.001341  -0.000742
    17  C   -0.001640   0.539407  -0.006021  -0.265113  -0.012507   0.010290
    18  O   -0.000001   0.018849  -0.000701   0.012625   0.000176  -0.000018
    19  H    0.000000  -0.000230   0.000020  -0.000006   0.000001   0.000000
    20  C    0.000945   0.679332  -0.153555  -0.772078   0.008361  -0.040997
    21  O    0.000000  -0.009042   0.003662   0.028855   0.002066  -0.000318
    22  H    0.000000   0.000168  -0.000548   0.003869   0.009957  -0.000935
    23  C   -0.003032  -0.885953  -0.077042  -0.112928   0.008597  -0.000214
    24  O    0.244270   0.086510   0.001753   0.007000   0.000012  -0.000001
    25  H    0.416478   0.029376  -0.000637  -0.001466  -0.000003   0.000000
    26  C    0.029376   9.681945   0.136800  -0.916799  -0.003345  -0.008538
    27  O   -0.000637   0.136800   8.178313   0.229268  -0.091035   0.004629
    28  C   -0.001466  -0.916799   0.229268   5.854958   0.200884   0.035686
    29  O   -0.000003  -0.003345  -0.091035   0.200884   8.168686   0.254185
    30  H    0.000000  -0.008538   0.004629   0.035686   0.254185   0.430717
    31  H    0.000000  -0.000001   0.000000   0.000000   0.000000   0.000000
    32  H    0.000000  -0.000103   0.000000  -0.000002   0.000000   0.000000
    33  H    0.000000   0.000435   0.000000   0.000020   0.000000   0.000000
    34  H    0.000000  -0.000080   0.000000  -0.000017   0.000000   0.000000
    35  H    0.000000  -0.000385   0.000000   0.000001   0.000000   0.000000
    36  H    0.000000  -0.000474   0.000000   0.000002   0.000000   0.000000
    37  H   -0.000006  -0.003889  -0.000002   0.000000   0.000000   0.000000
    38  H    0.000009   0.017397   0.000150  -0.000813  -0.000002   0.000000
    39  H   -0.012437  -0.078528  -0.001831   0.001871  -0.000170   0.000000
    40  H   -0.000639  -0.298112   0.002069   0.004194  -0.000135   0.000000
    41  H   -0.000148   0.205631  -0.038775   0.057255  -0.002006   0.000035
    42  H   -0.000015   0.097813   0.002091   0.002101  -0.000872   0.000004
    43  H    0.000000   0.054717   0.000381  -0.024403  -0.000093   0.000010
    44  H    0.000000  -0.001183   0.001289   0.026724  -0.010178   0.000417
    45  H    0.000000  -0.023566  -0.041384   0.436745  -0.022830  -0.007840
             31         32         33         34         35         36
     1  O    0.268046   0.001758  -0.000629   0.005528  -0.007019   0.002928
     2  C    0.061669   0.004649  -0.004353   0.076668   0.307522  -0.035514
     3  C   -0.036887  -0.004869  -0.001080  -0.056737  -0.025197   0.269283
     4  O    0.001805   0.000000   0.000009   0.000746   0.002741  -0.021121
     5  H   -0.002356   0.000000   0.000000   0.000013   0.000171  -0.002465
     6  C    0.003635   0.007195  -0.000519  -0.027112  -0.013810  -0.146061
     7  O    0.000001   0.000006  -0.000009   0.000066   0.000548   0.005717
     8  H    0.000000   0.000000   0.000000   0.000002   0.000002  -0.000101
     9  C    0.004722   0.600639   0.385804   0.046977  -0.030780   0.022083
    10  O    0.000631  -0.050911  -0.017668   0.002350  -0.001226  -0.000350
    11  H   -0.000098  -0.000657  -0.009535  -0.000305  -0.000008   0.000000
    12  C   -0.038838  -0.244423  -0.010357   0.077475  -0.047547   0.071818
    13  O   -0.000608  -0.005360  -0.004543  -0.023557   0.006277   0.004923
    14  C    0.000901   0.003485  -0.006216   0.145726   0.079796   0.058373
    15  O   -0.000002  -0.000579  -0.000352  -0.001961   0.000037   0.001113
    16  C    0.000166  -0.004972   0.006192   0.000448  -0.004069  -0.007487
    17  C   -0.000063   0.003353  -0.001412   0.007445   0.001727   0.002479
    18  O   -0.000001  -0.000010   0.000169  -0.000115   0.000037   0.000083
    19  H    0.000000  -0.000009   0.000628  -0.000185  -0.000014  -0.000002
    20  C    0.000000   0.000288  -0.000582   0.000549   0.000019   0.000033
    21  O    0.000000   0.000001   0.000000   0.000000   0.000000   0.000000
    22  H    0.000000   0.000000   0.000000   0.000000   0.000000   0.000000
    23  C    0.000003  -0.000021   0.000003   0.000127   0.000012   0.000031
    24  O    0.000000   0.000000   0.000000  -0.000001   0.000007   0.000034
    25  H    0.000000   0.000000   0.000000   0.000000   0.000000   0.000000
    26  C   -0.000001  -0.000103   0.000435  -0.000080  -0.000385  -0.000474
    27  O    0.000000   0.000000   0.000000   0.000000   0.000000   0.000000
    28  C    0.000000  -0.000002   0.000020  -0.000017   0.000001   0.000002
    29  O    0.000000   0.000000   0.000000   0.000000   0.000000   0.000000
    30  H    0.000000   0.000000   0.000000   0.000000   0.000000   0.000000
    31  H    0.407178  -0.000116   0.000015  -0.000237  -0.012350  -0.000159
    32  H   -0.000116   0.587490  -0.047742   0.006125   0.002386  -0.000009
    33  H    0.000015  -0.047742   0.564758  -0.005910  -0.000026   0.000005
    34  H   -0.000237   0.006125  -0.005910   0.616516   0.005800   0.002553
    35  H   -0.012350   0.002386  -0.000026   0.005800   0.601919   0.006070
    36  H   -0.000159  -0.000009   0.000005   0.002553   0.006070   0.641525
    37  H    0.000016  -0.000026   0.000001  -0.000097   0.002911   0.007245
    38  H    0.000002  -0.000013  -0.000005   0.002440  -0.000057   0.002637
    39  H    0.000000   0.000000   0.000000   0.000000   0.000000   0.000000
    40  H    0.000000   0.000000   0.000000   0.000000   0.000000   0.000000
    41  H    0.000000   0.000000   0.000000   0.000000   0.000000   0.000000
    42  H    0.000000   0.000000  -0.000001  -0.000005   0.000000  -0.000003
    43  H    0.000000   0.000000  -0.000001  -0.000001   0.000000   0.000000
    44  H    0.000000   0.000000   0.000000   0.000000   0.000000   0.000000
    45  H    0.000000   0.000000   0.000000   0.000000   0.000000   0.000000
             37         38         39         40         41         42
     1  O    0.000248  -0.000023   0.000000   0.000000   0.000000   0.000000
     2  C    0.028648   0.001047  -0.000028   0.000195  -0.000009  -0.002773
     3  C   -0.137705  -0.042675   0.000144   0.000104   0.000556   0.003987
     4  O    0.004468   0.000328   0.000000   0.000001   0.000000   0.000008
     5  H   -0.000234  -0.000001   0.000000   0.000000   0.000000   0.000000
     6  C    0.367732  -0.004877   0.001263  -0.007252  -0.005308   0.014814
     7  O   -0.027051  -0.001413  -0.000641   0.001627  -0.000110  -0.001599
     8  H   -0.006735   0.000137   0.000317   0.000006  -0.000010   0.000044
     9  C    0.019570   0.018744  -0.000003  -0.000023   0.000035  -0.000371
    10  O    0.000026   0.000079   0.000000   0.000000   0.000000   0.000000
    11  H    0.000000   0.000000   0.000000   0.000000   0.000000   0.000000
    12  C    0.058892   0.053555   0.000052  -0.000113   0.000375  -0.002984
    13  O    0.007595  -0.039278   0.000038   0.000109  -0.000246  -0.003709
    14  C   -0.042742   0.266127   0.008085   0.000430   0.027630  -0.054588
    15  O   -0.007146  -0.028309   0.000296   0.002473  -0.001988  -0.039753
    16  C   -0.022216   0.021181   0.027846   0.067536   0.001491   0.150921
    17  C    0.000474  -0.005925   0.003394  -0.014420  -0.070966   0.056412
    18  O    0.000099  -0.001733   0.000008   0.000062   0.000069  -0.003932
    19  H   -0.000022  -0.000729   0.000000   0.000000   0.000019   0.000206
    20  C    0.000588   0.010362  -0.000942   0.000716  -0.026330   0.045659
    21  O    0.000000   0.000009  -0.000009   0.000009   0.000117  -0.000533
    22  H    0.000000   0.000000   0.000000   0.000000   0.000003   0.000010
    23  C    0.002137   0.003185   0.400376   0.605538   0.093468  -0.027779
    24  O    0.000712  -0.000241  -0.025121  -0.063826  -0.000194   0.000104
    25  H   -0.000006   0.000009  -0.012437  -0.000639  -0.000148  -0.000015
    26  C   -0.003889   0.017397  -0.078528  -0.298112   0.205631   0.097813
    27  O   -0.000002   0.000150  -0.001831   0.002069  -0.038775   0.002091
    28  C    0.000000  -0.000813   0.001871   0.004194   0.057255   0.002101
    29  O    0.000000  -0.000002  -0.000170  -0.000135  -0.002006  -0.000872
    30  H    0.000000   0.000000   0.000000   0.000000   0.000035   0.000004
    31  H    0.000016   0.000002   0.000000   0.000000   0.000000   0.000000
    32  H   -0.000026  -0.000013   0.000000   0.000000   0.000000   0.000000
    33  H    0.000001  -0.000005   0.000000   0.000000   0.000000  -0.000001
    34  H   -0.000097   0.002440   0.000000   0.000000   0.000000  -0.000005
    35  H    0.002911  -0.000057   0.000000   0.000000   0.000000   0.000000
    36  H    0.007245   0.002637   0.000000   0.000000   0.000000  -0.000003
    37  H    0.615594   0.005010   0.000000  -0.000001   0.000000  -0.000008
    38  H    0.005010   0.582433  -0.000001   0.000054   0.000003   0.007079
    39  H    0.000000  -0.000001   0.584670  -0.043218  -0.003977   0.000165
    40  H   -0.000001   0.000054  -0.043218   0.578083   0.006408   0.003398
    41  H    0.000000   0.000003  -0.003977   0.006408   0.623632   0.006888
    42  H   -0.000008   0.007079   0.000165   0.003398   0.006888   0.626904
    43  H   -0.000004  -0.000028   0.000008  -0.000007   0.002356   0.006669
    44  H    0.000000  -0.000006   0.000000  -0.000023   0.000034   0.002069
    45  H    0.000000   0.000000  -0.000027  -0.000006   0.002960  -0.000027
             43         44         45
     1  O    0.000000   0.000000   0.000000
     2  C   -0.000714   0.000130   0.000005
     3  C    0.000937  -0.000039   0.000003
     4  O    0.000000   0.000000   0.000000
     5  H    0.000000   0.000000   0.000000
     6  C    0.010675   0.000967  -0.000070
     7  O   -0.000009   0.000003   0.000000
     8  H    0.000000   0.000000   0.000000
     9  C   -0.001097  -0.000097   0.000002
    10  O    0.000000   0.000000   0.000000
    11  H    0.000000   0.000000   0.000000
    12  C   -0.001456   0.000195   0.000042
    13  O   -0.001180   0.000120   0.000009
    14  C   -0.004500  -0.010472   0.001235
    15  O   -0.005387   0.000520   0.000139
    16  C   -0.102274   0.105133   0.076380
    17  C    0.332707  -0.207453  -0.025258
    18  O   -0.031744   0.007328   0.000110
    19  H   -0.003007  -0.000149   0.000002
    20  C    0.002230   0.356525  -0.127153
    21  O   -0.002207  -0.030506   0.006733
    22  H   -0.000182  -0.005132   0.000081
    23  C    0.013309   0.010022  -0.001472
    24  O    0.000012   0.000024   0.000036
[...]
 00006102,-0.00003443,0.00016819,0.00014229,0.00016495,0.00074480,-0.00
 040730,-0.00469050,-0.01748163,-0.00298045,0.01326400,-0.34473452,0.00
 524325,-0.02667070,-0.01309928,0.00132549,-0.00391600,0.00260682,-0.00
 092646,0.00090335,-0.00059212,0.00010805,0.00023554,-0.00071076,0.0000
 5216,0.00092864,0.00051251,-0.00021677,-0.00002674,-0.00001044,0.00008
 417,-0.00009311,0.00004286,0.00130281,0.00063337,0.00028771,0.00006571
 ,-0.00026854,0.00002783,-0.00006280,-0.00001014,-0.01248433,-0.0005411
 6,-0.00309897,0.00168574,0.00047796,-0.00068779,0.00008826,-0.00025167
 ,0.00014001,0.00008333,0.00002639,-0.00015407,0.00001239,0.00000016,-0
 .00001059,-0.00000040,-0.00000467,-0.00000644,0.00001485,0.00000301,-0
 .00000950,-0.00000310,0.00001044,-0.00000261,0.00003069,0.00000976,0.0
 0004000,0.00000955,0.00000157,-0.00001081,0.00000833,0.00000227,0.0000
 2590,0.00002580,0.00017631,-0.00031697,0.00124737,0.00052064,0.0013056
 4,0.00052602,0.00012434,0.00005906,0.00085044,-0.00058837,0.00033800,0
 .00038657,-0.00101041,-0.00103765,0.37803853,0.00000787,-0.00001607,0.
 00004080,-0.00000689,0.00002842,-0.00003162,0.00003598,0.00003288,-0.0
 0002852,0.00000195,-0.00003747,0.00001509,-0.00000414,0.00000828,-0.00
 000517,-0.00015339,0.00012511,0.00000705,0.00013087,-0.00010255,-0.000
 22576,-0.00014271,-0.00001005,0.00013862,0.00001955,-0.00002781,-0.000
 01736,-0.00000903,0.00002794,0.00003360,0.00000538,-0.00000365,-0.0000
 0237,-0.00001679,-0.00000537,-0.00009075,0.00017816,0.00003524,0.00024
 411,-0.00036002,0.00088814,-0.00123743,-0.01141439,0.00122971,0.005039
 45,0.00735619,-0.04200590,-0.00062943,0.03628188,-0.00526953,0.0057713
 9,-0.00205036,0.00412124,0.00037669,0.00057267,-0.00023802,-0.00045155
 ,0.00139645,0.00100701,-0.00154083,-0.00056528,-0.00011964,-0.00002605
 ,-0.00013989,-0.00002229,0.00005426,-0.00269798,0.00149190,-0.00006217
 ,0.00039541,-0.00000854,-0.00021577,-0.00003196,-0.00007416,0.00000633
 ,-0.02702716,-0.00268231,-0.00541619,0.00160466,0.00126530,0.00140041,
 0.00020394,-0.00044601,-0.00001862,-0.00004125,0.00011348,0.00002520,-
 0.00001278,0.00001964,-0.00001071,0.00000241,-0.00000102,-0.00000566,-
 0.00000905,-0.00000132,0.00000717,0.00000694,-0.00001288,0.00000008,-0
 .00000683,0.00001328,0.00000373,-0.00000124,-0.00000569,0.00000246,-0.
 00000409,0.00000607,0.00000920,0.00005134,-0.00001884,-0.00002572,0.00
 043685,0.00014249,-0.00000830,0.00034641,0.00032572,0.00012175,0.00081
 611,-0.00069305,0.00001816,-0.00129620,-0.00296457,-0.00332060,-0.0045
 3295,0.04963588,-0.00001062,-0.00001037,-0.00004331,0.00000064,-0.0000
 0283,0.00003922,-0.00003707,0.00003733,0.00001297,-0.00001806,0.000000
 07,-0.00001209,0.00000165,-0.00000173,0.00000074,0.00004096,0.00017990
 ,-0.00022722,-0.00018399,0.00001845,0.00002426,0.00013389,-0.00019962,
 -0.00003617,-0.00003591,0.00004829,-0.00002380,-0.00000032,-0.00004360
 ,-0.00001608,0.00000218,-0.00000060,-0.00000752,-0.00001337,-0.0000999
 6,-0.00006336,-0.00086642,-0.00050824,-0.00031104,0.00734490,0.0009761
 1,0.00357826,0.04009398,0.00511671,-0.02174882,-0.03345910,-0.00118884
 ,-0.04155635,-0.01085090,-0.00013576,0.00033400,0.00135150,-0.00023781
 ,0.00053152,0.00024441,0.00011716,-0.00014846,-0.00126168,-0.00006593,
 0.00039728,0.00036470,-0.00001994,0.00000392,-0.00001162,-0.00002374,-
 0.00001553,-0.00061592,0.00169093,0.00049404,0.00021263,-0.00000957,0.
 00004130,-0.00003143,0.00002500,0.00006138,-0.02593750,-0.00273881,-0.
 00359738,0.00146669,0.00064232,0.00242663,-0.00041368,0.00014723,-0.00
 022211,0.00010367,0.00003535,-0.00018067,0.00001892,0.00001067,0.00001
 209,-0.00000082,0.00000561,0.00000423,0.00000021,0.00000631,0.00000253
 ,-0.00000456,-0.00001041,-0.00000206,-0.00002360,-0.00003370,-0.000077
 85,-0.00000834,0.00000953,0.00001247,-0.00004876,-0.00002049,-0.000059
 82,-0.00026685,-0.00009839,0.00008097,-0.00153070,-0.00022140,-0.00011
 940,0.00016267,0.00026935,-0.00002829,0.00071756,-0.00034754,0.0002331
 0,-0.00107123,-0.00310955,-0.00332592,0.02424058,-0.00256009,0.0641518
 1,0.00000292,0.00002536,-0.00006978,-0.00003299,-0.00003704,0.00003990
 ,-0.00000233,-0.00005162,0.00003538,0.00000888,0.00005465,-0.00003432,
 -0.00000344,-0.00001348,0.00000922,0.00003724,-0.00006083,0.00003228,0
 .00005859,0.00011397,0.00004091,-0.00006782,-0.00003782,-0.00007767,-0
 .00007660,-0.00003405,0.00013159,0.00003466,-0.00001885,-0.00010387,-0
 .00002203,0.00000998,0.00002380,0.00003747,0.00006693,0.00011725,0.000
 05237,0.00046775,-0.00049749,0.00009886,-0.00046278,-0.00023036,0.0018
 9336,-0.00045686,-0.00015411,-0.01342786,0.00249663,0.00156982,-0.3440
 2980,0.02502023,0.01252424,-0.01149246,-0.01176513,-0.01224597,-0.0003
 9734,-0.00105760,0.00112638,-0.01379694,0.00286652,0.00310461,0.001661
 89,-0.00033799,-0.00050155,0.00020527,-0.00001137,-0.00006491,0.000529
 73,0.00036343,0.00026644,0.00003955,-0.00000559,0.00002734,-0.00000643
 ,0.00000114,-0.00000892,-0.00091022,-0.00052792,-0.00059852,0.00046733
 ,0.00022118,-0.00009582,-0.00071908,-0.00096019,-0.00041456,0.00037392
 ,0.00012117,0.00043047,-0.00002959,0.00007959,0.00014519,-0.00001014,-
 0.00000393,0.00000962,0.00002890,0.00000755,-0.00002758,0.00000734,0.0
 0006416,0.00000199,0.00002221,-0.00001737,0.00003131,0.00001016,0.0000
 0487,-0.00001497,0.00001661,0.00000127,0.00000326,0.00001032,0.0000254
 1,-0.00004017,0.00009328,-0.00001580,0.00023350,-0.00000132,0.00016646
 ,-0.00001338,0.00012774,-0.00034579,0.00004092,0.00098740,0.00055575,0
 .00056744,0.00032954,0.00154526,-0.00025956,0.37710252,-0.00000851,0.0
 0002400,-0.00006163,-0.00001271,-0.00004823,0.00002907,0.00001409,-0.0
 0000120,-0.00000513,-0.00001044,0.00003465,-0.00002617,0.00000491,-0.0
 0000974,0.00000224,-0.00010079,-0.00008515,-0.00006767,-0.00004274,0.0
 0008621,0.00009329,0.00002648,-0.00002485,-0.00008633,-0.00003586,-0.0
 0001756,0.00010867,0.00001795,-0.00002362,-0.00007956,-0.00001492,0.00
 000992,0.00001398,0.00004941,0.00011583,0.00011202,0.00005133,0.000442
 14,-0.00032325,0.00011533,-0.00005857,-0.00009250,-0.00194768,0.002411
 08,-0.00163215,0.03529986,-0.00669904,-0.00027867,0.02474841,-0.039736
 38,0.00407355,-0.03403005,-0.00967041,-0.01334408,-0.00024630,-0.00021
 107,0.00149438,-0.00669405,0.00197173,0.00170252,-0.00016511,0.0010335
 2,-0.00089906,0.00015023,0.00004428,-0.00017920,0.00016451,-0.00009552
 ,0.00005185,-0.00009433,-0.00002254,0.00010723,0.00000298,0.00002342,-
 0.00000312,0.00140213,0.00229426,0.00103634,-0.00025608,-0.00022389,-0
 .00025479,0.00043660,-0.00017822,-0.00009741,0.00002029,0.00001017,0.0
 0020042,0.00000594,0.00006790,0.00005614,-0.00000487,0.00000022,0.0000
 0713,0.00001931,0.00001483,-0.00002608,-0.00001282,0.00005165,0.000004
 29,0.00000588,-0.00002449,0.00001347,0.00000106,0.00000499,-0.00000480
 ,0.00000143,-0.00000115,-0.00000216,-0.00001339,-0.00001121,0.00003200
 ,-0.00018187,-0.00006966,-0.00010653,-0.00015579,-0.00006087,-0.000023
 06,-0.00034378,0.00003013,-0.00009091,-0.00069955,-0.00033733,-0.00046
 200,0.00162915,-0.00550558,0.00191944,-0.01853122,0.05431042,0.0000063
 5,0.00001135,-0.00002125,-0.00001969,-0.00001910,0.00000949,-0.0000018
 8,-0.00003772,0.00000998,0.00000710,0.00001813,0.00000023,-0.00000133,
 -0.00000577,0.00000483,0.00002254,0.00001755,0.00006195,0.00003258,0.0
 0001071,-0.00000972,-0.00002664,0.00002009,0.00001475,-0.00006621,-0.0
 0003891,0.00006296,0.00003851,0.00000627,-0.00003124,-0.00001502,0.000
 00150,0.00001254,-0.00001331,0.00003108,0.00002089,0.00018688,0.000251
 30,-0.00034913,-0.00036636,-0.00035801,-0.00040348,0.00035044,-0.00159
 273,0.00175935,-0.01360648,0.00500620,0.00133798,0.01302954,0.00468515
 ,-0.04085907,-0.02821902,-0.01258294,-0.00750524,-0.00122960,-0.000423
 39,0.00110741,0.03800069,-0.00223489,-0.00490557,-0.00200548,-0.001329
 21,0.00257836,-0.00025205,-0.00038935,0.00030276,0.00000370,0.00013830
 ,0.00013857,0.00001764,-0.00002585,-0.00001972,0.00000210,-0.00001784,
 -0.00000388,0.00061701,-0.00035228,-0.00070946,-0.00008135,-0.00064776
 ,-0.00028837,0.00062750,0.00066502,0.00179164,-0.00048742,-0.00002046,
 -0.00026950,-0.00012386,-0.00014127,-0.00012081,-0.00000491,-0.0000017
 8,0.00000104,0.00003223,0.00000753,-0.00003369,-0.00001204,0.00003488,
 0.00000359,0.00002764,-0.00001174,0.00003142,0.00000725,0.00000507,-0.
 00001246,0.00001009,0.00000034,0.00000531,0.00001729,0.00002603,-0.000
 02931,0.00017678,0.00000833,0.00001485,0.00005308,0.00011384,0.0000052
 1,0.00007454,-0.00006163,-0.00000209,0.00019947,-0.00014157,0.00012658
 ,-0.00085227,0.00203955,-0.00040244,-0.00765210,0.00605192,0.05302884,
 0.00000358,-0.00001163,-0.00001649,-0.00000205,0.00000879,0.00000955,-
 0.00000787,-0.00000727,0.00002246,0.00000744,0.00000193,-0.00001841,-0
 .00000404,0.00000208,0.00000293,0.00000901,0.00000299,0.00001986,0.000
 01667,-0.00000777,-0.00003325,-0.00000700,-0.00000408,0.00002579,-0.00
 001565,0.00001366,-0.00000477,0.00001297,-0.00001131,0.00000087,-0.000
 00560,0.00000069,-0.00000284,-0.00000739,0.00000867,0.00001892,0.00003
 422,-0.00006290,-0.00005595,-0.00008705,0.00004293,0.00016122,0.000584
 85,0.00003385,-0.00005098,-0.00062791,0.00103920,-0.00055409,-0.015125
 12,-0.00220071,0.00323335,0.00192934,0.00049926,-0.00022512,0.00015618
 ,-0.00000394,-0.00013156,-0.35248244,-0.00353240,-0.00655569,-0.005819
 24,0.01367486,-0.00353958,0.00028563,0.00039443,0.00021671,-0.00008998
 ,-0.00004516,-0.00003360,0.00005853,0.00004998,-0.00006010,-0.00001086
 ,-0.00000920,-0.00000049,-0.00036860,-0.00047025,0.00017476,0.00247764
 ,0.00051204,0.00093625,-0.01606491,-0.00107735,-0.00112609,0.00215986,
 0.00096463,0.00244655,0.00054023,0.00058648,0.00078832,-0.00000275,0.0
 0000321,0.00000159,0.00000889,0.00000050,-0.00000623,-0.00000819,-0.00
 000113,-0.00000028,0.00000744,-0.00000102,0.00000348,0.00000306,0.0000
 0091,-0.00000404,0.00000572,0.00000135,-0.00000058,0.00000632,0.000005
 07,-0.00000726,0.00002512,-0.00001384,0.00002269,0.00001423,-0.0000238
 2,0.00001250,0.00005176,-0.00004671,0.00002256,0.00012608,0.00016446,-
 0.00000530,0.00080179,-0.00078908,0.00028033,0.00043158,-0.00054353,0.
 00189666,0.38064666,0.00000254,-0.00000134,0.00001666,0.00000008,0.000
 00467,-0.00000896,-0.00000278,0.00000701,-0.00000880,0.00000176,-0.000
 00935,0.00000921,-0.00000060,0.00000232,-0.00000193,-0.00000226,0.0000
 1239,-0.00000291,0.00000812,-0.00001551,-0.00000462,-0.00000545,0.0000
 0415,0.00000095,0.00000238,-0.00000295,-0.00001818,-0.00000366,0.00000
 946,0.00001827,0.00000476,-0.00000333,-0.00000253,-0.00000231,-0.00001
 628,-0.00002747,0.00001268,-0.00003851,0.00005513,-0.00000609,0.000066
 89,-0.00000932,0.00017100,-0.00010221,-0.00010853,-0.00104033,0.000393
 52,0.00017242,-0.00768846,0.00167527,0.00106768,0.00093508,0.00035116,
 0.00011549,-0.00009618,-0.00006416,-0.00015004,-0.00362230,-0.03399684
 ,-0.00162988,0.04314787,-0.02816031,0.00670421,0.00088371,0.00104976,-
 0.00068410,-0.00008006,0.00001124,-0.00000738,0.00003559,-0.00001493,-
 0.00001798,-0.00000537,-0.00000243,0.00000513,-0.00033600,-0.00034930,
 0.00025528,0.00023651,0.00192747,-0.00041442,-0.02515404,-0.00246932,-
 0.00504123,0.00020107,0.00085040,0.00164929,-0.00002332,0.00008663,0.0
 0028485,0.00000116,-0.00000075,-0.00000280,-0.00000219,-0.00000310,0.0
 0000300,0.00000433,-0.00000782,0.00000013,-0.00000014,0.00000493,0.000
 00019,0.00000009,-0.00000098,0.00000071,-0.00000095,0.00000036,0.00000
 077,0.00000146,-0.00000033,-0.00000290,0.00001050,0.00000713,0.0000149
 4,0.00000190,-0.00001254,-0.00001385,0.00003964,-0.00004578,0.00002943
 ,0.00017180,0.00013555,-0.00005575,0.00018087,-0.00013568,0.00047982,-
 0.00000485,0.00004480,0.00162583,-0.00785699,0.06153370,-0.00000212,-0
 .00000431,0.00000935,0.00000608,0.00000634,-0.00000362,0.00000722,0.00
 001360,-0.00000585,-0.00000319,-0.00000840,0.00000250,0.00000090,0.000
 00264,-0.00000228,-0.00000972,-0.00000218,-0.00001291,-0.00001268,-0.0
 0000862,-0.00000085,0.00000900,-0.00000097,0.00000336,0.00001938,0.000
 01060,-0.00002028,-0.00001147,-0.00000242,0.00001249,0.00000533,-0.000
 00094,-0.00000530,0.00000317,-0.00001248,-0.00000698,-0.00001898,-0.00
 011559,0.00011066,0.00003849,0.00010496,0.00005793,-0.00065960,-0.0001
 1353,-0.00010079,0.00131222,-0.00111630,0.00121284,0.03709194,0.001543
 59,-0.00465977,-0.00186540,0.00022479,0.00322331,-0.00005516,0.0003873
 4,0.00014150,-0.00079111,-0.00229411,-0.04285501,-0.01035052,0.0086635
 2,0.00299804,-0.00115832,-0.00006303,0.00013294,0.00002709,0.00004285,
 0.00009615,-0.00000847,-0.00001498,0.00000055,-0.00000411,0.00000097,0
 .00000290,0.00022822,0.00014154,-0.00036659,0.00130880,0.00162059,0.00
 094164,-0.02742181,-0.00633417,-0.00545760,-0.00131656,0.00042094,0.00
 071217,-0.00009841,-0.00002316,0.00019555,0.00000180,0.00000079,-0.000
 00129,-0.00000852,-0.00000145,0.00000777,0.00000090,-0.00001053,0.0000
 0067,-0.00000891,0.00000355,-0.00001071,-0.00000273,-0.00000159,0.0000
 0432,-0.00000456,0.00000060,-0.00000141,-0.00000213,-0.00000669,0.0000
 0902,-0.00003643,0.00000783,-0.00004908,-0.00001330,0.00002738,0.00000
 649,-0.00000684,0.00002370,0.00000115,-0.00009256,-0.00009631,-0.00017
 301,-0.00069316,0.00055011,-0.00030785,0.00192045,0.00098917,-0.006045
 86,0.00321438,-0.00154765,0.05328727,0.00000066,-0.00000673,-0.0000201
 2,-0.00000618,0.00000525,0.00001168,0.00000376,-0.00000255,0.00001745,
 0.00000286,0.00000517,-0.00002065,-0.00000211,0.00000048,0.00000276,-0
 .00001904,0.00000065,0.00000514,0.00000382,-0.00000762,-0.00004265,0.0
 0000319,0.00000221,0.00004674,-0.00001018,0.00001031,0.00000696,0.0000
 0576,-0.00001189,-0.00001101,-0.00000357,0.00000141,0.00000089,0.00000
 688,0.00000690,0.00002567,0.00001243,-0.00003671,-0.00006272,0.0000310
 2,0.00004218,0.00008521,-0.00000962,-0.00003640,-0.00022212,0.00010993
 ,0.00027387,0.00004564,-0.00051272,-0.00042822,-0.00007905,0.00023955,
 0.00007426,-0.00005571,-0.00003638,-0.00002790,-0.00001683,-0.00440671
 ,0.00233044,-0.00176468,0.00118770,-0.00120622,0.00082389,-0.00039642,
 -0.00015322,-0.00011197,0.00039513,-0.00010859,-0.00011953,-0.00001166
 ,0.00016002,-0.00011367,-0.00000914,-0.00000997,-0.00002374,-0.0001145
 2,-0.00022545,0.00024774,-0.00319487,0.00777567,-0.00377566,-0.3319090
 4,-0.01013283,-0.09060732,-0.01764517,-0.00259373,0.00147730,0.0001985
 6,0.00025428,-0.00003791,-0.00000263,0.00000142,0.00000282,0.00000389,
 0.00000036,-0.00000282,-0.00000175,0.00000156,-0.00000041,0.00000111,-
 0.00000121,-0.00000139,0.00000165,0.00000024,-0.00000205,0.00000318,0.
 00000121,-0.00000001,0.00000492,-0.00000118,-0.00000154,0.00000375,-0.
 00000359,-0.00000289,-0.00000434,-0.00002994,0.00001005,0.00002084,-0.
 00013306,0.00010250,0.00025429,0.00037785,-0.00097778,0.00000859,-0.00
 008283,0.00017992,0.00035673,-0.00002093,-0.00040053,0.00033183,-0.000
 12055,-0.00053861,0.35510404,0.00000078,0.00001715,0.00000904,0.000000
 57,-0.00001975,-0.00000461,-0.00001109,-0.00000385,-0.00001400,0.00000
 018,0.00000838,0.00001535,0.00000066,-0.00000376,-0.00000173,0.0000266
 4,-0.00004923,-0.00001452,0.00001698,0.00007228,0.00010588,-0.00003655
 ,-0.00004022,-0.00014874,-0.00000133,-0.00001741,0.00001888,0.00000330
 ,0.00001065,-0.00000886,-0.00000358,0.00000059,0.00000438,-0.00000582,
 0.00001951,0.00000442,-0.00000131,0.00016208,-0.00001374,-0.00010929,-
 0.00010337,-0.00014830,0.00010081,0.00032534,0.00030388,-0.00040855,-0
 .00080744,0.00024901,-0.00115282,-0.00047195,0.00130630,0.00040187,0.0
 0005261,-0.00076240,0.00008642,-0.00023881,0.00007984,-0.02133891,0.00
 431115,-0.00743958,0.00197955,0.00214416,0.00165082,-0.00026646,-0.000
 14128,0.00006350,-0.00013415,0.00023743,0.00010913,-0.00011143,-0.0003
 0614,0.00023335,-0.00000811,0.00003853,0.00004046,0.00366711,0.0011424
 8,-0.00443080,0.03109940,-0.00968388,0.01657897,-0.01122615,-0.0442642
 0,-0.00450757,-0.00435357,0.00251935,-0.00031327,0.00000374,0.00041280
 ,-0.00061769,0.00000047,-0.00000245,-0.00000109,0.00000087,0.00000178,
 -0.00000053,0.00000295,0.00001039,-0.00000033,0.00000166,-0.00000327,0
 .00000285,0.00000083,0.00000076,-0.00000056,0.00000220,-0.00000065,0.0
 0000126,-0.00000458,0.00000643,-0.00000304,0.00000871,-0.00000001,0.00
 000826,0.00003196,0.00003501,-0.00001288,-0.00014497,0.00009386,-0.000
 06404,-0.00136564,0.00033457,0.00009322,0.00000419,-0.00010973,-0.0000
 4666,0.00047880,0.00009016,-0.00034178,-0.00129189,-0.00272509,-0.0030
 0797,0.00405557,0.04694506,-0.00000381,-0.00000582,-0.00004109,-0.0000
 0972,0.00000232,0.00002450,0.00001226,-0.00000312,0.00003042,-0.000002
 36,0.00001658,-0.00003745,-0.00000027,-0.00000145,0.00000416,-0.000020
 92,-0.00003060,-0.00000514,0.00000221,0.00002102,-0.00003577,-0.000002
 38,-0.00001534,0.00003436,-0.00001049,0.00001749,0.00002447,0.00000047
 ,-0.00002333,-0.00003109,-0.00000241,0.00000367,0.00000371,0.00002369,
 0.00002276,0.00006185,0.00000325,-0.00002596,-0.00013504,0.00008142,0.
 00006144,0.00015741,0.00005117,0.00004330,-0.00041919,0.00005510,-0.00
 018268,-0.00005350,-0.00115553,0.00036215,0.00170069,0.00050458,-0.000
 14817,-0.00036660,0.00004461,-0.00006725,0.00007112,-0.02279001,0.0020
 5175,-0.00189994,0.00209354,-0.00080630,0.00139832,0.00005540,-0.00030
 489,-0.00013916,0.00014962,0.00003022,-0.00000949,0.00006433,0.0001368
 8,-0.00009136,-0.00000209,-0.00001519,-0.00001255,-0.00248785,-0.00069
 509,0.00289109,-0.01058643,0.00647598,-0.00389200,-0.09724171,-0.00666
 679,-0.07867258,0.03375394,0.00151022,0.00011704,0.00060916,0.00017967
 ,0.00372504,-0.00000336,0.00000152,0.00000587,0.00000262,0.00000009,-0
 .00000291,0.00000096,0.00000716,-0.00000088,-0.00000167,-0.00000229,-0
 .00000306,0.00000122,0.00000039,-0.00000268,0.00000365,0.00000067,-0.0
 0000015,0.00000290,0.00000086,-0.00000267,0.00000135,-0.00000892,0.000
 00275,-0.00000446,-0.00001550,0.00000679,0.00012644,-0.00011984,0.0000
 2574,0.00097542,-0.00015793,-0.00007816,0.00019187,0.00002545,0.000090
 81,0.00067228,0.00004716,-0.00040825,-0.00107900,-0.00274817,-0.003083
 53,0.09592097,0.00102589,0.07904809\\-0.00179573,-0.01381967,0.0023346
 7,0.02159439,0.00573696,0.00493284,-0.00000161,-0.03400842,-0.00627184
 ,-0.00288788,0.03570504,0.02034645,-0.00393592,-0.02210910,-0.01492104
 ,0.00093233,-0.00879425,-0.01701221,-0.00458990,0.01095276,0.00621571,
 0.01366654,0.00408613,0.01274461,0.00367664,0.00959065,0.01673239,0.00
 225354,0.02257348,0.00548586,0.00020274,-0.03400562,-0.00757917,-0.010
 55703,0.01003874,-0.00373663,0.00740353,-0.00394191,0.01419055,-0.0421
 8793,0.01338237,-0.02734784,-0.00318423,-0.01572166,-0.00807140,0.0233
 7226,0.03104987,-0.00707167,-0.00777572,0.01416171,0.01342115,-0.00336
 398,-0.02267704,0.00900519,0.00662091,0.01697206,-0.01510998,0.0113581
 9,0.02602436,0.01545287,-0.00928198,-0.00030058,-0.03083624,-0.0048492
 4,-0.01566506,0.02815456,0.01664511,-0.02041055,-0.01887763,-0.0116388
 8,-0.01950180,-0.00439530,-0.00648991,0.03189907,0.00331627,-0.0274130
 7,-0.02744851,0.03393835,-0.01556326,-0.00098531,0.03706074,0.06628825
 ,-0.00576653,-0.00405226,-0.02268419,0.01652735,-0.00987288,-0.0009043
 3,-0.00137490,-0.00520446,-0.00039933,0.00457022,0.00044663,-0.0202622
 5,-0.00127225,-0.00223840,0.00396731,0.00658034,-0.01667210,0.02041745
 ,0.00124637,0.00171497,-0.01739251,-0.00155478,0.00263092,0.02203212,0
 .00555234,-0.00096802,-0.02035018,0.00019027,0.00226953,0.01875437,0.0
 0194936,-0.00495561,-0.00098404,-0.00994516,-0.01645104,0.02086928,0.0
 0109706,0.00094076,-0.02347504,-0.00057867,-0.00098003,0.02218237,-0.0
 0002462,-0.00018141,-0.02443112,0.00060325,0.00078982,0.02072153,-0.00
 636155,-0.00280126,-0.01655959,-0.00422184,-0.00651640\\\@


 SCIENCE AND PEACE WILL TRIUMPH OVER IGNORANCE AND WAR

                          -- PASTEUR
 Job cpu time:  1 days  8 hours  9 minutes 56.2 seconds.
 File lengths (MBytes):  RWF=   1769 Int=      0 D2E=      0 Chk=     28 Scr=      1
 Normal termination of Gaussian 09 at Sun Mar 27 05:02:24 2016.
Gaussian '09 finished on node012 at Sun Mar 27 05:02:25 EDT 2016.
