Gaussian '09 started on node031 at Fri Mar 25 22:20:59 EDT 2016.
 Entering Gaussian System, Link 0=/usr/local/gaussian/g09/g09
 Initial command:
 /usr/local/gaussian/g09/l1.exe /home/srmcgrat/thesis/gaussian/cellobiose/423K/7231ps/1/2dp/gaussian25731/Gau-25767.inp -scrdir=/home/srmcgrat/thesis/gaussian/cellobiose/423K/7231ps/1/2dp/gaussian25731/
 Entering Link 1 = /usr/local/gaussian/g09/l1.exe PID=     25769.
  
 Copyright (c) 1988,1990,1992,1993,1995,1998,2003,2009,2010,
            Gaussian, Inc.  All Rights Reserved.
  
 This is part of the Gaussian(R) 09 program.  It is based on
 the Gaussian(R) 03 system (copyright 2003, Gaussian, Inc.),
 the Gaussian(R) 98 system (copyright 1998, Gaussian, Inc.),
 the Gaussian(R) 94 system (copyright 1995, Gaussian, Inc.),
 the Gaussian 92(TM) system (copyright 1992, Gaussian, Inc.),
 the Gaussian 90(TM) system (copyright 1990, Gaussian, Inc.),
 the Gaussian 88(TM) system (copyright 1988, Gaussian, Inc.),
 the Gaussian 86(TM) system (copyright 1986, Carnegie Mellon
 University), and the Gaussian 82(TM) system (copyright 1983,
 Carnegie Mellon University). Gaussian is a federally registered
 trademark of Gaussian, Inc.
  
 This software contains proprietary and confidential information,
 including trade secrets, belonging to Gaussian, Inc.
  
 This software is provided under written license and may be
 used, copied, transmitted, or stored only in accord with that
 written license.
  
 The following legend is applicable only to US Government
 contracts under FAR:
  
                    RESTRICTED RIGHTS LEGEND
  
 Use, reproduction and disclosure by the US Government is
 subject to restrictions as set forth in subparagraphs (a)
 and (c) of the Commercial Computer Software - Restricted
 Rights clause in FAR 52.227-19.
  
 Gaussian, Inc.
 340 Quinnipiac St., Bldg. 40, Wallingford CT 06492
  
  
 ---------------------------------------------------------------
 Warning -- This program may not be used in any manner that
 competes with the business of Gaussian, Inc. or will provide
 assistance to any competitor of Gaussian, Inc.  The licensee
 of this program is prohibited from giving any competitor of
 Gaussian, Inc. access to this program.  By using this program,
 the user acknowledges that Gaussian, Inc. is engaged in the
 business of creating and licensing software in the field of
 computational chemistry and represents and warrants to the
 licensee that it is not a competitor of Gaussian, Inc. and that
 it will not use this program in any manner prohibited above.
 ---------------------------------------------------------------
  

 Cite this work as:
 Gaussian 09, Revision B.01,
 M. J. Frisch, G. W. Trucks, H. B. Schlegel, G. E. Scuseria, 
 M. A. Robb, J. R. Cheeseman, G. Scalmani, V. Barone, B. Mennucci, 
 G. A. Petersson, H. Nakatsuji, M. Caricato, X. Li, H. P. Hratchian, 
 A. F. Izmaylov, J. Bloino, G. Zheng, J. L. Sonnenberg, M. Hada, 
 M. Ehara, K. Toyota, R. Fukuda, J. Hasegawa, M. Ishida, T. Nakajima, 
 Y. Honda, O. Kitao, H. Nakai, T. Vreven, J. A. Montgomery, Jr., 
 J. E. Peralta, F. Ogliaro, M. Bearpark, J. J. Heyd, E. Brothers, 
 K. N. Kudin, V. N. Staroverov, T. Keith, R. Kobayashi, J. Normand, 
 K. Raghavachari, A. Rendell, J. C. Burant, S. S. Iyengar, J. Tomasi, 
 M. Cossi, N. Rega, J. M. Millam, M. Klene, J. E. Knox, J. B. Cross, 
 V. Bakken, C. Adamo, J. Jaramillo, R. Gomperts, R. E. Stratmann, 
 O. Yazyev, A. J. Austin, R. Cammi, C. Pomelli, J. W. Ochterski, 
 R. L. Martin, K. Morokuma, V. G. Zakrzewski, G. A. Voth, 
 P. Salvador, J. J. Dannenberg, S. Dapprich, A. D. Daniels, 
 O. Farkas, J. B. Foresman, J. V. Ortiz, J. Cioslowski, 
 and D. J. Fox, Gaussian, Inc., Wallingford CT, 2010.
 
 ******************************************
 Gaussian 09:  EM64L-G09RevB.01 12-Aug-2010
                25-Mar-2016 
 ******************************************
 -------------------------------------------------
 # freq=raman b3lyp/6-31+g(2d,p) geom=connectivity
 -------------------------------------------------
 1/10=4,30=1,38=1,57=2/1,3;
 2/12=2,17=6,18=5,40=1/2;
 3/5=1,6=6,7=112,11=2,16=1,25=1,30=1,71=2,74=-5/1,2,3;
 4//1;
 5/5=2,38=5,98=1/2;
 8/6=4,10=90,11=11/1;
 10/13=10,15=4/2;
 11/6=3,8=1,9=11,15=111,16=1/1,2,10;
 10/6=1/2;
 6/7=2,8=2,9=2,10=2,18=1,28=1/1;
 7/8=1,10=1,25=1/1,2,3,16;
 1/10=4,30=1/3;
 99//99;
 -----------------
 423 7231/7231.com
 -----------------
 Symbolic Z-matrix:
 Charge =  0 Multiplicity = 1
 O                     7.429     7.5       12.4 
 C                     8.107     7.895     13.601 
 C                     7.544     9.227     14.068 
 O                     7.83      10.24     13.092 
 H                     7.419     9.9       12.247 
 C                     8.202     9.682     15.36 
 O                     7.494     10.797    15.92 
 H                     8.162     11.128    16.587 
 C                     8.494     5.502     14.433 
 O                     7.714     4.782     13.468 
 H                     7.575     3.826     13.726 
 C                     7.897     6.873     14.706 
 O                     8.576     7.305     15.894 
 C                     8.104     8.567     16.389 
 O                     8.891     8.827     17.56 
 C                     8.267     8.499     18.81 
 C                     8.845     7.167     19.259 
 O                     8.555     6.072     18.379 
 H                     8.875     6.427     17.5 
 C                     8.21      6.815     20.594 
 O                     8.808     5.59      21.041 
 H                     8.412     5.331     21.922 
 C                     8.055     10.913    19.701 
 O                     8.676     11.567    18.584 
 H                     8.601     12.553    18.735 
 C                     8.527     9.487     19.935 
 O                     7.82      9.043     21.102 
 C                     8.366     7.855     21.692 
 O                     7.51      7.546     22.802 
 H                     8.0457    7.33236   23.56945 
 H                     9.38626   7.98408   21.98749 
 H                     7.16542   6.6449    20.43649 
 H                     9.90423   7.25867   19.37953 
 H                     7.21192   8.39708   18.66398 
 H                     9.57545   9.50006   20.14826 
 H                     8.25557   11.48508   20.5827 
 H                     6.99743   10.8974   19.53914 
 H                     8.07541   7.27825   11.72577 
 H                     9.4901    5.62086   14.06077 
 H                     8.52458   4.94455   15.3458 
 H                     6.85088   6.77399   14.90783 
 H                     9.15352   7.99845   13.40354 
 H                     6.4863    9.14574   14.20791 
 H                     9.22593   9.93978   15.18673 
 H                     7.08007   8.45989   16.68055 
 

 GradGradGradGradGradGradGradGradGradGradGradGradGradGradGradGradGradGrad
 Berny optimization.
 Initialization pass.
 Trust Radius=3.00D-01 FncErr=1.00D-07 GrdErr=1.00D-07
 Number of steps in this run=      2 maximum allowed number of steps=      2.
 GradGradGradGradGradGradGradGradGradGradGradGradGradGradGradGradGradGrad

                          Input orientation:                          
 ---------------------------------------------------------------------
 Center     Atomic      Atomic             Coordinates (Angstroms)
 Number     Number       Type             X           Y           Z
 ---------------------------------------------------------------------
      1          8           0        7.429000    7.500000   12.400000
      2          6           0        8.107000    7.895000   13.601000
      3          6           0        7.544000    9.227000   14.068000
      4          8           0        7.830000   10.240000   13.092000
      5          1           0        7.419000    9.900000   12.247000
      6          6           0        8.202000    9.682000   15.360000
      7          8           0        7.494000   10.797000   15.920000
      8          1           0        8.162000   11.128000   16.587000
      9          6           0        8.494000    5.502000   14.433000
     10          8           0        7.714000    4.782000   13.468000
     11          1           0        7.575000    3.826000   13.726000
     12          6           0        7.897000    6.873000   14.706000
     13          8           0        8.576000    7.305000   15.894000
     14          6           0        8.104000    8.567000   16.389000
     15          8           0        8.891000    8.827000   17.560000
     16          6           0        8.267000    8.499000   18.810000
     17          6           0        8.845000    7.167000   19.259000
     18          8           0        8.555000    6.072000   18.379000
     19          1           0        8.875000    6.427000   17.500000
     20          6           0        8.210000    6.815000   20.594000
     21          8           0        8.808000    5.590000   21.041000
     22          1           0        8.412000    5.331000   21.922000
     23          6           0        8.055000   10.913000   19.701000
     24          8           0        8.676000   11.567000   18.584000
     25          1           0        8.601000   12.553000   18.735000
     26          6           0        8.527000    9.487000   19.935000
     27          8           0        7.820000    9.043000   21.102000
     28          6           0        8.366000    7.855000   21.692000
     29          8           0        7.510000    7.546000   22.802000
     30          1           0        8.045704    7.332359   23.569450
     31          1           0        9.386258    7.984084   21.987486
     32          1           0        7.165416    6.644898   20.436491
     33          1           0        9.904230    7.258669   19.379533
     34          1           0        7.211922    8.397075   18.663978
     35          1           0        9.575451    9.500061   20.148261
     36          1           0        8.255570   11.485081   20.582700
     37          1           0        6.997428   10.897399   19.539145
     38          1           0        8.075407    7.278251   11.725771
     39          1           0        9.490101    5.620862   14.060772
     40          1           0        8.524579    4.944546   15.345803
     41          1           0        6.850883    6.773994   14.907832
     42          1           0        9.153521    7.998450   13.403535
     43          1           0        6.486304    9.145737   14.207912
     44          1           0        9.225927    9.939781   15.186733
     45          1           0        7.080072    8.459894   16.680548
 ---------------------------------------------------------------------
                    Distance matrix (angstroms):
                    1          2          3          4          5
     1  O    0.000000
     2  C    1.434611   0.000000
     3  C    2.403742   1.519632   0.000000
     4  O    2.854341   2.415540   1.435458   0.000000
     5  H    2.404893   2.515290   1.945404   0.999273   0.000000
     6  C    3.757693   2.509278   1.519623   2.365073   3.217356
     7  O    4.823363   3.764988   2.428437   2.901849   3.781688
     8  H    5.588438   4.401308   3.215756   3.621297   4.571174
     9  C    3.042913   2.562897   3.861522   4.968684   5.027586
    10  O    2.934173   3.140527   4.488533   5.472166   5.269895
    11  H    3.908691   4.105534   5.411906   6.450301   6.253419
    12  C    2.435116   1.519740   2.464339   3.734458   3.929109
    13  O    3.682617   2.413692   2.844887   4.125766   4.623125
    14  C    4.184045   2.867845   2.477144   3.707319   4.404802
    15  O    5.524850   4.142096   3.764103   4.804718   5.616590
    16  C    6.541280   5.246341   4.851729   5.993127   6.764235
    17  C    7.011549   5.752181   5.734342   6.964585   7.659694
    18  O    6.249440   5.133548   5.436991   6.771279   7.317479
    19  H    5.408534   4.236396   4.624952   5.921272   6.463410
    20  C    8.259590   7.076656   6.989276   8.255606   8.933942
    21  O    8.956373   7.820360   7.965437   9.260971   9.891403
    22  H    9.815260   8.712414   8.810083  10.119580  10.745577
    23  C    8.083628   6.805955   5.902068   6.646987   7.549356
    24  O    7.505821   6.215918   5.210689   5.713030   6.672069
    25  H    8.187711   6.949745   5.827556   6.147183   7.108423
    26  C    7.869561   6.544495   5.954459   6.919499   7.778405
    27  O    8.846385   7.593765   7.041817   8.098951   8.905407
    28  C    9.345868   8.095243   7.789958   8.940667   9.710142
    29  O   10.402417   9.226950   8.894362  10.081872  10.814695
    30  H   11.187718   9.984503   9.701490  10.875562  11.626840
    31  H    9.797197   8.483960   8.225388   9.308102  10.120173
    32  H    8.086153   7.012366   6.882460   8.204144   8.816335
    33  H    7.409379   6.084932   6.136562   7.261118   8.001627
    34  H    6.331610   5.165945   4.682100   5.901299   6.593881
    35  H    8.285110   6.899217   6.416458   7.306499   8.200010
    36  H    9.138964   7.852063   6.931564   7.605388   8.526208
    37  H    7.918078   6.745896   5.746512   6.533837   7.372103
    38  H    0.960000   1.974300   3.092904   3.270896   2.752475
    39  H    3.246145   2.701122   4.097754   5.003088   5.088246
    40  H    4.050728   3.453099   4.575339   5.796888   5.948228
    41  H    2.674047   2.131266   2.683835   4.033499   4.144237
    42  H    2.056577   1.070000   2.131057   2.621699   2.821707
    43  H    2.620243   2.135261   1.070000   2.061114   2.298698
    44  H    4.116717   2.819163   2.142079   2.535084   3.450884
    45  H    4.400709   3.295042   2.762081   4.075395   4.673877
                    6          7          8          9         10
     6  C    0.000000
     7  O    1.434604   0.000000
     8  H    1.896851   1.000337   0.000000
     9  C    4.291502   5.590008   6.033392   0.000000
    10  O    5.275207   6.499302   7.085237   1.434582   0.000000
    11  H    6.111941   7.308559   7.864419   2.037986   0.999910
    12  C    2.900211   4.127224   4.659765   1.520059   2.436886
    13  O    2.464784   3.655881   3.907298   2.322080   3.604726
    14  C    1.520418   2.359017   2.569297   3.656810   4.796933
    15  O    2.458810   2.919265   2.602455   4.581633   5.872974
    16  C    3.647768   3.772325   3.444473   5.309583   6.531375
    17  C    4.684109   5.113807   4.826551   5.117197   6.364202
    18  O    4.719223   5.431209   5.378555   3.987422   5.146776
    19  H    3.953170   4.847727   4.841626   3.226031   4.506769
    20  C    5.967789   6.181849   5.887302   6.305755   7.426909
    21  O    7.027479   7.420518   7.136167   6.616041   7.694156
    22  H    7.876239   8.169693   7.882254   7.491401   8.500513
    23  C    4.514560   3.824152   3.123247   7.564619   8.749613
    24  O    3.764582   3.014452   2.108299   7.351745   8.551908
    25  H    4.448873   3.497601   2.614814   8.260463   9.429555
    26  C    4.590673   4.347806   3.746360   6.793623   8.038662
    27  O    5.790061   5.480503   4.984919   7.580799   8.743301
    28  C    6.592348   6.536951   6.067551   7.631912   8.803557
    29  O    7.773334   7.611254   7.202920   8.671006   9.736779
    30  H    8.540510   8.415592   7.948272   9.328767  10.423706
    31  H    6.943267   6.950361   6.367752   8.001695   9.253725
    32  H    6.005769   6.143827   5.992493   6.254060   7.234031
    33  H    4.992671   5.504304   5.079894   5.435332   6.773273
    34  H    3.680700   3.656312   3.560117   5.284539   6.349727
    35  H    4.984668   4.888014   4.163005   7.058203   8.387549
    36  H    5.525447   4.774329   4.012715   8.583293   9.789972
    37  H    4.515910   3.654432   3.181912   7.577781   8.646987
    38  H    4.359089   5.505560   6.201581   3.264870   3.065493
    39  H    4.454216   5.850944   6.202761   1.070000   2.051732
    40  H    4.748445   5.970177   6.317210   1.070000   2.051732
    41  H    3.238283   4.197936   4.847268   2.131494   2.605019
    42  H    2.750906   4.113209   4.572925   2.779753   3.524475
    43  H    2.135064   2.583286   3.520992   4.166332   4.593137
    44  H    1.070000   2.066900   2.122393   4.560453   5.642931
    45  H    2.120404   2.492355   2.880644   3.974897   4.924351
                   11         12         13         14         15
    11  H    0.000000
    12  C    3.216876   0.000000
    13  O    4.219676   1.434925   0.000000
    14  C    5.463377   2.396868   1.435428   0.000000
    15  O    6.437501   3.598815   2.278435   1.434646   0.000000
    16  C    6.939946   4.429852   3.166097   2.427434   1.435082
    17  C    6.587053   4.659930   3.378554   3.278106   2.375777
    18  O    5.258833   3.816477   2.774158   3.223124   2.893732
    19  H    4.764271   2.993633   1.854595   2.531474   2.400803
    20  C    7.517099   5.896599   4.739626   4.556618   3.703655
    21  O    7.625038   6.527498   5.430162   5.567697   4.754200
    22  H    8.374963   7.396867   6.345105   6.417215   5.610570
    23  C    9.282058   6.426242   5.270897   4.058998   3.103896
    24  O    9.205186   6.138352   5.040907   3.761012   2.932985
    25  H   10.114509   6.999347   5.967697   4.651765   3.917627
    26  C    8.456057   5.879825   4.592734   3.687743   2.491731
    27  O    9.037837   6.754528   5.542152   4.745482   3.706678
    28  C    8.961901   7.070253   5.827813   5.356995   4.277129
    29  O    9.808996   8.133137   6.993919   6.520878   5.570160
    30  H   10.459905   8.876591   7.693795   7.286055   6.249957
    31  H    9.424567   7.514814   6.184516   5.772956   4.534139
    32  H    7.290037   5.781503   4.802053   4.577948   4.001676
    33  H    7.012202   5.100944   3.730320   3.727713   2.607105
    34  H    6.738707   4.296245   3.275074   2.449531   2.054970
    35  H    8.800125   6.271910   4.890392   4.143406   2.760540
    36  H   10.302380   7.479002   6.289647   5.111290   4.075031
    37  H    9.172291   6.353291   5.355773   4.071692   3.433538
    38  H    4.021114   3.012943   4.198267   4.838119   6.091145
    39  H    2.645981   2.126532   2.651910   4.002705   4.783601
    40  H    2.185545   2.126532   2.423821   3.793062   4.484460
    41  H    3.257566   1.070000   2.056824   2.641786   3.925673
    42  H    4.472701   2.131173   2.648928   3.215236   4.246364
    43  H    5.451339   2.720935   3.255462   2.776512   4.137710
    44  H    6.499048   3.376729   2.804408   2.142124   2.642509
    45  H    5.517906   2.661662   2.047007   1.070000   2.046378
                   16         17         18         19         20
    16  C    0.000000
    17  C    1.519838   0.000000
    18  O    2.481740   1.434408   0.000000
    19  H    2.525658   1.908555   1.000533   0.000000
    20  C    2.453928   1.519656   2.361631   3.188355   0.000000
    21  O    3.705715   2.379879   2.717090   3.639195   1.434586
    22  H    4.443174   3.263427   3.622482   4.579265   2.001660
    23  C    2.581903   3.853827   5.043111   5.063694   4.197032
    24  O    3.103382   4.454681   5.500154   5.256830   5.180614
    25  H    4.068427   5.416928   6.490933   6.255252   6.044287
    26  C    1.519661   2.437314   3.752885   3.926058   2.770262
    27  O    2.397709   2.822525   4.096559   4.575028   2.318221
    28  C    2.954735   2.573378   3.767065   4.457704   1.520375
    29  O    4.173407   3.805091   4.777827   5.588076   2.428914
    30  H    4.905342   4.387048   5.365506   6.192384   3.024558
    31  H    3.407975   2.899176   4.167520   4.777386   2.166135
    32  H    2.701232   2.116620   2.548024   3.404870   1.070000
    33  H    2.131504   1.070000   2.056617   2.298616   2.131241
    34  H    1.070000   2.129338   2.700193   2.828757   2.687770
    35  H    2.122524   2.601445   3.990389   4.116749   3.045109
    36  H    3.472647   4.554716   5.852128   5.955747   4.670317
    37  H    2.809944   4.172275   5.201581   5.260024   4.387372
    38  H    7.191192   7.573255   6.778680   5.891154   8.881340
    39  H    5.686372   5.461527   4.441288   3.585596   6.763704
    40  H    4.970025   4.511661   3.236103   2.638376   5.580424
    41  H    4.495326   4.802460   3.930117   3.307082   5.846485
    42  H    5.501484   5.922243   5.368863   4.396368   7.348032
    43  H    4.976782   5.915432   5.579008   4.892365   7.013243
    44  H    4.015402   4.941334   5.059688   4.220662   6.327314
    45  H    2.438215   3.381561   3.280577   2.833006   4.392894
                   21         22         23         24         25
    21  O    0.000000
    22  H    1.000029   0.000000
    23  C    5.540482   6.018223   0.000000
    24  O    6.463652   7.078110   1.435634   0.000000
    25  H    7.337837   7.896200   1.980119   1.000311   0.000000
    26  C    4.060641   4.608007   1.520203   2.484714   3.293301
    27  O    3.592085   3.847312   2.348388   3.666556   4.304968
    28  C    2.397789   2.534875   3.662262   4.851258   5.556103
    29  O    2.934597   2.548378   4.609763   5.943023   6.542233
    30  H    3.163853   2.617957   5.271241   6.571466   7.136901
    31  H    2.638533   2.827069   3.947001   4.992541   5.663063
    32  H    2.043606   2.342442   4.421425   5.471808   6.313608
    33  H    2.597431   3.522328   4.108178   4.550070   5.490334
    34  H    4.009660   4.632031   2.848872   3.492613   4.382499
    35  H    4.083447   4.677695   2.123255   2.743750   3.502471
    36  H    5.938620   6.300073   1.070000   2.044082   2.161889
    37  H    5.805362   6.218023   1.070000   2.044082   2.441128
    38  H    9.495282  10.385960   8.764479   8.111066   8.787976
    39  H    7.013544   7.940103   7.866283   7.515245   8.407939
    40  H    5.738659   6.588504   7.403424   7.373313   8.329530
    41  H    6.545831   7.329248   6.446374   6.310165   7.148919
    42  H    8.015665   8.957086   7.025625   6.308707   7.033756
    43  H    8.045162   8.818598   5.979803   5.459618   6.047802
    44  H    7.305320   8.201656   4.764119   3.806794   4.450803
    45  H    5.498688   6.247946   4.011401   3.977967   4.825713
                   26         27         28         29         30
    26  C    0.000000
    27  O    1.434878   0.000000
    28  C    2.403413   1.434420   0.000000
    29  O    3.608526   2.286287   1.435380   0.000000
    30  H    4.252452   3.010904   1.974984   0.960000   0.000000
    31  H    2.685103   2.087714   1.070000   2.091816   2.173578
    32  H    3.191073   2.573378   2.117086   2.554673   3.326099
    33  H    2.677828   3.239559   2.840645   4.186666   4.584206
    34  H    2.129052   2.594404   3.285523   4.235140   5.088464
    35  H    1.070000   2.049422   2.559712   3.889315   4.329386
    36  H    2.117904   2.534395   3.797398   4.582306   5.119553
    37  H    2.117904   2.560847   3.970386   4.705404   5.481948
    38  H    8.513163   9.544278   9.987132  11.093882  11.843839
    39  H    7.097967   8.004946   8.030605   9.167117   9.768851
    40  H    6.457137   7.101237   6.983560   7.961897   8.576674
    41  H    5.953335   6.667481   7.034849   7.959166   8.761449
    42  H    6.728175   7.882622   8.327029   9.551807  10.247768
    43  H    6.089371   7.022659   7.823735   8.801446   9.662218
    44  H    4.820742   6.145830   6.885077   8.164979   8.857851
    45  H    3.706751   4.520701   5.209046   6.204209   7.047038
                   31         32         33         34         35
    31  H    0.000000
    32  H    3.021778   0.000000
    33  H    2.756073   2.999163   0.000000
    34  H    3.992994   2.492808   3.009403   0.000000
    35  H    2.390968   3.747439   2.392253   3.000990   0.000000
    36  H    3.938129   4.963586   4.693426   3.782391   2.423041
    37  H    4.493138   4.349393   4.659971   2.657733   2.994959
    38  H   10.369152   8.780995   7.869247   7.080684   8.838830
    39  H    8.272146   6.863134   5.580604   5.838404   7.218933
    40  H    7.354810   5.536572   4.850730   4.965210   6.702287
    41  H    7.616689   5.539104   5.436355   4.107721   6.505138
    42  H    8.587117   7.432842   6.068228   5.621473   6.922730
    43  H    8.383372   6.746153   6.479885   4.576411   6.704932
    44  H    7.078184   6.531610   5.022751   4.304345   4.993224
    45  H    5.805900   4.172362   4.086971   1.988799   4.397032
                   36         37         38         39         40
    36  H    0.000000
    37  H    1.737038   0.000000
    38  H    9.806889   8.678080   0.000000
    39  H    8.857126   8.004238   3.193826   0.000000
    40  H    8.383082   7.439944   4.330424   1.743830   0.000000
    41  H    7.508104   6.202661   3.446628   3.002116   2.517928
    42  H    8.031396   7.120277   2.120356   2.489612   3.673460
    43  H    7.017175   5.634856   3.489094   4.633485   4.806180
    44  H    5.696139   4.982643   4.515052   4.471089   5.046739
    45  H    5.075464   3.757637   5.190067   4.553193   4.028128
                   41         42         43         44         45
    41  H    0.000000
    42  H    3.010705   0.000000
    43  H    2.499594   3.012861   0.000000
    44  H    3.967472   2.637007   3.015648   0.000000
    45  H    2.457094   3.905244   2.633794   3.004371   0.000000
 Stoichiometry    C12H22O11
 Framework group  C1[X(C12H22O11)]
 Deg. of freedom   129
 Full point group                 C1      NOp   1
 Largest Abelian subgroup         C1      NOp   1
 Largest concise Abelian subgroup C1      NOp   1
                         Standard orientation:                         
 ---------------------------------------------------------------------
 Center     Atomic      Atomic             Coordinates (Angstroms)
 Number     Number       Type             X           Y           Z
 ---------------------------------------------------------------------
      1          8           0       -4.984061   -0.411561    0.501716
      2          6           0       -3.733407   -0.096974   -0.126783
      3          6           0       -3.237032    1.236702    0.406324
      4          8           0       -4.150925    2.277143    0.028406
      5          1           0       -5.030236    1.991031    0.407217
      6          6           0       -1.893942    1.608169   -0.199790
      7          8           0       -1.321903    2.727441    0.491651
      8          1           0       -0.607380    3.001218   -0.152691
      9          6           0       -2.990127   -2.537371   -0.372628
     10          8           0       -4.025054   -3.182055    0.383238
     11          1           0       -3.817406   -4.141381    0.574023
     12          6           0       -2.687310   -1.155094    0.182524
     13          8           0       -1.447926   -0.803065   -0.449149
     14          6           0       -0.922061    0.455688   -0.002541
     15          8           0        0.298243    0.632167   -0.735974
     16          6           0        1.498674    0.278208   -0.033736
     17          6           0        1.916948   -1.094956   -0.533111
     18          8           0        0.975278   -2.138357   -0.246584
     19          1           0        0.130576   -1.760287   -0.626856
     20          6           0        3.200548   -1.476011    0.185584
     21          8           0        3.622624   -2.743131   -0.338148
     22          1           0        4.469698   -3.022235    0.114208
     23          6           0        2.484330    2.659062    0.128258
     24          8           0        1.430968    3.332919   -0.577002
     25          1           0        1.621718    4.313920   -0.533721
     26          6           0        2.678466    1.205682   -0.273009
     27          8           0        3.786656    0.742974    0.512287
     28          6           0        4.350379   -0.491073    0.046557
     29          8           0        5.400065   -0.810287    0.972073
     30          1           0        6.183731   -1.078820    0.486937
     31          1           0        4.703342   -0.418035   -0.960906
     32          1           0        2.982165   -1.594814    1.226302
     33          1           0        2.095698   -1.053497   -1.587260
     34          1           0        1.294251    0.227417    1.015326
     35          1           0        2.945672    1.165198   -1.308317
     36          1           0        3.399792    3.184207   -0.047956
     37          1           0        2.267829    2.695216    1.175502
     38          1           0       -5.633410   -0.631733   -0.170199
     39          1           0       -3.305028   -2.445188   -1.391077
     40          1           0       -2.102716   -3.133835   -0.332232
     41          1           0       -2.544095   -1.218107    1.241023
     42          1           0       -3.872047   -0.029728   -1.185630
     43          1           0       -3.155396    1.194518    1.472371
     44          1           0       -2.002721    1.829400   -1.241002
     45          1           0       -0.688558    0.379844    1.038912
 ---------------------------------------------------------------------
 Rotational constants (GHZ):      0.4031603      0.1487117      0.1124954
 Standard basis: 6-31+G(2d,p) (6D, 7F)
 There are   685 symmetry adapted basis functions of A   symmetry.
 Integral buffers will be    131072 words long.
 Raffenetti 2 integral format.
 Two-electron integral symmetry is turned on.
   685 basis functions,  1028 primitive gaussians,   685 cartesian basis functions
    91 alpha electrons       91 beta electrons
       nuclear repulsion energy      2293.3033781410 Hartrees.
 NAtoms=   45 NActive=   45 NUniq=   45 SFac= 1.00D+00 NAtFMM=   50 NAOKFM=F Big=F
 One-electron integrals computed using PRISM.
 NBasis=   685 RedAO= T  NBF=   685
 NBsUse=   685 1.00D-06 NBFU=   685
 Harris functional with IExCor=  402 diagonalized for initial guess.
 ExpMin= 4.38D-02 ExpMax= 5.48D+03 ExpMxC= 8.25D+02 IAcc=2 IRadAn=         0 AccDes= 0.00D+00
 HarFok:  IExCor=  402 AccDes= 0.00D+00 IRadAn=         0 IDoV= 1
 ScaDFX=  1.000000  1.000000  1.000000  1.000000
 FoFCou: FMM=F IPFlag=           0 FMFlag=      100000 FMFlg1=           0
         NFxFlg=           0 DoJE=T BraDBF=F KetDBF=T FulRan=T
         Omega=  0.000000  0.000000  1.000000  0.000000  0.000000 ICntrl=     500 IOpCl=  0
         NMat0=    1 NMatS0=    1 NMatT0=    0 NMatD0=    1 NMtDS0=    0 NMtDT0=    0
         I1Cent=           4 NGrid=           0.
 Petite list used in FoFCou.
 Initial guess orbital symmetries:
       Occupied  (A) (A) (A) (A) (A) (A) (A) (A) (A) (A) (A) (A)
                 (A) (A) (A) (A) (A) (A) (A) (A) (A) (A) (A) (A)
                 (A) (A) (A) (A) (A) (A) (A) (A) (A) (A) (A) (A)
                 (A) (A) (A) (A) (A) (A) (A) (A) (A) (A) (A) (A)
                 (A) (A) (A) (A) (A) (A) (A) (A) (A) (A) (A) (A)
                 (A) (A) (A) (A) (A) (A) (A) (A) (A) (A) (A) (A)
                 (A) (A) (A) (A) (A) (A) (A) (A) (A) (A) (A) (A)
                 (A) (A) (A) (A) (A) (A) (A)
       Virtual   (A) (A) (A) (A) (A) (A) (A) (A) (A) (A) (A) (A)
                 (A) (A) (A) (A) (A) (A) (A) (A) (A) (A) (A) (A)
                 (A) (A) (A) (A) (A) (A) (A) (A) (A) (A) (A) (A)
                 (A) (A) (A) (A) (A) (A) (A) (A) (A) (A) (A) (A)
                 (A) (A) (A) (A) (A) (A) (A) (A) (A) (A) (A) (A)
                 (A) (A) (A) (A) (A) (A) (A) (A) (A) (A) (A) (A)
                 (A) (A) (A) (A) (A) (A) (A) (A) (A) (A) (A) (A)
                 (A) (A) (A) (A) (A) (A) (A) (A) (A) (A) (A) (A)
                 (A) (A) (A) (A) (A) (A) (A) (A) (A) (A) (A) (A)
                 (A) (A) (A) (A) (A) (A) (A) (A) (A) (A) (A) (A)
                 (A) (A) (A) (A) (A) (A) (A) (A) (A) (A) (A) (A)
                 (A) (A) (A) (A) (A) (A) (A) (A) (A) (A) (A) (A)
                 (A) (A) (A) (A) (A) (A) (A) (A) (A) (A) (A) (A)
                 (A) (A) (A) (A) (A) (A) (A) (A) (A) (A) (A) (A)
                 (A) (A) (A) (A) (A) (A) (A) (A) (A) (A) (A) (A)
                 (A) (A) (A) (A) (A) (A) (A) (A) (A) (A) (A) (A)
                 (A) (A) (A) (A) (A) (A) (A) (A) (A) (A) (A) (A)
                 (A) (A) (A) (A) (A) (A) (A) (A) (A) (A) (A) (A)
                 (A) (A) (A) (A) (A) (A) (A) (A) (A) (A) (A) (A)
                 (A) (A) (A) (A) (A) (A) (A) (A) (A) (A) (A) (A)
                 (A) (A) (A) (A) (A) (A) (A) (A) (A) (A) (A) (A)
                 (A) (A) (A) (A) (A) (A) (A) (A) (A) (A) (A) (A)
                 (A) (A) (A) (A) (A) (A) (A) (A) (A) (A) (A) (A)
                 (A) (A) (A) (A) (A) (A) (A) (A) (A) (A) (A) (A)
                 (A) (A) (A) (A) (A) (A) (A) (A) (A) (A) (A) (A)
                 (A) (A) (A) (A) (A) (A) (A) (A) (A) (A) (A) (A)
                 (A) (A) (A) (A) (A) (A) (A) (A) (A) (A) (A) (A)
                 (A) (A) (A) (A) (A) (A) (A) (A) (A) (A) (A) (A)
                 (A) (A) (A) (A) (A) (A) (A) (A) (A) (A) (A) (A)
                 (A) (A) (A) (A) (A) (A) (A) (A) (A) (A) (A) (A)
                 (A) (A) (A) (A) (A) (A) (A) (A) (A) (A) (A) (A)
                 (A) (A) (A) (A) (A) (A) (A) (A) (A) (A) (A) (A)
                 (A) (A) (A) (A) (A) (A) (A) (A) (A) (A) (A) (A)
                 (A) (A) (A) (A) (A) (A) (A) (A) (A) (A) (A) (A)
                 (A) (A) (A) (A) (A) (A) (A) (A) (A) (A) (A) (A)
                 (A) (A) (A) (A) (A) (A) (A) (A) (A) (A) (A) (A)
                 (A) (A) (A) (A) (A) (A) (A) (A) (A) (A) (A) (A)
                 (A) (A) (A) (A) (A) (A) (A) (A) (A) (A) (A) (A)
                 (A) (A) (A) (A) (A) (A) (A) (A) (A) (A) (A) (A)
                 (A) (A) (A) (A) (A) (A) (A) (A) (A) (A) (A) (A)
                 (A) (A) (A) (A) (A) (A) (A) (A) (A) (A) (A) (A)
                 (A) (A) (A) (A) (A) (A) (A) (A) (A) (A) (A) (A)
                 (A) (A) (A) (A) (A) (A) (A) (A) (A) (A) (A) (A)
                 (A) (A) (A) (A) (A) (A) (A) (A) (A) (A) (A) (A)
                 (A) (A) (A) (A) (A) (A) (A) (A) (A) (A) (A) (A)
                 (A) (A) (A) (A) (A) (A) (A) (A) (A) (A) (A) (A)
                 (A) (A) (A) (A) (A) (A) (A) (A) (A) (A) (A) (A)
                 (A) (A) (A) (A) (A) (A) (A) (A) (A) (A) (A) (A)
                 (A) (A) (A) (A) (A) (A) (A) (A) (A) (A) (A) (A)
                 (A) (A) (A) (A) (A) (A)
 The electronic state of the initial guess is 1-A.
 Requested convergence on RMS density matrix=1.00D-08 within 128 cycles.
 Requested convergence on MAX density matrix=1.00D-06.
 Requested convergence on             energy=1.00D-06.
 No special actions if energy rises.
 SCF Done:  E(RB3LYP) =  -1298.01514018     A.U. after   13 cycles
             Convg  =    0.6068D-08             -V/T =  2.0064
 Range of M.O.s used for correlation:     1   685
 NBasis=   685 NAE=    91 NBE=    91 NFC=     0 NFV=     0
 NROrb=    685 NOA=    91 NOB=    91 NVA=   594 NVB=   594

 **** Warning!!: The largest alpha MO coefficient is  0.69620891D+02

          Differentiating once with respect to electric field.
                with respect to dipole field.
          Electric field/nuclear overlap derivatives assumed to be zero.
          There are     3 degrees of freedom in the 1st order CPHF.  IDoFFX=0.
      3 vectors produced by pass  0 Test12= 1.80D-12 3.33D-08 XBig12= 1.20D+02 9.82D-01.
 AX will form     3 AO Fock derivatives at one time.
      3 vectors produced by pass  1 Test12= 1.80D-12 3.33D-08 XBig12= 2.72D+01 4.44D-01.
      3 vectors produced by pass  2 Test12= 1.80D-12 3.33D-08 XBig12= 1.10D+01 2.41D-01.
      3 vectors produced by pass  3 Test12= 1.80D-12 3.33D-08 XBig12= 1.19D+00 9.00D-02.
      3 vectors produced by pass  4 Test12= 1.80D-12 3.33D-08 XBig12= 3.37D-01 4.99D-02.
      3 vectors produced by pass  5 Test12= 1.80D-12 3.33D-08 XBig12= 7.17D-02 2.43D-02.
      3 vectors produced by pass  6 Test12= 1.80D-12 3.33D-08 XBig12= 2.31D-02 1.72D-02.
      3 vectors produced by pass  7 Test12= 1.80D-12 3.33D-08 XBig12= 3.25D-03 7.43D-03.
      3 vectors produced by pass  8 Test12= 1.80D-12 3.33D-08 XBig12= 5.28D-04 1.43D-03.
      3 vectors produced by pass  9 Test12= 1.80D-12 3.33D-08 XBig12= 1.66D-04 9.40D-04.
      3 vectors produced by pass 10 Test12= 1.80D-12 3.33D-08 XBig12= 4.28D-05 4.09D-04.
      3 vectors produced by pass 11 Test12= 1.80D-12 3.33D-08 XBig12= 1.25D-05 2.45D-04.
      3 vectors produced by pass 12 Test12= 1.80D-12 3.33D-08 XBig12= 1.30D-06 8.93D-05.
      3 vectors produced by pass 13 Test12= 1.80D-12 3.33D-08 XBig12= 4.41D-07 4.91D-05.
      3 vectors produced by pass 14 Test12= 1.80D-12 3.33D-08 XBig12= 6.20D-08 1.91D-05.
      3 vectors produced by pass 15 Test12= 1.80D-12 3.33D-08 XBig12= 1.66D-08 7.78D-06.
      3 vectors produced by pass 16 Test12= 1.80D-12 3.33D-08 XBig12= 2.72D-09 4.14D-06.
      3 vectors produced by pass 17 Test12= 1.80D-12 3.33D-08 XBig12= 2.02D-10 1.38D-06.
      3 vectors produced by pass 18 Test12= 1.80D-12 3.33D-08 XBig12= 3.55D-11 4.04D-07.
      3 vectors produced by pass 19 Test12= 1.80D-12 3.33D-08 XBig12= 1.07D-11 2.44D-07.
      3 vectors produced by pass 20 Test12= 1.80D-12 3.33D-08 XBig12= 6.57D-12 1.73D-07.
      2 vectors produced by pass 21 Test12= 1.80D-12 3.33D-08 XBig12= 2.05D-12 9.36D-08.
      1 vectors produced by pass 22 Test12= 1.80D-12 3.33D-08 XBig12= 3.10D-13 3.58D-08.
 Inverted reduced A of dimension    66 with in-core refinement.
 End of Minotr Frequency-dependent properties file   721 does not exist.
 End of Minotr Frequency-dependent properties file   722 does not exist.
 Symmetrizing basis deriv contribution to polar:
 IMax=3 JMax=2 DiffMx= 0.00D+00
 G2DrvN: will do    16 centers at a time, making    3 passes doing MaxLOS=2.
 Calling FoFCou, ICntrl=  3107 FMM=F I1Cent=   0 AccDes= 0.00D+00.
 Calling FoFCou, ICntrl=  3107 FMM=F I1Cent=   0 AccDes= 0.00D+00.
 Calling FoFCou, ICntrl=  3107 FMM=F I1Cent=   0 AccDes= 0.00D+00.
 FoFDir/FoFCou used for L=0 through L=2.
 End of G2Drv Frequency-dependent properties file   721 does not exist.
 End of G2Drv Frequency-dependent properties file   722 does not exist.
          IDoAtm=111111111111111111111111111111111111111111111
          Differentiating once with respect to electric field.
                with respect to dipole field.
          Differentiating once with respect to nuclear coordinates.
          There are   138 degrees of freedom in the 1st order CPHF.  IDoFFX=5.
 Will reuse    3 saved solutions.
    135 vectors produced by pass  0 Test12= 5.41D-14 1.00D-09 XBig12= 1.65D-01 8.62D-02.
 AX will form    45 AO Fock derivatives at one time.
    135 vectors produced by pass  1 Test12= 5.41D-14 1.00D-09 XBig12= 1.70D-02 1.17D-02.
    132 vectors produced by pass  2 Test12= 5.41D-14 1.00D-09 XBig12= 1.25D-04 1.47D-03.
    132 vectors produced by pass  3 Test12= 5.41D-14 1.00D-09 XBig12= 5.30D-07 5.96D-05.
    132 vectors produced by pass  4 Test12= 5.41D-14 1.00D-09 XBig12= 1.26D-09 2.44D-06.
    132 vectors produced by pass  5 Test12= 5.41D-14 1.00D-09 XBig12= 2.87D-12 1.16D-07.
     80 vectors produced by pass  6 Test12= 5.41D-14 1.00D-09 XBig12= 1.07D-13 1.86D-08.
 Inverted reduced A of dimension   878 with in-core refinement.
 Isotropic polarizability for W=    0.000000      190.33 Bohr**3.
 End of Minotr Frequency-dependent properties file   721 does not exist.
 End of Minotr Frequency-dependent properties file   722 does not exist.

 **********************************************************************

            Population analysis using the SCF density.

 **********************************************************************

 Orbital symmetries:
       Occupied  (A) (A) (A) (A) (A) (A) (A) (A) (A) (A) (A) (A)
                 (A) (A) (A) (A) (A) (A) (A) (A) (A) (A) (A) (A)
                 (A) (A) (A) (A) (A) (A) (A) (A) (A) (A) (A) (A)
                 (A) (A) (A) (A) (A) (A) (A) (A) (A) (A) (A) (A)
                 (A) (A) (A) (A) (A) (A) (A) (A) (A) (A) (A) (A)
                 (A) (A) (A) (A) (A) (A) (A) (A) (A) (A) (A) (A)
                 (A) (A) (A) (A) (A) (A) (A) (A) (A) (A) (A) (A)
                 (A) (A) (A) (A) (A) (A) (A)
       Virtual   (A) (A) (A) (A) (A) (A) (A) (A) (A) (A) (A) (A)
                 (A) (A) (A) (A) (A) (A) (A) (A) (A) (A) (A) (A)
                 (A) (A) (A) (A) (A) (A) (A) (A) (A) (A) (A) (A)
                 (A) (A) (A) (A) (A) (A) (A) (A) (A) (A) (A) (A)
                 (A) (A) (A) (A) (A) (A) (A) (A) (A) (A) (A) (A)
                 (A) (A) (A) (A) (A) (A) (A) (A) (A) (A) (A) (A)
                 (A) (A) (A) (A) (A) (A) (A) (A) (A) (A) (A) (A)
                 (A) (A) (A) (A) (A) (A) (A) (A) (A) (A) (A) (A)
                 (A) (A) (A) (A) (A) (A) (A) (A) (A) (A) (A) (A)
                 (A) (A) (A) (A) (A) (A) (A) (A) (A) (A) (A) (A)
                 (A) (A) (A) (A) (A) (A) (A) (A) (A) (A) (A) (A)
                 (A) (A) (A) (A) (A) (A) (A) (A) (A) (A) (A) (A)
                 (A) (A) (A) (A) (A) (A) (A) (A) (A) (A) (A) (A)
                 (A) (A) (A) (A) (A) (A) (A) (A) (A) (A) (A) (A)
                 (A) (A) (A) (A) (A) (A) (A) (A) (A) (A) (A) (A)
                 (A) (A) (A) (A) (A) (A) (A) (A) (A) (A) (A) (A)
                 (A) (A) (A) (A) (A) (A) (A) (A) (A) (A) (A) (A)
                 (A) (A) (A) (A) (A) (A) (A) (A) (A) (A) (A) (A)
                 (A) (A) (A) (A) (A) (A) (A) (A) (A) (A) (A) (A)
                 (A) (A) (A) (A) (A) (A) (A) (A) (A) (A) (A) (A)
                 (A) (A) (A) (A) (A) (A) (A) (A) (A) (A) (A) (A)
                 (A) (A) (A) (A) (A) (A) (A) (A) (A) (A) (A) (A)
                 (A) (A) (A) (A) (A) (A) (A) (A) (A) (A) (A) (A)
                 (A) (A) (A) (A) (A) (A) (A) (A) (A) (A) (A) (A)
                 (A) (A) (A) (A) (A) (A) (A) (A) (A) (A) (A) (A)
                 (A) (A) (A) (A) (A) (A) (A) (A) (A) (A) (A) (A)
                 (A) (A) (A) (A) (A) (A) (A) (A) (A) (A) (A) (A)
                 (A) (A) (A) (A) (A) (A) (A) (A) (A) (A) (A) (A)
                 (A) (A) (A) (A) (A) (A) (A) (A) (A) (A) (A) (A)
                 (A) (A) (A) (A) (A) (A) (A) (A) (A) (A) (A) (A)
                 (A) (A) (A) (A) (A) (A) (A) (A) (A) (A) (A) (A)
                 (A) (A) (A) (A) (A) (A) (A) (A) (A) (A) (A) (A)
                 (A) (A) (A) (A) (A) (A) (A) (A) (A) (A) (A) (A)
                 (A) (A) (A) (A) (A) (A) (A) (A) (A) (A) (A) (A)
                 (A) (A) (A) (A) (A) (A) (A) (A) (A) (A) (A) (A)
                 (A) (A) (A) (A) (A) (A) (A) (A) (A) (A) (A) (A)
                 (A) (A) (A) (A) (A) (A) (A) (A) (A) (A) (A) (A)
                 (A) (A) (A) (A) (A) (A) (A) (A) (A) (A) (A) (A)
                 (A) (A) (A) (A) (A) (A) (A) (A) (A) (A) (A) (A)
                 (A) (A) (A) (A) (A) (A) (A) (A) (A) (A) (A) (A)
                 (A) (A) (A) (A) (A) (A) (A) (A) (A) (A) (A) (A)
                 (A) (A) (A) (A) (A) (A) (A) (A) (A) (A) (A) (A)
                 (A) (A) (A) (A) (A) (A) (A) (A) (A) (A) (A) (A)
                 (A) (A) (A) (A) (A) (A) (A) (A) (A) (A) (A) (A)
                 (A) (A) (A) (A) (A) (A) (A) (A) (A) (A) (A) (A)
                 (A) (A) (A) (A) (A) (A) (A) (A) (A) (A) (A) (A)
                 (A) (A) (A) (A) (A) (A) (A) (A) (A) (A) (A) (A)
                 (A) (A) (A) (A) (A) (A) (A) (A) (A) (A) (A) (A)
                 (A) (A) (A) (A) (A) (A) (A) (A) (A) (A) (A) (A)
                 (A) (A) (A) (A) (A) (A)
 The electronic state is 1-A.
 Alpha  occ. eigenvalues --  -19.18356 -19.17820 -19.17676 -19.17478 -19.17304
 Alpha  occ. eigenvalues --  -19.16758 -19.15793 -19.15202 -19.15086 -19.14784
 Alpha  occ. eigenvalues --  -19.13845 -10.30407 -10.29741 -10.25828 -10.24920
 Alpha  occ. eigenvalues --  -10.24912 -10.24896 -10.24673 -10.24329 -10.24199
 Alpha  occ. eigenvalues --  -10.23972 -10.23640 -10.23603  -1.09517  -1.08869
 Alpha  occ. eigenvalues --   -1.05180  -1.04428  -1.03652  -1.03246  -1.02765
 Alpha  occ. eigenvalues --   -1.02291  -1.02100  -1.00959  -1.00192  -0.81675
 Alpha  occ. eigenvalues --   -0.80113  -0.78684  -0.77899  -0.71171  -0.69731
 Alpha  occ. eigenvalues --   -0.67009  -0.64466  -0.62646  -0.62400  -0.61108
 Alpha  occ. eigenvalues --   -0.60224  -0.56301  -0.55253  -0.54503  -0.54168
 Alpha  occ. eigenvalues --   -0.53870  -0.53119  -0.52687  -0.51654  -0.51400
 Alpha  occ. eigenvalues --   -0.49945  -0.49540  -0.48878  -0.48220  -0.45907
 Alpha  occ. eigenvalues --   -0.45402  -0.44721  -0.44150  -0.43422  -0.42651
 Alpha  occ. eigenvalues --   -0.42477  -0.41909  -0.40796  -0.39967  -0.39261
 Alpha  occ. eigenvalues --   -0.38439  -0.37809  -0.37256  -0.36012  -0.35955
 Alpha  occ. eigenvalues --   -0.35301  -0.34909  -0.34593  -0.34434  -0.33974
 Alpha  occ. eigenvalues --   -0.32904  -0.31369  -0.30331  -0.30061  -0.29602
 Alpha  occ. eigenvalues --   -0.29504  -0.28818  -0.28260  -0.27651  -0.26434
 Alpha  occ. eigenvalues --   -0.26043
 Alpha virt. eigenvalues --   -0.01881  -0.01682  -0.01444   0.00043   0.00629
 Alpha virt. eigenvalues --    0.01132   0.02048   0.02257   0.03278   0.03623
 Alpha virt. eigenvalues --    0.03690   0.04297   0.05229   0.05345   0.05811
 Alpha virt. eigenvalues --    0.06024   0.06478   0.07502   0.07671   0.08433
 Alpha virt. eigenvalues --    0.08650   0.08858   0.09184   0.09787   0.10023
 Alpha virt. eigenvalues --    0.10564   0.11294   0.11796   0.11860   0.12228
 Alpha virt. eigenvalues --    0.12637   0.12787   0.13333   0.13538   0.13766
 Alpha virt. eigenvalues --    0.14195   0.14584   0.14985   0.15135   0.15514
 Alpha virt. eigenvalues --    0.15818   0.16110   0.16873   0.16899   0.17451
 Alpha virt. eigenvalues --    0.17549   0.17720   0.17923   0.18387   0.18714
 Alpha virt. eigenvalues --    0.18887   0.19177   0.19620   0.19887   0.20204
 Alpha virt. eigenvalues --    0.20778   0.20958   0.21161   0.21434   0.21995
 Alpha virt. eigenvalues --    0.22090   0.22297   0.22595   0.22875   0.23254
 Alpha virt. eigenvalues --    0.23757   0.23940   0.24092   0.24442   0.24604
 Alpha virt. eigenvalues --    0.24987   0.25231   0.25557   0.25962   0.26182
 Alpha virt. eigenvalues --    0.26508   0.26656   0.26855   0.27003   0.27449
 Alpha virt. eigenvalues --    0.27815   0.27880   0.28152   0.28481   0.28529
 Alpha virt. eigenvalues --    0.28969   0.29334   0.29970   0.30242   0.30739
 Alpha virt. eigenvalues --    0.31001   0.31743   0.31955   0.32135   0.32534
 Alpha virt. eigenvalues --    0.32722   0.33138   0.33300   0.33567   0.34000
 Alpha virt. eigenvalues --    0.34342   0.34587   0.34811   0.35581   0.35896
 Alpha virt. eigenvalues --    0.36341   0.36786   0.36949   0.37572   0.37627
 Alpha virt. eigenvalues --    0.37857   0.38408   0.38789   0.39349   0.39515
 Alpha virt. eigenvalues --    0.40181   0.40589   0.40812   0.41561   0.41981
 Alpha virt. eigenvalues --    0.42462   0.42796   0.43028   0.43822   0.43991
 Alpha virt. eigenvalues --    0.44795   0.44982   0.45933   0.46403   0.46704
 Alpha virt. eigenvalues --    0.47581   0.48130   0.48705   0.49621   0.49880
 Alpha virt. eigenvalues --    0.50270   0.52145   0.54500   0.57349   0.58916
 Alpha virt. eigenvalues --    0.59688   0.60538   0.61346   0.61402   0.62593
 Alpha virt. eigenvalues --    0.63345   0.63842   0.65440   0.66374   0.67073
 Alpha virt. eigenvalues --    0.68034   0.68651   0.69099   0.69520   0.70545
 Alpha virt. eigenvalues --    0.70903   0.71224   0.72945   0.73541   0.74028
 Alpha virt. eigenvalues --    0.74266   0.74721   0.75724   0.76171   0.77257
 Alpha virt. eigenvalues --    0.77487   0.78599   0.79146   0.80217   0.80716
 Alpha virt. eigenvalues --    0.81325   0.82988   0.83414   0.84290   0.85393
 Alpha virt. eigenvalues --    0.87121   0.88201   0.88478   0.88668   0.89809
 Alpha virt. eigenvalues --    0.90264   0.90617   0.91509   0.91938   0.92346
 Alpha virt. eigenvalues --    0.92735   0.92994   0.93198   0.94479   0.94944
 Alpha virt. eigenvalues --    0.95076   0.96122   0.96230   0.96630   0.96888
 Alpha virt. eigenvalues --    0.97673   0.98068   0.98388   0.99037   0.99574
 Alpha virt. eigenvalues --    1.00388   1.01571   1.02005   1.02541   1.02910
 Alpha virt. eigenvalues --    1.03765   1.04863   1.05707   1.05946   1.06678
 Alpha virt. eigenvalues --    1.07077   1.07716   1.08319   1.08957   1.09463
 Alpha virt. eigenvalues --    1.09775   1.10135   1.10713   1.11614   1.12240
 Alpha virt. eigenvalues --    1.12361   1.13395   1.13607   1.14044   1.15067
 Alpha virt. eigenvalues --    1.15128   1.16024   1.16350   1.16825   1.17320
 Alpha virt. eigenvalues --    1.17649   1.17869   1.18428   1.19374   1.19847
 Alpha virt. eigenvalues --    1.20763   1.21359   1.21520   1.22312   1.22690
 Alpha virt. eigenvalues --    1.23510   1.23951   1.24062   1.25117   1.25695
 Alpha virt. eigenvalues --    1.26430   1.26484   1.27173   1.27882   1.28132
 Alpha virt. eigenvalues --    1.29487   1.30218   1.30348   1.31086   1.32671
 Alpha virt. eigenvalues --    1.32952   1.33470   1.34162   1.34927   1.35200
 Alpha virt. eigenvalues --    1.36050   1.36665   1.37002   1.37024   1.37873
 Alpha virt. eigenvalues --    1.38934   1.39830   1.40149   1.41030   1.41766
 Alpha virt. eigenvalues --    1.42208   1.42545   1.43223   1.43485   1.43778
 Alpha virt. eigenvalues --    1.45233   1.45490   1.47170   1.47800   1.48300
 Alpha virt. eigenvalues --    1.49354   1.50075   1.50545   1.51931   1.52458
 Alpha virt. eigenvalues --    1.53400   1.53775   1.54435   1.55870   1.57085
 Alpha virt. eigenvalues --    1.57401   1.57510   1.59032   1.60611   1.61135
 Alpha virt. eigenvalues --    1.62277   1.63204   1.64099   1.64822   1.65183
 Alpha virt. eigenvalues --    1.65824   1.65958   1.66989   1.67950   1.68696
 Alpha virt. eigenvalues --    1.69437   1.70221   1.72168   1.72514   1.73037
 Alpha virt. eigenvalues --    1.74025   1.75157   1.76458   1.77352   1.78078
 Alpha virt. eigenvalues --    1.79575   1.80101   1.81125   1.83081   1.83641
 Alpha virt. eigenvalues --    1.85134   1.85673   1.87235   1.87999   1.88812
 Alpha virt. eigenvalues --    1.89490   1.90221   1.91176   1.93007   1.93396
 Alpha virt. eigenvalues --    1.94506   1.96414   1.96541   1.97563   1.98950
 Alpha virt. eigenvalues --    1.99544   2.00773   2.02329   2.03646   2.04536
 Alpha virt. eigenvalues --    2.05268   2.05688   2.07007   2.07462   2.09986
 Alpha virt. eigenvalues --    2.11342   2.13188   2.14212   2.16035   2.17634
 Alpha virt. eigenvalues --    2.20898   2.21613   2.23715   2.23879   2.25421
 Alpha virt. eigenvalues --    2.26884   2.28303   2.28651   2.29635   2.30916
 Alpha virt. eigenvalues --    2.32356   2.33726   2.35564   2.36405   2.37339
 Alpha virt. eigenvalues --    2.38447   2.40308   2.43275   2.44294   2.49974
 Alpha virt. eigenvalues --    2.52500   2.52788   2.56044   2.57549   2.58334
 Alpha virt. eigenvalues --    2.61483   2.62239   2.64905   2.65662   2.67415
 Alpha virt. eigenvalues --    2.68699   2.69360   2.70030   2.70958   2.72159
 Alpha virt. eigenvalues --    2.74000   2.74722   2.76442   2.78405   2.78998
 Alpha virt. eigenvalues --    2.81071   2.81636   2.82590   2.84627   2.85812
 Alpha virt. eigenvalues --    2.88395   2.89348   2.91587   2.92141   2.92236
 Alpha virt. eigenvalues --    2.92658   2.93668   2.95438   2.97039   2.97178
 Alpha virt. eigenvalues --    2.98520   2.98760   3.00275   3.00607   3.01016
 Alpha virt. eigenvalues --    3.02198   3.02618   3.03439   3.04123   3.05322
 Alpha virt. eigenvalues --    3.06436   3.06536   3.07408   3.08335   3.08910
 Alpha virt. eigenvalues --    3.09323   3.10161   3.10765   3.13864   3.15335
 Alpha virt. eigenvalues --    3.17029   3.17384   3.19938   3.21718   3.23212
 Alpha virt. eigenvalues --    3.25895   3.26568   3.29840   3.78123   3.84529
 Alpha virt. eigenvalues --    3.99957   4.05984   4.06601   4.07260   4.09953
 Alpha virt. eigenvalues --    4.13344   4.14852   4.15123   4.15663   4.16118
 Alpha virt. eigenvalues --    4.17491   4.18533   4.20212   4.20789   4.21972
 Alpha virt. eigenvalues --    4.24197   4.24397   4.24944   4.25427   4.26843
 Alpha virt. eigenvalues --    4.27863   4.28045   4.29567   4.29848   4.30330
 Alpha virt. eigenvalues --    4.31145   4.31978   4.32392   4.33040   4.33350
 Alpha virt. eigenvalues --    4.33967   4.34751   4.35130   4.35929   4.36320
 Alpha virt. eigenvalues --    4.36689   4.36942   4.37211   4.38125   4.38999
 Alpha virt. eigenvalues --    4.39936   4.40687   4.41937   4.42286   4.44390
 Alpha virt. eigenvalues --    4.45524   4.46957   4.47506   4.50013   4.51386
 Alpha virt. eigenvalues --    4.52244   4.52787   4.53482   4.54603   4.55585
 Alpha virt. eigenvalues --    4.56727   4.57203   4.57832   4.59394   4.60294
 Alpha virt. eigenvalues --    4.60995   4.62455   4.63210   4.64344   4.64891
 Alpha virt. eigenvalues --    4.65443   4.65600   4.66233   4.66494   4.66781
 Alpha virt. eigenvalues --    4.67583   4.68666   4.69540   4.71126   4.71382
 Alpha virt. eigenvalues --    4.72332   4.72895   4.73702   4.74514   4.75153
 Alpha virt. eigenvalues --    4.75447   4.75729   4.76847   4.77152   4.77453
 Alpha virt. eigenvalues --    4.78389   4.79136   4.79254   4.80343   4.80943
 Alpha virt. eigenvalues --    4.81162   4.82223   4.83907   4.85087   4.86180
 Alpha virt. eigenvalues --    4.87630   4.89225   4.89672   4.90294   4.92879
 Alpha virt. eigenvalues --    4.93328   4.94058   4.94933   4.95916   4.97524
 Alpha virt. eigenvalues --    4.98617   4.98997   5.00181   5.03183   5.05428
 Alpha virt. eigenvalues --    5.06815   5.10353   5.12197   5.14074   5.16684
 Alpha virt. eigenvalues --    5.24563   5.25236   5.29853   5.35267   5.41618
 Alpha virt. eigenvalues --    5.47524   5.88161   6.16497   6.33315   6.56986
 Alpha virt. eigenvalues --    6.74195   6.76516   6.79185   6.80921   6.83965
 Alpha virt. eigenvalues --    6.88202   6.91462   6.94876   6.96773   7.03855
 Alpha virt. eigenvalues --    7.03978  11.90399  11.99705  12.10896  12.22727
 Alpha virt. eigenvalues --   12.29774  12.38965  12.61494  12.78997  12.82209
 Alpha virt. eigenvalues --   12.97141  13.15419  13.16701  13.22301  13.29266
 Alpha virt. eigenvalues --   13.30136  13.36203  13.42479  13.42863  13.47107
 Alpha virt. eigenvalues --   13.54239  13.64558  13.70435  13.80555
          Condensed to atoms (all electrons):
              1          2          3          4          5          6
     1  O    8.203175   0.290317  -0.103290  -0.010122   0.016924  -0.026846
     2  C    0.290317   6.226030  -0.117253   0.017466  -0.063648  -0.484505
     3  C   -0.103290  -0.117253   6.116034   0.078802   0.034274   0.459105
     4  O   -0.010122   0.017466   0.078802   8.213065   0.236001   0.038024
     5  H    0.016924  -0.063648   0.034274   0.236001   0.428024  -0.002988
     6  C   -0.026846  -0.484505   0.459105   0.038024  -0.002988   7.589007
     7  O    0.000518  -0.007310  -0.072694  -0.002726  -0.000327   0.223662
     8  H    0.000004  -0.003840   0.014094  -0.000903   0.000019   0.073921
     9  C   -0.013016   0.291413  -0.374014   0.007260  -0.002332   0.184122
    10  O   -0.016438   0.050253   0.004682  -0.000182  -0.000014  -0.003243
    11  H    0.001887  -0.015173  -0.000561   0.000002   0.000000   0.001005
    12  C   -0.090447  -0.730966  -0.087162   0.029774   0.007840   0.033741
    13  O    0.001126  -0.036493  -0.074190  -0.001624  -0.000009   0.077124
    14  C    0.029435   0.152988  -0.136907  -0.039801   0.011132  -1.637465
    15  O    0.000114   0.002555  -0.018042   0.000419   0.000002  -0.030211
    16  C    0.002316   0.055960  -0.038238  -0.006494   0.000766  -0.369693
    17  C   -0.000072  -0.044929   0.034242   0.000337   0.000006  -0.020497
    18  O    0.000045   0.009222  -0.002442  -0.000003   0.000000  -0.008519
    19  H   -0.000036  -0.002920   0.004108   0.000001   0.000000   0.004528
    20  C    0.000073   0.006361  -0.008275  -0.000080   0.000002   0.052016
    21  O    0.000000   0.000006  -0.000044   0.000000   0.000000   0.000131
    22  H    0.000000   0.000000   0.000002   0.000000   0.000000  -0.000060
    23  C    0.000012   0.011535  -0.001969  -0.000038   0.000001  -0.081264
    24  O    0.000002   0.000513  -0.018195   0.000002  -0.000001   0.014994
    25  H    0.000000  -0.000012   0.001352   0.000001   0.000000   0.000636
    26  C    0.000037  -0.021826  -0.030319  -0.000342   0.000024   0.002864
    27  O    0.000000   0.000005   0.000427   0.000000   0.000000   0.003342
    28  C    0.000000  -0.000605   0.001565   0.000008   0.000000  -0.014443
    29  O    0.000000   0.000002   0.000012   0.000000   0.000000  -0.000252
    30  H    0.000000   0.000000   0.000000   0.000000   0.000000   0.000004
    31  H    0.000000   0.000002   0.000002   0.000000   0.000000  -0.000120
    32  H    0.000000   0.000110   0.000024   0.000000   0.000000   0.000808
    33  H    0.000000   0.000403   0.000293   0.000000   0.000000   0.007188
    34  H    0.000000  -0.003280   0.003358   0.000008   0.000000   0.008075
    35  H    0.000000  -0.000004   0.000148   0.000000   0.000000  -0.004699
    36  H    0.000000   0.000016  -0.000084   0.000000   0.000000  -0.000179
    37  H    0.000000   0.000003   0.000440   0.000000   0.000000  -0.003791
    38  H    0.262750   0.038006  -0.014536  -0.000479  -0.001588   0.002294
    39  H    0.000642   0.026194  -0.008874  -0.000050   0.000000   0.005522
    40  H   -0.000230  -0.016701   0.002534   0.000007   0.000000  -0.002098
    41  H    0.005987   0.058325  -0.036967   0.000173   0.000011  -0.014496
    42  H   -0.013283   0.351074  -0.039928   0.002227  -0.000209   0.000255
    43  H    0.003068  -0.010213   0.280947  -0.016231  -0.004645  -0.124468
    44  H   -0.000052   0.022586  -0.105903   0.002274  -0.000133   0.383151
    45  H   -0.000028  -0.015344  -0.029053   0.000142   0.000005   0.001473
              7          8          9         10         11         12
     1  O    0.000518   0.000004  -0.013016  -0.016438   0.001887  -0.090447
     2  C   -0.007310  -0.003840   0.291413   0.050253  -0.015173  -0.730966
     3  C   -0.072694   0.014094  -0.374014   0.004682  -0.000561  -0.087162
     4  O   -0.002726  -0.000903   0.007260  -0.000182   0.000002   0.029774
     5  H   -0.000327   0.000019  -0.002332  -0.000014   0.000000   0.007840
     6  C    0.223662   0.073921   0.184122  -0.003243   0.001005   0.033741
     7  O    8.154656   0.250617   0.000230  -0.000002   0.000000   0.007918
     8  H    0.250617   0.375667   0.000106   0.000000   0.000000  -0.000197
     9  C    0.000230   0.000106   7.305894   0.120534   0.005145  -1.845831
    10  O   -0.000002   0.000000   0.120534   8.271794   0.232617  -0.073992
    11  H    0.000000   0.000000   0.005145   0.232617   0.434444   0.014648
    12  C    0.007918  -0.000197  -1.845831  -0.073992   0.014648   9.375381
    13  O    0.001743  -0.000657   0.007861   0.000449  -0.000731  -0.037171
    14  C   -0.040496  -0.093115  -0.499432   0.005315  -0.002436  -0.439071
    15  O    0.010541   0.004109  -0.007400   0.000063  -0.000001  -0.015136
    16  C    0.029900   0.008137  -0.038948   0.000409  -0.000388  -0.124385
    17  C   -0.003959   0.000976  -0.009978  -0.000041  -0.000025  -0.049083
    18  O    0.000081  -0.000035  -0.003384  -0.000198  -0.000027  -0.003945
    19  H   -0.000082   0.000000  -0.001369   0.000001   0.000000  -0.004680
    20  C    0.002002   0.000311   0.004188   0.000073   0.000021  -0.010604
    21  O    0.000000   0.000000   0.000358  -0.000001   0.000000  -0.000368
    22  H    0.000000   0.000000  -0.000011   0.000000   0.000000   0.000035
    23  C    0.032183  -0.006903   0.000582  -0.000001   0.000000   0.000218
    24  O   -0.031985   0.012520   0.000071   0.000000   0.000000   0.001518
    25  H    0.001091  -0.001387  -0.000011   0.000000   0.000000  -0.000226
    26  C   -0.031536  -0.000080   0.012040   0.000023  -0.000007   0.020163
    27  O    0.000139  -0.000031   0.000191   0.000000   0.000000   0.000399
    28  C    0.000459   0.000033  -0.001028   0.000004   0.000000   0.001535
    29  O   -0.000002   0.000000  -0.000010   0.000000   0.000000   0.000061
    30  H    0.000000   0.000000   0.000000   0.000000   0.000000  -0.000001
    31  H    0.000001   0.000000   0.000000   0.000000   0.000000   0.000036
    32  H    0.000007   0.000000  -0.000157   0.000000   0.000000   0.000539
    33  H   -0.000014   0.000000  -0.000335   0.000000   0.000000  -0.000739
    34  H   -0.001954   0.000033  -0.000124   0.000001   0.000000   0.005447
    35  H   -0.000018  -0.000014   0.000050   0.000000   0.000000   0.000897
    36  H   -0.000268   0.000110  -0.000001   0.000000   0.000000   0.000030
    37  H    0.001254  -0.000087   0.000000   0.000000   0.000000   0.000039
    38  H   -0.000022   0.000000   0.002852  -0.000889  -0.000048  -0.028946
    39  H    0.000011   0.000000   0.620942  -0.052968   0.002777  -0.281183
    40  H   -0.000011   0.000000   0.394986  -0.010278  -0.013834  -0.012318
    41  H    0.000178   0.000001   0.069726   0.003678  -0.000377   0.058747
    42  H    0.000720   0.000001  -0.021417  -0.000756  -0.000012  -0.085165
    43  H    0.007063  -0.000111   0.010948  -0.000175   0.000000   0.031798
    44  H   -0.023796  -0.009118   0.014334   0.000015   0.000000   0.043947
    45  H   -0.003080   0.000076   0.020695   0.000100   0.000000   0.058874
             13         14         15         16         17         18
     1  O    0.001126   0.029435   0.000114   0.002316  -0.000072   0.000045
     2  C   -0.036493   0.152988   0.002555   0.055960  -0.044929   0.009222
     3  C   -0.074190  -0.136907  -0.018042  -0.038238   0.034242  -0.002442
     4  O   -0.001624  -0.039801   0.000419  -0.006494   0.000337  -0.000003
     5  H   -0.000009   0.011132   0.000002   0.000766   0.000006   0.000000
     6  C    0.077124  -1.637465  -0.030211  -0.369693  -0.020497  -0.008519
     7  O    0.001743  -0.040496   0.010541   0.029900  -0.003959   0.000081
     8  H   -0.000657  -0.093115   0.004109   0.008137   0.000976  -0.000035
     9  C    0.007861  -0.499432  -0.007400  -0.038948  -0.009978  -0.003384
    10  O    0.000449   0.005315   0.000063   0.000409  -0.000041  -0.000198
    11  H   -0.000731  -0.002436  -0.000001  -0.000388  -0.000025  -0.000027
    12  C   -0.037171  -0.439071  -0.015136  -0.124385  -0.049083  -0.003945
    13  O    8.200078   0.203863   0.001913   0.015728  -0.000738  -0.024989
    14  C    0.203863   9.035272   0.217858  -0.891460   0.243666  -0.054873
    15  O    0.001913   0.217858   8.055632   0.227660  -0.047734  -0.007292
    16  C    0.015728  -0.891460   0.227660  11.602324  -1.889915   0.021149
    17  C   -0.000738   0.243666  -0.047734  -1.889915   7.666743   0.164911
    18  O   -0.024989  -0.054873  -0.007292   0.021149   0.164911   8.198163
    19  H    0.023317   0.014986   0.011838  -0.091527   0.071235   0.225904
    20  C   -0.019757  -0.298802  -0.005401  -1.455718   0.231800  -0.036962
    21  O   -0.000242   0.006832   0.000021   0.052979  -0.033578  -0.005128
    22  H    0.000004  -0.000820  -0.000027  -0.005001   0.005770   0.000141
    23  C    0.002317  -0.055200   0.027142   0.211438  -0.410521   0.014619
    24  O   -0.000378   0.079137  -0.022687   0.038598   0.011714   0.000001
    25  H   -0.000010  -0.012064   0.002054  -0.024462  -0.001747   0.000000
    26  C   -0.026300  -0.732074  -0.087677  -3.070431   0.217570   0.041608
    27  O    0.000235   0.025590   0.002911   0.194813  -0.039257  -0.001021
    28  C    0.004394   0.016108   0.007001   1.045600  -0.180647   0.010903
    29  O    0.000031  -0.000939  -0.000043  -0.011647  -0.013810   0.000619
    30  H    0.000000  -0.000001  -0.000002  -0.002435   0.007839  -0.000034
    31  H    0.000017   0.000680   0.000420   0.061524  -0.016266   0.000327
    32  H    0.000226  -0.013375   0.000877   0.129942  -0.204673   0.010513
    33  H   -0.000485  -0.002653  -0.002835  -0.083610   0.286837  -0.021813
    34  H   -0.001676  -0.020853  -0.033479   0.109118   0.021720  -0.002137
    35  H   -0.000014   0.047456   0.001161   0.014879  -0.028855   0.000318
    36  H    0.000012   0.008170   0.000338   0.026620   0.007690   0.000003
    37  H    0.000021  -0.002673   0.001461   0.079953  -0.006613   0.000065
    38  H   -0.000628  -0.001721  -0.000001   0.000101  -0.000045  -0.000001
    39  H   -0.004664   0.003307  -0.000333  -0.002410   0.000873  -0.000023
    40  H   -0.004854  -0.008915  -0.000241   0.003701   0.002390  -0.000099
    41  H   -0.020890   0.121143  -0.000374   0.006056   0.005304  -0.000372
    42  H    0.008374   0.068718  -0.000147  -0.004676   0.001292   0.000033
    43  H    0.005271   0.075721   0.000015  -0.009667   0.001904   0.000047
    44  H    0.009109  -0.045527  -0.007794  -0.024555   0.003687   0.000103
    45  H   -0.036100   0.238496  -0.040132   0.000998   0.013006  -0.002201
             19         20         21         22         23         24
     1  O   -0.000036   0.000073   0.000000   0.000000   0.000012   0.000002
     2  C   -0.002920   0.006361   0.000006   0.000000   0.011535   0.000513
     3  C    0.004108  -0.008275  -0.000044   0.000002  -0.001969  -0.018195
     4  O    0.000001  -0.000080   0.000000   0.000000  -0.000038   0.000002
     5  H    0.000000   0.000002   0.000000   0.000000   0.000001  -0.000001
     6  C    0.004528   0.052016   0.000131  -0.000060  -0.081264   0.014994
     7  O   -0.000082   0.002002   0.000000   0.000000   0.032183  -0.031985
     8  H    0.000000   0.000311   0.000000   0.000000  -0.006903   0.012520
     9  C   -0.001369   0.004188   0.000358  -0.000011   0.000582   0.000071
    10  O    0.000001   0.000073  -0.000001   0.000000  -0.000001   0.000000
    11  H    0.000000   0.000021   0.000000   0.000000   0.000000   0.000000
    12  C   -0.004680  -0.010604  -0.000368   0.000035   0.000218   0.001518
    13  O    0.023317  -0.019757  -0.000242   0.000004   0.002317  -0.000378
    14  C    0.014986  -0.298802   0.006832  -0.000820  -0.055200   0.079137
    15  O    0.011838  -0.005401   0.000021  -0.000027   0.027142  -0.022687
    16  C   -0.091527  -1.455718   0.052979  -0.005001   0.211438   0.038598
    17  C    0.071235   0.231800  -0.033578   0.005770  -0.410521   0.011714
    18  O    0.225904  -0.036962  -0.005128   0.000141   0.014619   0.000001
    19  H    0.385575  -0.001639  -0.000060   0.000019  -0.003871   0.000006
    20  C   -0.001639   7.280670   0.016315  -0.009707   0.073097  -0.007211
    21  O   -0.000060   0.016315   8.268186   0.228203   0.000087   0.000007
    22  H    0.000019  -0.009707   0.228203   0.446311   0.000055   0.000000
    23  C   -0.003871   0.073097   0.000087   0.000055   6.592975  -0.047933
    24  O    0.000006  -0.007211   0.000007   0.000000  -0.047933   8.328561
    25  H    0.000000   0.001190   0.000000   0.000000  -0.001169   0.231287
    26  C   -0.005788   1.117711  -0.041496   0.005300  -0.998029   0.016886
    27  O   -0.000004  -0.196276   0.004363  -0.000555  -0.065527   0.003581
    28  C    0.001146  -1.046369   0.073414  -0.003585  -0.099555   0.007348
    29  O   -0.000010  -0.017209  -0.001528   0.012708   0.009192   0.000018
    30  H    0.000000  -0.029544  -0.000821  -0.001527  -0.000786  -0.000001
    31  H    0.000000  -0.153106   0.005417  -0.000196   0.000956   0.000007
    32  H   -0.000229   0.289252  -0.017567  -0.005253   0.012524   0.000004
    33  H   -0.004740   0.002256   0.001186  -0.000210   0.019945  -0.000015
    34  H    0.000373   0.051677  -0.000271   0.000007  -0.005951   0.000495
    35  H    0.000020  -0.040929   0.000073   0.000005   0.074788   0.002713
    36  H    0.000000  -0.004717  -0.000006   0.000000   0.348941  -0.019734
    37  H    0.000000  -0.003136   0.000004   0.000000   0.612765  -0.054010
    38  H    0.000000   0.000001   0.000000   0.000000   0.000001   0.000000
    39  H    0.000057   0.000079   0.000000   0.000000  -0.000008   0.000000
    40  H    0.000954  -0.001028  -0.000002   0.000000  -0.000013   0.000000
    41  H    0.000051   0.000372  -0.000002   0.000000  -0.000030   0.000001
    42  H   -0.000008  -0.000014   0.000000   0.000000   0.000006   0.000004
    43  H    0.000000  -0.000073   0.000000   0.000000   0.000157   0.000025
    44  H   -0.000013   0.000384   0.000000   0.000000   0.001032   0.000303
    45  H    0.000199   0.013422   0.000010   0.000000   0.000906   0.000034
             25         26         27         28         29         30
     1  O    0.000000   0.000037   0.000000   0.000000   0.000000   0.000000
     2  C   -0.000012  -0.021826   0.000005  -0.000605   0.000002   0.000000
     3  C    0.001352  -0.030319   0.000427   0.001565   0.000012   0.000000
     4  O    0.000001  -0.000342   0.000000   0.000008   0.000000   0.000000
     5  H    0.000000   0.000024   0.000000   0.000000   0.000000   0.000000
     6  C    0.000636   0.002864   0.003342  -0.014443  -0.000252   0.000004
     7  O    0.001091  -0.031536   0.000139   0.000459  -0.000002   0.000000
     8  H   -0.001387  -0.000080  -0.000031   0.000033   0.000000   0.000000
     9  C   -0.000011   0.012040   0.000191  -0.001028  -0.000010   0.000000
    10  O    0.000000   0.000023   0.000000   0.000004   0.000000   0.000000
    11  H    0.000000  -0.000007   0.000000   0.000000   0.000000   0.000000
    12  C   -0.000226   0.020163   0.000399   0.001535   0.000061  -0.000001
    13  O   -0.000010  -0.026300   0.000235   0.004394   0.000031   0.000000
    14  C   -0.012064  -0.732074   0.025590   0.016108  -0.000939  -0.000001
    15  O    0.002054  -0.087677   0.002911   0.007001  -0.000043  -0.000002
    16  C   -0.024462  -3.070431   0.194813   1.045600  -0.011647  -0.002435
    17  C   -0.001747   0.217570  -0.039257  -0.180647  -0.013810   0.007839
    18  O    0.000000   0.041608  -0.001021   0.010903   0.000619  -0.000034
    19  H    0.000000  -0.005788  -0.000004   0.001146  -0.000010   0.000000
    20  C    0.001190   1.117711  -0.196276  -1.046369  -0.017209  -0.029544
    21  O    0.000000  -0.041496   0.004363   0.073414  -0.001528  -0.000821
    22  H    0.000000   0.005300  -0.000555  -0.003585   0.012708  -0.001527
    23  C   -0.001169  -0.998029  -0.065527  -0.099555   0.009192  -0.000786
    24  O    0.231287   0.016886   0.003581   0.007348   0.000018  -0.000001
    25  H    0.428860   0.036938  -0.000766  -0.001376  -0.000002   0.000000
    26  C    0.036938  10.746812  -0.052727  -1.022550  -0.019207   0.001605
    27  O   -0.000766  -0.052727   8.152904   0.282608  -0.019663   0.003295
    28  C   -0.001376  -1.022550   0.282608   6.036411   0.241759   0.011519
    29  O   -0.000002  -0.019207  -0.019663   0.241759   8.129830   0.262825
    30  H    0.000000   0.001605   0.003295   0.011519   0.262825   0.419885
    31  H    0.000000  -0.032214  -0.036067   0.469943  -0.026522  -0.007908
    32  H    0.000000  -0.020563   0.003524   0.069612  -0.000519   0.000029
    33  H    0.000001   0.064186   0.002666  -0.018877   0.000060   0.000008
    34  H   -0.000007   0.122829   0.003496  -0.003302  -0.000541   0.000002
    35  H   -0.000264   0.137502  -0.023290   0.067888  -0.000544   0.000006
    36  H   -0.011831  -0.026214  -0.003404   0.005150  -0.000060   0.000000
    37  H   -0.000624  -0.323033   0.002724   0.007372  -0.000081   0.000000
    38  H    0.000000  -0.000005   0.000000   0.000000   0.000000   0.000000
    39  H    0.000000  -0.000127   0.000000   0.000004   0.000000   0.000000
    40  H    0.000000   0.000354   0.000000   0.000052   0.000000   0.000000
    41  H    0.000000  -0.000217   0.000001  -0.000007   0.000000   0.000000
    42  H    0.000000  -0.000344   0.000000   0.000000   0.000000   0.000000
    43  H    0.000000  -0.000780   0.000000  -0.000002   0.000000   0.000000
    44  H    0.000000  -0.002672   0.000003  -0.000037   0.000000   0.000000
    45  H    0.000006   0.036832   0.000299  -0.002082  -0.000001   0.000000
             31         32         33         34         35         36
     1  O    0.000000   0.000000   0.000000   0.000000   0.000000   0.000000
     2  C    0.000002   0.000110   0.000403  -0.003280  -0.000004   0.000016
     3  C    0.000002   0.000024   0.000293   0.003358   0.000148  -0.000084
     4  O    0.000000   0.000000   0.000000   0.000008   0.000000   0.000000
     5  H    0.000000   0.000000   0.000000   0.000000   0.000000   0.000000
     6  C   -0.000120   0.000808   0.007188   0.008075  -0.004699  -0.000179
     7  O    0.000001   0.000007  -0.000014  -0.001954  -0.000018  -0.000268
     8  H    0.000000   0.000000   0.000000   0.000033  -0.000014   0.000110
     9  C    0.000000  -0.000157  -0.000335  -0.000124   0.000050  -0.000001
    10  O    0.000000   0.000000   0.000000   0.000001   0.000000   0.000000
    11  H    0.000000   0.000000   0.000000   0.000000   0.000000   0.000000
    12  C    0.000036   0.000539  -0.000739   0.005447   0.000897   0.000030
    13  O    0.000017   0.000226  -0.000485  -0.001676  -0.000014   0.000012
    14  C    0.000680  -0.013375  -0.002653  -0.020853   0.047456   0.008170
    15  O    0.000420   0.000877  -0.002835  -0.033479   0.001161   0.000338
    16  C    0.061524   0.129942  -0.083610   0.109118   0.014879   0.026620
    17  C   -0.016266  -0.204673   0.286837   0.021720  -0.028855   0.007690
    18  O    0.000327   0.010513  -0.021813  -0.002137   0.000318   0.000003
    19  H    0.000000  -0.000229  -0.004740   0.000373   0.000020   0.000000
    20  C   -0.153106   0.289252   0.002256   0.051677  -0.040929  -0.004717
    21  O    0.005417  -0.017567   0.001186  -0.000271   0.000073  -0.000006
    22  H   -0.000196  -0.005253  -0.000210   0.000007   0.000005   0.000000
    23  C    0.000956   0.012524   0.019945  -0.005951   0.074788   0.348941
    24  O    0.000007   0.000004  -0.000015   0.000495   0.002713  -0.019734
    25  H    0.000000   0.000000   0.000001  -0.000007  -0.000264  -0.011831
    26  C   -0.032214  -0.020563   0.064186   0.122829   0.137502  -0.026214
    27  O   -0.036067   0.003524   0.002666   0.003496  -0.023290  -0.003404
    28  C    0.469943   0.069612  -0.018877  -0.003302   0.067888   0.005150
    29  O   -0.026522  -0.000519   0.000060  -0.000541  -0.000544  -0.000060
    30  H   -0.007908   0.000029   0.000008   0.000002   0.000006   0.000000
    31  H    0.587280   0.004982   0.001751  -0.000061   0.003383   0.000001
    32  H    0.004982   0.600032   0.006029   0.001176  -0.000056   0.000002
    33  H    0.001751   0.006029   0.612764   0.005633   0.002694   0.000003
    34  H   -0.000061   0.001176   0.005633   0.608534   0.006072  -0.000045
    35  H    0.003383  -0.000056   0.002694   0.006072   0.620184  -0.005540
    36  H    0.000001   0.000002   0.000003  -0.000045  -0.005540   0.575387
    37  H   -0.000011  -0.000012  -0.000006   0.002181   0.005949  -0.044692
    38  H    0.000000   0.000000   0.000000   0.000000   0.000000   0.000000
    39  H    0.000000   0.000000   0.000000   0.000000   0.000000   0.000000
    40  H    0.000000   0.000000  -0.000001   0.000000   0.000000   0.000000
    41  H    0.000000   0.000000  -0.000001  -0.000007   0.000000   0.000000
    42  H    0.000000   0.000000   0.000000   0.000000   0.000000   0.000000
    43  H    0.000000   0.000000   0.000000  -0.000002   0.000000   0.000000
    44  H    0.000000   0.000000  -0.000002   0.000000   0.000001   0.000000
    45  H    0.000000  -0.000016  -0.000027   0.010159  -0.000003  -0.000001
             37         38         39         40         41         42
     1  O    0.000000   0.262750   0.000642  -0.000230   0.005987  -0.013283
     2  C    0.000003   0.038006   0.026194  -0.016701   0.058325   0.351074
     3  C    0.000440  -0.014536  -0.008874   0.002534  -0.036967  -0.039928
     4  O    0.000000  -0.000479  -0.000050   0.000007   0.000173   0.002227
     5  H    0.000000  -0.001588   0.000000   0.000000   0.000011  -0.000209
     6  C   -0.003791   0.002294   0.005522  -0.002098  -0.014496   0.000255
     7  O    0.001254  -0.000022   0.000011  -0.000011   0.000178   0.000720
     8  H   -0.000087   0.000000   0.000000   0.000000   0.000001   0.000001
     9  C    0.000000   0.002852   0.620942   0.394986   0.069726  -0.021417
    10  O    0.000000  -0.000889  -0.052968  -0.010278   0.003678  -0.000756
    11  H    0.000000  -0.000048   0.002777  -0.013834  -0.000377  -0.000012
    12  C    0.000039  -0.028946  -0.281183  -0.012318   0.058747  -0.085165
    13  O    0.000021  -0.000628  -0.004664  -0.004854  -0.020890   0.008374
    14  C   -0.002673  -0.001721   0.003307  -0.008915   0.121143   0.068718
    15  O    0.001461  -0.000001  -0.000333  -0.000241  -0.000374  -0.000147
    16  C    0.079953   0.000101  -0.002410   0.003701   0.006056  -0.004676
    17  C   -0.006613  -0.000045   0.000873   0.002390   0.005304   0.001292
    18  O    0.000065  -0.000001  -0.000023  -0.000099  -0.000372   0.000033
    19  H    0.000000   0.000000   0.000057   0.000954   0.000051  -0.000008
    20  C   -0.003136   0.000001   0.000079  -0.001028   0.000372  -0.000014
    21  O    0.000004   0.000000   0.000000  -0.000002  -0.000002   0.000000
    22  H    0.000000   0.000000   0.000000   0.000000   0.000000   0.000000
    23  C    0.612765   0.000001  -0.000008  -0.000013  -0.000030   0.000006
    24  O   -0.054010   0.000000   0.000000   0.000000   0.000001   0.000004
    25  H   -0.000624   0.000000   0.000000   0.000000   0.000000   0.000000
    26  C   -0.323033  -0.000005  -0.000127   0.000354  -0.000217  -0.000344
    27  O    0.002724   0.000000   0.000000   0.000000   0.000001   0.000000
    28  C    0.007372   0.000000   0.000004   0.000052  -0.000007   0.000000
    29  O   -0.000081   0.000000   0.000000   0.000000   0.000000   0.000000
    30  H    0.000000   0.000000   0.000000   0.000000   0.000000   0.000000
    31  H   -0.000011   0.000000   0.000000   0.000000   0.000000   0.000000
    32  H   -0.000012   0.000000   0.000000   0.000000   0.000000   0.000000
    33  H   -0.000006   0.000000   0.000000  -0.000001  -0.000001   0.000000
    34  H    0.002181   0.000000   0.000000   0.000000  -0.000007   0.000000
    35  H    0.005949   0.000000   0.000000   0.000000   0.000000   0.000000
    36  H   -0.044692   0.000000   0.000000   0.000000   0.000000   0.000000
    37  H    0.567574   0.000000   0.000000   0.000000   0.000000   0.000000
    38  H    0.000000   0.416373  -0.000134   0.000009  -0.000188  -0.012786
    39  H    0.000000  -0.000134   0.582303  -0.043821   0.005675   0.003798
    40  H    0.000000   0.000009  -0.043821   0.563512  -0.003337   0.000016
    41  H    0.000000  -0.000188   0.005675  -0.003337   0.614178   0.006116
    42  H    0.000000  -0.012786   0.003798   0.000016   0.006116   0.607731
    43  H    0.000000  -0.000219  -0.000001   0.000004   0.002053   0.005723
    44  H    0.000000   0.000012  -0.000014   0.000000  -0.000090   0.001591
    45  H    0.000017   0.000002  -0.000015  -0.000037   0.003122  -0.000040
             43         44         45
     1  O    0.003068  -0.000052  -0.000028
     2  C   -0.010213   0.022586  -0.015344
     3  C    0.280947  -0.105903  -0.029053
     4  O   -0.016231   0.002274   0.000142
     5  H   -0.004645  -0.000133   0.000005
     6  C   -0.124468   0.383151   0.001473
     7  O    0.007063  -0.023796  -0.003080
     8  H   -0.000111  -0.009118   0.000076
     9  C    0.010948   0.014334   0.020695
    10  O   -0.000175   0.000015   0.000100
    11  H    0.000000   0.000000   0.000000
    12  C    0.031798   0.043947   0.058874
    13  O    0.005271   0.009109  -0.036100
    14  C    0.075721  -0.045527   0.238496
    15  O    0.000015  -0.007794  -0.040132
    16  C   -0.009667  -0.024555   0.000998
    17  C    0.001904   0.003687   0.013006
    18  O    0.000047   0.000103  -0.002201
    19  H    0.000000  -0.000013   0.000199
    20  C   -0.000073   0.000384   0.013422
    21  O    0.000000   0.000000   0.000010
    22  H    0.000000   0.000000   0.000000
    23  C    0.000157   0.001032   0.000906
    24  O    0.000025   0.000303   0.000034
[...]
 002778,0.00003459,-0.00588302,-0.00011647,0.00092832,0.00180484,0.0008
 3171,0.00048094,-0.00018257,-0.00000680,0.00017371,0.00007575,0.000008
 15,0.00006634,-0.00000570,-0.00000329,0.00000943,-0.00001469,0.0000138
 4,0.00000799,0.00001556,-0.00001894,-0.00001411,-0.00001077,0.00001437
 ,0.00001751,-0.00000838,-0.00000312,0.00000188,0.00000820,0.00000055,0
 .00000023,-0.00000241,-0.00000082,-0.00000210,-0.00001313,-0.00000386,
 0.00000689,0.00002228,0.00000570,0.00000219,-0.00000882,-0.00000133,0.
 00000123,-0.00000879,-0.00000454,0.00000357,0.00000983,0.00000253,-0.0
 0000492,-0.00000733,0.00000096,0.00000491,0.00000695,0.00000060,-0.000
 00620,-0.00000139,0.00000008,0.00000050,0.00000201,0.00000056,0.000000
 85,0.00000327,0.00000110,-0.00000192,0.00000444,-0.00000072,0.00000540
 ,0.00000797,0.00000186,-0.00000809,0.00000457,-0.00000004,0.00000427,0
 .00000066,-0.00000060,-0.00000050,0.00000462,0.00000045,-0.00000185,0.
 00104537,0.00024430,-0.00041887,0.00059129,-0.00087660,-0.00011180,0.0
 0030003,0.00003641,-0.00004965,0.00065531,-0.00040482,0.00028015,0.367
 70671,-0.01158252,-0.00115624,-0.00411458,-0.02551200,-0.04661378,0.00
 686639,0.03182363,0.00080931,-0.00763290,-0.00197196,0.00342662,-0.000
 29812,0.00041688,-0.00017081,0.00012757,0.00077151,0.00106930,0.000688
 27,-0.00041175,-0.00019415,0.00004934,-0.00005221,-0.00002345,-0.00000
 508,-0.00234755,0.00156944,-0.00024588,0.00045618,0.00000035,0.0000446
 8,0.00000551,-0.00002331,0.00002034,-0.02569080,-0.00404715,0.00775001
 ,0.00136361,0.00129453,-0.00180328,0.00013784,-0.00043446,-0.00001660,
 0.00001293,0.00010516,-0.00004530,-0.00003027,0.00001484,0.00000071,0.
 00000947,0.00000375,-0.00001295,0.00002385,-0.00000083,-0.00002926,-0.
 00001864,0.00000487,0.00003221,-0.00000845,0.00000025,-0.00000076,0.00
 000487,0.00000208,-0.00000175,-0.00000139,-0.00000049,-0.00000135,0.00
 000115,-0.00000469,0.00000397,-0.00001524,-0.00000213,-0.00002345,0.00
 000792,0.00000339,-0.00000183,0.00000089,-0.00000111,0.00000481,-0.000
 00075,0.00000379,-0.00000528,0.00000072,-0.00000300,0.00000508,0.00000
 231,0.00000050,-0.00000466,-0.00000006,0.00000014,0.00000078,-0.000000
 07,0.00000086,0.00000022,0.00000161,-0.00000089,-0.00000157,0.00000266
 ,0.00000310,0.00000274,0.00000290,-0.00000684,0.00000352,-0.00000056,0
 .00000136,-0.00000017,-0.00000028,0.00000103,-0.00000278,-0.00000136,-
 0.00000034,0.00000296,-0.00099631,0.00142853,0.00022234,0.00088171,-0.
 00021058,-0.00031735,0.00035176,0.00025029,-0.00016278,-0.00050031,-0.
 00262247,0.00350671,0.03159408,0.05080032,-0.03945074,-0.00843756,-0.0
 0975859,0.06893431,0.00579216,-0.05625715,0.01164998,0.00201564,-0.002
 05447,-0.00153899,0.00046819,0.00075173,-0.00024617,-0.00031697,-0.000
 10745,0.00102267,0.00021229,0.00024964,-0.00030090,-0.00004121,0.00000
 420,0.00000907,-0.00000012,-0.00002034,0.00043936,-0.00154847,0.000436
 84,-0.00013248,-0.00002998,0.00021023,0.00000388,-0.00003862,0.0000247
 4,0.02470580,0.00395199,-0.00550763,-0.00077921,-0.00034182,0.00266198
 ,0.00034024,-0.00019655,-0.00025003,-0.00008210,0.00000126,-0.00013397
 ,0.00000936,-0.00002746,0.00000432,0.00001547,0.00000891,0.00001953,-0
 .00005635,-0.00001653,-0.00000307,0.00005781,0.00001870,-0.00003243,0.
 00000916,-0.00000696,0.00000697,-0.00001144,0.00000813,-0.00001086,0.0
 0000311,-0.00000014,0.00000298,0.00000990,0.00000649,-0.00000559,-0.00
 001892,-0.00000920,-0.00000711,0.00000718,0.00000232,0.00000067,0.0000
 0963,0.00001233,0.00000999,-0.00000803,0.00000139,-0.00001414,0.000004
 31,-0.00000350,0.00001608,0.00000074,0.00000015,-0.00001096,0.00000070
 ,0.00000024,0.00000259,-0.00000218,-0.00000134,-0.00000301,-0.00000544
 ,0.00000004,0.00000427,-0.00000926,-0.00000640,-0.00001379,-0.00001222
 ,0.00000224,0.00001254,-0.00000521,-0.00000100,-0.00000646,-0.00000149
 ,-0.00000235,-0.00000123,-0.00000376,0.00000079,0.00000321,-0.00258799
 ,0.00068500,0.00341979,-0.00073665,0.00040671,0.00035059,-0.00016425,-
 0.00016331,0.00003370,0.00007058,0.00287861,-0.00345671,-0.06118200,-0
 .00283762,0.06967571,0.00170610,-0.00008669,-0.00009308,-0.01431070,-0
 .00037648,0.00020463,-0.35196565,-0.01575145,0.03263924,-0.00074911,-0
 .00603434,0.00711339,0.00044176,-0.00077073,0.00008518,-0.01545894,0.0
 0011957,0.00094287,0.00195840,0.00036806,0.00049419,0.00028627,0.00020
 149,0.00018795,0.00036780,0.00031665,-0.00025568,0.00005692,0.00000490
 ,0.00000178,-0.00000673,0.00001207,0.00000808,-0.00080305,-0.00093754,
 0.00061736,0.00043155,0.00036048,-0.00017660,-0.00133601,-0.00103722,0
 .00109955,0.00058443,0.00012574,-0.00023173,-0.00010227,0.00005846,-0.
 00007958,0.00001028,-0.00000398,-0.00005160,0.00004062,0.00000101,0.00
 002374,-0.00002833,0.00000317,0.00001283,-0.00002313,0.00001331,-0.000
 00626,0.00001561,-0.00000547,0.00000841,-0.00000477,0.00000125,-0.0000
 0457,-0.00003403,-0.00001835,0.00002596,0.00004256,0.00002956,0.000013
 61,-0.00001524,-0.00000789,0.00000842,0.00000316,0.00000003,-0.0000120
 2,0.00001385,0.00000237,0.00000267,-0.00000601,-0.00000050,-0.00001376
 ,0.00000115,0.00000158,0.00000926,-0.00000085,-0.00000066,-0.00000299,
 0.00000319,0.00000074,0.00000287,0.00000636,0.00000107,-0.00000367,0.0
 0000979,-0.00000234,0.00000810,0.00001839,0.00000430,-0.00004330,0.000
 00755,0.00000046,0.00001135,0.00000519,0.00000191,0.00000141,0.0000117
 3,-0.00000095,-0.00000920,0.00033731,-0.00033597,-0.00018872,0.0001415
 1,-0.00026365,-0.00001965,-0.00000530,0.00010180,0.00000547,0.00084438
 ,0.00049790,-0.00061788,0.00013455,0.00172332,0.00041272,0.37685591,-0
 .00190491,0.00219298,0.00158241,0.03257338,-0.00069885,-0.00338608,-0.
 01457317,-0.04130441,-0.00140612,-0.02825803,-0.01077199,0.01539535,-0
 .00005010,0.00010699,-0.00110803,-0.01108859,0.00018654,-0.00103579,0.
 00027345,0.00084840,0.00121589,0.00003744,0.00006328,0.00009981,0.0001
 1516,-0.00008561,-0.00005188,-0.00010233,-0.00006216,-0.00004155,-0.00
 000489,0.00000881,-0.00000649,0.00117339,0.00219573,-0.00114372,-0.000
 23305,-0.00015958,0.00036179,0.00022921,-0.00055790,0.00025415,0.00012
 698,0.00002286,-0.00025690,-0.00004840,0.00003820,-0.00000743,0.000011
 53,-0.00001694,-0.00003992,-0.00000978,0.00000211,0.00004188,0.0000025
 1,0.00000953,-0.00005261,-0.00000563,0.00000976,0.00000415,0.00000239,
 -0.00000105,-0.00000291,-0.00000103,0.00000245,-0.00000087,-0.00000930
 ,0.00001840,-0.00001752,0.00004817,-0.00000426,0.00007610,-0.00002127,
 -0.00000708,-0.00000432,-0.00000576,0.00002806,0.00000080,0.00000656,-
 0.00001846,-0.00000228,-0.00000348,0.00000809,-0.00000527,-0.00000099,
 -0.00000194,0.00000457,-0.00000001,-0.00000004,-0.00000117,0.00000084,
 -0.00000059,0.00000039,0.00000052,0.00000083,0.00000087,0.00000079,0.0
 0000011,0.00000197,0.00000512,0.00000831,-0.00001245,0.00000251,-0.000
 00574,0.00000151,0.00000186,-0.00000436,0.00000649,0.00000600,0.000001
 05,-0.00000850,-0.00006419,0.00031308,0.00040457,-0.00026370,0.0000268
 5,0.00010110,-0.00010467,-0.00004598,0.00002858,-0.00051324,-0.0005525
 5,0.00049007,0.00184068,-0.00497387,-0.00212066,0.02151159,0.05322701,
 -0.00024298,0.00113069,0.00139897,0.01229652,-0.00241133,-0.00011160,0
 .03159667,-0.00255408,-0.04642280,0.02659942,0.01461904,-0.01207586,0.
 00137927,0.00025648,0.00083986,-0.03149270,-0.00235635,0.00253596,0.00
 209288,0.00145713,0.00228093,-0.00019468,0.00049620,0.00034942,-0.0000
 7521,-0.00017772,0.00014445,-0.00002309,-0.00000588,-0.00001611,-0.000
 00072,0.00000718,-0.00000526,-0.00051739,0.00048200,-0.00043864,0.0000
 8004,0.00029725,-0.00029730,-0.00095421,-0.00096062,0.00167067,0.00045
 054,0.00008066,-0.00032532,-0.00004436,0.00004438,0.00006517,0.0000184
 9,-0.00001403,-0.00003661,0.00001339,0.00001945,-0.00000567,-0.0000073
 3,-0.00002682,0.00002343,-0.00001579,0.00000156,0.00001175,0.00000322,
 0.00001214,-0.00001476,-0.00000177,0.00000142,-0.00000143,-0.00001931,
 0.00000524,0.00000641,0.00005041,-0.00000780,0.00005366,-0.00000807,0.
 00000035,-0.00001111,0.00000300,0.00002915,0.00002290,0.00000779,-0.00
 000093,-0.00003521,0.00000051,-0.00000969,0.00001942,0.00000757,0.0000
 0229,-0.00001441,-0.00000003,0.00000068,0.00000250,-0.00000011,0.00000
 095,-0.00000064,0.00000039,0.00000120,-0.00000253,0.00000279,-0.000002
 82,0.00000379,0.00002011,0.00001378,-0.00004747,0.00000339,-0.00000386
 ,0.00000493,0.00000322,-0.00000436,0.00000017,0.00000836,0.00000008,-0
 .00000748,-0.00011255,0.00036014,0.00009126,-0.00007136,0.00009565,-0.
 00000408,-0.00002098,-0.00009262,0.00000303,-0.00032528,0.00003268,0.0
 0024839,0.00081278,-0.00151804,-0.00036253,-0.03962443,-0.00790834,0.0
 5578004,0.00053893,0.00005809,-0.00017467,-0.00093436,0.00086917,0.000
 35083,-0.01399384,-0.00570265,0.00188872,0.00164708,0.00043864,0.00120
 439,0.00043210,0.00005715,0.00022653,-0.32808805,-0.08122212,0.0450449
 7,-0.01542276,0.00660722,0.00878130,0.00010761,0.00071966,-0.00101616,
 -0.00004761,-0.00003553,0.00001396,0.00004286,0.00002768,0.00000652,-0
 .00000721,-0.00000155,0.00000172,0.00001789,-0.00002877,0.00012433,0.0
 0092315,-0.00134923,-0.00031736,-0.00178070,0.00004798,-0.00032583,0.0
 0085237,-0.00002683,0.00021481,0.00020949,0.00007428,0.00012453,0.0000
 1400,0.00004308,0.00001093,0.00001317,-0.00001627,-0.00004578,-0.00001
 500,-0.00002759,0.00001368,-0.00001854,0.00001595,0.00000600,0.0000122
 5,-0.00001553,-0.00001084,-0.00000320,0.00000477,-0.00000096,-0.000008
 06,0.00008826,-0.00008607,0.00016534,-0.00006740,0.00031693,-0.0000599
 4,-0.00003185,-0.00004548,-0.00003572,0.00006072,0.00001426,0.00002148
 ,-0.00006829,0.00001419,-0.00001984,0.00004477,-0.00001387,0.00000342,
 -0.00001280,0.00000230,-0.00000115,0.00000140,-0.00000074,0.00000408,-
 0.00000251,0.00000195,0.00000238,0.00000177,0.00000099,-0.00000109,-0.
 00000904,0.00001051,-0.00002852,0.00004984,-0.00021467,0.00000899,-0.0
 0001490,0.00000389,0.00001022,-0.00002093,0.00002942,0.00002664,0.0000
 0155,-0.00004275,-0.00002756,-0.00015182,-0.00009471,0.00003050,-0.000
 02321,-0.00001201,0.00000352,-0.00000094,-0.00001257,0.00003862,0.0001
 2472,-0.00005017,0.00073696,-0.00038243,-0.00022169,-0.00009569,-0.000
 86839,-0.00192775,0.35420811,0.00027076,0.00000576,-0.00007295,-0.0009
 7977,0.00029327,0.00042852,-0.00970188,-0.00205248,0.00233333,0.001335
 10,0.00050389,0.00041906,0.00008357,-0.00012256,0.00011758,-0.08512111
 ,-0.06520349,0.01403243,0.03625342,-0.00364151,-0.01291467,0.00194929,
 0.00186051,0.00155624,-0.00009584,0.00003014,0.00006069,0.00002687,-0.
 00002169,-0.00000777,-0.00000048,0.00000230,-0.00000107,-0.00008165,-0
 .00020397,-0.00003425,0.00137698,0.00173326,-0.00061717,-0.02754162,-0
 .00641484,0.00454415,0.00134043,0.00119849,-0.00167936,-0.00014914,0.0
 0020905,0.00008718,0.00005400,0.00000976,-0.00017127,0.00010995,-0.000
 03559,0.00006386,-0.00010213,0.00003432,-0.00000404,-0.00003150,0.0000
 3080,-0.00000269,0.00001456,0.00001070,0.00000180,-0.00000482,-0.00000
 025,-0.00000434,-0.00000343,-0.00009200,0.00012887,-0.00019475,-0.0000
 3393,-0.00026054,0.00007574,0.00002618,-0.00002039,0.00008465,-0.00008
 245,0.00000324,-0.00000612,0.00005695,-0.00002547,0.00001110,-0.000043
 63,0.00000510,0.00000049,0.00001276,0.00000132,0.00000008,-0.00000099,
 -0.00000066,-0.00000066,0.00000459,0.00000217,0.00000972,0.00000301,-0
 .00000761,0.00002388,-0.00001812,0.00003086,0.00021166,0.00001093,-0.0
 0013025,0.00000463,0.00003523,0.00003230,-0.00000892,0.00001639,-0.000
 02285,-0.00001876,-0.00000556,0.00004047,0.00000132,-0.00001890,-0.000
 03207,0.00004190,-0.00003838,-0.00002898,0.00001054,-0.00002268,-0.000
 00963,0.00013744,0.00011916,0.00000313,0.00018913,-0.00014993,-0.00036
 502,-0.00027293,-0.00024203,-0.00171639,0.08035021,0.07531169,0.000460
 43,0.00006161,-0.00040848,-0.00089909,0.00105822,0.00099099,-0.0297448
 9,-0.00914439,0.00328876,0.00141803,-0.00001790,0.00269416,0.00013287,
 -0.00020828,0.00053381,0.04337503,0.01427783,-0.05107225,0.01500307,-0
 .00503414,-0.00395383,0.00233719,-0.00020712,0.00083506,-0.00002027,-0
 .00000731,0.00008104,0.00000451,0.00000383,0.00000521,0.00000577,0.000
 00086,0.00000423,-0.00033900,-0.00019310,-0.00047924,-0.00146571,-0.00
 021577,0.00073170,0.02492511,0.00915316,-0.00496049,-0.00049623,-0.001
 14795,0.00274114,0.00045468,-0.00016099,-0.00036040,-0.00005852,-0.000
 00880,0.00020548,-0.00009877,0.00001432,-0.00005945,0.00009106,-0.0000
 0311,0.00005997,0.00004008,-0.00004394,-0.00001740,-0.00001809,-0.0000
 1783,0.00002113,0.00000562,-0.00000480,0.00000563,0.00011606,0.0000731
 4,-0.00004552,-0.00021319,-0.00006011,-0.00001225,0.00004034,0.0000049
 9,0.00003465,-0.00007156,-0.00002061,-0.00002125,-0.00003382,-0.000014
 75,0.00008012,0.00000169,0.00003078,-0.00002086,-0.00001028,-0.0000079
 2,0.00001260,0.00000081,-0.00000073,-0.00000214,-0.00000148,-0.0000023
 5,-0.00000298,-0.00001044,-0.00000592,0.00000933,-0.00003685,0.0000311
 7,-0.00002923,-0.00031946,-0.00005931,0.00006573,-0.00002484,-0.000011
 00,-0.00006276,-0.00002423,-0.00001078,0.00001451,-0.00004464,-0.00000
 820,0.00004035,0.00005518,-0.00015146,-0.00005403,0.00000284,-0.000009
 44,0.00000333,0.00001453,-0.00003409,0.00000746,0.00008052,0.00000257,
 -0.00012080,0.00035617,-0.00026403,-0.00004704,-0.00190038,-0.00140742
 ,-0.00480268,-0.05344079,-0.00893994,0.05670618,0.00011022,-0.00008416
 ,0.00021315,-0.00003896,0.00039554,-0.00008275,-0.00042537,-0.00036193
 ,-0.00013619,0.00039210,0.00001978,-0.00010484,-0.00003617,0.00000361,
 0.00010890,-0.00382457,0.00092524,0.00236743,0.00205853,0.00038102,-0.
 00163983,-0.00016713,0.00003878,-0.00005945,0.00052581,-0.00003123,0.0
 0003593,0.00004511,0.00027693,0.00011935,-0.00001487,0.00000339,0.0000
 3938,0.00009829,-0.00062660,-0.00081973,-0.00912577,0.01038425,0.00706
 371,-0.32181505,-0.03928496,0.08150377,-0.02452141,-0.00568596,-0.0082
 9192,-0.00017462,-0.00089026,0.00528214,0.00028078,0.00027003,-0.00030
 420,0.00056609,-0.00020080,-0.00023297,-0.00040901,-0.00031342,0.00069
 610,-0.00009399,0.00012579,0.00001049,0.00005386,0.00000870,-0.0000382
 5,-0.00001792,0.00001251,-0.00001675,-0.00024254,0.00000973,0.00006809
 ,0.00012599,-0.00006819,0.00000838,0.00000543,-0.00003169,-0.00004358,
 0.00079863,0.00010004,0.00003315,0.00005588,-0.00009103,-0.00031093,0.
 00000448,-0.00003064,0.00002125,0.00001427,0.00000630,-0.00002561,0.00
 000060,0.00000337,0.00000070,0.00000313,0.00000797,0.00000540,0.000042
 71,0.00002513,-0.00004447,0.00013268,-0.00024824,0.00020300,0.00183199
 ,0.00055112,-0.00145563,0.00009576,0.00017193,0.00034210,0.00004977,0.
 00000238,-0.00000107,0.00008394,-0.00002449,-0.00003106,0.00000244,-0.
 00000065,-0.00001218,0.00006602,-0.00022104,-0.00011371,0.00000004,-0.
 00005085,0.00000962,0.00047265,0.00063870,0.00120144,0.00002683,-0.000
 07242,-0.00015851,0.00060947,0.00016485,0.00022932,0.00051767,0.000348
 09,0.00035097,0.35183620,-0.00009631,0.00034519,-0.00028500,-0.0002908
 2,-0.00068725,-0.00007189,-0.00085888,-0.00005749,-0.00096988,0.000444
 83,0.00004694,0.00031047,0.00013907,-0.00008189,0.00007414,-0.02285551
 ,-0.00373838,0.00998047,-0.00005450,0.00258601,-0.00053349,-0.00036298
 ,-0.00005001,0.00010862,0.00001798,0.00024700,0.00012541,-0.00020093,-
 0.00032308,-0.00012522,-0.00001223,0.00001395,-0.00004885,0.00414546,0
 .00208114,0.00367023,0.03715658,-0.01443268,-0.01927941,-0.04105925,-0
 .04534749,0.01479824,-0.00950915,0.00285978,-0.00285390,0.00001500,-0.
 00034115,0.00166397,0.00023739,-0.00001167,-0.00000257,-0.00036704,0.0
 0010322,0.00021813,0.00024691,0.00009906,-0.00097161,0.00002470,0.0000
 2169,0.00009023,-0.00001762,0.00006368,-0.00007520,-0.00000213,0.00000
 387,-0.00000065,-0.00013484,0.00003181,-0.00005871,0.00008207,-0.00003
 443,0.00002995,-0.00001889,-0.00001620,-0.00001006,-0.00000156,0.00010
 783,0.00004686,0.00002374,-0.00003514,-0.00014612,-0.00000387,-0.00002
 017,0.00008945,0.00002249,0.00000512,-0.00005767,-0.00000004,0.0000012
 1,0.00001086,-0.00000285,-0.00000271,-0.00000767,-0.00001149,0.0000058
 4,0.00000571,0.00002469,-0.00006575,0.00003231,0.00049354,0.00050836,-
 0.00006617,0.00001833,-0.00000686,0.00004378,0.00004116,-0.00001990,0.
 00000599,0.00004307,-0.00002871,-0.00005009,-0.00000890,0.00001344,0.0
 0002053,-0.00019359,0.00005836,0.00005438,0.00003392,0.00003538,-0.000
 01175,-0.00142270,0.00020093,0.00014941,-0.00000625,-0.00015330,0.0000
 3923,0.00044433,0.00019595,0.00032391,0.00039366,-0.00307414,0.0027110
 3,0.03344341,0.05889265,-0.00009531,-0.00006601,-0.00026284,-0.0001387
 8,0.00011322,-0.00011324,0.00149494,-0.00013502,0.00097350,-0.00053977
 ,-0.00001554,-0.00000764,-0.00005843,-0.00003648,-0.00003256,0.0248530
 6,0.00612875,-0.00574149,-0.00184688,-0.00225607,0.00152365,-0.0000050
 6,-0.00011193,-0.00013523,-0.00005226,0.00001845,0.00008058,-0.0001343
 0,-0.00016335,-0.00008130,0.00001456,0.00000319,-0.00001930,0.00265580
 ,0.00072549,0.00233489,0.01241616,-0.00880770,-0.00309048,0.09069233,0
 .01750892,-0.06989993,-0.03428323,-0.00529283,-0.01036101,-0.00793778,
 -0.00211282,0.00254134,-0.00000891,0.00012070,-0.00051972,0.00008481,0
 .00007848,0.00035504,-0.00009877,-0.00004476,-0.00042753,-0.00002704,0
 .00008068,0.00003356,0.00002595,0.00003398,-0.00002276,-0.00000420,0.0
 0000760,-0.00000827,-0.00007663,0.00005329,0.00009920,0.00003732,-0.00
 010750,0.00000829,0.00003042,-0.00002098,-0.00004571,-0.00018286,-0.00
 009185,-0.00010023,0.00014545,0.00007869,-0.00011793,0.00001153,-0.000
 06245,0.00003961,0.00001043,0.00001670,-0.00002494,0.00000082,0.000000
 18,0.00000314,-0.00000108,-0.00000064,0.00000942,0.00004041,0.00002372
 ,-0.00005121,0.00025573,-0.00002980,0.00000563,0.00062820,0.00012916,-
 0.00105891,0.00016788,0.00004616,0.00003019,0.00001694,-0.00000058,-0.
 00000463,0.00002650,-0.00004203,-0.00001583,-0.00002329,-0.00000180,0.
 00000766,-0.00013815,0.00007286,0.00002183,0.00000131,0.00003798,-0.00
 001083,-0.00087307,-0.00004821,-0.00015683,-0.00013582,0.00001471,0.00
 016227,-0.00060595,-0.00004421,-0.00051760,-0.00035280,0.00317708,-0.0
 0263946,-0.08599018,-0.00897741,0.08723759\\0.00209904,-0.00835112,-0.
 00397292,0.01649591,0.00513726,-0.00045971,-0.02624625,-0.01982271,0.0
 1371820,0.01738292,0.01533856,0.02321522,-0.01219927,-0.01168388,-0.02
 262489,0.02248169,0.00312383,-0.01351004,-0.03258533,-0.00323565,-0.00
 971230,0.02672802,0.00103859,0.00865440,0.01966448,0.01053658,0.012585
 24,0.00691387,0.02608059,-0.00252180,-0.00860857,-0.03423221,0.0036406
 1,-0.01642531,0.00974301,-0.00243038,-0.00111336,-0.01280930,0.0053467
 4,-0.02793594,0.01133620,-0.01671298,0.01324012,-0.01219764,0.01720496
 ,-0.01683402,0.01428547,0.00981933,0.02494902,0.02003219,-0.01073306,-
 0.01383186,-0.02898159,0.01719482,0.01212793,0.01728513,-0.01472170,-0
 .02161927,0.02968189,-0.02134304,0.00630615,0.01079725,-0.02556807,-0.
 00833020,-0.00989024,0.02915512,-0.00143838,-0.00354019,0.00961400,-0.
 00472582,-0.02678852,-0.00321157,-0.00221902,0.03299133,0.00498431,0.0
 0569075,-0.00860150,0.00325615,-0.00434902,-0.01092261,-0.00964470,0.0
 4217911,-0.00615979,0.02016288,-0.01310159,-0.00135774,0.01850429,-0.0
 0278537,-0.00310943,-0.00273779,-0.01685535,-0.00381398,-0.00774983,0.
 01917702,-0.00059531,0.00220365,-0.02011677,-0.00295923,-0.00105908,0.
 01785319,-0.00004667,0.00152663,-0.02100267,-0.00163092,-0.00270900,-0
 .00237241,-0.00580445,-0.01655557,0.01964816,0.00096735,0.00080759,-0.
 00059760,0.00323571,0.00008139,-0.01865251,-0.00104036,0.00549903,-0.0
 0224254,0.00491326,-0.01624440,0.01968411,0.00321478,-0.00285385,-0.01
 789603,-0.00276512,0.00166919,0.01953624,0.00189684,-0.00320053,-0.017
 01057,-0.00293010,0.00544721,0.01893729,0.00163444,-0.00401375\\\@


 IF AT FIRST YOU DON'T SUCCEED, TRY LOOKING IN 
 THE WASTEBASKET FOR THE DIRECTIONS.
 Job cpu time:  1 days  6 hours 42 minutes  3.6 seconds.
 File lengths (MBytes):  RWF=   1769 Int=      0 D2E=      0 Chk=     28 Scr=      1
 Normal termination of Gaussian 09 at Sun Mar 27 05:03:58 2016.
Gaussian '09 finished on node031 at Sun Mar 27 05:03:58 EDT 2016.
