Gaussian '09 started on node007 at Fri Feb 12 12:02:43 EST 2016.
 Entering Gaussian System, Link 0=/usr/local/gaussian/g09/g09
 Initial command:
 /usr/local/gaussian/g09/l1.exe /home/srmcgrat/thesis/gaussian/cellobiose/500/5000/1/2dfp/gaussian13262/Gau-13298.inp -scrdir=/home/srmcgrat/thesis/gaussian/cellobiose/500/5000/1/2dfp/gaussian13262/
 Entering Link 1 = /usr/local/gaussian/g09/l1.exe PID=     13300.
  
 Copyright (c) 1988,1990,1992,1993,1995,1998,2003,2009,2010,
            Gaussian, Inc.  All Rights Reserved.
  
 This is part of the Gaussian(R) 09 program.  It is based on
 the Gaussian(R) 03 system (copyright 2003, Gaussian, Inc.),
 the Gaussian(R) 98 system (copyright 1998, Gaussian, Inc.),
 the Gaussian(R) 94 system (copyright 1995, Gaussian, Inc.),
 the Gaussian 92(TM) system (copyright 1992, Gaussian, Inc.),
 the Gaussian 90(TM) system (copyright 1990, Gaussian, Inc.),
 the Gaussian 88(TM) system (copyright 1988, Gaussian, Inc.),
 the Gaussian 86(TM) system (copyright 1986, Carnegie Mellon
 University), and the Gaussian 82(TM) system (copyright 1983,
 Carnegie Mellon University). Gaussian is a federally registered
 trademark of Gaussian, Inc.
  
 This software contains proprietary and confidential information,
 including trade secrets, belonging to Gaussian, Inc.
  
 This software is provided under written license and may be
 used, copied, transmitted, or stored only in accord with that
 written license.
  
 The following legend is applicable only to US Government
 contracts under FAR:
  
                    RESTRICTED RIGHTS LEGEND
  
 Use, reproduction and disclosure by the US Government is
 subject to restrictions as set forth in subparagraphs (a)
 and (c) of the Commercial Computer Software - Restricted
 Rights clause in FAR 52.227-19.
  
 Gaussian, Inc.
 340 Quinnipiac St., Bldg. 40, Wallingford CT 06492
  
  
 ---------------------------------------------------------------
 Warning -- This program may not be used in any manner that
 competes with the business of Gaussian, Inc. or will provide
 assistance to any competitor of Gaussian, Inc.  The licensee
 of this program is prohibited from giving any competitor of
 Gaussian, Inc. access to this program.  By using this program,
 the user acknowledges that Gaussian, Inc. is engaged in the
 business of creating and licensing software in the field of
 computational chemistry and represents and warrants to the
 licensee that it is not a competitor of Gaussian, Inc. and that
 it will not use this program in any manner prohibited above.
 ---------------------------------------------------------------
  

 Cite this work as:
 Gaussian 09, Revision B.01,
 M. J. Frisch, G. W. Trucks, H. B. Schlegel, G. E. Scuseria, 
 M. A. Robb, J. R. Cheeseman, G. Scalmani, V. Barone, B. Mennucci, 
 G. A. Petersson, H. Nakatsuji, M. Caricato, X. Li, H. P. Hratchian, 
 A. F. Izmaylov, J. Bloino, G. Zheng, J. L. Sonnenberg, M. Hada, 
 M. Ehara, K. Toyota, R. Fukuda, J. Hasegawa, M. Ishida, T. Nakajima, 
 Y. Honda, O. Kitao, H. Nakai, T. Vreven, J. A. Montgomery, Jr., 
 J. E. Peralta, F. Ogliaro, M. Bearpark, J. J. Heyd, E. Brothers, 
 K. N. Kudin, V. N. Staroverov, T. Keith, R. Kobayashi, J. Normand, 
 K. Raghavachari, A. Rendell, J. C. Burant, S. S. Iyengar, J. Tomasi, 
 M. Cossi, N. Rega, J. M. Millam, M. Klene, J. E. Knox, J. B. Cross, 
 V. Bakken, C. Adamo, J. Jaramillo, R. Gomperts, R. E. Stratmann, 
 O. Yazyev, A. J. Austin, R. Cammi, C. Pomelli, J. W. Ochterski, 
 R. L. Martin, K. Morokuma, V. G. Zakrzewski, G. A. Voth, 
 P. Salvador, J. J. Dannenberg, S. Dapprich, A. D. Daniels, 
 O. Farkas, J. B. Foresman, J. V. Ortiz, J. Cioslowski, 
 and D. J. Fox, Gaussian, Inc., Wallingford CT, 2010.
 
 ******************************************
 Gaussian 09:  EM64L-G09RevB.01 12-Aug-2010
                12-Feb-2016 
 ******************************************
 --------------------------------------------------
 # freq=raman b3lyp/6-31+g(2df,p) geom=connectivity
 --------------------------------------------------
 1/10=4,30=1,38=1,57=2/1,3;
 2/12=2,17=6,18=5,40=1/2;
 3/5=1,6=6,7=114,11=2,16=1,25=1,30=1,71=2,74=-5/1,2,3;
 4//1;
 5/5=2,38=5,98=1/2;
 8/6=4,10=90,11=11/1;
 10/13=10,15=4/2;
 11/6=3,8=1,9=11,15=111,16=1/1,2,10;
 10/6=1/2;
 6/7=2,8=2,9=2,10=2,18=1,28=1/1;
 7/8=1,10=1,25=1/1,2,3,16;
 1/10=4,30=1/3;
 99//99;
 ------------
 500 5000.com
 ------------
 Symbolic Z-matrix:
 Charge =  0 Multiplicity = 1
 O                     8.975     6.961     12.08 
 C                     9.417     7.182     13.427 
 C                     8.919     8.487     14.028 
 O                     9.087     9.595     13.132 
 H                     8.725     9.165     12.305 
 C                     9.766     8.834     15.241 
 O                     9.942     10.181    15.705 
 H                     10.365    10.763    15.011 
 C                     9.328     4.703     14.158 
 O                     8.657     3.611     14.804 
 H                     8.819     2.726     14.367 
 C                     9.083     6.163     14.504 
 O                     9.42      6.418     15.875 
 C                     9.211     7.799     16.205 
 O                     9.829     7.995     17.485 
 C                     8.993     7.738     18.623 
 C                     8.864     6.253     18.923 
 O                     8.012     5.542     18.013 
 H                     8.459     5.516     17.119 
 C                     8.424     6.012     20.357 
 O                     8.241     4.606     20.577 
 H                     7.747     4.309     19.759 
 C                     9.291     9.935     19.585 
 O                     9.52      10.812    20.698 
 H                     9.165     11.74     20.582 
 C                     9.702     8.48      19.745 
 O                     9.338     8.1       21.08 
 C                     9.313     6.697     21.382 
 O                     8.773     6.754     22.71 
 H                     9.4911    6.78132   23.34654 
 H                     10.30057   6.28517   21.38136 
 H                     7.45704   6.45963   20.45453 
 H                     9.84259   5.8319    18.82334 
 H                     8.02355   8.16197   18.46389 
 H                     10.76113   8.39048   19.62197 
 H                     8.24476   9.95647   19.3618 
 H                     9.81685   10.33241   18.74212 
 H                     10.37603   4.53375   14.29179 
 H                     9.12631   4.60366   13.11189 
 H                     9.7375    6.86657   11.50443 
 H                     8.01453   6.21629   14.52455 
 H                     10.48431   7.24622   13.38657 
 H                     7.89127   8.39453   14.31105 
 H                     10.75433   8.50207   15.00032 
 H                     8.15897   7.96516   16.30756 
 

 GradGradGradGradGradGradGradGradGradGradGradGradGradGradGradGradGradGrad
 Berny optimization.
 Initialization pass.
 Trust Radius=3.00D-01 FncErr=1.00D-07 GrdErr=1.00D-07
 Number of steps in this run=      2 maximum allowed number of steps=      2.
 GradGradGradGradGradGradGradGradGradGradGradGradGradGradGradGradGradGrad

                          Input orientation:                          
 ---------------------------------------------------------------------
 Center     Atomic      Atomic             Coordinates (Angstroms)
 Number     Number       Type             X           Y           Z
 ---------------------------------------------------------------------
      1          8           0        8.975000    6.961000   12.080000
      2          6           0        9.417000    7.182000   13.427000
      3          6           0        8.919000    8.487000   14.028000
      4          8           0        9.087000    9.595000   13.132000
      5          1           0        8.725000    9.165000   12.305000
      6          6           0        9.766000    8.834000   15.241000
      7          8           0        9.942000   10.181000   15.705000
      8          1           0       10.365000   10.763000   15.011000
      9          6           0        9.328000    4.703000   14.158000
     10          8           0        8.657000    3.611000   14.804000
     11          1           0        8.819000    2.726000   14.367000
     12          6           0        9.083000    6.163000   14.504000
     13          8           0        9.420000    6.418000   15.875000
     14          6           0        9.211000    7.799000   16.205000
     15          8           0        9.829000    7.995000   17.485000
     16          6           0        8.993000    7.738000   18.623000
     17          6           0        8.864000    6.253000   18.923000
     18          8           0        8.012000    5.542000   18.013000
     19          1           0        8.459000    5.516000   17.119000
     20          6           0        8.424000    6.012000   20.357000
     21          8           0        8.241000    4.606000   20.577000
     22          1           0        7.747000    4.309000   19.759000
     23          6           0        9.291000    9.935000   19.585000
     24          8           0        9.520000   10.812000   20.698000
     25          1           0        9.165000   11.740000   20.582000
     26          6           0        9.702000    8.480000   19.745000
     27          8           0        9.338000    8.100000   21.080000
     28          6           0        9.313000    6.697000   21.382000
     29          8           0        8.773000    6.754000   22.710000
     30          1           0        9.491100    6.781321   23.346542
     31          1           0       10.300571    6.285172   21.381360
     32          1           0        7.457038    6.459630   20.454527
     33          1           0        9.842594    5.831904   18.823339
     34          1           0        8.023549    8.161968   18.463888
     35          1           0       10.761127    8.390476   19.621975
     36          1           0        8.244760    9.956474   19.361796
     37          1           0        9.816851   10.332406   18.742119
     38          1           0       10.376025    4.533754   14.291788
     39          1           0        9.126313    4.603663   13.111886
     40          1           0        9.737500    6.866568   11.504434
     41          1           0        8.014525    6.216290   14.524546
     42          1           0       10.484305    7.246223   13.386568
     43          1           0        7.891268    8.394527   14.311048
     44          1           0       10.754330    8.502068   15.000322
     45          1           0        8.158968    7.965163   16.307563
 ---------------------------------------------------------------------
                    Distance matrix (angstroms):
                    1          2          3          4          5
     1  O    0.000000
     2  C    1.434787   0.000000
     3  C    2.475180   1.520602   0.000000
     4  O    2.838521   2.453262   1.434818   0.000000
     5  H    2.229516   2.381184   1.861733   0.999936   0.000000
     6  C    3.758421   2.478205   1.519601   2.342657   3.132625
     7  O    4.944099   3.802487   2.593934   2.773941   3.751446
     8  H    4.997806   4.028811   2.870084   2.555024   3.544805
     9  C    3.088893   2.586063   3.808259   5.004240   4.868949
    10  O    4.329411   3.902021   4.944309   6.228061   6.090693
    11  H    4.815592   4.593162   5.771832   6.984283   6.761760
    12  C    2.554260   1.519818   2.377908   3.696082   3.738418
    13  O    3.859391   2.564451   2.818363   4.210495   4.557843
    14  C    4.215871   2.853140   2.301725   3.561505   4.160787
    15  O    5.568887   4.159096   3.608464   4.696719   5.424031
    16  C    6.588999   5.242836   4.656233   5.797272   6.482691
    17  C    6.880424   5.601327   5.380967   6.689871   7.231666
    18  O    6.175874   5.069026   5.037450   6.434796   6.798218
    19  H    5.267428   4.162233   4.311928   5.738362   6.046532
    20  C    8.349427   7.097876   6.813728   8.091853   8.652555
    21  O    8.847813   7.690335   7.642725   9.001881   9.457522
    22  H    8.216333   7.151032   7.188437   8.582221   8.949823
    23  C    8.078958   6.746543   5.754593   6.465170   7.342456
    24  O    9.455007   8.127420   7.089127   7.675476   8.589941
    25  H    9.754945   8.487219   7.321027   7.753039   8.679456
    26  C    7.847810   6.456249   5.770375   6.734480   7.535075
    27  O    9.079047   7.708267   7.075029   8.091275   8.860622
    28  C    9.311882   7.970450   7.578961   8.747113   9.424898
    29  O   10.633934   9.315149   8.854475   9.995397  10.680789
    30  H   11.279788   9.927908   9.490620  10.602686  11.321859
    31  H    9.419617   8.053375   7.799275   8.971046   9.651743
    32  H    8.525742   7.331399   6.895492   8.130604   8.679951
    33  H    6.892039   5.578922   5.558583   6.864631   7.405896
    34  H    6.565182   5.317169   4.537023   5.622592   6.279332
    35  H    7.881309   6.453279   5.890272   6.809798   7.634384
    36  H    7.907634   6.655348   5.573449   6.296856   7.117263
    37  H    7.513915   6.191561   5.141456   5.705250   6.632607
    38  H    3.570210   2.946318   4.221452   5.350037   5.302985
    39  H    2.577736   2.613736   3.995316   4.991532   4.649507
    40  H    0.960000   1.974456   3.108718   3.242910   2.636068
    41  H    2.730002   2.025867   2.494145   3.808552   3.758464
    42  H    2.016550   1.070000   2.097890   2.744817   2.818981
    43  H    2.864795   2.140005   1.070000   2.064235   2.304987
    44  H    3.750891   2.450790   2.077034   2.732236   3.438374
    45  H    4.421146   3.239387   2.458936   3.688063   4.216694
                    6          7          8          9         10
     6  C    0.000000
     7  O    1.435507   0.000000
     8  H    2.032915   0.999644   0.000000
     9  C    4.293005   5.725268   6.206978   0.000000
    10  O    5.357292   6.754845   7.356033   1.435277   0.000000
    11  H    6.242463   7.656918   8.209642   2.052143   1.000219
    12  C    2.853752   4.280725   4.802143   1.520310   2.604646
    13  O    2.521652   3.802835   4.529740   2.428534   3.099751
    14  C    1.519390   2.541316   3.397447   3.713370   4.450737
    15  O    2.396545   2.821306   3.750973   4.707143   5.270750
    16  C    3.638223   3.922190   4.907092   5.409221   5.632920
    17  C    4.586097   5.191030   6.156041   5.032198   4.897874
    18  O    4.647339   5.529203   6.465868   4.158942   3.800325
    19  H    4.030416   5.095185   5.967203   3.191183   3.004572
    20  C    5.994840   6.428529   7.410749   6.399867   6.054329
    21  O    6.976712   7.596737   8.567402   6.511109   5.872871
    22  H    6.705543   7.465476   8.429208   5.833181   5.085993
    23  C    4.506458   3.941918   4.770800   7.538403   7.953169
    24  O    5.809634   5.050376   5.749643   8.951444   9.345502
    25  H    6.110018   5.178739   5.781918   9.529623   9.986190
    26  C    4.518344   4.390057   5.297397   6.754271   7.015174
    27  O    5.900497   5.795343   6.706643   7.710629   7.746164
    28  C    6.517964   6.690458   7.630773   7.494160   7.295465
    29  O    7.816547   7.885488   8.825030   8.811999   8.508627
    30  H    8.365935   8.375816   9.278940   9.422066   9.149956
    31  H    6.669806   6.893991   7.786950   7.458290   7.287948
    32  H    6.176553   6.525461   7.523777   6.799449   6.440734
    33  H    4.674570   5.352435   6.254802   4.827486   4.742693
    34  H    3.724885   3.920256   4.916319   5.675097   5.874296
    35  H    4.514414   4.384021   5.200661   6.745840   7.105183
    36  H    4.533771   4.037722   4.906662   7.473413   7.823586
    37  H    3.808627   3.043464   3.795672   7.276217   7.875997
    38  H    4.445812   5.837545   6.270637   1.070000   2.017148
    39  H    4.778920   6.204537   6.563415   1.070000   2.017148
    40  H    4.222976   5.354627   5.279389   3.448207   4.759552
    41  H    3.230074   4.563722   5.141395   2.037061   2.697852
    42  H    2.544782   3.779172   3.875659   2.898298   4.308480
    43  H    2.138356   3.056156   3.495561   3.964214   4.869443
    44  H    1.070000   1.993806   2.294233   4.144495   5.325400
    45  H    2.115416   2.907270   3.791510   4.077862   4.633300
                   11         12         13         14         15
    11  H    0.000000
    12  C    3.449846   0.000000
    13  O    4.033129   1.434655   0.000000
    14  C    5.409920   2.363531   1.435180   0.000000
    15  O    6.205190   3.577583   2.290482   1.434831   0.000000
    16  C    6.577534   4.410769   3.078349   2.428573   1.435266
    17  C    5.761848   4.425339   3.102687   3.146116   2.456345
    18  O    4.677010   3.720990   2.705713   3.130577   3.097980
    19  H    3.935379   2.765178   1.812363   2.571573   2.855923
    20  C    6.843531   5.891917   4.609249   4.588229   3.762273
    21  O    6.514030   6.325705   5.175151   5.500048   4.854640
    22  H    5.720904   5.730378   4.725703   5.191754   4.805455
    23  C    8.911789   6.331493   5.113710   3.999162   2.909131
    24  O   10.293510   7.756920   6.525225   5.418551   4.284196
    25  H   10.954366   8.249348   7.109470   5.889968   4.904827
    26  C    7.925345   5.763656   4.394117   3.638192   2.314941
    27  O    8.614732   6.860085   5.470637   4.885934   3.629894
    28  C    8.076082   6.902531   5.515101   5.293972   4.139767
    29  O    9.264586   8.233093   6.873771   6.602946   5.473193
    30  H    9.875704   8.873524   7.480709   7.219124   5.995404
    31  H    8.004000   6.985377   5.577907   5.502140   4.281065
    32  H    7.270001   6.175801   4.982672   4.788400   4.098982
    33  H    5.527508   4.398102   3.035589   3.335278   2.543683
    34  H    6.853246   4.560595   3.419626   2.577666   2.060522
    35  H    7.966989   5.828501   4.441746   3.798481   2.364725
    36  H    8.806673   6.220231   5.104874   3.943815   3.143177
    37  H    8.831466   5.990337   4.868309   3.636231   2.654046
    38  H    2.387040   2.090787   2.640251   3.959734   4.740893
    39  H    2.279336   2.090787   3.318564   4.448000   5.578446
    40  H    5.116857   3.149726   4.404982   4.820991   6.086781
    41  H    3.585265   1.070000   1.959534   2.600086   3.901335
    42  H    4.915984   2.094202   2.830369   3.141724   4.217492
    43  H    5.744216   2.537157   2.947817   2.383988   3.740106
    44  H    6.124505   2.917348   2.624659   2.080245   2.699440
    45  H    5.625855   2.711911   2.042308   1.070000   2.043589
                   16         17         18         19         20
    16  C    0.000000
    17  C    1.520482   0.000000
    18  O    2.481306   1.435105   0.000000
    19  H    2.735773   1.990379   0.999860   0.000000
    20  C    2.511890   1.519222   2.425898   3.275956   0.000000
    21  O    3.767366   2.415875   2.739093   3.582372   1.434826
    22  H    3.821132   2.392848   2.153841   2.988878   1.927730
    23  C    2.416828   3.765328   4.837920   5.128444   4.091161
    24  O    3.746042   4.936136   6.103785   6.479396   4.935331
    25  H    4.459066   5.740213   6.807670   7.157442   5.780112
    26  C    1.520569   2.517431   3.806280   4.150448   2.845848
    27  O    2.507373   2.879016   4.208103   4.810324   2.391207
    28  C    2.966170   2.538783   3.791673   4.505246   1.519925
    29  O    4.209540   3.821080   4.910181   5.735026   2.491781
    30  H    4.845120   4.498900   5.671889   6.438055   3.266178
    31  H    3.380681   2.847509   4.139531   4.706456   2.155332
    32  H    2.710701   2.089931   2.666661   3.608338   1.070000
    33  H    2.096461   1.070000   2.022812   2.217859   2.096892
    34  H    1.070000   2.135720   2.658508   2.999915   2.892507
    35  H    2.133061   2.942186   4.273209   4.452784   3.414612
    36  H    2.455058   3.780439   4.621797   4.979342   4.072031
    37  H    2.724677   4.193113   5.170792   5.260802   4.818069
    38  H    5.562315   5.166251   4.522455   3.554282   6.540827
    39  H    6.341468   6.046335   5.113031   4.163488   7.414063
    40  H    7.210247   7.494971   6.862453   5.914554   8.990189
    41  H    4.479993   4.479883   3.553025   2.723813   5.850378
    42  H    5.466814   5.853542   5.515482   4.585475   7.372590
    43  H    4.498641   5.177108   4.675033   4.061137   6.520258
    44  H    4.099985   4.900924   5.035733   4.321335   6.350187
    45  H    2.471530   3.204541   2.966788   2.597469   4.503668
                   21         22         23         24         25
    21  O    0.000000
    22  H    1.000684   0.000000
    23  C    5.521305   5.836616   0.000000
    24  O    6.337580   6.805458   1.435388   0.000000
    25  H    7.193591   7.609718   2.065892   1.000332   0.000000
    26  C    4.223106   4.606459   1.520377   2.525778   3.408304
    27  O    3.696546   4.318333   2.367374   2.744812   3.677979
    28  C    2.483846   3.284666   3.703287   4.176593   5.108204
    29  O    3.073535   3.967254   4.489177   4.590590   5.435278
    30  H    3.736996   4.693050   4.912731   4.823068   5.686610
    31  H    2.776409   3.613590   4.191347   4.644184   5.628823
    32  H    2.016318   2.278825   4.024636   4.822678   5.551189
    33  H    2.672690   2.754308   4.209487   5.331020   6.201421
    34  H    4.142154   4.074207   2.450911   3.775353   4.311800
    35  H    4.646006   5.075646   2.132650   2.926091   3.832569
    36  H    5.486739   5.683265   1.070000   2.035584   2.348767
    37  H    6.216255   6.449787   1.070000   2.035584   2.406532
    38  H    6.638332   6.070642   7.639950   9.010478   9.641749
    39  H    7.517427   6.795105   8.387579   9.810584  10.331089
    40  H    9.468956   8.867982   8.655067  10.006768  10.318929
    41  H    6.267099   5.577529   6.408306   7.842101   8.278147
    42  H    7.981573   7.531799   6.861054   8.191562   8.585385
    43  H    7.330580   6.811206   5.669821   7.020690   7.220763
    44  H    7.252276   7.019321   5.021344   6.270797   6.645698
    45  H    5.433121   5.044766   3.987901   5.406740   5.790709
                   26         27         28         29         30
    26  C    0.000000
    27  O    1.434964   0.000000
    28  C    2.451567   1.435353   0.000000
    29  O    3.554341   2.188114   1.434724   0.000000
    30  H    3.987618   2.626703   1.974400   0.960000   0.000000
    31  H    2.802362   2.076286   1.070000   2.078114   2.182510
    32  H    3.102447   2.572946   2.088336   2.627845   3.550302
    33  H    2.807425   3.239042   2.752382   4.135266   4.635117
    34  H    2.135319   2.928423   3.510583   4.535804   5.282064
    35  H    1.070000   2.058034   2.839475   4.020771   4.251441
    36  H    2.109590   2.755702   3.980770   4.663190   5.245299
    37  H    2.109590   3.267816   4.520953   5.444143   5.823833
    38  H    6.764960   7.737922   7.488709   8.852428   9.371405
    39  H    7.704259   8.704024   8.532977   9.842387  10.470122
    40  H    8.397104   9.662941   9.888138  11.247562  11.844978
    41  H    5.935073   6.947944   6.995841   8.238087   8.962542
    42  H    6.524099   7.825078   8.099415   9.491956  10.020163
    43  H    5.728341   6.928094   7.409540   8.602974   9.316762
    44  H    4.860026   6.255408   6.786863   8.149880   8.614877
    45  H    3.802891   4.917770   5.356299   6.544857   7.261081
                   31         32         33         34         35
    31  H    0.000000
    32  H    2.995854   0.000000
    33  H    2.637928   2.957311   0.000000
    34  H    4.149559   2.679839   2.977806   0.000000
    35  H    2.782059   3.916416   2.833339   2.981227   0.000000
    36  H    4.667275   3.747330   4.455905   2.018768   2.975256
    37  H    4.855892   4.847624   4.501308   2.829159   2.331716
    38  H    7.303095   7.085820   4.743912   6.008702   6.590410
    39  H    8.520009   7.755351   5.885774   6.520855   7.706739
    40  H    9.910032   9.245013   7.392425   7.283522   8.322534
    41  H    7.228185   5.961097   4.687133   4.393650   6.185037
    42  H    8.054444   7.729108   5.654252   5.716038   6.345569
    43  H    7.761664   6.455596   5.543959   4.161449   6.036725
    44  H    6.770389   6.692685   4.751473   4.423700   4.623005
    45  H    5.757800   4.467287   3.703312   2.169519   4.235263
                   36         37         38         39         40
    36  H    0.000000
    37  H    1.731126   0.000000
    38  H    7.723547   7.330927   0.000000
    39  H    8.275935   8.061939   1.720126   0.000000
    40  H    8.574027   8.025111   3.690403   2.842216   0.000000
    41  H    6.118903   6.162687   2.908915   2.415004   3.537312
    42  H    6.932848   6.217069   2.861578   2.983742   2.060166
    43  H    5.298555   5.205538   4.591291   4.163409   3.690571
    44  H    5.237910   4.269666   4.048784   4.627547   3.991245
    45  H    3.647057   3.778820   4.555574   4.737909   5.173849
                   41         42         43         44         45
    41  H    0.000000
    42  H    2.907846   0.000000
    43  H    2.192143   2.982802   0.000000
    44  H    3.599677   2.062586   2.946826   0.000000
    45  H    2.501713   3.802141   2.059632   2.955173   0.000000
 Stoichiometry    C12H22O11
 Framework group  C1[X(C12H22O11)]
 Deg. of freedom   129
 Full point group                 C1      NOp   1
 Largest Abelian subgroup         C1      NOp   1
 Largest concise Abelian subgroup C1      NOp   1
                         Standard orientation:                         
 ---------------------------------------------------------------------
 Center     Atomic      Atomic             Coordinates (Angstroms)
 Number     Number       Type             X           Y           Z
 ---------------------------------------------------------------------
      1          8           0       -5.213428    0.153060   -0.260068
      2          6           0       -3.867887   -0.076740    0.181890
      3          6           0       -3.188934   -1.249153   -0.508545
      4          8           0       -4.030703   -2.410044   -0.558161
      5          1           0       -4.869723   -1.963866   -0.869356
      6          6           0       -1.980458   -1.677825    0.306938
      7          8           0       -1.452344   -3.012120    0.269076
      8          1           0       -2.125551   -3.688990    0.565603
      9          6           0       -3.263079    2.412783    0.534319
     10          8           0       -2.657989    3.631499    0.077571
     11          1           0       -3.143580    4.454980    0.371711
     12          6           0       -2.836852    1.033069    0.058861
     13          8           0       -1.463080    0.788698    0.392433
     14          6           0       -1.057745   -0.520086   -0.034803
     15          8           0        0.215386   -0.758201    0.582592
     16          6           0        1.358486   -0.310679   -0.161072
     17          6           0        1.584935    1.187033   -0.028990
     18          8           0        0.660421    1.988982   -0.778441
     19          1           0       -0.244229    1.897295   -0.362602
     20          6           0        3.014854    1.565492   -0.375599
     21          8           0        3.166783    2.990859   -0.312581
     22          1           0        2.346746    3.328882   -0.775882
     23          6           0        2.424466   -2.479268   -0.205408
     24          8           0        3.575155   -3.329671   -0.091087
     25          1           0        3.515481   -4.188505   -0.600506
     26          6           0        2.499689   -1.109066    0.449142
     27          8           0        3.821809   -0.611245    0.197559
     28          6           0        4.051960    0.788219    0.418397
     29          8           0        5.393740    0.885320   -0.080231
     30          1           0        6.013388    0.766386    0.643296
     31          1           0        4.006441    1.026336    1.460572
     32          1           0        3.158445    1.293144   -1.400347
     33          1           0        1.440295    1.431190    1.002691
     34          1           0        1.244697   -0.571245   -1.192604
     35          1           0        2.346793   -1.206053    1.503711
     36          1           0        2.227889   -2.333570   -1.247055
     37          1           0        1.590674   -2.998757    0.218646
     38          1           0       -3.163398    2.408100    1.599656
     39          1           0       -4.307757    2.496097    0.318432
     40          1           0       -5.811255    0.090107    0.488424
     41          1           0       -2.787903    1.162545   -1.002148
     42          1           0       -3.930634   -0.322628    1.221362
     43          1           0       -2.886362   -0.970876   -1.496427
     44          1           0       -2.261550   -1.529652    1.328668
     45          1           0       -0.921518   -0.500699   -1.095918
 ---------------------------------------------------------------------
 Rotational constants (GHZ):      0.3806025      0.1513017      0.1114304
 Standard basis: 6-31+G(2df,p) (6D, 7F)
 There are   846 symmetry adapted basis functions of A   symmetry.
 Integral buffers will be    131072 words long.
 Raffenetti 2 integral format.
 Two-electron integral symmetry is turned on.
   846 basis functions,  1258 primitive gaussians,   915 cartesian basis functions
    91 alpha electrons       91 beta electrons
       nuclear repulsion energy      2279.0559277058 Hartrees.
 NAtoms=   45 NActive=   45 NUniq=   45 SFac= 1.00D+00 NAtFMM=   50 NAOKFM=F Big=F
 One-electron integrals computed using PRISM.
 NBasis=   846 RedAO= T  NBF=   846
 NBsUse=   846 1.00D-06 NBFU=   846
 Harris functional with IExCor=  402 diagonalized for initial guess.
 ExpMin= 4.38D-02 ExpMax= 5.48D+03 ExpMxC= 8.25D+02 IAcc=2 IRadAn=         0 AccDes= 0.00D+00
 HarFok:  IExCor=  402 AccDes= 0.00D+00 IRadAn=         0 IDoV= 1
 ScaDFX=  1.000000  1.000000  1.000000  1.000000
 FoFCou: FMM=F IPFlag=           0 FMFlag=      100000 FMFlg1=           0
         NFxFlg=           0 DoJE=T BraDBF=F KetDBF=T FulRan=T
         Omega=  0.000000  0.000000  1.000000  0.000000  0.000000 ICntrl=     500 IOpCl=  0
         NMat0=    1 NMatS0=    1 NMatT0=    0 NMatD0=    1 NMtDS0=    0 NMtDT0=    0
         I1Cent=           4 NGrid=           0.
 Petite list used in FoFCou.
 Initial guess orbital symmetries:
       Occupied  (A) (A) (A) (A) (A) (A) (A) (A) (A) (A) (A) (A)
                 (A) (A) (A) (A) (A) (A) (A) (A) (A) (A) (A) (A)
                 (A) (A) (A) (A) (A) (A) (A) (A) (A) (A) (A) (A)
                 (A) (A) (A) (A) (A) (A) (A) (A) (A) (A) (A) (A)
                 (A) (A) (A) (A) (A) (A) (A) (A) (A) (A) (A) (A)
                 (A) (A) (A) (A) (A) (A) (A) (A) (A) (A) (A) (A)
                 (A) (A) (A) (A) (A) (A) (A) (A) (A) (A) (A) (A)
                 (A) (A) (A) (A) (A) (A) (A)
       Virtual   (A) (A) (A) (A) (A) (A) (A) (A) (A) (A) (A) (A)
                 (A) (A) (A) (A) (A) (A) (A) (A) (A) (A) (A) (A)
                 (A) (A) (A) (A) (A) (A) (A) (A) (A) (A) (A) (A)
                 (A) (A) (A) (A) (A) (A) (A) (A) (A) (A) (A) (A)
                 (A) (A) (A) (A) (A) (A) (A) (A) (A) (A) (A) (A)
                 (A) (A) (A) (A) (A) (A) (A) (A) (A) (A) (A) (A)
                 (A) (A) (A) (A) (A) (A) (A) (A) (A) (A) (A) (A)
                 (A) (A) (A) (A) (A) (A) (A) (A) (A) (A) (A) (A)
                 (A) (A) (A) (A) (A) (A) (A) (A) (A) (A) (A) (A)
                 (A) (A) (A) (A) (A) (A) (A) (A) (A) (A) (A) (A)
                 (A) (A) (A) (A) (A) (A) (A) (A) (A) (A) (A) (A)
                 (A) (A) (A) (A) (A) (A) (A) (A) (A) (A) (A) (A)
                 (A) (A) (A) (A) (A) (A) (A) (A) (A) (A) (A) (A)
                 (A) (A) (A) (A) (A) (A) (A) (A) (A) (A) (A) (A)
                 (A) (A) (A) (A) (A) (A) (A) (A) (A) (A) (A) (A)
                 (A) (A) (A) (A) (A) (A) (A) (A) (A) (A) (A) (A)
                 (A) (A) (A) (A) (A) (A) (A) (A) (A) (A) (A) (A)
                 (A) (A) (A) (A) (A) (A) (A) (A) (A) (A) (A) (A)
                 (A) (A) (A) (A) (A) (A) (A) (A) (A) (A) (A) (A)
                 (A) (A) (A) (A) (A) (A) (A) (A) (A) (A) (A) (A)
                 (A) (A) (A) (A) (A) (A) (A) (A) (A) (A) (A) (A)
                 (A) (A) (A) (A) (A) (A) (A) (A) (A) (A) (A) (A)
                 (A) (A) (A) (A) (A) (A) (A) (A) (A) (A) (A) (A)
                 (A) (A) (A) (A) (A) (A) (A) (A) (A) (A) (A) (A)
                 (A) (A) (A) (A) (A) (A) (A) (A) (A) (A) (A) (A)
                 (A) (A) (A) (A) (A) (A) (A) (A) (A) (A) (A) (A)
                 (A) (A) (A) (A) (A) (A) (A) (A) (A) (A) (A) (A)
                 (A) (A) (A) (A) (A) (A) (A) (A) (A) (A) (A) (A)
                 (A) (A) (A) (A) (A) (A) (A) (A) (A) (A) (A) (A)
                 (A) (A) (A) (A) (A) (A) (A) (A) (A) (A) (A) (A)
                 (A) (A) (A) (A) (A) (A) (A) (A) (A) (A) (A) (A)
                 (A) (A) (A) (A) (A) (A) (A) (A) (A) (A) (A) (A)
                 (A) (A) (A) (A) (A) (A) (A) (A) (A) (A) (A) (A)
                 (A) (A) (A) (A) (A) (A) (A) (A) (A) (A) (A) (A)
                 (A) (A) (A) (A) (A) (A) (A) (A) (A) (A) (A) (A)
                 (A) (A) (A) (A) (A) (A) (A) (A) (A) (A) (A) (A)
                 (A) (A) (A) (A) (A) (A) (A) (A) (A) (A) (A) (A)
                 (A) (A) (A) (A) (A) (A) (A) (A) (A) (A) (A) (A)
                 (A) (A) (A) (A) (A) (A) (A) (A) (A) (A) (A) (A)
                 (A) (A) (A) (A) (A) (A) (A) (A) (A) (A) (A) (A)
                 (A) (A) (A) (A) (A) (A) (A) (A) (A) (A) (A) (A)
                 (A) (A) (A) (A) (A) (A) (A) (A) (A) (A) (A) (A)
                 (A) (A) (A) (A) (A) (A) (A) (A) (A) (A) (A) (A)
                 (A) (A) (A) (A) (A) (A) (A) (A) (A) (A) (A) (A)
                 (A) (A) (A) (A) (A) (A) (A) (A) (A) (A) (A) (A)
                 (A) (A) (A) (A) (A) (A) (A) (A) (A) (A) (A) (A)
                 (A) (A) (A) (A) (A) (A) (A) (A) (A) (A) (A) (A)
                 (A) (A) (A) (A) (A) (A) (A) (A) (A) (A) (A) (A)
                 (A) (A) (A) (A) (A) (A) (A) (A) (A) (A) (A) (A)
                 (A) (A) (A) (A) (A) (A) (A) (A) (A) (A) (A) (A)
                 (A) (A) (A) (A) (A) (A) (A) (A) (A) (A) (A) (A)
                 (A) (A) (A) (A) (A) (A) (A) (A) (A) (A) (A) (A)
                 (A) (A) (A) (A) (A) (A) (A) (A) (A) (A) (A) (A)
                 (A) (A) (A) (A) (A) (A) (A) (A) (A) (A) (A) (A)
                 (A) (A) (A) (A) (A) (A) (A) (A) (A) (A) (A) (A)
                 (A) (A) (A) (A) (A) (A) (A) (A) (A) (A) (A) (A)
                 (A) (A) (A) (A) (A) (A) (A) (A) (A) (A) (A) (A)
                 (A) (A) (A) (A) (A) (A) (A) (A) (A) (A) (A) (A)
                 (A) (A) (A) (A) (A) (A) (A) (A) (A) (A) (A) (A)
                 (A) (A) (A) (A) (A) (A) (A) (A) (A) (A) (A) (A)
                 (A) (A) (A) (A) (A) (A) (A) (A) (A) (A) (A) (A)
                 (A) (A) (A) (A) (A) (A) (A) (A) (A) (A) (A) (A)
                 (A) (A) (A) (A) (A) (A) (A) (A) (A) (A) (A)
 The electronic state of the initial guess is 1-A.
 Requested convergence on RMS density matrix=1.00D-08 within 128 cycles.
 Requested convergence on MAX density matrix=1.00D-06.
 Requested convergence on             energy=1.00D-06.
 No special actions if energy rises.
 SCF Done:  E(RB3LYP) =  -1297.97503556     A.U. after   14 cycles
             Convg  =    0.1189D-08             -V/T =  2.0066
 Range of M.O.s used for correlation:     1   846
 NBasis=   846 NAE=    91 NBE=    91 NFC=     0 NFV=     0
 NROrb=    846 NOA=    91 NOB=    91 NVA=   755 NVB=   755

 **** Warning!!: The largest alpha MO coefficient is  0.83134038D+02

          Differentiating once with respect to electric field.
                with respect to dipole field.
          Electric field/nuclear overlap derivatives assumed to be zero.
          There are     3 degrees of freedom in the 1st order CPHF.  IDoFFX=0.
      3 vectors produced by pass  0 Test12= 2.29D-12 3.33D-08 XBig12= 1.21D+02 1.53D+00.
 AX will form     3 AO Fock derivatives at one time.
      3 vectors produced by pass  1 Test12= 2.29D-12 3.33D-08 XBig12= 2.21D+01 3.64D-01.
      3 vectors produced by pass  2 Test12= 2.29D-12 3.33D-08 XBig12= 8.36D+00 2.12D-01.
      3 vectors produced by pass  3 Test12= 2.29D-12 3.33D-08 XBig12= 1.02D+00 8.34D-02.
      3 vectors produced by pass  4 Test12= 2.29D-12 3.33D-08 XBig12= 2.98D-01 4.41D-02.
      3 vectors produced by pass  5 Test12= 2.29D-12 3.33D-08 XBig12= 7.05D-02 2.15D-02.
      3 vectors produced by pass  6 Test12= 2.29D-12 3.33D-08 XBig12= 2.28D-02 1.74D-02.
      3 vectors produced by pass  7 Test12= 2.29D-12 3.33D-08 XBig12= 3.42D-03 8.48D-03.
      3 vectors produced by pass  8 Test12= 2.29D-12 3.33D-08 XBig12= 7.50D-04 3.02D-03.
      3 vectors produced by pass  9 Test12= 2.29D-12 3.33D-08 XBig12= 1.93D-04 2.13D-03.
      3 vectors produced by pass 10 Test12= 2.29D-12 3.33D-08 XBig12= 5.38D-05 9.06D-04.
      3 vectors produced by pass 11 Test12= 2.29D-12 3.33D-08 XBig12= 9.84D-06 5.06D-04.
      3 vectors produced by pass 12 Test12= 2.29D-12 3.33D-08 XBig12= 1.26D-06 1.53D-04.
      3 vectors produced by pass 13 Test12= 2.29D-12 3.33D-08 XBig12= 2.68D-07 6.30D-05.
      3 vectors produced by pass 14 Test12= 2.29D-12 3.33D-08 XBig12= 5.11D-08 3.35D-05.
      3 vectors produced by pass 15 Test12= 2.29D-12 3.33D-08 XBig12= 9.88D-09 9.90D-06.
      3 vectors produced by pass 16 Test12= 2.29D-12 3.33D-08 XBig12= 2.94D-09 5.44D-06.
      3 vectors produced by pass 17 Test12= 2.29D-12 3.33D-08 XBig12= 3.97D-10 1.77D-06.
      3 vectors produced by pass 18 Test12= 2.29D-12 3.33D-08 XBig12= 2.66D-11 5.31D-07.
      3 vectors produced by pass 19 Test12= 2.29D-12 3.33D-08 XBig12= 7.79D-12 1.63D-07.
      3 vectors produced by pass 20 Test12= 2.29D-12 3.33D-08 XBig12= 7.66D-12 3.47D-07.
      1 vectors produced by pass 21 Test12= 2.29D-12 3.33D-08 XBig12= 3.87D-12 1.78D-07.
 Inverted reduced A of dimension    64 with in-core refinement.
 End of Minotr Frequency-dependent properties file   721 does not exist.
 End of Minotr Frequency-dependent properties file   722 does not exist.
 Symmetrizing basis deriv contribution to polar:
 IMax=3 JMax=2 DiffMx= 0.00D+00
 G2DrvN: will do     8 centers at a time, making    6 passes doing MaxLOS=3.
 Calling FoFCou, ICntrl=  3107 FMM=F I1Cent=   0 AccDes= 0.00D+00.
 Calling FoFCou, ICntrl=  3107 FMM=F I1Cent=   0 AccDes= 0.00D+00.
 Calling FoFCou, ICntrl=  3107 FMM=F I1Cent=   0 AccDes= 0.00D+00.
 Calling FoFCou, ICntrl=  3107 FMM=F I1Cent=   0 AccDes= 0.00D+00.
 Calling FoFCou, ICntrl=  3107 FMM=F I1Cent=   0 AccDes= 0.00D+00.
 Calling FoFCou, ICntrl=  3107 FMM=F I1Cent=   0 AccDes= 0.00D+00.
 FoFDir/FoFCou used for L=0 through L=3.
 End of G2Drv Frequency-dependent properties file   721 does not exist.
 End of G2Drv Frequency-dependent properties file   722 does not exist.
          IDoAtm=111111111111111111111111111111111111111111111
          Differentiating once with respect to electric field.
                with respect to dipole field.
          Differentiating once with respect to nuclear coordinates.
          There are   138 degrees of freedom in the 1st order CPHF.  IDoFFX=5.
 Will reuse    3 saved solutions.
    135 vectors produced by pass  0 Test12= 6.87D-14 1.00D-09 XBig12= 1.72D-01 7.98D-02.
 AX will form    27 AO Fock derivatives at one time.
    135 vectors produced by pass  1 Test12= 6.87D-14 1.00D-09 XBig12= 1.95D-02 1.46D-02.
    132 vectors produced by pass  2 Test12= 6.87D-14 1.00D-09 XBig12= 1.35D-04 1.76D-03.
    132 vectors produced by pass  3 Test12= 6.87D-14 1.00D-09 XBig12= 7.84D-07 1.21D-04.
    132 vectors produced by pass  4 Test12= 6.87D-14 1.00D-09 XBig12= 2.07D-09 4.00D-06.
    132 vectors produced by pass  5 Test12= 6.87D-14 1.00D-09 XBig12= 6.20D-12 1.39D-07.
     89 vectors produced by pass  6 Test12= 6.87D-14 1.00D-09 XBig12= 2.31D-13 2.47D-08.
      1 vectors produced by pass  7 Test12= 6.87D-14 1.00D-09 XBig12= 6.54D-16 1.20D-09.
 Inverted reduced A of dimension   888 with in-core refinement.
 Isotropic polarizability for W=    0.000000      191.65 Bohr**3.
 End of Minotr Frequency-dependent properties file   721 does not exist.
 End of Minotr Frequency-dependent properties file   722 does not exist.

 **********************************************************************

            Population analysis using the SCF density.

 **********************************************************************

 Orbital symmetries:
       Occupied  (A) (A) (A) (A) (A) (A) (A) (A) (A) (A) (A) (A)
                 (A) (A) (A) (A) (A) (A) (A) (A) (A) (A) (A) (A)
                 (A) (A) (A) (A) (A) (A) (A) (A) (A) (A) (A) (A)
                 (A) (A) (A) (A) (A) (A) (A) (A) (A) (A) (A) (A)
                 (A) (A) (A) (A) (A) (A) (A) (A) (A) (A) (A) (A)
                 (A) (A) (A) (A) (A) (A) (A) (A) (A) (A) (A) (A)
                 (A) (A) (A) (A) (A) (A) (A) (A) (A) (A) (A) (A)
                 (A) (A) (A) (A) (A) (A) (A)
       Virtual   (A) (A) (A) (A) (A) (A) (A) (A) (A) (A) (A) (A)
                 (A) (A) (A) (A) (A) (A) (A) (A) (A) (A) (A) (A)
                 (A) (A) (A) (A) (A) (A) (A) (A) (A) (A) (A) (A)
                 (A) (A) (A) (A) (A) (A) (A) (A) (A) (A) (A) (A)
                 (A) (A) (A) (A) (A) (A) (A) (A) (A) (A) (A) (A)
                 (A) (A) (A) (A) (A) (A) (A) (A) (A) (A) (A) (A)
                 (A) (A) (A) (A) (A) (A) (A) (A) (A) (A) (A) (A)
                 (A) (A) (A) (A) (A) (A) (A) (A) (A) (A) (A) (A)
                 (A) (A) (A) (A) (A) (A) (A) (A) (A) (A) (A) (A)
                 (A) (A) (A) (A) (A) (A) (A) (A) (A) (A) (A) (A)
                 (A) (A) (A) (A) (A) (A) (A) (A) (A) (A) (A) (A)
                 (A) (A) (A) (A) (A) (A) (A) (A) (A) (A) (A) (A)
                 (A) (A) (A) (A) (A) (A) (A) (A) (A) (A) (A) (A)
                 (A) (A) (A) (A) (A) (A) (A) (A) (A) (A) (A) (A)
                 (A) (A) (A) (A) (A) (A) (A) (A) (A) (A) (A) (A)
                 (A) (A) (A) (A) (A) (A) (A) (A) (A) (A) (A) (A)
                 (A) (A) (A) (A) (A) (A) (A) (A) (A) (A) (A) (A)
                 (A) (A) (A) (A) (A) (A) (A) (A) (A) (A) (A) (A)
                 (A) (A) (A) (A) (A) (A) (A) (A) (A) (A) (A) (A)
                 (A) (A) (A) (A) (A) (A) (A) (A) (A) (A) (A) (A)
                 (A) (A) (A) (A) (A) (A) (A) (A) (A) (A) (A) (A)
                 (A) (A) (A) (A) (A) (A) (A) (A) (A) (A) (A) (A)
                 (A) (A) (A) (A) (A) (A) (A) (A) (A) (A) (A) (A)
                 (A) (A) (A) (A) (A) (A) (A) (A) (A) (A) (A) (A)
                 (A) (A) (A) (A) (A) (A) (A) (A) (A) (A) (A) (A)
                 (A) (A) (A) (A) (A) (A) (A) (A) (A) (A) (A) (A)
                 (A) (A) (A) (A) (A) (A) (A) (A) (A) (A) (A) (A)
                 (A) (A) (A) (A) (A) (A) (A) (A) (A) (A) (A) (A)
                 (A) (A) (A) (A) (A) (A) (A) (A) (A) (A) (A) (A)
                 (A) (A) (A) (A) (A) (A) (A) (A) (A) (A) (A) (A)
                 (A) (A) (A) (A) (A) (A) (A) (A) (A) (A) (A) (A)
                 (A) (A) (A) (A) (A) (A) (A) (A) (A) (A) (A) (A)
                 (A) (A) (A) (A) (A) (A) (A) (A) (A) (A) (A) (A)
                 (A) (A) (A) (A) (A) (A) (A) (A) (A) (A) (A) (A)
                 (A) (A) (A) (A) (A) (A) (A) (A) (A) (A) (A) (A)
                 (A) (A) (A) (A) (A) (A) (A) (A) (A) (A) (A) (A)
                 (A) (A) (A) (A) (A) (A) (A) (A) (A) (A) (A) (A)
                 (A) (A) (A) (A) (A) (A) (A) (A) (A) (A) (A) (A)
                 (A) (A) (A) (A) (A) (A) (A) (A) (A) (A) (A) (A)
                 (A) (A) (A) (A) (A) (A) (A) (A) (A) (A) (A) (A)
                 (A) (A) (A) (A) (A) (A) (A) (A) (A) (A) (A) (A)
                 (A) (A) (A) (A) (A) (A) (A) (A) (A) (A) (A) (A)
                 (A) (A) (A) (A) (A) (A) (A) (A) (A) (A) (A) (A)
                 (A) (A) (A) (A) (A) (A) (A) (A) (A) (A) (A) (A)
                 (A) (A) (A) (A) (A) (A) (A) (A) (A) (A) (A) (A)
                 (A) (A) (A) (A) (A) (A) (A) (A) (A) (A) (A) (A)
                 (A) (A) (A) (A) (A) (A) (A) (A) (A) (A) (A) (A)
                 (A) (A) (A) (A) (A) (A) (A) (A) (A) (A) (A) (A)
                 (A) (A) (A) (A) (A) (A) (A) (A) (A) (A) (A) (A)
                 (A) (A) (A) (A) (A) (A) (A) (A) (A) (A) (A) (A)
                 (A) (A) (A) (A) (A) (A) (A) (A) (A) (A) (A) (A)
                 (A) (A) (A) (A) (A) (A) (A) (A) (A) (A) (A) (A)
                 (A) (A) (A) (A) (A) (A) (A) (A) (A) (A) (A) (A)
                 (A) (A) (A) (A) (A) (A) (A) (A) (A) (A) (A) (A)
                 (A) (A) (A) (A) (A) (A) (A) (A) (A) (A) (A) (A)
                 (A) (A) (A) (A) (A) (A) (A) (A) (A) (A) (A) (A)
                 (A) (A) (A) (A) (A) (A) (A) (A) (A) (A) (A) (A)
                 (A) (A) (A) (A) (A) (A) (A) (A) (A) (A) (A) (A)
                 (A) (A) (A) (A) (A) (A) (A) (A) (A) (A) (A) (A)
                 (A) (A) (A) (A) (A) (A) (A) (A) (A) (A) (A) (A)
                 (A) (A) (A) (A) (A) (A) (A) (A) (A) (A) (A) (A)
                 (A) (A) (A) (A) (A) (A) (A) (A) (A) (A) (A) (A)
                 (A) (A) (A) (A) (A) (A) (A) (A) (A) (A) (A)
 The electronic state is 1-A.
 Alpha  occ. eigenvalues --  -19.21243 -19.21027 -19.18060 -19.18007 -19.17406
 Alpha  occ. eigenvalues --  -19.17252 -19.15055 -19.14785 -19.14683 -19.13884
 Alpha  occ. eigenvalues --  -19.13706 -10.31432 -10.28858 -10.28517 -10.27760
 Alpha  occ. eigenvalues --  -10.26719 -10.26588 -10.25723 -10.24474 -10.23670
 Alpha  occ. eigenvalues --  -10.23653 -10.23180 -10.21976  -1.11186  -1.08737
 Alpha  occ. eigenvalues --   -1.06350  -1.05553  -1.04665  -1.03389  -1.03176
 Alpha  occ. eigenvalues --   -1.02628  -1.00398  -0.99819  -0.98933  -0.84615
 Alpha  occ. eigenvalues --   -0.82662  -0.78962  -0.77432  -0.72731  -0.69043
 Alpha  occ. eigenvalues --   -0.67513  -0.64555  -0.64029  -0.63391  -0.61285
 Alpha  occ. eigenvalues --   -0.59052  -0.58734  -0.55733  -0.55395  -0.54597
 Alpha  occ. eigenvalues --   -0.53671  -0.53566  -0.52950  -0.52388  -0.51729
 Alpha  occ. eigenvalues --   -0.50291  -0.50148  -0.48168  -0.47526  -0.46942
 Alpha  occ. eigenvalues --   -0.46196  -0.45678  -0.44845  -0.44270  -0.43561
 Alpha  occ. eigenvalues --   -0.42730  -0.42253  -0.41120  -0.40385  -0.39453
 Alpha  occ. eigenvalues --   -0.39125  -0.38790  -0.37724  -0.36983  -0.35662
 Alpha  occ. eigenvalues --   -0.35138  -0.34659  -0.34088  -0.33372  -0.32728
 Alpha  occ. eigenvalues --   -0.31913  -0.31569  -0.31135  -0.30825  -0.29868
 Alpha  occ. eigenvalues --   -0.29496  -0.29352  -0.27843  -0.26800  -0.26440
 Alpha  occ. eigenvalues --   -0.25841
 Alpha virt. eigenvalues --   -0.04392  -0.02315  -0.01199  -0.00559   0.00266
 Alpha virt. eigenvalues --    0.01098   0.01350   0.02447   0.02778   0.03289
 Alpha virt. eigenvalues --    0.03546   0.03818   0.04668   0.04926   0.05529
 Alpha virt. eigenvalues --    0.05825   0.06246   0.07077   0.07681   0.08093
 Alpha virt. eigenvalues --    0.08464   0.08957   0.09255   0.09420   0.09667
 Alpha virt. eigenvalues --    0.09738   0.10402   0.10678   0.11581   0.11751
 Alpha virt. eigenvalues --    0.12059   0.12153   0.12985   0.13276   0.13758
 Alpha virt. eigenvalues --    0.14148   0.14355   0.14508   0.15067   0.15348
 Alpha virt. eigenvalues --    0.15496   0.15847   0.16038   0.16644   0.16945
 Alpha virt. eigenvalues --    0.17173   0.17564   0.17864   0.18150   0.18430
 Alpha virt. eigenvalues --    0.18899   0.19155   0.19369   0.19516   0.19752
 Alpha virt. eigenvalues --    0.20267   0.20497   0.20790   0.21369   0.21469
 Alpha virt. eigenvalues --    0.21677   0.21843   0.22357   0.22553   0.22920
 Alpha virt. eigenvalues --    0.23075   0.23531   0.23774   0.23809   0.24130
 Alpha virt. eigenvalues --    0.24477   0.24897   0.25148   0.25577   0.25847
 Alpha virt. eigenvalues --    0.26206   0.26422   0.26787   0.27044   0.27665
 Alpha virt. eigenvalues --    0.27885   0.28030   0.28480   0.28593   0.29113
 Alpha virt. eigenvalues --    0.29488   0.29887   0.30094   0.30483   0.30585
 Alpha virt. eigenvalues --    0.30828   0.31295   0.31642   0.31746   0.32059
 Alpha virt. eigenvalues --    0.32299   0.32584   0.32881   0.33632   0.34088
 Alpha virt. eigenvalues --    0.34155   0.34486   0.34883   0.35125   0.35460
 Alpha virt. eigenvalues --    0.36072   0.36294   0.36493   0.37073   0.37379
 Alpha virt. eigenvalues --    0.37888   0.38246   0.38334   0.38711   0.39228
 Alpha virt. eigenvalues --    0.39815   0.39825   0.40752   0.41213   0.41688
 Alpha virt. eigenvalues --    0.41948   0.42342   0.42803   0.43386   0.43568
 Alpha virt. eigenvalues --    0.44210   0.45141   0.45971   0.46028   0.46310
 Alpha virt. eigenvalues --    0.46584   0.48071   0.48442   0.48722   0.50369
 Alpha virt. eigenvalues --    0.51117   0.51894   0.52197   0.55197   0.57209
 Alpha virt. eigenvalues --    0.58299   0.59143   0.59875   0.60280   0.61190
 Alpha virt. eigenvalues --    0.61940   0.62959   0.63899   0.63983   0.64438
 Alpha virt. eigenvalues --    0.65678   0.66674   0.67161   0.68063   0.69023
 Alpha virt. eigenvalues --    0.69325   0.69736   0.71334   0.71736   0.72367
 Alpha virt. eigenvalues --    0.73208   0.74663   0.75264   0.75885   0.76865
 Alpha virt. eigenvalues --    0.77381   0.78540   0.79074   0.80114   0.81053
 Alpha virt. eigenvalues --    0.82501   0.82886   0.83505   0.84171   0.84890
 Alpha virt. eigenvalues --    0.85284   0.87006   0.87546   0.88226   0.89034
 Alpha virt. eigenvalues --    0.89370   0.89844   0.90161   0.90288   0.90762
 Alpha virt. eigenvalues --    0.91495   0.92308   0.92432   0.93007   0.93666
 Alpha virt. eigenvalues --    0.93973   0.94380   0.94763   0.95536   0.96123
 Alpha virt. eigenvalues --    0.96367   0.96446   0.96691   0.97500   0.98462
 Alpha virt. eigenvalues --    0.99488   0.99692   1.00543   1.00605   1.01268
 Alpha virt. eigenvalues --    1.01781   1.02641   1.03240   1.03599   1.04485
 Alpha virt. eigenvalues --    1.04754   1.05881   1.06230   1.07369   1.07680
 Alpha virt. eigenvalues --    1.08131   1.09058   1.09428   1.10028   1.10521
 Alpha virt. eigenvalues --    1.10753   1.11709   1.12361   1.13061   1.13676
 Alpha virt. eigenvalues --    1.14027   1.14607   1.15279   1.15529   1.15790
 Alpha virt. eigenvalues --    1.16833   1.17632   1.18031   1.18880   1.19316
 Alpha virt. eigenvalues --    1.19813   1.20176   1.20529   1.20949   1.21731
 Alpha virt. eigenvalues --    1.21887   1.22603   1.22914   1.23466   1.23971
 Alpha virt. eigenvalues --    1.24635   1.24698   1.25503   1.25880   1.26727
 Alpha virt. eigenvalues --    1.26894   1.27245   1.27881   1.28002   1.28608
 Alpha virt. eigenvalues --    1.29374   1.29902   1.30136   1.30953   1.31248
 Alpha virt. eigenvalues --    1.32820   1.34182   1.34400   1.35158   1.35835
 Alpha virt. eigenvalues --    1.36046   1.36696   1.37214   1.38283   1.39885
 Alpha virt. eigenvalues --    1.40367   1.40630   1.41477   1.42133   1.43101
 Alpha virt. eigenvalues --    1.44319   1.44527   1.44893   1.45517   1.46342
 Alpha virt. eigenvalues --    1.47442   1.48384   1.49462   1.49698   1.50543
 Alpha virt. eigenvalues --    1.50791   1.51833   1.53072   1.53627   1.54539
 Alpha virt. eigenvalues --    1.54934   1.55642   1.56548   1.57112   1.58559
 Alpha virt. eigenvalues --    1.59200   1.59915   1.61745   1.62079   1.62599
 Alpha virt. eigenvalues --    1.64114   1.64569   1.65263   1.66068   1.66544
 Alpha virt. eigenvalues --    1.67398   1.69454   1.70224   1.71143   1.71543
 Alpha virt. eigenvalues --    1.72015   1.73341   1.75015   1.75531   1.76232
 Alpha virt. eigenvalues --    1.77260   1.78017   1.79623   1.80356   1.80878
 Alpha virt. eigenvalues --    1.82435   1.83549   1.84155   1.85325   1.86018
 Alpha virt. eigenvalues --    1.86704   1.88146   1.89120   1.89428   1.89992
 Alpha virt. eigenvalues --    1.91849   1.92278   1.93204   1.93875   1.94427
 Alpha virt. eigenvalues --    1.94686   1.97885   1.98729   1.99466   2.00429
 Alpha virt. eigenvalues --    2.01345   2.03365   2.03932   2.04418   2.06568
 Alpha virt. eigenvalues --    2.08930   2.09329   2.09501   2.10458   2.13173
 Alpha virt. eigenvalues --    2.15183   2.16170   2.17886   2.18319   2.19648
 Alpha virt. eigenvalues --    2.19959   2.21322   2.22691   2.24183   2.25089
 Alpha virt. eigenvalues --    2.25397   2.26324   2.27343   2.28432   2.28682
 Alpha virt. eigenvalues --    2.31878   2.33921   2.34964   2.36524   2.39731
 Alpha virt. eigenvalues --    2.44368   2.45968   2.47329   2.48025   2.49145
 Alpha virt. eigenvalues --    2.50069   2.52035   2.52245   2.53687   2.54652
 Alpha virt. eigenvalues --    2.55778   2.56627   2.57528   2.59488   2.60636
 Alpha virt. eigenvalues --    2.60702   2.61163   2.62012   2.64260   2.65331
 Alpha virt. eigenvalues --    2.65771   2.66683   2.67545   2.67982   2.69632
 Alpha virt. eigenvalues --    2.70965   2.72034   2.73442   2.74195   2.75827
 Alpha virt. eigenvalues --    2.76928   2.77255   2.79368   2.80080   2.81427
 Alpha virt. eigenvalues --    2.81567   2.85504   2.85905   2.86436   2.87242
 Alpha virt. eigenvalues --    2.88171   2.90128   2.92492   2.93850   2.94234
 Alpha virt. eigenvalues --    2.95885   2.96322   2.96774   2.97286   2.98395
 Alpha virt. eigenvalues --    2.99594   2.99840   3.00884   3.01222   3.02355
 Alpha virt. eigenvalues --    3.03262   3.04218   3.04774   3.05356   3.07080
 Alpha virt. eigenvalues --    3.07464   3.08471   3.09110   3.10494   3.10896
 Alpha virt. eigenvalues --    3.11804   3.13698   3.14668   3.16255   3.16843
 Alpha virt. eigenvalues --    3.17807   3.20360   3.20961   3.21552   3.22250
 Alpha virt. eigenvalues --    3.23635   3.25126   3.25959   3.27123   3.28750
 Alpha virt. eigenvalues --    3.29566   3.30548   3.31093   3.32097   3.32530
 Alpha virt. eigenvalues --    3.33986   3.35353   3.36556   3.36958   3.37858
 Alpha virt. eigenvalues --    3.39317   3.39990   3.40268   3.41415   3.42050
 Alpha virt. eigenvalues --    3.46101   3.48409   3.49397   3.51058   3.51250
 Alpha virt. eigenvalues --    3.52154   3.53884   3.55025   3.56066   3.59342
 Alpha virt. eigenvalues --    3.60922   3.62024   3.64933   3.65751   3.66237
 Alpha virt. eigenvalues --    3.67894   3.68304   3.69109   3.70809   3.73897
 Alpha virt. eigenvalues --    3.74681   3.76381   3.78785   3.79290   3.79404
 Alpha virt. eigenvalues --    3.80888   3.81444   3.82837   3.84627   3.86011
 Alpha virt. eigenvalues --    3.87784   3.88852   3.90295   3.90470   3.92279
 Alpha virt. eigenvalues --    3.94337   3.94744   3.99174   4.01148   4.03677
 Alpha virt. eigenvalues --    4.05652   4.06163   4.10881   4.11989   4.13962
 Alpha virt. eigenvalues --    4.14186   4.14630   4.16869   4.17848   4.18307
 Alpha virt. eigenvalues --    4.19426   4.20103   4.22431   4.23784   4.24253
 Alpha virt. eigenvalues --    4.24736   4.25331   4.26966   4.29596   4.31707
 Alpha virt. eigenvalues --    4.31991   4.32681   4.32844   4.33997   4.35053
 Alpha virt. eigenvalues --    4.35610   4.37167   4.37730   4.38188   4.38888
 Alpha virt. eigenvalues --    4.40337   4.40871   4.41770   4.42511   4.42524
 Alpha virt. eigenvalues --    4.42872   4.43576   4.45455   4.45844   4.46586
 Alpha virt. eigenvalues --    4.46706   4.48972   4.49804   4.50292   4.50477
 Alpha virt. eigenvalues --    4.51066   4.52140   4.52973   4.54311   4.54520
 Alpha virt. eigenvalues --    4.55314   4.55580   4.56174   4.56519   4.57651
 Alpha virt. eigenvalues --    4.57875   4.58854   4.59534   4.60211   4.61220
 Alpha virt. eigenvalues --    4.61592   4.62052   4.63009   4.64086   4.64474
 Alpha virt. eigenvalues --    4.65197   4.66160   4.66566   4.67305   4.67555
 Alpha virt. eigenvalues --    4.68394   4.69389   4.70431   4.71227   4.71688
 Alpha virt. eigenvalues --    4.72961   4.73371   4.74214   4.74805   4.75097
 Alpha virt. eigenvalues --    4.76522   4.76785   4.77130   4.78349   4.79304
 Alpha virt. eigenvalues --    4.79925   4.80500   4.80593   4.81027   4.81422
 Alpha virt. eigenvalues --    4.82344   4.84055   4.84636   4.85733   4.86499
 Alpha virt. eigenvalues --    4.87568   4.88568   4.89007   4.89817   4.91090
 Alpha virt. eigenvalues --    4.92928   4.93178   4.94474   4.95453   4.96094
 Alpha virt. eigenvalues --    4.96413   4.99902   5.00172   5.00999   5.02723
 Alpha virt. eigenvalues --    5.04419   5.04999   5.08176   5.10009   5.12343
 Alpha virt. eigenvalues --    5.13368   5.14815   5.15535   5.16560   5.18127
 Alpha virt. eigenvalues --    5.18628   5.18972   5.21278   5.22452   5.23392
 Alpha virt. eigenvalues --    5.23670   5.24591   5.24890   5.26052   5.26828
 Alpha virt. eigenvalues --    5.28179   5.28702   5.30631   5.33108   5.35134
 Alpha virt. eigenvalues --    5.35491   5.35887   5.37529   5.38551   5.38721
 Alpha virt. eigenvalues --    5.40032   5.41056   5.41408   5.43124   5.43500
 Alpha virt. eigenvalues --    5.44495   5.45102   5.45438   5.45724   5.46222
 Alpha virt. eigenvalues --    5.48254   5.49360   5.49538   5.50776   5.51684
 Alpha virt. eigenvalues --    5.52560   5.53631   5.54837   5.55733   5.56281
 Alpha virt. eigenvalues --    5.59918   5.60509   5.61324   5.62369   5.63285
 Alpha virt. eigenvalues --    5.64923   5.66831   5.68059   5.71002   5.72915
 Alpha virt. eigenvalues --    5.76454   5.77723   5.79247   5.80605   5.83472
 Alpha virt. eigenvalues --    5.85518   5.87381   5.87732   5.88982   5.89988
 Alpha virt. eigenvalues --    5.91054   5.91990   5.93332   5.93464   5.94185
 Alpha virt. eigenvalues --    5.95324   5.95872   5.96315   5.97096   5.97848
 Alpha virt. eigenvalues --    6.00241   6.01234   6.02811   6.03801   6.06025
 Alpha virt. eigenvalues --    6.06059   6.07312   6.08741   6.10056   6.12875
 Alpha virt. eigenvalues --    6.13564   6.16619   6.17859   6.20132   6.22584
 Alpha virt. eigenvalues --    6.23083   6.30615   6.32020   6.37646   6.48309
 Alpha virt. eigenvalues --    6.53041   6.80349   6.98532   7.04304   7.09757
 Alpha virt. eigenvalues --    7.10344   7.15190   7.16881   7.18894   7.25709
 Alpha virt. eigenvalues --    7.34437   7.37313   7.43870   7.51103   7.68194
 Alpha virt. eigenvalues --    7.91882   8.15964  11.96553  12.15234  12.18354
 Alpha virt. eigenvalues --   12.25081  12.48323  12.58092  12.87218  12.91069
 Alpha virt. eigenvalues --   13.01753  13.10060  13.30719  13.33002  13.34975
 Alpha virt. eigenvalues --   13.41042  13.44465  13.48847  13.54752  13.60293
 Alpha virt. eigenvalues --   13.66694  13.69438  14.02580  14.18121  14.19772
          Condensed to atoms (all electrons):
              1          2          3          4          5          6
     1  O    8.058852   0.342237  -0.064721  -0.015754   0.019104  -0.007147
     2  C    0.342237   7.831991  -0.620428   0.044756  -0.041781  -1.827377
     3  C   -0.064721  -0.620428   7.068420   0.163668   0.015895   1.587739
     4  O   -0.015754   0.044756   0.163668   8.135397   0.243856  -0.198267
     5  H    0.019104  -0.041781   0.015895   0.243856   0.412409   0.000193
     6  C   -0.007147  -1.827377   1.587739  -0.198267   0.000193   9.190018
     7  O   -0.000705  -0.026039   0.002007  -0.000641   0.000494   0.269624
     8  H    0.000041   0.001810  -0.036976   0.007074  -0.000117  -0.012322
     9  C   -0.064607   0.171965  -0.545519   0.023555  -0.006319  -0.218354
    10  O   -0.000749   0.030185  -0.003997   0.000043  -0.000001  -0.004284
    11  H    0.000089  -0.004721   0.000838   0.000000   0.000000   0.000303
    12  C   -0.058491  -2.121230   0.288720   0.007904  -0.004232   1.158058
    13  O    0.001102  -0.044698   0.085706  -0.003440  -0.000069   0.112628
    14  C   -0.000777   1.882933  -1.595685   0.043073   0.018083  -3.127585
    15  O   -0.000087  -0.009891  -0.013909  -0.000031  -0.000007  -0.056055
    16  C    0.000417   0.248104  -0.163654   0.000886   0.000290  -0.451818
    17  C   -0.000758  -0.057028  -0.012991   0.000833   0.000032  -0.008634
    18  O    0.000002  -0.000686   0.005255   0.000005   0.000000   0.011281
    19  H   -0.000014   0.007023  -0.001247   0.000011   0.000000  -0.008630
    20  C   -0.000028   0.000733  -0.017060   0.000081   0.000006  -0.080008
    21  O    0.000000   0.000155  -0.000114   0.000000   0.000000  -0.000465
    22  H    0.000000  -0.000054  -0.000006   0.000000   0.000000   0.000418
    23  C   -0.000017   0.004382   0.006778   0.000455  -0.000004  -0.083567
    24  O    0.000000  -0.000034   0.000820  -0.000004   0.000000   0.002383
    25  H    0.000000  -0.000003   0.000003   0.000000   0.000000  -0.000018
    26  C   -0.000042   0.016664  -0.059055   0.000668  -0.000003  -0.145680
    27  O    0.000000  -0.000009  -0.000410   0.000001   0.000000  -0.001137
    28  C    0.000002   0.001410  -0.000732  -0.000001   0.000000   0.005352
    29  O    0.000000   0.000004   0.000009   0.000000   0.000000   0.000007
    30  H    0.000000   0.000000   0.000000   0.000000   0.000000   0.000007
    31  H    0.000000   0.000034  -0.000016   0.000000   0.000000  -0.000150
    32  H    0.000000   0.000080  -0.000055   0.000000   0.000000  -0.000570
    33  H    0.000000  -0.000818   0.002357  -0.000001   0.000000   0.010414
    34  H   -0.000001  -0.002763   0.008042   0.000015   0.000000   0.010402
    35  H    0.000000  -0.000161   0.000924   0.000000   0.000000   0.000501
    36  H    0.000000   0.000163   0.001088   0.000005   0.000000  -0.006148
    37  H    0.000000  -0.000394  -0.000619  -0.000007   0.000000  -0.001742
    38  H   -0.002264   0.053377  -0.027479   0.000114   0.000000  -0.013198
    39  H    0.005106   0.022524  -0.002680  -0.000129   0.000001  -0.004188
    40  H    0.273903   0.009986  -0.012643   0.000604  -0.001954   0.001430
    41  H   -0.005204   0.181912  -0.133845   0.002759  -0.000024  -0.094281
    42  H   -0.021586   0.433433  -0.106108   0.003634  -0.000021  -0.039481
    43  H    0.003512  -0.006005   0.207689  -0.010837  -0.002538  -0.079160
    44  H    0.000748  -0.023938  -0.051659   0.004811  -0.000163   0.380921
    45  H    0.000051  -0.052616  -0.000341   0.001725  -0.000012   0.009864
              7          8          9         10         11         12
     1  O   -0.000705   0.000041  -0.064607  -0.000749   0.000089  -0.058491
     2  C   -0.026039   0.001810   0.171965   0.030185  -0.004721  -2.121230
     3  C    0.002007  -0.036976  -0.545519  -0.003997   0.000838   0.288720
     4  O   -0.000641   0.007074   0.023555   0.000043   0.000000   0.007904
     5  H    0.000494  -0.000117  -0.006319  -0.000001   0.000000  -0.004232
     6  C    0.269624  -0.012322  -0.218354  -0.004284   0.000303   1.158058
     7  O    8.059552   0.244943  -0.000323  -0.000011   0.000000   0.025359
     8  H    0.244943   0.397797  -0.000398   0.000000   0.000000  -0.006629
     9  C   -0.000323  -0.000398   7.595091   0.154614  -0.024748  -1.318265
    10  O   -0.000011   0.000000   0.154614   8.112128   0.249050  -0.033654
    11  H    0.000000   0.000000  -0.024748   0.249050   0.415023   0.020291
    12  C    0.025359  -0.006629  -1.318265  -0.033654   0.020291   9.792798
    13  O   -0.000387  -0.000312  -0.104112   0.009015   0.000025   0.109939
    14  C   -0.062032   0.037732  -0.351685   0.015373  -0.002077  -1.880483
    15  O   -0.003141   0.000805   0.000840  -0.000083  -0.000005  -0.005641
    16  C   -0.032738   0.005362  -0.080046   0.012516  -0.000345  -0.150449
    17  C    0.002781  -0.000648   0.061367  -0.003793  -0.000351  -0.134215
    18  O    0.000205  -0.000003  -0.002637  -0.001781   0.000208   0.008496
    19  H   -0.000036   0.000000  -0.006440   0.005006  -0.000108  -0.007449
    20  C   -0.000191   0.000018   0.027231   0.000518  -0.000144  -0.047574
    21  O   -0.000001   0.000000  -0.000145  -0.000006  -0.000001   0.001463
    22  H    0.000000   0.000000  -0.000155  -0.000006   0.000000  -0.000153
    23  C   -0.005020   0.001185   0.002478  -0.000041   0.000000   0.007175
    24  O    0.000037  -0.000015  -0.000012   0.000000   0.000000  -0.000186
    25  H    0.000025   0.000000   0.000000   0.000000   0.000000   0.000008
    26  C   -0.003190   0.000244   0.009817   0.000561  -0.000012  -0.030240
    27  O   -0.000168   0.000001   0.000115   0.000002   0.000000   0.000867
    28  C   -0.000024  -0.000013  -0.000906   0.000072   0.000002   0.005482
    29  O   -0.000001   0.000000  -0.000007   0.000000   0.000000   0.000087
    30  H    0.000000   0.000000   0.000000   0.000000   0.000000  -0.000002
    31  H    0.000000   0.000000  -0.000021   0.000000   0.000000   0.000210
    32  H    0.000002   0.000000  -0.000151  -0.000002   0.000000   0.000748
    33  H    0.000007   0.000000  -0.001004  -0.000016   0.000000   0.002458
    34  H   -0.000043  -0.000001   0.001416   0.000010   0.000000   0.005341
    35  H   -0.000181  -0.000001   0.000350   0.000000   0.000000   0.002523
    36  H    0.000811   0.000003   0.000061   0.000000   0.000000   0.000549
    37  H   -0.001680  -0.000065  -0.000005   0.000000   0.000000  -0.000004
    38  H    0.000018   0.000000   0.632827  -0.047175  -0.001790  -0.314198
    39  H   -0.000005   0.000000   0.392376  -0.032114  -0.005937  -0.075045
    40  H    0.000048   0.000000   0.020717   0.000080   0.000000  -0.026237
    41  H    0.000198   0.000000   0.110658  -0.004451  -0.000079   0.016058
    42  H    0.001438   0.000033  -0.046810  -0.000432   0.000003  -0.100850
    43  H    0.003517  -0.000006   0.015957  -0.000002   0.000000   0.065760
    44  H   -0.034683  -0.005063   0.040473  -0.000011   0.000000   0.128501
    45  H    0.000218  -0.000216   0.031910  -0.000018   0.000000   0.120308
             13         14         15         16         17         18
     1  O    0.001102  -0.000777  -0.000087   0.000417  -0.000758   0.000002
     2  C   -0.044698   1.882933  -0.009891   0.248104  -0.057028  -0.000686
     3  C    0.085706  -1.595685  -0.013909  -0.163654  -0.012991   0.005255
     4  O   -0.003440   0.043073  -0.000031   0.000886   0.000833   0.000005
     5  H   -0.000069   0.018083  -0.000007   0.000290   0.000032   0.000000
     6  C    0.112628  -3.127585  -0.056055  -0.451818  -0.008634   0.011281
     7  O   -0.000387  -0.062032  -0.003141  -0.032738   0.002781   0.000205
     8  H   -0.000312   0.037732   0.000805   0.005362  -0.000648  -0.000003
     9  C   -0.104112  -0.351685   0.000840  -0.080046   0.061367  -0.002637
    10  O    0.009015   0.015373  -0.000083   0.012516  -0.003793  -0.001781
    11  H    0.000025  -0.002077  -0.000005  -0.000345  -0.000351   0.000208
    12  C    0.109939  -1.880483  -0.005641  -0.150449  -0.134215   0.008496
    13  O    7.922915   0.105232  -0.012267  -0.014916   0.042384  -0.031076
    14  C    0.105232  10.771461   0.226191  -0.865621   0.615261   0.062061
    15  O   -0.012267   0.226191   7.816987   0.294075  -0.057980  -0.007421
    16  C   -0.014916  -0.865621   0.294075  12.235108  -2.843487  -0.178906
    17  C    0.042384   0.615261  -0.057980  -2.843487   8.797448   0.307144
    18  O   -0.031076   0.062061  -0.007421  -0.178906   0.307144   8.130323
    19  H    0.034949   0.001177  -0.000351  -0.040084   0.024843   0.251409
    20  C    0.001250  -0.324984   0.004253  -1.146942  -0.196384  -0.033290
    21  O    0.000226   0.001392   0.000299   0.045785  -0.088958  -0.026819
    22  H    0.000040   0.001503   0.000019   0.012029  -0.053425   0.020465
    23  C   -0.000002   0.139199  -0.093097   0.193323  -0.207555   0.007058
    24  O    0.000047   0.001100   0.000010  -0.001952   0.009936   0.000013
    25  H    0.000001   0.000182   0.000028  -0.002592  -0.000076  -0.000001
    26  C   -0.018578  -0.439184  -0.010772  -2.065851  -0.237510   0.014063
    27  O    0.000172  -0.003251   0.003165   0.044308  -0.087730  -0.000952
    28  C    0.000144   0.034437   0.004555   0.557257  -0.272389  -0.010892
    29  O   -0.000008   0.001871  -0.000065  -0.003984   0.001921   0.000370
    30  H    0.000000   0.000080   0.000004   0.001571  -0.000482  -0.000012
    31  H    0.000010  -0.001241  -0.000032   0.057253  -0.007753   0.000787
    32  H    0.000152  -0.008247   0.000661   0.103776  -0.108703   0.003237
    33  H    0.003208   0.027725  -0.001584  -0.159090   0.383203  -0.027818
    34  H   -0.000296   0.089133  -0.039397   0.077862   0.113927  -0.000191
    35  H   -0.000057   0.056114  -0.006514   0.133725  -0.031076  -0.000219
    36  H    0.000065   0.039512   0.000207   0.063911   0.017230   0.000203
    37  H    0.000088  -0.013952  -0.003980   0.022933  -0.017199  -0.000043
    38  H   -0.004383   0.022547   0.000142  -0.002288   0.003038   0.000181
    39  H    0.003045   0.015146  -0.000073   0.001769  -0.000006  -0.000123
    40  H   -0.000270  -0.004793   0.000001   0.000079  -0.000067   0.000000
    41  H   -0.056851   0.188633  -0.002161   0.006464   0.005712   0.001023
    42  H   -0.002740   0.121378  -0.000535  -0.001200   0.000641  -0.000010
    43  H    0.002143   0.033616   0.001434  -0.011085   0.004862   0.000059
    44  H    0.008722  -0.195988  -0.001202  -0.033225   0.001652  -0.000013
    45  H   -0.036111   0.218924  -0.016740  -0.045666   0.003825  -0.000997
             19         20         21         22         23         24
     1  O   -0.000014  -0.000028   0.000000   0.000000  -0.000017   0.000000
     2  C    0.007023   0.000733   0.000155  -0.000054   0.004382  -0.000034
     3  C   -0.001247  -0.017060  -0.000114  -0.000006   0.006778   0.000820
     4  O    0.000011   0.000081   0.000000   0.000000   0.000455  -0.000004
     5  H    0.000000   0.000006   0.000000   0.000000  -0.000004   0.000000
     6  C   -0.008630  -0.080008  -0.000465   0.000418  -0.083567   0.002383
     7  O   -0.000036  -0.000191  -0.000001   0.000000  -0.005020   0.000037
     8  H    0.000000   0.000018   0.000000   0.000000   0.001185  -0.000015
     9  C   -0.006440   0.027231  -0.000145  -0.000155   0.002478  -0.000012
    10  O    0.005006   0.000518  -0.000006  -0.000006  -0.000041   0.000000
    11  H   -0.000108  -0.000144  -0.000001   0.000000   0.000000   0.000000
    12  C   -0.007449  -0.047574   0.001463  -0.000153   0.007175  -0.000186
    13  O    0.034949   0.001250   0.000226   0.000040  -0.000002   0.000047
    14  C    0.001177  -0.324984   0.001392   0.001503   0.139199   0.001100
    15  O   -0.000351   0.004253   0.000299   0.000019  -0.093097   0.000010
    16  C   -0.040084  -1.146942   0.045785   0.012029   0.193323  -0.001952
    17  C    0.024843  -0.196384  -0.088958  -0.053425  -0.207555   0.009936
    18  O    0.251409  -0.033290  -0.026819   0.020465   0.007058   0.000013
    19  H    0.335125   0.007143   0.001034  -0.000575  -0.001591   0.000001
    20  C    0.007143   7.384834   0.285956  -0.000569  -0.069489   0.001263
    21  O    0.001034   0.285956   8.072265   0.253339   0.000235  -0.000066
    22  H   -0.000575  -0.000569   0.253339   0.396459   0.000088   0.000001
    23  C   -0.001591  -0.069489   0.000235   0.000088   5.948178   0.320053
    24  O    0.000001   0.001263  -0.000066   0.000001   0.320053   8.096827
    25  H    0.000000   0.000460   0.000000   0.000000  -0.063552   0.248537
    26  C   -0.006706   0.709650  -0.001248  -0.000704  -0.845501  -0.134087
    27  O    0.000021  -0.059019  -0.000698   0.000202  -0.093907  -0.003288
    28  C    0.003834  -0.262340  -0.079732   0.015286   0.020325  -0.015284
    29  O    0.000001  -0.067538   0.005126  -0.000468   0.001641   0.001138
    30  H    0.000000   0.009866  -0.000764   0.000017  -0.000021   0.000017
    31  H    0.000008  -0.130554   0.006311  -0.000310   0.002386  -0.000315
    32  H   -0.000164   0.270176  -0.028976  -0.002841   0.007738  -0.000178
    33  H   -0.006267  -0.048040  -0.000144   0.000149   0.006401   0.000067
    34  H    0.000127  -0.010022  -0.000195  -0.000013   0.030841   0.001641
    35  H    0.000017  -0.037107   0.000028  -0.000002   0.087129   0.002430
    36  H   -0.000001  -0.014437   0.000022   0.000000   0.546860  -0.030913
    37  H    0.000000   0.004590  -0.000007   0.000000   0.478013  -0.039418
    38  H   -0.000058   0.000119   0.000000   0.000000  -0.000014   0.000000
    39  H    0.000037   0.000070   0.000000   0.000000   0.000003   0.000000
    40  H    0.000000  -0.000001   0.000000   0.000000   0.000002   0.000000
    41  H   -0.000891   0.000731   0.000000   0.000000  -0.000076   0.000000
    42  H   -0.000007  -0.000032   0.000000   0.000000   0.000010   0.000000
    43  H   -0.000016   0.000159   0.000000   0.000000   0.000032   0.000000
    44  H   -0.000010   0.000254   0.000000   0.000000   0.000684  -0.000001
    45  H   -0.000177   0.007003   0.000006  -0.000001  -0.002759   0.000006
             25         26         27         28         29         30
     1  O    0.000000  -0.000042   0.000000   0.000002   0.000000   0.000000
     2  C   -0.000003   0.016664  -0.000009   0.001410   0.000004   0.000000
     3  C    0.000003  -0.059055  -0.000410  -0.000732   0.000009   0.000000
     4  O    0.000000   0.000668   0.000001  -0.000001   0.000000   0.000000
     5  H    0.000000  -0.000003   0.000000   0.000000   0.000000   0.000000
     6  C   -0.000018  -0.145680  -0.001137   0.005352   0.000007   0.000007
     7  O    0.000025  -0.003190  -0.000168  -0.000024  -0.000001   0.000000
     8  H    0.000000   0.000244   0.000001  -0.000013   0.000000   0.000000
     9  C    0.000000   0.009817   0.000115  -0.000906  -0.000007   0.000000
    10  O    0.000000   0.000561   0.000002   0.000072   0.000000   0.000000
    11  H    0.000000  -0.000012   0.000000   0.000002   0.000000   0.000000
    12  C    0.000008  -0.030240   0.000867   0.005482   0.000087  -0.000002
    13  O    0.000001  -0.018578   0.000172   0.000144  -0.000008   0.000000
    14  C    0.000182  -0.439184  -0.003251   0.034437   0.001871   0.000080
    15  O    0.000028  -0.010772   0.003165   0.004555  -0.000065   0.000004
    16  C   -0.002592  -2.065851   0.044308   0.557257  -0.003984   0.001571
    17  C   -0.000076  -0.237510  -0.087730  -0.272389   0.001921  -0.000482
    18  O   -0.000001   0.014063  -0.000952  -0.010892   0.000370  -0.000012
    19  H    0.000000  -0.006706   0.000021   0.003834   0.000001   0.000000
    20  C    0.000460   0.709650  -0.059019  -0.262340  -0.067538   0.009866
    21  O    0.000000  -0.001248  -0.000698  -0.079732   0.005126  -0.000764
    22  H    0.000000  -0.000704   0.000202   0.015286  -0.000468   0.000017
    23  C   -0.063552  -0.845501  -0.093907   0.020325   0.001641  -0.000021
    24  O    0.248537  -0.134087  -0.003288  -0.015284   0.001138   0.000017
    25  H    0.429385   0.052935   0.000637   0.000719  -0.000001   0.000000
    26  C    0.052935  10.162003   0.270082  -0.673592  -0.022062  -0.006968
    27  O    0.000637   0.270082   7.912788   0.157506  -0.067510  -0.000964
    28  C    0.000719  -0.673592   0.157506   5.649883   0.358546  -0.013503
    29  O   -0.000001  -0.022062  -0.067510   0.358546   7.964652   0.269116
    30  H    0.000000  -0.006968  -0.000964  -0.013503   0.269116   0.414190
    31  H    0.000000   0.006720  -0.052013   0.402224  -0.018048  -0.008596
    32  H    0.000000   0.036984  -0.003520  -0.032411  -0.000485  -0.000081
    33  H    0.000000   0.063359   0.000893  -0.014056   0.000480   0.000003
    34  H   -0.000015  -0.060576   0.001502   0.002538  -0.000067   0.000001
    35  H   -0.000128   0.017918  -0.026989   0.039067  -0.000683   0.000019
    36  H   -0.004907  -0.343585   0.006474   0.011521   0.000053   0.000001
    37  H   -0.002481  -0.093664   0.002537  -0.000669   0.000019   0.000000
    38  H    0.000000   0.000172   0.000000  -0.000009   0.000000   0.000000
    39  H    0.000000   0.000056   0.000000  -0.000001   0.000000   0.000000
    40  H    0.000000   0.000001   0.000000   0.000000   0.000000   0.000000
    41  H    0.000000   0.001898   0.000001  -0.000049   0.000000   0.000000
    42  H    0.000000   0.000255   0.000000  -0.000002   0.000000   0.000000
    43  H    0.000000  -0.000500   0.000000   0.000006   0.000000   0.000000
    44  H    0.000000  -0.001279   0.000004   0.000053   0.000000   0.000000
    45  H    0.000000   0.011534   0.000158  -0.000052   0.000001   0.000000
             31         32         33         34         35         36
     1  O    0.000000   0.000000   0.000000  -0.000001   0.000000   0.000000
     2  C    0.000034   0.000080  -0.000818  -0.002763  -0.000161   0.000163
     3  C   -0.000016  -0.000055   0.002357   0.008042   0.000924   0.001088
     4  O    0.000000   0.000000  -0.000001   0.000015   0.000000   0.000005
     5  H    0.000000   0.000000   0.000000   0.000000   0.000000   0.000000
     6  C   -0.000150  -0.000570   0.010414   0.010402   0.000501  -0.006148
     7  O    0.000000   0.000002   0.000007  -0.000043  -0.000181   0.000811
     8  H    0.000000   0.000000   0.000000  -0.000001  -0.000001   0.000003
     9  C   -0.000021  -0.000151  -0.001004   0.001416   0.000350   0.000061
    10  O    0.000000  -0.000002  -0.000016   0.000010   0.000000   0.000000
    11  H    0.000000   0.000000   0.000000   0.000000   0.000000   0.000000
    12  C    0.000210   0.000748   0.002458   0.005341   0.002523   0.000549
    13  O    0.000010   0.000152   0.003208  -0.000296  -0.000057   0.000065
    14  C   -0.001241  -0.008247   0.027725   0.089133   0.056114   0.039512
    15  O   -0.000032   0.000661  -0.001584  -0.039397  -0.006514   0.000207
    16  C    0.057253   0.103776  -0.159090   0.077862   0.133725   0.063911
    17  C   -0.007753  -0.108703   0.383203   0.113927  -0.031076   0.017230
    18  O    0.000787   0.003237  -0.027818  -0.000191  -0.000219   0.000203
    19  H    0.000008  -0.000164  -0.006267   0.000127   0.000017  -0.000001
    20  C   -0.130554   0.270176  -0.048040  -0.010022  -0.037107  -0.014437
    21  O    0.006311  -0.028976  -0.000144  -0.000195   0.000028   0.000022
    22  H   -0.000310  -0.002841   0.000149  -0.000013  -0.000002   0.000000
    23  C    0.002386   0.007738   0.006401   0.030841   0.087129   0.546860
    24  O   -0.000315  -0.000178   0.000067   0.001641   0.002430  -0.030913
    25  H    0.000000   0.000000   0.000000  -0.000015  -0.000128  -0.004907
    26  C    0.006720   0.036984   0.063359  -0.060576   0.017918  -0.343585
    27  O   -0.052013  -0.003520   0.000893   0.001502  -0.026989   0.006474
    28  C    0.402224  -0.032411  -0.014056   0.002538   0.039067   0.011521
    29  O   -0.018048  -0.000485   0.000480  -0.000067  -0.000683   0.000053
    30  H   -0.008596  -0.000081   0.000003   0.000001   0.000019   0.000001
    31  H    0.612547   0.006056   0.002455  -0.000053   0.002245  -0.000002
    32  H    0.006056   0.617165   0.006513   0.000637  -0.000091  -0.000056
    33  H    0.002455   0.006513   0.609813   0.006343   0.000796  -0.000010
    34  H   -0.000053   0.000637   0.006343   0.633294   0.006318   0.009887
    35  H    0.002245  -0.000091   0.000796   0.006318   0.627157   0.006749
    36  H   -0.000002  -0.000056  -0.000010   0.009887   0.006749   0.623090
    37  H    0.000002  -0.000002  -0.000002   0.000282  -0.005087  -0.050517
    38  H    0.000000   0.000000  -0.000002   0.000000   0.000000   0.000000
    39  H    0.000000   0.000000   0.000000   0.000000   0.000000   0.000000
    40  H    0.000000   0.000000   0.000000   0.000000   0.000000   0.000000
    41  H    0.000000   0.000000  -0.000006  -0.000003   0.000000   0.000000
    42  H    0.000000   0.000000   0.000000   0.000000   0.000000   0.000000
    43  H    0.000000   0.000000   0.000000  -0.000008   0.000000   0.000000
    44  H    0.000000   0.000000  -0.000003  -0.000009   0.000007   0.000002
    45  H    0.000000  -0.000007  -0.000019   0.007134  -0.000002   0.000052
             37         38         39         40         41         42
     1  O    0.000000  -0.002264   0.005106   0.273903  -0.005204  -0.021586
[...]
 3632,0.00000396,-0.01096819,-0.00265350,0.00338533,0.00125008,0.000916
 10,0.00156201,0.00009307,-0.00101972,-0.00029178,0.00014458,0.00009576
 ,0.00015940,-0.00001590,0.00004226,-0.00001379,-0.00005123,-0.00004455
 ,-0.00007456,0.00004163,0.00001516,0.00011694,-0.00000548,0.00003786,-
 0.00010050,0.00000564,0.00000341,0.00000198,0.00001149,0.00000490,0.00
 001451,-0.00000490,0.00000724,-0.00001902,-0.00002313,-0.00001631,0.00
 001196,0.00001748,0.00001577,-0.00000267,-0.00000918,-0.00000206,0.000
 00465,-0.00002365,-0.00000917,-0.00000255,0.00001765,0.00001962,-0.000
 00066,-0.00002422,-0.00001851,-0.00001419,0.00000756,0.00000445,0.0000
 1078,-0.00000257,0.00000052,-0.00000025,0.00000456,0.00000067,0.000002
 30,0.00000216,-0.00000127,-0.00000296,0.00001406,-0.00000010,0.0000072
 9,0.00000681,-0.00001031,-0.00000424,0.00000817,-0.00000088,0.00000621
 ,0.00000987,0.00000042,-0.00000126,0.00000292,0.00000443,0.00000123,0.
 00024790,-0.00083400,0.00005790,-0.00011490,-0.00006349,-0.00003923,0.
 00177408,-0.00008120,-0.00079200,0.00048349,-0.00109460,0.00116580,0.3
 7586475,-0.00783240,0.00176793,-0.00440036,-0.01786293,-0.04505733,0.0
 0329580,0.03194198,-0.00182843,-0.00748020,-0.00208782,0.00233337,0.00
 014572,0.00037880,0.00007728,0.00007473,0.00302737,0.00007069,0.000633
 67,-0.00048010,0.00030018,0.00019337,0.00001209,-0.00009254,-0.0000346
 5,-0.00110125,0.00236452,-0.00016404,0.00046753,-0.00009568,-0.0000737
 3,0.00006513,-0.00009150,-0.00002710,-0.03074597,-0.00374671,0.0048238
 1,0.00204996,0.00170728,-0.00050992,0.00046517,-0.00063958,-0.00010755
 ,-0.00003451,0.00011347,0.00002128,-0.00000785,0.00001015,0.00000136,-
 0.00003152,-0.00002368,-0.00002473,0.00006911,0.00002981,0.00001611,-0
 .00009129,-0.00002199,-0.00007422,0.00001023,0.00000296,0.00000137,0.0
 0000420,0.00000006,0.00000392,-0.00000373,0.00000371,-0.00000867,0.000
 01080,0.00000194,-0.00000308,-0.00000469,0.00000012,0.00000180,0.00000
 257,0.00000074,-0.00000043,-0.00000735,0.00000513,-0.00000437,0.000001
 89,-0.00000104,0.00000124,-0.00000888,-0.00000248,-0.00000415,0.000002
 17,-0.00000020,0.00000464,-0.00000080,0.00000109,0.00000004,0.00000184
 ,0.00000010,0.00000076,0.00000003,-0.00000087,-0.00000133,0.00001070,0
 .00000436,0.00000706,-0.00000199,-0.00000381,0.00001576,0.00000052,0.0
 0000162,-0.00000083,-0.00000378,-0.00000116,0.00000244,0.00000105,-0.0
 0000045,0.00000142,0.00064204,-0.00035707,0.00008701,-0.00007120,-0.00
 007422,-0.00020508,-0.00059424,0.00126299,0.00023914,-0.00191375,-0.00
 327479,0.00367529,0.02342436,0.04987342,-0.04262394,-0.00656592,-0.023
 51786,0.02512886,0.00180520,-0.03977233,0.01085984,0.00037656,-0.00172
 663,-0.00093340,0.00016180,0.00076889,-0.00011595,-0.00045016,-0.00028
 149,0.00249649,-0.00215052,-0.00063879,-0.00031579,0.00045360,-0.00016
 184,0.00003813,-0.00001283,0.00006403,0.00023346,-0.00156048,0.0000260
 7,-0.00012093,0.00017224,0.00000562,-0.00007344,0.00003086,-0.00001508
 ,0.02573380,0.00506687,-0.00181542,-0.00213968,-0.00100786,0.00165925,
 0.00062157,0.00028817,-0.00049977,-0.00009427,-0.00003789,-0.00013652,
 -0.00000898,-0.00003601,-0.00001222,0.00005740,0.00003624,0.00005449,-
 0.00010962,-0.00005160,-0.00004452,0.00013377,0.00004418,0.00006143,-0
 .00001166,-0.00000416,0.00000016,-0.00000496,-0.00000151,-0.00001412,0
 .00000090,-0.00000609,0.00001794,0.00001028,0.00001401,0.00000195,-0.0
 0000865,-0.00001499,-0.00000783,0.00000338,0.00000225,-0.00000049,0.00
 002001,0.00000566,0.00000181,-0.00001220,-0.00000791,-0.00000908,0.000
 01629,0.00000843,0.00001793,-0.00000358,-0.00000222,-0.00001616,0.0000
 0200,-0.00000085,0.00000188,-0.00000298,-0.00000001,-0.00000199,-0.000
 00131,0.00000059,0.00000323,-0.00001571,-0.00000009,-0.00001057,-0.000
 00659,0.00000682,0.00001146,-0.00000550,-0.00000005,-0.00000510,-0.000
 00683,0.00000039,0.00000079,0.00000154,-0.00000123,0.00000196,-0.00037
 308,0.00036303,0.00009197,-0.00006386,0.00019835,0.00011639,-0.0039524
 3,0.00001344,0.00262329,0.00140630,0.00326531,-0.00337228,-0.01551455,
 0.00275162,0.06818355,0.00088956,0.00046920,0.00102054,-0.01244817,-0.
 00089157,0.00125583,-0.33138881,-0.01442770,0.07103374,0.00472004,-0.0
 0592075,0.00530650,-0.00001653,-0.00070951,0.00011042,-0.01963773,0.00
 259330,0.00242371,0.00098051,-0.00149600,-0.00057086,0.00002836,0.0001
 9340,0.00000960,0.00074153,0.00017581,-0.00006420,-0.00004062,0.000095
 09,0.00001978,0.00001202,0.00003525,-0.00000943,-0.00077244,-0.0016658
 8,0.00039942,0.00067330,0.00015394,-0.00020848,-0.00313952,-0.00152159
 ,0.00230035,0.00152862,-0.00018406,0.00056310,0.00005380,0.00015553,-0
 .00032195,-0.00004574,-0.00001173,-0.00007143,0.00007402,-0.00005534,0
 .00011146,-0.00006712,0.00007647,-0.00003374,0.00001358,0.00001888,-0.
 00001839,-0.00000092,-0.00003048,0.00003634,0.00000391,0.00002066,-0.0
 0002633,-0.00005665,-0.00006328,-0.00000321,0.00003659,0.00006047,0.00
 002633,-0.00001581,-0.00000993,0.00000625,0.00000162,-0.00002450,-0.00
 003851,0.00001427,0.00000891,0.00004810,-0.00002976,0.00000631,-0.0000
 5987,0.00000349,-0.00000059,0.00004808,-0.00000464,0.00000241,-0.00000
 676,0.00000635,-0.00000152,0.00000471,0.00000453,-0.00000234,-0.000003
 10,0.00001411,-0.00000425,0.00000759,0.00001615,-0.00003242,-0.0000522
 8,0.00000104,-0.00000260,0.00001858,0.00002690,0.00000267,-0.00000809,
 -0.00000119,0.00000180,0.00001005,0.00008763,-0.00037037,-0.00002949,-
 0.00000502,-0.00004508,-0.00003122,0.00018710,-0.00002709,-0.00011711,
 0.00158948,0.00032643,-0.00042296,-0.00030605,0.00143309,0.00058140,0.
 35576194,-0.00171351,0.00109865,-0.00015137,0.02969901,-0.00209225,-0.
 00574610,-0.01826652,-0.04162393,-0.00071285,-0.02783664,-0.01332009,0
 .01962926,-0.00027327,-0.00066153,-0.00095399,-0.00917645,0.00194305,0
 .00102771,0.00083195,0.00043942,0.00020854,0.00013390,0.00002669,0.000
 39488,-0.00006260,0.00012677,-0.00008844,-0.00014629,-0.00011797,0.000
 06678,0.00000157,0.00001017,0.00000833,0.00325090,0.00107441,-0.001778
 56,-0.00034949,0.00014202,-0.00016565,0.00079554,0.00024818,0.00251287
 ,0.00025713,-0.00025752,0.00013580,0.00005927,0.00002322,-0.00007184,0
 .00002559,0.00002844,0.00003609,-0.00002046,-0.00000648,-0.00005816,0.
 00001007,-0.00003435,0.00005473,-0.00000681,0.00000354,-0.00000565,-0.
 00000267,-0.00001073,-0.00000182,0.00000060,-0.00000185,0.00000646,-0.
 00003099,-0.00001246,-0.00000981,0.00001844,0.00001170,0.00001428,-0.0
 0000892,-0.00000548,-0.00000347,-0.00000034,0.00000201,0.00000418,0.00
 000081,-0.00001037,0.00001116,0.00000202,0.00001752,-0.00000940,-0.000
 00187,-0.00000470,0.00000619,-0.00000060,0.00000050,-0.00000200,0.0000
 0098,-0.00000199,0.00000039,0.00000222,-0.00000002,0.00000049,-0.00000
 614,-0.00000442,-0.00000155,-0.00000451,0.00000792,-0.00001860,-0.0000
 0045,-0.00000652,0.00000318,0.00001637,0.00000537,-0.00000562,-0.00000
 699,0.00000052,0.00000242,-0.00021662,0.00006429,0.00001830,0.00003836
 ,0.00001899,0.00001908,-0.00017868,-0.00002166,0.00031245,-0.00048960,
 -0.00102265,0.00021005,0.00200786,-0.00454925,-0.00171264,0.02187776,0
 .05791623,-0.00112185,0.00048670,0.00095860,0.01697441,-0.00262753,-0.
 00133390,0.07498486,-0.00167663,-0.06076773,0.02244261,0.01490365,-0.0
 1200784,0.00122998,0.00053782,0.00023610,-0.02639501,0.00142865,0.0039
 0453,0.00110859,-0.00090038,0.00026334,-0.00007506,-0.00003472,-0.0002
 3463,-0.00050135,-0.00004926,-0.00007005,0.00000474,-0.00010339,-0.000
 02135,-0.00001046,-0.00002074,0.00000803,0.00026547,0.00230741,-0.0001
 9298,0.00046879,-0.00053375,-0.00022294,-0.00489432,-0.00033026,-0.001
 78262,0.00009659,0.00015194,0.00008305,0.00001364,0.00001465,0.0000935
 1,-0.00001334,-0.00001702,-0.00004249,0.00001148,-0.00002402,0.0000454
 1,0.00000820,0.00004614,-0.00002763,0.00000345,0.00000530,0.00000270,0
 .00000030,-0.00000009,0.00000355,0.00000220,0.00000412,-0.00000553,-0.
 00001871,-0.00000224,0.00000631,0.00000980,0.00000004,-0.00000004,-0.0
 0000241,-0.00000014,-0.00000071,0.00000029,-0.00000016,0.00001797,0.00
 000737,0.00000191,-0.00000442,-0.00000441,-0.00000406,0.00000007,0.000
 00116,0.,0.00000036,0.,0.00000048,0.00000083,0.00000100,-0.00000013,0.
 00000079,0.00000145,0.00000023,-0.00000217,0.00000291,-0.00000839,0.00
 000461,0.00004918,-0.00000059,-0.00004579,0.00000983,-0.00000068,0.000
 01343,0.00001185,0.00000047,-0.00000659,-0.00000358,0.00000760,0.00000
 395,-0.00006362,0.00021502,0.00003360,0.00001713,-0.00000135,0.0000089
 5,-0.00015436,0.00035601,0.00018646,-0.00089430,0.00044842,0.00060786,
 0.00077191,-0.00211014,-0.00074325,-0.08050111,-0.01267062,0.07691945,
 0.00142811,0.00040619,0.00055562,-0.00179290,0.00188282,0.00171963,-0.
 02412805,0.00075136,0.00300037,0.00195482,0.00025499,0.00013333,0.0000
 1826,0.00010012,0.00010697,-0.30868425,0.08038394,0.06333217,0.0089263
 0,0.00200179,-0.00084702,0.00102926,0.00045926,0.00040379,-0.00012986,
 -0.00009970,0.00003909,0.00010861,0.00010471,-0.00005507,-0.00001504,-
 0.00002030,-0.00000574,-0.00049504,-0.00072955,0.00008571,0.00235769,-
 0.00014731,-0.00117505,-0.01595339,0.00232691,0.00290733,0.00112092,-0
 .00002754,-0.00015586,0.00010857,0.00000866,0.00011204,-0.00000810,0.0
 0007731,-0.00002596,0.00011071,-0.00011233,-0.00009188,-0.00014568,-0.
 00000086,0.00018189,0.00000467,0.00002082,-0.00000666,0.00000087,-0.00
 003834,0.00000375,-0.00000547,0.00001040,-0.00000062,-0.00001994,-0.00
 002349,-0.00005841,0.00001852,0.00002321,0.00005602,-0.00000089,-0.000
 00912,-0.00001464,-0.00000597,0.00001022,-0.00000114,0.00000871,-0.000
 05515,0.00004995,-0.00001272,0.00005919,-0.00002980,-0.00000022,-0.000
 01675,0.00002458,-0.00000300,0.00000532,-0.00000383,0.00000858,-0.0000
 0650,0.00000339,0.00000989,-0.00000254,-0.00000738,0.00001686,-0.00002
 576,0.00002269,0.00011799,-0.00001339,-0.00016045,0.00001198,0.0000047
 0,0.00002896,0.00002507,-0.00000344,-0.00000765,-0.00002119,-0.0000061
 2,-0.00001526,0.00007835,-0.00008011,-0.00000080,0.00000928,-0.0000204
 3,-0.00002221,-0.00003293,-0.00018819,-0.00028996,0.00014658,0.0003938
 1,-0.00011415,0.00238038,-0.00073023,-0.00049895,-0.00165743,-0.000783
 83,-0.00307996,0.33325193,-0.00038972,-0.00052792,-0.00006072,-0.00229
 063,-0.00086935,-0.00315576,0.00000218,0.00204802,-0.00036203,-0.00015
 520,0.00027981,-0.00023513,-0.00003330,0.00000037,-0.00001364,0.081982
 60,-0.05823442,-0.01207492,0.02762323,-0.04075341,-0.02096018,0.001345
 48,0.00074593,-0.00065773,-0.00001899,-0.00005513,-0.00006657,0.000010
 60,0.00002515,0.00000058,-0.00000067,-0.00000112,-0.00000702,-0.000255
 77,-0.00028107,0.00004744,0.00056357,0.00210403,-0.00004180,-0.0220223
 3,0.00417480,0.00622885,0.00101617,0.00022592,-0.00097055,-0.00023682,
 0.00008046,-0.00009040,-0.00003428,0.00001031,-0.00014086,0.00009704,-
 0.00018203,0.00010315,-0.00014600,0.00010927,0.00014032,0.00001250,0.0
 0000216,-0.00000514,0.00000130,0.00000226,0.00003023,0.00000695,0.0000
 1666,-0.00002854,-0.00007919,-0.00004206,0.00011871,0.00000906,0.00003
 549,-0.00008472,-0.00001221,0.00000716,0.00004739,0.00010840,-0.000111
 27,-0.00006668,-0.00000785,0.00008428,0.00000344,-0.00001791,-0.000051
 19,-0.00002238,0.00000549,0.00001630,0.00001344,-0.00000029,-0.0000029
 3,-0.00000088,-0.00000069,0.00000747,0.00000150,0.00000039,-0.00000127
 ,-0.00000283,0.00001756,-0.00000266,0.00001350,0.00011653,-0.00007515,
 0.00005693,-0.00000483,0.00002784,0.00001298,-0.00001478,-0.00001418,0
 .00001154,0.00009660,0.00000396,0.00003311,0.00000642,-0.00002901,0.00
 000201,0.00000612,-0.00000887,0.00000683,0.00001249,0.00008631,0.00007
 050,0.00016265,0.00005263,-0.00001893,-0.00092116,-0.00003234,-0.00144
 879,-0.00051444,0.00009375,-0.00013004,-0.08460516,0.09364209,0.000271
 81,0.00000865,0.00018099,-0.00352153,-0.00000874,-0.00011656,-0.031557
 61,0.00389928,0.00152935,0.00150780,-0.00058967,0.00121155,0.00028749,
 -0.00011715,0.00021837,0.06467832,-0.01295121,-0.05650699,0.00922431,-
 0.01624161,-0.00153532,-0.00028805,0.00040940,0.00025483,0.00003887,0.
 00000379,0.00009367,-0.00002477,-0.00002842,-0.00000880,0.00000463,0.0
 0000187,0.00000590,-0.00003248,-0.00005365,-0.00004644,-0.00270950,-0.
 00217106,0.00178880,0.03154178,-0.00488392,-0.00746429,-0.00139371,-0.
 00005182,0.00163227,0.00018079,-0.00019178,-0.00011433,0.00000170,-0.0
 0005331,0.00018164,-0.00013104,0.00018904,0.00001069,0.00018938,-0.000
 06691,-0.00021774,-0.00000642,-0.00002676,-0.00001199,-0.00000955,0.00
 000635,-0.00000006,0.00000337,-0.00000924,0.00001517,0.00001618,0.0000
 1453,0.00004467,-0.00002945,-0.00001382,-0.00005227,0.00000440,0.00000
 745,0.00001660,-0.00000472,-0.00000893,-0.00001785,-0.00002611,0.00003
 099,0.00000300,0.00002543,-0.00001752,0.00001064,-0.00000703,0.0000067
 2,-0.00000861,0.00000353,-0.00000319,-0.00000057,-0.00000857,0.0000049
 2,-0.00000381,-0.00000955,0.00000167,0.00000729,-0.00002549,0.00003635
 ,-0.00002395,-0.00026745,0.00005338,0.00000640,-0.00003705,0.00000057,
 -0.00005682,-0.00003984,0.00000185,0.00001702,0.00005144,-0.00000858,0
 .00001408,-0.00000904,-0.00000994,0.00001308,-0.00001484,0.00001231,0.
 00000040,0.00005637,0.00002083,-0.00002976,0.00032501,-0.00003406,-0.0
 0024960,-0.00004745,-0.00077559,-0.00103245,-0.00252042,-0.00108390,-0
 .00388769,-0.06724976,0.03147966,0.06675576,0.00000693,-0.00005972,0.0
 0012918,0.00050230,0.00055851,-0.00020993,-0.00094442,0.00010604,-0.00
 243940,0.00107161,0.00048817,-0.00080257,-0.00000881,0.00004841,0.0001
 3495,-0.01536146,0.00131251,0.00361870,0.00072463,-0.00113707,-0.00020
 967,-0.00003483,-0.00008284,-0.00015230,0.00027907,-0.00012427,0.00034
 901,0.00004307,0.00005392,-0.00000991,-0.00000771,-0.00001930,-0.00000
 174,-0.00014688,-0.00012684,-0.00009196,-0.00058177,0.00900345,0.00220
 303,-0.34168859,0.03858992,0.03543544,-0.01800609,-0.00003683,-0.01066
 514,0.00061326,-0.00058102,0.00338550,-0.00006190,-0.00007689,-0.00061
 843,0.00053838,-0.00074681,0.00024167,-0.00064886,0.00021548,0.0006498
 3,0.00003257,0.00005504,0.00006853,0.00004988,0.00007832,-0.00002609,-
 0.00001870,0.00001212,-0.00005041,-0.00021591,-0.00005349,-0.00000809,
 0.00010251,-0.00000882,0.00003148,-0.00002366,-0.00001545,-0.00001405,
 0.00059302,-0.00009858,0.00016445,0.00004189,-0.00004810,-0.00013115,-
 0.00004306,-0.00004861,0.00006050,0.00002313,0.00000692,-0.00004160,-0
 .00000218,0.00000198,0.00000874,0.00001512,0.00000091,0.00000212,0.000
 01941,0.00000093,-0.00002695,-0.00001778,-0.00016005,0.00015417,0.0014
 6827,0.00001058,-0.00100143,0.00016789,0.00012932,0.00033343,0.0001300
 9,-0.00001448,-0.00005419,-0.00005841,0.00005552,-0.00000854,0.0000037
 4,-0.00016653,-0.00012658,-0.00000323,0.00013859,0.00005810,-0.0000162
 2,-0.00000372,0.00001645,0.00014962,0.00036925,0.00105226,-0.00001645,
 -0.00040632,-0.00032661,0.00216365,0.00055389,-0.00076533,-0.00014080,
 -0.00144111,0.00155880,0.36930768,0.00013102,0.00028783,-0.00015658,-0
 .00063666,-0.00079517,-0.00000482,-0.00183272,0.00038334,-0.00073669,0
 .00040523,-0.00010652,0.00011732,0.00004129,-0.00006179,-0.00003421,-0
 .02303547,0.00500710,0.00775287,0.00165588,0.00105804,-0.00112271,0.00
 028171,0.00015463,0.00002061,-0.00034870,-0.00004631,-0.00075276,-0.00
 009502,-0.00019374,0.00006808,-0.00000972,0.00005241,0.00000956,0.0032
 8634,0.00108264,0.00499079,0.03759678,-0.02935816,-0.01233185,0.036105
 81,-0.04558458,-0.00175156,-0.00510221,0.00542536,-0.00278524,-0.00056
 305,-0.00020351,0.00074130,0.00044157,-0.00008845,0.00030076,-0.000606
 75,0.00049797,-0.00005744,0.00124756,-0.00037428,-0.00093262,-0.000049
 63,0.00000304,0.00005418,0.00001201,0.00008618,-0.00008070,-0.00001561
 ,-0.00005958,0.00004680,-0.00003205,0.00007951,-0.00003415,0.00002016,
 -0.00006751,-0.00000787,-0.00000730,-0.00000302,-0.00001056,-0.0001193
 5,0.00000177,0.00006278,0.00000580,0.00002616,-0.00011577,0.00002882,-
 0.00004424,0.00008783,0.00000274,0.00000701,-0.00007720,0.00000493,-0.
 00000629,0.00001018,-0.00000866,0.00000303,-0.00000749,-0.00000788,0.0
 0000600,0.00001624,-0.00009103,-0.00005091,-0.00007723,0.00037840,0.00
 001022,0.00004512,0.00004246,-0.00003232,-0.00003353,0.00001813,-0.000
 01371,-0.00004542,-0.00002193,0.00000853,0.00002352,-0.00020251,0.0002
 4014,0.00012877,-0.00013464,-0.00030150,-0.00011557,-0.00003614,0.0000
 0720,-0.00002366,-0.00138354,0.00037559,-0.00040615,0.00020086,-0.0000
 3781,0.00000820,0.00030563,0.00046288,0.00032977,-0.00153962,-0.002607
 06,0.00321114,-0.04633293,0.06476987,-0.00007008,-0.00002454,-0.000191
 56,-0.00001264,-0.00013558,-0.00034155,0.00401020,0.00204384,-0.001551
 47,-0.00060366,-0.00021887,-0.00006810,0.00011361,0.00001045,-0.000046
 00,0.02161796,0.00042291,-0.00408191,-0.00030370,0.00091484,0.00018506
 ,0.00001511,0.00009122,0.00013666,-0.00016190,-0.00010346,-0.00005851,
 -0.00002621,-0.00003119,-0.00000660,0.00000572,0.00000655,-0.00000071,
 0.00118068,0.00045537,0.00241620,0.00993346,-0.00827809,0.00152353,0.0
 3877911,-0.00271339,-0.04589329,-0.03799986,0.00118481,-0.01669331,-0.
 00669625,0.00020630,0.00354064,0.00004438,0.00017990,-0.00084988,0.000
 16922,0.00000817,0.00038653,0.00007292,0.00028966,-0.00009134,0.000007
 48,0.00008486,0.00005225,0.00005178,0.00008520,0.00000310,-0.00000215,
 0.00002128,-0.00005757,-0.00008104,0.00005955,0.00007416,0.00006457,-0
 .00002488,-0.00004545,-0.00000864,0.00000186,-0.00000149,-0.00044565,-
 0.00031501,0.00004639,0.00023994,0.00012544,-0.00021999,-0.00005527,-0
 .00017693,0.00006029,0.00002895,0.00003346,-0.00005195,-0.00000074,-0.
 00000083,0.00001148,0.00000563,0.00001320,0.00000693,0.00003172,-0.000
 00094,-0.00003924,0.00015799,-0.00023120,0.00001365,0.00143555,-0.0005
 8342,-0.00009094,0.00043647,0.00001818,-0.00007534,0.00009061,-0.00007
 074,-0.00001093,0.00001739,0.00008606,-0.00004160,-0.00010587,0.000103
 87,0.00000902,-0.00003326,-0.00004001,-0.00001094,-0.00001353,0.000012
 15,0.00000419,-0.00058120,0.00001061,0.00003936,-0.00036247,0.00001081
 ,0.00012169,-0.00022296,0.00056841,-0.00200312,0.00115092,0.00222417,-
 0.00262626,-0.03187428,0.00367595,0.06651790\\0.01770566,0.00224335,-0
 .01938479,-0.03406541,-0.00698710,-0.00695443,-0.01784233,-0.05382261,
 0.02378836,0.01964655,0.03313455,0.03278147,-0.01155870,-0.02548665,-0
 .01215193,-0.02403646,0.01826180,0.00825585,0.01631816,0.00153870,0.01
 147464,0.01670196,0.02698825,-0.01470833,-0.02578944,0.02055898,0.0144
 6341,0.01275667,0.00386232,-0.00907712,-0.00031767,-0.03729180,-0.0084
 6318,0.06263317,0.05642367,-0.00803756,-0.02773597,-0.03087484,0.03229
 463,-0.02432009,-0.01638026,-0.07555792,0.01562626,0.00593754,0.023103
 79,-0.01777793,0.01451689,0.00057195,-0.00864203,0.00207933,0.00762997
 ,-0.00307210,-0.00576564,0.00626132,0.00947752,-0.00015764,-0.02601741
 ,0.02365361,0.01936184,-0.00197480,0.00390746,0.00016432,0.02079696,-0
 .01589004,-0.00506187,-0.02378002,0.00071000,-0.03021959,-0.00847010,-
 0.00217248,-0.01293582,-0.01037690,-0.00931356,0.03683092,0.00695588,0
 .01185684,-0.01770259,-0.03077364,-0.00185692,0.00926602,0.02284845,0.
 01770273,-0.03292592,-0.02192016,0.00208552,0.02421783,0.02207552,-0.0
 0300497,-0.00036262,0.00136544,-0.01911222,0.00803020,-0.00124481,0.01
 914524,-0.01218625,-0.00596496,-0.02084489,0.00735379,0.00163259,0.017
 21630,-0.00510937,0.00386661,-0.01897629,0.00538526,0.00240989,0.01920
 980,0.00003628,0.00295353,-0.00715327,-0.00321147,0.01781661,-0.023503
 26,0.00262068,-0.00094997,0.00267218,-0.00437648,0.01930806,-0.0018990
 6,0.00074938,-0.00203493,0.02842317,0.00006541,0.00246697,-0.02005179,
 -0.00467070,0.00289477,0.02077065,-0.00102349,0.00033800,-0.01958145,0
 .00700451,0.00353055,0.02029889,-0.00007915,-0.00404227\\\@


 A SLIP OF THE FOOT YOU MAY SOON RECOVER, BUT A SLIP OF THE TONGUE
 YOU MAY NEVER GET OVER. -- BEN FRANKLIN
 Job cpu time:  3 days 21 hours  1 minutes 57.9 seconds.
 File lengths (MBytes):  RWF=   2348 Int=      0 D2E=      0 Chk=     43 Scr=      1
 Normal termination of Gaussian 09 at Tue Feb 16 09:05:28 2016.
Gaussian '09 finished on node007 at Tue Feb 16 09:05:28 EST 2016.
