Gaussian '09 started on node023 at Wed Jan 20 15:58:13 EST 2016.
 Entering Gaussian System, Link 0=/usr/local/gaussian/g09/g09
 Initial command:
 /usr/local/gaussian/g09/l1.exe /home/srmcgrat/thesis/gaussian/cellobiose/290/6000/gaussian1707/Gau-1743.inp -scrdir=/home/srmcgrat/thesis/gaussian/cellobiose/290/6000/gaussian1707/
 Entering Link 1 = /usr/local/gaussian/g09/l1.exe PID=      1745.
  
 Copyright (c) 1988,1990,1992,1993,1995,1998,2003,2009,2010,
            Gaussian, Inc.  All Rights Reserved.
  
 This is part of the Gaussian(R) 09 program.  It is based on
 the Gaussian(R) 03 system (copyright 2003, Gaussian, Inc.),
 the Gaussian(R) 98 system (copyright 1998, Gaussian, Inc.),
 the Gaussian(R) 94 system (copyright 1995, Gaussian, Inc.),
 the Gaussian 92(TM) system (copyright 1992, Gaussian, Inc.),
 the Gaussian 90(TM) system (copyright 1990, Gaussian, Inc.),
 the Gaussian 88(TM) system (copyright 1988, Gaussian, Inc.),
 the Gaussian 86(TM) system (copyright 1986, Carnegie Mellon
 University), and the Gaussian 82(TM) system (copyright 1983,
 Carnegie Mellon University). Gaussian is a federally registered
 trademark of Gaussian, Inc.
  
 This software contains proprietary and confidential information,
 including trade secrets, belonging to Gaussian, Inc.
  
 This software is provided under written license and may be
 used, copied, transmitted, or stored only in accord with that
 written license.
  
 The following legend is applicable only to US Government
 contracts under FAR:
  
                    RESTRICTED RIGHTS LEGEND
  
 Use, reproduction and disclosure by the US Government is
 subject to restrictions as set forth in subparagraphs (a)
 and (c) of the Commercial Computer Software - Restricted
 Rights clause in FAR 52.227-19.
  
 Gaussian, Inc.
 340 Quinnipiac St., Bldg. 40, Wallingford CT 06492
  
  
 ---------------------------------------------------------------
 Warning -- This program may not be used in any manner that
 competes with the business of Gaussian, Inc. or will provide
 assistance to any competitor of Gaussian, Inc.  The licensee
 of this program is prohibited from giving any competitor of
 Gaussian, Inc. access to this program.  By using this program,
 the user acknowledges that Gaussian, Inc. is engaged in the
 business of creating and licensing software in the field of
 computational chemistry and represents and warrants to the
 licensee that it is not a competitor of Gaussian, Inc. and that
 it will not use this program in any manner prohibited above.
 ---------------------------------------------------------------
  

 Cite this work as:
 Gaussian 09, Revision B.01,
 M. J. Frisch, G. W. Trucks, H. B. Schlegel, G. E. Scuseria, 
 M. A. Robb, J. R. Cheeseman, G. Scalmani, V. Barone, B. Mennucci, 
 G. A. Petersson, H. Nakatsuji, M. Caricato, X. Li, H. P. Hratchian, 
 A. F. Izmaylov, J. Bloino, G. Zheng, J. L. Sonnenberg, M. Hada, 
 M. Ehara, K. Toyota, R. Fukuda, J. Hasegawa, M. Ishida, T. Nakajima, 
 Y. Honda, O. Kitao, H. Nakai, T. Vreven, J. A. Montgomery, Jr., 
 J. E. Peralta, F. Ogliaro, M. Bearpark, J. J. Heyd, E. Brothers, 
 K. N. Kudin, V. N. Staroverov, T. Keith, R. Kobayashi, J. Normand, 
 K. Raghavachari, A. Rendell, J. C. Burant, S. S. Iyengar, J. Tomasi, 
 M. Cossi, N. Rega, J. M. Millam, M. Klene, J. E. Knox, J. B. Cross, 
 V. Bakken, C. Adamo, J. Jaramillo, R. Gomperts, R. E. Stratmann, 
 O. Yazyev, A. J. Austin, R. Cammi, C. Pomelli, J. W. Ochterski, 
 R. L. Martin, K. Morokuma, V. G. Zakrzewski, G. A. Voth, 
 P. Salvador, J. J. Dannenberg, S. Dapprich, A. D. Daniels, 
 O. Farkas, J. B. Foresman, J. V. Ortiz, J. Cioslowski, 
 and D. J. Fox, Gaussian, Inc., Wallingford CT, 2010.
 
 ******************************************
 Gaussian 09:  EM64L-G09RevB.01 12-Aug-2010
                20-Jan-2016 
 ******************************************
 ------------------------------------------------
 # freq=raman b3lyp/6-31+g(d,p) geom=connectivity
 ------------------------------------------------
 1/10=4,30=1,38=1,57=2/1,3;
 2/12=2,17=6,18=5,40=1/2;
 3/5=1,6=6,7=111,11=2,16=1,25=1,30=1,71=2,74=-5/1,2,3;
 4//1;
 5/5=2,38=5,98=1/2;
 8/6=4,10=90,11=11/1;
 10/13=10,15=4/2;
 11/6=3,8=1,9=11,15=111,16=1/1,2,10;
 10/6=1/2;
 6/7=2,8=2,9=2,10=2,18=1,28=1/1;
 7/8=1,10=1,25=1/1,2,3,16;
 1/10=4,30=1/3;
 99//99;
 ------------
 290 6000.com
 ------------
 Symbolic Z-matrix:
 Charge =  0 Multiplicity = 1
 O                     7.686     7.602     12.267 
 C                     8.238     8.109     13.491 
 C                     7.637     9.421     13.968 
 O                     7.983     10.373    12.951 
 H                     7.498     10.061    12.134 
 C                     8.098     9.856     15.349 
 O                     7.44      10.983    15.945 
 H                     7.888     11.19     16.815 
 C                     8.687     5.754     14.344 
 O                     8.294     5.082     13.138 
 H                     8.356     4.086     13.188 
 C                     8.093     7.122     14.637 
 O                     8.673     7.463     15.905 
 C                     8.038     8.683     16.315 
 O                     8.856     8.958     17.461 
 C                     8.448     8.55      18.775 
 C                     9.021     7.238     19.285 
 O                     8.906     6.202     18.298 
 H                     9.091     6.472     17.353 
 C                     8.258     6.891     20.553 
 O                     8.676     5.648     21.134 
 H                     8.037     5.36      21.848 
 C                     7.961     10.972    19.501 
 O                     8.562     11.697    18.417 
 H                     8.284     12.655    18.483 
 C                     8.633     9.645     19.812 
 O                     8.095     9.316     21.101 
 C                     8.479     8.011     21.557 
 O                     7.587     7.803     22.662 
 H                     8.39841   7.35575   11.67249 
 H                     8.09719   7.65257   23.46117 
 H                     9.49436   8.01685   21.8945 
 H                     9.28354   8.27042   13.33069 
 H                     6.57215   9.31771   13.9863 
 H                     7.044     6.98489   14.79734 
 H                     8.44159   5.11319   15.165 
 H                     7.02836   8.49565   16.61572 
 H                     9.12962   10.12332   15.25307 
 H                     7.39181   8.39254   18.70742 
 H                     10.05413   7.37779   19.52583 
 H                     7.21451   6.83205   20.32375 
 H                     9.68258   9.82089   19.92312 
 H                     7.99534   11.58349   20.37838 
 H                     6.93631   10.78431   19.25672 
 H                     9.75121   5.86269   14.3206 
 

 GradGradGradGradGradGradGradGradGradGradGradGradGradGradGradGradGradGrad
 Berny optimization.
 Initialization pass.
 Trust Radius=3.00D-01 FncErr=1.00D-07 GrdErr=1.00D-07
 Number of steps in this run=      2 maximum allowed number of steps=      2.
 GradGradGradGradGradGradGradGradGradGradGradGradGradGradGradGradGradGrad

                          Input orientation:                          
 ---------------------------------------------------------------------
 Center     Atomic      Atomic             Coordinates (Angstroms)
 Number     Number       Type             X           Y           Z
 ---------------------------------------------------------------------
      1          8           0        7.686000    7.602000   12.267000
      2          6           0        8.238000    8.109000   13.491000
      3          6           0        7.637000    9.421000   13.968000
      4          8           0        7.983000   10.373000   12.951000
      5          1           0        7.498000   10.061000   12.134000
      6          6           0        8.098000    9.856000   15.349000
      7          8           0        7.440000   10.983000   15.945000
      8          1           0        7.888000   11.190000   16.815000
      9          6           0        8.687000    5.754000   14.344000
     10          8           0        8.294000    5.082000   13.138000
     11          1           0        8.356000    4.086000   13.188000
     12          6           0        8.093000    7.122000   14.637000
     13          8           0        8.673000    7.463000   15.905000
     14          6           0        8.038000    8.683000   16.315000
     15          8           0        8.856000    8.958000   17.461000
     16          6           0        8.448000    8.550000   18.775000
     17          6           0        9.021000    7.238000   19.285000
     18          8           0        8.906000    6.202000   18.298000
     19          1           0        9.091000    6.472000   17.353000
     20          6           0        8.258000    6.891000   20.553000
     21          8           0        8.676000    5.648000   21.134000
     22          1           0        8.037000    5.360000   21.848000
     23          6           0        7.961000   10.972000   19.501000
     24          8           0        8.562000   11.697000   18.417000
     25          1           0        8.284000   12.655000   18.483000
     26          6           0        8.633000    9.645000   19.812000
     27          8           0        8.095000    9.316000   21.101000
     28          6           0        8.479000    8.011000   21.557000
     29          8           0        7.587000    7.803000   22.662000
     30          1           0        8.398405    7.355746   11.672494
     31          1           0        8.097193    7.652568   23.461170
     32          1           0        9.494362    8.016853   21.894500
     33          1           0        9.283536    8.270415   13.330689
     34          1           0        6.572155    9.317707   13.986305
     35          1           0        7.044005    6.984889   14.797341
     36          1           0        8.441591    5.113190   15.164998
     37          1           0        7.028362    8.495646   16.615716
     38          1           0        9.129619   10.123319   15.253066
     39          1           0        7.391809    8.392542   18.707416
     40          1           0       10.054131    7.377791   19.525828
     41          1           0        7.214512    6.832055   20.323746
     42          1           0        9.682579    9.820887   19.923123
     43          1           0        7.995344   11.583490   20.378383
     44          1           0        6.936306   10.784310   19.256715
     45          1           0        9.751208    5.862694   14.320598
 ---------------------------------------------------------------------
                    Distance matrix (angstroms):
                    1          2          3          4          5
     1  O    0.000000
     2  C    1.435245   0.000000
     3  C    2.490896   1.519893   0.000000
     4  O    2.869583   2.341436   1.435378   0.000000
     5  H    2.469760   2.489850   1.947428   1.000029   0.000000
     6  C    3.840441   2.554168   1.519509   2.455793   3.276927
     7  O    5.001936   3.862486   2.527287   3.103383   3.921373
     8  H    5.796452   4.545771   3.361216   3.950571   4.830994
     9  C    2.954832   2.544648   3.832853   4.875574   4.984784
    10  O    2.734722   3.048028   4.466259   5.303430   5.141213
    11  H    3.695862   4.036120   5.439447   6.302513   6.127618
    12  C    2.452132   1.519378   2.437396   3.663836   3.905990
    13  O    3.772073   2.536521   2.942623   4.203607   4.727650
    14  C    4.204613   2.888677   2.492760   3.765053   4.435228
    15  O    5.494112   4.106534   3.728455   4.806709   5.606933
    16  C    6.620681   5.306528   4.952132   6.120337   6.876664
    17  C    7.153114   5.911190   5.911974   7.143194   7.837452
    18  O    6.310417   5.214415   5.542673   6.843945   7.407377
    19  H    5.396139   4.280470   4.718998   5.985238   6.531197
    20  C    8.336096   7.166294   7.081579   8.366024   9.028071
    21  O    9.133559   8.041381   8.164962   9.474564  10.092683
    22  H    9.846082   8.799821   8.873901  10.212233  10.805171
    23  C    7.985191   6.662852   5.755403   6.577369   7.437539
    24  O    7.440356   6.102802   5.082263   5.653793   6.579109
    25  H    8.032999   6.751911   5.591296   5.991757   6.903364
    26  C    7.873861   6.516929   5.932498   6.930065   7.772578
    27  O    9.008032   7.706452   7.148460   8.219020   9.017678
    28  C    9.332750   8.070195   7.764663   8.938025   9.693183
    29  O   10.397414   9.199167   8.843419  10.053121  10.767788
    30  H    0.960000   1.974864   3.180308   3.303174   2.888272
    31  H   11.201834   9.981606   9.667441  10.857139  11.595877
    32  H    9.804644   8.497397   8.261406   9.371331  10.170121
    33  H    2.032323   1.070000   2.107390   2.501284   2.797570
    34  H    2.672136   2.116918   1.070000   2.043522   2.200160
    35  H    2.682463   2.096611   2.640850   3.971144   4.094137
    36  H    3.894031   3.437818   4.542840   5.725180   5.878616
    37  H    4.488031   3.372917   2.870039   4.226812   4.770396
    38  H    4.166254   2.820876   2.091066   2.583909   3.520602
    39  H    6.495419   5.292205   4.855915   6.116212   6.782686
    40  H    7.638645   6.344458   6.395833   7.515932   8.268769
    41  H    8.107174   7.025990   6.875801   8.215002   8.807860
    42  H    8.217421   6.810989   6.309342   7.197492   8.093237
    43  H    9.041155   7.717966   6.774790   7.525387   8.398522
    44  H    7.716557   6.488078   5.506368   6.405216   7.181347
    45  H    3.392275   2.832652   4.154003   5.034403   5.242511
                    6          7          8          9         10
     6  C    0.000000
     7  O    1.434681   0.000000
     8  H    1.993191   1.000226   0.000000
     9  C    4.264194   5.608979   6.024478   0.000000
    10  O    5.264790   6.590172   7.140926   1.435433   0.000000
    11  H    6.166797   7.483897   7.990054   2.056240   0.999180
    12  C    2.825195   4.128510   4.618910   1.519904   2.539489
    13  O    2.523135   3.729918   3.915974   2.314649   3.670026
    14  C    1.520751   2.405100   2.560771   3.589580   4.808957
    15  O    2.416922   2.898954   2.517174   4.473239   5.833314
    16  C    3.683152   3.865806   3.335386   5.244854   6.620159
    17  C    4.816425   5.261196   4.796133   5.169845   6.554577
    18  O    4.764576   5.526638   5.302429   3.985321   5.315500
    19  H    4.056294   5.005735   4.898589   3.119747   4.509272
    20  C    5.991531   6.216691   5.708848   6.326807   7.632562
    21  O    7.176878   7.544246   7.070252   6.790836   8.025104
    22  H    7.902831   8.174347   7.703388   7.542397   8.718224
    23  C    4.301550   3.593981   2.695821   7.372194   8.677025
    24  O    3.607936   2.807038   1.810450   7.205845   8.467461
    25  H    4.206061   3.154261   2.255053   8.057142   9.269275
    26  C    4.499902   4.262298   3.453123   6.711320   8.091858
    27  O    5.777293   5.458228   4.682363   7.661290   9.020850
    28  C    6.487561   6.434815   5.739502   7.560733   8.915875
    29  O    7.612877   7.433175   6.763858   8.636986   9.930270
    30  H    4.456255   5.685932   6.434857   3.128230   2.707126
    31  H    8.406094   8.247212   7.531850   9.331411  10.640226
    32  H    6.940883   6.958088   6.200853   7.923534   9.312923
    33  H    2.827216   4.194206   4.755199   2.777589   3.343995
    34  H    2.115396   2.713456   3.638468   4.159390   4.650332
    35  H    3.107815   4.178376   4.739856   2.102389   2.817248
    36  H    4.758798   6.005519   6.321122   1.070000   2.032603
    37  H    2.144588   2.608877   2.835178   3.927899   5.034811
    38  H    1.070000   2.018077   2.262535   4.484781   5.530520
    39  H    3.730868   3.787313   3.413681   5.261067   6.541562
    40  H    5.235825   5.714328   5.154964   5.599740   7.012351
    41  H    5.888370   6.037765   5.635297   6.252023   7.474151
    42  H    4.840943   4.712232   3.841277   6.975483   8.391847
    43  H    5.318783   4.508201   3.586649   8.418736   9.735590
    44  H    4.181092   3.355688   2.651844   7.245945   8.473390
    45  H    4.442656   5.847896   6.170395   1.070000   2.032603
                   11         12         13         14         15
    11  H    0.000000
    12  C    3.374325   0.000000
    13  O    4.345884   1.435446   0.000000
    14  C    5.568812   2.292472   1.435174   0.000000
    15  O    6.499609   3.453700   2.165560   1.434596   0.000000
    16  C    7.151946   4.391839   3.077189   2.497477   1.435104
    17  C    6.895704   4.741154   3.405309   3.446043   2.512489
    18  O    5.558062   3.861384   2.714933   3.292579   2.880730
    19  H    4.855970   2.965664   1.803749   2.659845   2.499417
    20  C    7.881678   5.922807   4.701416   4.606551   3.767036
    21  O    8.104391   6.687569   5.535041   5.730709   4.947669
    22  H    8.759020   7.423362   6.336115   6.454178   5.732550
    23  C    9.350240   6.204710   5.074568   3.923780   3.003135
    24  O    9.236460   5.953065   4.924350   3.711762   2.915903
    25  H   10.073230   6.741089   5.809842   4.531835   3.878076
    26  C    8.651970   5.782539   4.475195   3.675388   2.459451
    27  O    9.488761   6.826195   5.546721   4.828016   3.735891
    28  C    9.244507   6.987540   5.681817   5.303266   4.220919
    29  O   10.206083   8.069723   6.852156   6.423567   5.476750
    30  H    3.604136   2.989349   4.242760   4.841937   6.023572
    31  H   10.877749   8.840108   7.580449   7.220322   6.187244
    32  H    9.620324   7.445528   6.070873   5.804788   4.577028
    33  H    4.288358   2.107767   2.766179   3.260015   4.208922
    34  H    5.584815   2.749092   3.396304   2.823894   4.173589
    35  H    3.565791   1.070000   2.027098   2.484934   3.777774
    36  H    2.229566   2.106090   2.474421   3.772126   4.497324
    37  H    5.740804   2.633567   2.067923   1.070000   2.066043
    38  H    6.427457   3.234506   2.776835   2.096152   2.511535
    39  H    7.066819   4.321370   3.218546   2.495112   2.004283
    40  H    7.340818   5.273718   3.876233   4.009710   2.862882
    41  H    7.730633   5.761501   4.695807   4.491567   3.925486
    42  H    8.944866   6.144416   4.766990   4.125285   2.736760
    43  H   10.394423   7.271720   6.119543   4.992569   4.018090
    44  H    9.149436   6.007680   5.028041   3.779275   3.200816
    45  H    2.527059   2.106090   2.496766   3.855755   4.499382
                   16         17         18         19         20
    16  C    0.000000
    17  C    1.519794   0.000000
    18  O    2.439344   1.435510   0.000000
    19  H    2.598772   2.079490   1.000075   0.000000
    20  C    2.439194   1.520001   2.445332   3.333084   0.000000
    21  O    3.746794   2.462910   2.898743   3.891936   1.434341
    22  H    4.448410   3.326276   3.750550   4.748946   2.017381
    23  C    2.574943   3.887546   5.009305   5.112808   4.224864
    24  O    3.169348   4.565828   5.507043   5.358410   5.268069
    25  H    4.118639   5.525420   6.485547   6.337005   6.124481
    26  C    1.519414   2.494378   3.771071   4.040343   2.876495
    27  O    2.474195   2.910913   4.267496   4.809143   2.491485
    28  C    2.833903   2.460341   3.751785   4.518482   1.520282
    29  O    4.050691   3.712103   4.831921   5.676183   2.393714
    30  H    7.202381   7.638831   6.744339   5.790410   8.893767
    31  H    4.784208   4.297172   5.423711   6.300090   3.010532
    32  H    3.333227   2.764087   4.071201   4.813990   2.143772
    33  H    5.515143   6.048853   5.393983   4.410255   7.424034
    34  H    5.199978   6.196628   5.809060   5.077132   7.200866
    35  H    4.499172   4.910363   4.041603   3.314308   5.883044
    36  H    4.984358   4.671718   3.349162   2.656210   5.676696
    37  H    2.584731   3.560527   3.408286   2.982147   4.425958
    38  H    3.917136   4.959169   4.969745   4.212285   6.268724
    39  H    1.070000   2.078661   2.694229   2.900030   2.532014
    40  H    2.125435   1.070000   2.051402   2.543474   2.125590
    41  H    2.621344   2.123013   2.713255   3.532164   1.070000
    42  H    2.111285   2.741568   4.042331   4.262692   3.318193
    43  H    3.460895   4.596818   5.841038   6.039928   4.703078
    44  H    2.740330   4.113765   5.079015   5.182939   4.311043
    45  H    5.362990   5.202880   4.080347   3.162687   6.490757
                   21         22         23         24         25
    21  O    0.000000
    22  H    1.000530   0.000000
    23  C    5.614525   6.083480   0.000000
    24  O    6.632155   7.225300   1.435925   0.000000
    25  H    7.501967   8.037491   1.993274   0.999702   0.000000
    26  C    4.210171   4.781395   1.519616   2.482291   3.308798
    27  O    3.713876   4.026327   2.306576   3.618163   4.247183
    28  C    2.408632   2.703303   3.641838   4.842839   5.572633
    29  O    2.857399   2.614067   4.491587   5.842421   6.441409
    30  H    9.618397  10.375671   8.634473   8.022569   8.630074
    31  H    3.125545   2.803892   5.169152   6.482062   7.059845
    32  H    2.619073   3.030666   4.100358   5.148377   5.883512
    33  H    8.254563   9.086746   6.864430   6.175164   6.838857
    34  H    8.305568   8.922750   5.922621   5.408473   5.855613
    35  H    6.678617   7.303294   6.233967   6.132718   6.875451
    36  H    5.997496   6.699786   7.304624   7.344152   8.240926
    37  H    5.589158   6.182752   3.914972   3.980620   4.729017
    38  H    7.404028   8.208299   4.486744   3.578986   4.190102
    39  H    3.882005   4.413145   2.758144   3.517546   4.360610
    40  H    2.734527   3.678693   4.159345   4.702289   5.663020
    41  H    2.048035   2.273056   4.286409   5.396211   6.199907
    42  H    4.460091   5.129580   2.113547   2.654035   3.473064
    43  H    6.021984   6.394790   1.070000   2.044751   2.196345
    44  H    5.738677   6.111417   1.070000   2.044751   2.431953
    45  H    6.901059   7.736472   7.493091   7.227299   8.100229
                   26         27         28         29         30
    26  C    0.000000
    27  O    1.434993   0.000000
    28  C    2.395558   1.434718   0.000000
    29  O    3.550997   2.232477   1.435254   0.000000
    30  H    8.458562   9.634904   9.906529  11.028493   0.000000
    31  H    4.192054   2.887458   1.974871   0.960000  11.796259
    32  H    2.780218   2.067762   1.070000   2.067079  10.301825
    33  H    6.657332   7.929918   8.269629   9.495792   2.090380
    34  H    6.188128   7.275847   7.915742   8.865209   3.540933
    35  H    5.894735   6.802557   6.986065   7.925718   3.425873
    36  H    6.493733   7.281474   7.018290   8.010646   4.150723
    37  H    3.756609   4.682784   5.172574   6.111414   5.254697
    38  H    4.610781   5.993374   6.680178   7.915545   4.584171
    39  H    2.080700   2.660168   3.073709   4.003048   7.181805
    40  H    2.691049   3.174274   2.647197   4.012868   8.026006
    41  H    3.191654   2.747611   2.123619   2.559084   8.747573
    42  H    1.070000   2.040272   2.719163   3.995593   8.706257
    43  H    2.117814   2.381936   3.792855   4.435511   9.686526
    44  H    2.117814   2.626765   3.919498   4.572480   8.450633
    45  H    6.761045   7.787310   7.655015   8.833322   3.327421
                   31         32         33         34         35
    31  H    0.000000
    32  H    2.130549   0.000000
    33  H   10.218405   8.570158   0.000000
    34  H    9.740201   8.530596   2.979638   0.000000
    35  H    8.753111   7.578844   2.969705   2.514451   0.000000
    36  H    8.682945   7.404444   3.747216   4.749955   2.364672
    37  H    6.979500   5.846021   3.990982   2.792439   2.364132
    38  H    8.633857   6.977025   2.674411   2.965521   3.795683
    39  H    4.862438   3.836584   5.701117   4.880232   4.170269
    40  H    4.403638   2.516416   6.306373   6.824497   5.619059
    41  H    3.360922   3.011434   7.433208   6.837708   5.531147
    42  H    4.442166   2.678860   6.784053   6.721141   6.424843
    43  H    4.996609   4.155306   7.893408   6.929495   7.293847
    44  H    5.369629   4.600041   6.851783   5.482769   5.859455
    45  H    9.459888   7.878475   2.644949   4.706936   2.969100
                   36         37         38         39         40
    36  H    0.000000
    37  H    3.942436   0.000000
    38  H    5.057917   2.986874   0.000000
    39  H    4.940134   2.125543   4.236521   0.000000
    40  H    5.171610   4.344379   5.162281   2.964368   0.000000
    41  H    5.574308   4.068375   6.341282   2.253681   2.999657
    42  H    6.807512   4.442980   4.712395   2.960699   2.502921
    43  H    8.321256   4.962610   5.448628   3.652196   4.759554
    44  H    7.153295   3.495902   4.612671   2.495950   4.625757
    45  H    1.729123   4.428757   4.405541   5.586687   5.429706
                   41         42         43         44         45
    41  H    0.000000
    42  H    3.896790   0.000000
    43  H    4.815477   2.482094   0.000000
    44  H    4.103203   2.985682   1.737351   0.000000
    45  H    6.588800   6.860050   8.515123   7.517395   0.000000
 Stoichiometry    C12H22O11
 Framework group  C1[X(C12H22O11)]
 Deg. of freedom   129
 Full point group                 C1      NOp   1
 Largest Abelian subgroup         C1      NOp   1
 Largest concise Abelian subgroup C1      NOp   1
                         Standard orientation:                         
 ---------------------------------------------------------------------
 Center     Atomic      Atomic             Coordinates (Angstroms)
 Number     Number       Type             X           Y           Z
 ---------------------------------------------------------------------
      1          8           0       -5.013816   -0.486108    0.475773
      2          6           0       -3.755649   -0.076486   -0.080244
      3          6           0       -3.252161    1.273425    0.403817
      4          8           0       -4.223351    2.217744   -0.070904
      5          1           0       -5.065957    1.982316    0.413500
      6          6           0       -1.842625    1.615595   -0.048993
      7          8           0       -1.228622    2.783476    0.514357
      8          1           0       -0.337964    2.916521    0.079063
      9          6           0       -2.972300   -2.490699   -0.262375
     10          8           0       -4.213216   -3.080966    0.152574
     11          1           0       -4.196416   -4.079237    0.191729
     12          6           0       -2.650404   -1.079938    0.202645
     13          8           0       -1.353245   -0.839608   -0.363152
     14          6           0       -0.921014    0.424372    0.161496
     15          8           0        0.259576    0.579024   -0.638726
     16          6           0        1.544630    0.172434   -0.145935
     17          6           0        2.026125   -1.206135   -0.567225
     18          8           0        1.000024   -2.193312   -0.384778
     19          1           0        0.071543   -1.913291   -0.629034
     20          6           0        3.256016   -1.514895    0.270889
     21          8           0        3.805901   -2.811524   -0.000615
     22          1           0        4.488473   -3.056419    0.688720
     23          6           0        2.339635    2.606743    0.123199
     24          8           0        1.301680    3.301820   -0.584897
     25          1           0        1.392491    4.280327   -0.401375
     26          6           0        2.624997    1.209648   -0.402089
     27          8           0        3.883703    0.895488    0.211235
     28          6           0        4.305454   -0.455389   -0.024717
     29          8           0        5.373303   -0.607754    0.922087
     30          1           0       -5.593522   -0.783678   -0.229204
     31          1           0        6.182596   -0.834143    0.457983
     32          1           0        4.675289   -0.562449   -1.023046
     33          1           0       -3.876608   -0.016012   -1.141664
     34          1           0       -3.271615    1.277219    1.473634
     35          1           0       -2.528669   -1.115897    1.265089
     36          1           0       -2.182693   -3.129431    0.074437
     37          1           0       -0.659575    0.330016    1.194766
     38          1           0       -1.895991    1.780728   -1.104826
     39          1           0        1.437752    0.124234    0.917622
     40          1           0        2.304690   -1.178708   -1.599964
     41          1           0        2.991532   -1.461255    1.306298
     42          1           0        2.775803    1.275451   -1.459362
     43          1           0        3.238688    3.183388    0.059289
     44          1           0        2.056198    2.530947    1.152188
     45          1           0       -2.957767   -2.488896   -1.332275
 ---------------------------------------------------------------------
 Rotational constants (GHZ):      0.4085483      0.1471258      0.1115474
 Standard basis: 6-31+G(d,p) (6D, 7F)
 There are   547 symmetry adapted basis functions of A   symmetry.
 Integral buffers will be    131072 words long.
 Raffenetti 2 integral format.
 Two-electron integral symmetry is turned on.
   547 basis functions,   890 primitive gaussians,   547 cartesian basis functions
    91 alpha electrons       91 beta electrons
       nuclear repulsion energy      2290.9631676390 Hartrees.
 NAtoms=   45 NActive=   45 NUniq=   45 SFac= 1.00D+00 NAtFMM=   50 NAOKFM=F Big=F
 One-electron integrals computed using PRISM.
 NBasis=   547 RedAO= T  NBF=   547
 NBsUse=   547 1.00D-06 NBFU=   547
 Harris functional with IExCor=  402 diagonalized for initial guess.
 ExpMin= 4.38D-02 ExpMax= 5.48D+03 ExpMxC= 8.25D+02 IAcc=2 IRadAn=         0 AccDes= 0.00D+00
 HarFok:  IExCor=  402 AccDes= 0.00D+00 IRadAn=         0 IDoV= 1
 ScaDFX=  1.000000  1.000000  1.000000  1.000000
 FoFCou: FMM=F IPFlag=           0 FMFlag=      100000 FMFlg1=           0
         NFxFlg=           0 DoJE=T BraDBF=F KetDBF=T FulRan=T
         Omega=  0.000000  0.000000  1.000000  0.000000  0.000000 ICntrl=     500 IOpCl=  0
         NMat0=    1 NMatS0=    1 NMatT0=    0 NMatD0=    1 NMtDS0=    0 NMtDT0=    0
         I1Cent=           4 NGrid=           0.
 Petite list used in FoFCou.
 Initial guess orbital symmetries:
       Occupied  (A) (A) (A) (A) (A) (A) (A) (A) (A) (A) (A) (A)
                 (A) (A) (A) (A) (A) (A) (A) (A) (A) (A) (A) (A)
                 (A) (A) (A) (A) (A) (A) (A) (A) (A) (A) (A) (A)
                 (A) (A) (A) (A) (A) (A) (A) (A) (A) (A) (A) (A)
                 (A) (A) (A) (A) (A) (A) (A) (A) (A) (A) (A) (A)
                 (A) (A) (A) (A) (A) (A) (A) (A) (A) (A) (A) (A)
                 (A) (A) (A) (A) (A) (A) (A) (A) (A) (A) (A) (A)
                 (A) (A) (A) (A) (A) (A) (A)
       Virtual   (A) (A) (A) (A) (A) (A) (A) (A) (A) (A) (A) (A)
                 (A) (A) (A) (A) (A) (A) (A) (A) (A) (A) (A) (A)
                 (A) (A) (A) (A) (A) (A) (A) (A) (A) (A) (A) (A)
                 (A) (A) (A) (A) (A) (A) (A) (A) (A) (A) (A) (A)
                 (A) (A) (A) (A) (A) (A) (A) (A) (A) (A) (A) (A)
                 (A) (A) (A) (A) (A) (A) (A) (A) (A) (A) (A) (A)
                 (A) (A) (A) (A) (A) (A) (A) (A) (A) (A) (A) (A)
                 (A) (A) (A) (A) (A) (A) (A) (A) (A) (A) (A) (A)
                 (A) (A) (A) (A) (A) (A) (A) (A) (A) (A) (A) (A)
                 (A) (A) (A) (A) (A) (A) (A) (A) (A) (A) (A) (A)
                 (A) (A) (A) (A) (A) (A) (A) (A) (A) (A) (A) (A)
                 (A) (A) (A) (A) (A) (A) (A) (A) (A) (A) (A) (A)
                 (A) (A) (A) (A) (A) (A) (A) (A) (A) (A) (A) (A)
                 (A) (A) (A) (A) (A) (A) (A) (A) (A) (A) (A) (A)
                 (A) (A) (A) (A) (A) (A) (A) (A) (A) (A) (A) (A)
                 (A) (A) (A) (A) (A) (A) (A) (A) (A) (A) (A) (A)
                 (A) (A) (A) (A) (A) (A) (A) (A) (A) (A) (A) (A)
                 (A) (A) (A) (A) (A) (A) (A) (A) (A) (A) (A) (A)
                 (A) (A) (A) (A) (A) (A) (A) (A) (A) (A) (A) (A)
                 (A) (A) (A) (A) (A) (A) (A) (A) (A) (A) (A) (A)
                 (A) (A) (A) (A) (A) (A) (A) (A) (A) (A) (A) (A)
                 (A) (A) (A) (A) (A) (A) (A) (A) (A) (A) (A) (A)
                 (A) (A) (A) (A) (A) (A) (A) (A) (A) (A) (A) (A)
                 (A) (A) (A) (A) (A) (A) (A) (A) (A) (A) (A) (A)
                 (A) (A) (A) (A) (A) (A) (A) (A) (A) (A) (A) (A)
                 (A) (A) (A) (A) (A) (A) (A) (A) (A) (A) (A) (A)
                 (A) (A) (A) (A) (A) (A) (A) (A) (A) (A) (A) (A)
                 (A) (A) (A) (A) (A) (A) (A) (A) (A) (A) (A) (A)
                 (A) (A) (A) (A) (A) (A) (A) (A) (A) (A) (A) (A)
                 (A) (A) (A) (A) (A) (A) (A) (A) (A) (A) (A) (A)
                 (A) (A) (A) (A) (A) (A) (A) (A) (A) (A) (A) (A)
                 (A) (A) (A) (A) (A) (A) (A) (A) (A) (A) (A) (A)
                 (A) (A) (A) (A) (A) (A) (A) (A) (A) (A) (A) (A)
                 (A) (A) (A) (A) (A) (A) (A) (A) (A) (A) (A) (A)
                 (A) (A) (A) (A) (A) (A) (A) (A) (A) (A) (A) (A)
                 (A) (A) (A) (A) (A) (A) (A) (A) (A) (A) (A) (A)
                 (A) (A) (A) (A) (A) (A) (A) (A) (A) (A) (A) (A)
                 (A) (A) (A) (A) (A) (A) (A) (A) (A) (A) (A) (A)
 The electronic state of the initial guess is 1-A.
 Requested convergence on RMS density matrix=1.00D-08 within 128 cycles.
 Requested convergence on MAX density matrix=1.00D-06.
 Requested convergence on             energy=1.00D-06.
 No special actions if energy rises.
 SCF Done:  E(RB3LYP) =  -1297.94274805     A.U. after   13 cycles
             Convg  =    0.6015D-08             -V/T =  2.0087
 Range of M.O.s used for correlation:     1   547
 NBasis=   547 NAE=    91 NBE=    91 NFC=     0 NFV=     0
 NROrb=    547 NOA=    91 NOB=    91 NVA=   456 NVB=   456

 **** Warning!!: The largest alpha MO coefficient is  0.77140531D+02

          Differentiating once with respect to electric field.
                with respect to dipole field.
          Electric field/nuclear overlap derivatives assumed to be zero.
          There are     3 degrees of freedom in the 1st order CPHF.  IDoFFX=0.
      3 vectors produced by pass  0 Test12= 1.38D-12 3.33D-08 XBig12= 1.21D+02 1.43D+00.
 AX will form     3 AO Fock derivatives at one time.
      3 vectors produced by pass  1 Test12= 1.38D-12 3.33D-08 XBig12= 2.17D+01 3.25D-01.
      3 vectors produced by pass  2 Test12= 1.38D-12 3.33D-08 XBig12= 9.30D+00 2.25D-01.
      3 vectors produced by pass  3 Test12= 1.38D-12 3.33D-08 XBig12= 8.73D-01 8.24D-02.
      3 vectors produced by pass  4 Test12= 1.38D-12 3.33D-08 XBig12= 2.49D-01 4.42D-02.
      3 vectors produced by pass  5 Test12= 1.38D-12 3.33D-08 XBig12= 5.21D-02 1.92D-02.
      3 vectors produced by pass  6 Test12= 1.38D-12 3.33D-08 XBig12= 1.60D-02 1.38D-02.
      3 vectors produced by pass  7 Test12= 1.38D-12 3.33D-08 XBig12= 2.23D-03 8.72D-03.
      3 vectors produced by pass  8 Test12= 1.38D-12 3.33D-08 XBig12= 3.24D-04 2.69D-03.
      3 vectors produced by pass  9 Test12= 1.38D-12 3.33D-08 XBig12= 9.77D-05 1.48D-03.
      3 vectors produced by pass 10 Test12= 1.38D-12 3.33D-08 XBig12= 2.55D-05 4.75D-04.
      3 vectors produced by pass 11 Test12= 1.38D-12 3.33D-08 XBig12= 7.13D-06 3.25D-04.
      3 vectors produced by pass 12 Test12= 1.38D-12 3.33D-08 XBig12= 6.61D-07 1.03D-04.
      3 vectors produced by pass 13 Test12= 1.38D-12 3.33D-08 XBig12= 1.74D-07 3.43D-05.
      3 vectors produced by pass 14 Test12= 1.38D-12 3.33D-08 XBig12= 4.70D-08 1.43D-05.
      3 vectors produced by pass 15 Test12= 1.38D-12 3.33D-08 XBig12= 1.16D-08 9.07D-06.
      3 vectors produced by pass 16 Test12= 1.38D-12 3.33D-08 XBig12= 6.29D-10 1.95D-06.
      3 vectors produced by pass 17 Test12= 1.38D-12 3.33D-08 XBig12= 4.64D-11 6.18D-07.
      3 vectors produced by pass 18 Test12= 1.38D-12 3.33D-08 XBig12= 1.35D-11 2.89D-07.
      3 vectors produced by pass 19 Test12= 1.38D-12 3.33D-08 XBig12= 7.04D-12 2.26D-07.
      3 vectors produced by pass 20 Test12= 1.38D-12 3.33D-08 XBig12= 3.78D-12 1.55D-07.
      2 vectors produced by pass 21 Test12= 1.38D-12 3.33D-08 XBig12= 1.60D-12 8.67D-08.
 Inverted reduced A of dimension    65 with in-core refinement.
 End of Minotr Frequency-dependent properties file   721 does not exist.
 End of Minotr Frequency-dependent properties file   722 does not exist.
 Symmetrizing basis deriv contribution to polar:
 IMax=3 JMax=2 DiffMx= 0.00D+00
 G2DrvN: will do    23 centers at a time, making    2 passes doing MaxLOS=2.
 Calling FoFCou, ICntrl=  3107 FMM=F I1Cent=   0 AccDes= 0.00D+00.
 Calling FoFCou, ICntrl=  3107 FMM=F I1Cent=   0 AccDes= 0.00D+00.
 FoFDir/FoFCou used for L=0 through L=2.
 End of G2Drv Frequency-dependent properties file   721 does not exist.
 End of G2Drv Frequency-dependent properties file   722 does not exist.
          IDoAtm=111111111111111111111111111111111111111111111
          Differentiating once with respect to electric field.
                with respect to dipole field.
          Differentiating once with respect to nuclear coordinates.
          There are   138 degrees of freedom in the 1st order CPHF.  IDoFFX=5.
 Will reuse    3 saved solutions.
    135 vectors produced by pass  0 Test12= 4.15D-14 1.00D-09 XBig12= 2.35D-01 9.83D-02.
 AX will form    68 AO Fock derivatives at one time.
    135 vectors produced by pass  1 Test12= 4.15D-14 1.00D-09 XBig12= 3.74D-02 1.77D-02.
    132 vectors produced by pass  2 Test12= 4.15D-14 1.00D-09 XBig12= 3.32D-04 1.84D-03.
    132 vectors produced by pass  3 Test12= 4.15D-14 1.00D-09 XBig12= 8.67D-07 1.00D-04.
    132 vectors produced by pass  4 Test12= 4.15D-14 1.00D-09 XBig12= 1.46D-09 2.80D-06.
    130 vectors produced by pass  5 Test12= 4.15D-14 1.00D-09 XBig12= 4.48D-12 1.70D-07.
     77 vectors produced by pass  6 Test12= 4.15D-14 1.00D-09 XBig12= 1.64D-13 2.47D-08.
 Inverted reduced A of dimension   873 with in-core refinement.
 Isotropic polarizability for W=    0.000000      187.78 Bohr**3.
 End of Minotr Frequency-dependent properties file   721 does not exist.
 End of Minotr Frequency-dependent properties file   722 does not exist.

 **********************************************************************

            Population analysis using the SCF density.

 **********************************************************************

 Orbital symmetries:
       Occupied  (A) (A) (A) (A) (A) (A) (A) (A) (A) (A) (A) (A)
                 (A) (A) (A) (A) (A) (A) (A) (A) (A) (A) (A) (A)
                 (A) (A) (A) (A) (A) (A) (A) (A) (A) (A) (A) (A)
                 (A) (A) (A) (A) (A) (A) (A) (A) (A) (A) (A) (A)
                 (A) (A) (A) (A) (A) (A) (A) (A) (A) (A) (A) (A)
                 (A) (A) (A) (A) (A) (A) (A) (A) (A) (A) (A) (A)
                 (A) (A) (A) (A) (A) (A) (A) (A) (A) (A) (A) (A)
                 (A) (A) (A) (A) (A) (A) (A)
       Virtual   (A) (A) (A) (A) (A) (A) (A) (A) (A) (A) (A) (A)
                 (A) (A) (A) (A) (A) (A) (A) (A) (A) (A) (A) (A)
                 (A) (A) (A) (A) (A) (A) (A) (A) (A) (A) (A) (A)
                 (A) (A) (A) (A) (A) (A) (A) (A) (A) (A) (A) (A)
                 (A) (A) (A) (A) (A) (A) (A) (A) (A) (A) (A) (A)
                 (A) (A) (A) (A) (A) (A) (A) (A) (A) (A) (A) (A)
                 (A) (A) (A) (A) (A) (A) (A) (A) (A) (A) (A) (A)
                 (A) (A) (A) (A) (A) (A) (A) (A) (A) (A) (A) (A)
                 (A) (A) (A) (A) (A) (A) (A) (A) (A) (A) (A) (A)
                 (A) (A) (A) (A) (A) (A) (A) (A) (A) (A) (A) (A)
                 (A) (A) (A) (A) (A) (A) (A) (A) (A) (A) (A) (A)
                 (A) (A) (A) (A) (A) (A) (A) (A) (A) (A) (A) (A)
                 (A) (A) (A) (A) (A) (A) (A) (A) (A) (A) (A) (A)
                 (A) (A) (A) (A) (A) (A) (A) (A) (A) (A) (A) (A)
                 (A) (A) (A) (A) (A) (A) (A) (A) (A) (A) (A) (A)
                 (A) (A) (A) (A) (A) (A) (A) (A) (A) (A) (A) (A)
                 (A) (A) (A) (A) (A) (A) (A) (A) (A) (A) (A) (A)
                 (A) (A) (A) (A) (A) (A) (A) (A) (A) (A) (A) (A)
                 (A) (A) (A) (A) (A) (A) (A) (A) (A) (A) (A) (A)
                 (A) (A) (A) (A) (A) (A) (A) (A) (A) (A) (A) (A)
                 (A) (A) (A) (A) (A) (A) (A) (A) (A) (A) (A) (A)
                 (A) (A) (A) (A) (A) (A) (A) (A) (A) (A) (A) (A)
                 (A) (A) (A) (A) (A) (A) (A) (A) (A) (A) (A) (A)
                 (A) (A) (A) (A) (A) (A) (A) (A) (A) (A) (A) (A)
                 (A) (A) (A) (A) (A) (A) (A) (A) (A) (A) (A) (A)
                 (A) (A) (A) (A) (A) (A) (A) (A) (A) (A) (A) (A)
                 (A) (A) (A) (A) (A) (A) (A) (A) (A) (A) (A) (A)
                 (A) (A) (A) (A) (A) (A) (A) (A) (A) (A) (A) (A)
                 (A) (A) (A) (A) (A) (A) (A) (A) (A) (A) (A) (A)
                 (A) (A) (A) (A) (A) (A) (A) (A) (A) (A) (A) (A)
                 (A) (A) (A) (A) (A) (A) (A) (A) (A) (A) (A) (A)
                 (A) (A) (A) (A) (A) (A) (A) (A) (A) (A) (A) (A)
                 (A) (A) (A) (A) (A) (A) (A) (A) (A) (A) (A) (A)
                 (A) (A) (A) (A) (A) (A) (A) (A) (A) (A) (A) (A)
                 (A) (A) (A) (A) (A) (A) (A) (A) (A) (A) (A) (A)
                 (A) (A) (A) (A) (A) (A) (A) (A) (A) (A) (A) (A)
                 (A) (A) (A) (A) (A) (A) (A) (A) (A) (A) (A) (A)
                 (A) (A) (A) (A) (A) (A) (A) (A) (A) (A) (A) (A)
 The electronic state is 1-A.
 Alpha  occ. eigenvalues --  -19.20022 -19.19497 -19.18769 -19.18383 -19.18264
 Alpha  occ. eigenvalues --  -19.17714 -19.17126 -19.16710 -19.16011 -19.15331
 Alpha  occ. eigenvalues --  -19.14330 -10.31277 -10.30813 -10.26148 -10.25980
 Alpha  occ. eigenvalues --  -10.25550 -10.25512 -10.25445 -10.25433 -10.25377
 Alpha  occ. eigenvalues --  -10.25168 -10.25072 -10.24271  -1.10560  -1.09115
 Alpha  occ. eigenvalues --   -1.05371  -1.05122  -1.03746  -1.03414  -1.02621
 Alpha  occ. eigenvalues --   -1.02257  -1.02042  -1.00992  -1.00065  -0.82413
 Alpha  occ. eigenvalues --   -0.80958  -0.79747  -0.78367  -0.71793  -0.70119
 Alpha  occ. eigenvalues --   -0.67725  -0.64941  -0.63340  -0.62640  -0.61589
 Alpha  occ. eigenvalues --   -0.60352  -0.56358  -0.55808  -0.55113  -0.54858
 Alpha  occ. eigenvalues --   -0.54565  -0.53502  -0.52893  -0.52028  -0.51595
 Alpha  occ. eigenvalues --   -0.50729  -0.50351  -0.49430  -0.48588  -0.46755
 Alpha  occ. eigenvalues --   -0.45813  -0.45021  -0.44758  -0.43994  -0.43331
 Alpha  occ. eigenvalues --   -0.42286  -0.42158  -0.41672  -0.40617  -0.39949
 Alpha  occ. eigenvalues --   -0.39029  -0.37787  -0.37369  -0.35851  -0.35407
 Alpha  occ. eigenvalues --   -0.35088  -0.34875  -0.34049  -0.33592  -0.32989
 Alpha  occ. eigenvalues --   -0.32684  -0.31600  -0.30833  -0.30496  -0.29914
 Alpha  occ. eigenvalues --   -0.29491  -0.28637  -0.28512  -0.28122  -0.26749
 Alpha  occ. eigenvalues --   -0.26559
 Alpha virt. eigenvalues --   -0.01753  -0.01606  -0.01445  -0.00130   0.00383
 Alpha virt. eigenvalues --    0.00993   0.01865   0.02127   0.02732   0.03248
 Alpha virt. eigenvalues --    0.03558   0.04176   0.04608   0.05387   0.05706
 Alpha virt. eigenvalues --    0.06110   0.06377   0.07232   0.07865   0.08286
 Alpha virt. eigenvalues --    0.08784   0.08924   0.09039   0.09736   0.10171
 Alpha virt. eigenvalues --    0.10673   0.10933   0.11538   0.11746   0.12112
 Alpha virt. eigenvalues --    0.12657   0.12837   0.13201   0.13484   0.13982
 Alpha virt. eigenvalues --    0.14115   0.14300   0.14694   0.15012   0.15361
 Alpha virt. eigenvalues --    0.15540   0.16254   0.16928   0.17117   0.17231
 Alpha virt. eigenvalues --    0.17426   0.17926   0.18031   0.18210   0.18603
 Alpha virt. eigenvalues --    0.18908   0.19342   0.19740   0.19886   0.20213
 Alpha virt. eigenvalues --    0.20488   0.20726   0.20980   0.21385   0.21597
 Alpha virt. eigenvalues --    0.22094   0.22301   0.22631   0.22829   0.23055
 Alpha virt. eigenvalues --    0.23696   0.23808   0.24229   0.24452   0.24975
 Alpha virt. eigenvalues --    0.25230   0.25414   0.25548   0.25749   0.26229
 Alpha virt. eigenvalues --    0.26282   0.26634   0.26912   0.27147   0.27565
 Alpha virt. eigenvalues --    0.27729   0.27901   0.28279   0.28689   0.29054
 Alpha virt. eigenvalues --    0.29133   0.29789   0.30218   0.30616   0.30829
 Alpha virt. eigenvalues --    0.31121   0.31405   0.31587   0.31909   0.32210
 Alpha virt. eigenvalues --    0.32336   0.33121   0.33192   0.33717   0.33959
 Alpha virt. eigenvalues --    0.34456   0.34857   0.35155   0.35468   0.36151
 Alpha virt. eigenvalues --    0.36313   0.36532   0.37400   0.37475   0.37755
 Alpha virt. eigenvalues --    0.38039   0.38321   0.38868   0.39118   0.39462
 Alpha virt. eigenvalues --    0.40128   0.40403   0.40502   0.40896   0.41768
 Alpha virt. eigenvalues --    0.41874   0.42231   0.43637   0.43677   0.44168
 Alpha virt. eigenvalues --    0.44483   0.45229   0.46327   0.46970   0.47075
 Alpha virt. eigenvalues --    0.47910   0.48638   0.48879   0.49273   0.50473
 Alpha virt. eigenvalues --    0.51122   0.51251   0.55964   0.62790   0.64228
 Alpha virt. eigenvalues --    0.65345   0.65966   0.67359   0.68662   0.70438
 Alpha virt. eigenvalues --    0.70746   0.71378   0.72413   0.72874   0.73512
 Alpha virt. eigenvalues --    0.75627   0.76389   0.76814   0.77878   0.78797
 Alpha virt. eigenvalues --    0.79842   0.80785   0.81059   0.83013   0.83509
 Alpha virt. eigenvalues --    0.85355   0.87003   0.87393   0.88463   0.88769
 Alpha virt. eigenvalues --    0.90603   0.92056   0.93092   0.94117   0.95047
 Alpha virt. eigenvalues --    0.96811   0.97273   0.97555   1.00196   1.00823
 Alpha virt. eigenvalues --    1.01755   1.02392   1.02707   1.04123   1.04776
 Alpha virt. eigenvalues --    1.05406   1.05898   1.06531   1.06648   1.07132
 Alpha virt. eigenvalues --    1.08214   1.08989   1.09722   1.09850   1.11116
 Alpha virt. eigenvalues --    1.12075   1.12531   1.13459   1.14230   1.14861
 Alpha virt. eigenvalues --    1.16716   1.17913   1.18983   1.20285   1.21341
 Alpha virt. eigenvalues --    1.22487   1.23139   1.23554   1.24759   1.25431
 Alpha virt. eigenvalues --    1.26032   1.26420   1.26735   1.28069   1.28386
 Alpha virt. eigenvalues --    1.29456   1.29602   1.30167   1.30803   1.31336
 Alpha virt. eigenvalues --    1.32027   1.32568   1.33164   1.33392   1.34483
 Alpha virt. eigenvalues --    1.35089   1.36196   1.36386   1.37114   1.37423
 Alpha virt. eigenvalues --    1.37741   1.39935   1.41155   1.42419   1.43394
 Alpha virt. eigenvalues --    1.43908   1.45115   1.46290   1.46660   1.47537
 Alpha virt. eigenvalues --    1.48486   1.49001   1.50448   1.51648   1.51862
 Alpha virt. eigenvalues --    1.54938   1.55698   1.56551   1.57202   1.57779
 Alpha virt. eigenvalues --    1.58464   1.59270   1.59849   1.60315   1.61262
 Alpha virt. eigenvalues --    1.62326   1.63519   1.64026   1.65170   1.65363
 Alpha virt. eigenvalues --    1.66431   1.67140   1.68291   1.69113   1.69647
 Alpha virt. eigenvalues --    1.70319   1.70575   1.71649   1.72932   1.73989
 Alpha virt. eigenvalues --    1.74409   1.75699   1.75974   1.76587   1.77711
 Alpha virt. eigenvalues --    1.78360   1.79322   1.80154   1.82078   1.82567
 Alpha virt. eigenvalues --    1.83237   1.84816   1.85082   1.86182   1.87140
 Alpha virt. eigenvalues --    1.89070   1.89249   1.90251   1.90521   1.91602
 Alpha virt. eigenvalues --    1.92316   1.92556   1.93278   1.94366   1.94924
 Alpha virt. eigenvalues --    1.95943   1.96456   1.97016   1.97725   1.98828
 Alpha virt. eigenvalues --    1.99677   1.99956   2.00057   2.01051   2.01869
 Alpha virt. eigenvalues --    2.02445   2.03485   2.05002   2.05417   2.06320
 Alpha virt. eigenvalues --    2.06592   2.08881   2.08940   2.09959   2.10659
 Alpha virt. eigenvalues --    2.11944   2.12489   2.13141   2.15043   2.15776
 Alpha virt. eigenvalues --    2.17187   2.17747   2.18533   2.19300   2.19964
 Alpha virt. eigenvalues --    2.20784   2.22292   2.23400   2.24650   2.27118
 Alpha virt. eigenvalues --    2.29449   2.31333   2.33639   2.34617   2.35795
 Alpha virt. eigenvalues --    2.36322   2.37195   2.37548   2.38668   2.39454
 Alpha virt. eigenvalues --    2.40519   2.41765   2.42397   2.43815   2.44579
 Alpha virt. eigenvalues --    2.45759   2.47454   2.47907   2.48746   2.49257
 Alpha virt. eigenvalues --    2.51003   2.51218   2.52996   2.53310   2.54721
 Alpha virt. eigenvalues --    2.55732   2.57156   2.59057   2.59893   2.60463
 Alpha virt. eigenvalues --    2.61798   2.62890   2.63470   2.64381   2.64947
 Alpha virt. eigenvalues --    2.65518   2.66344   2.66838   2.67652   2.68836
 Alpha virt. eigenvalues --    2.69729   2.72001   2.72123   2.73241   2.74517
 Alpha virt. eigenvalues --    2.75560   2.77173   2.77737   2.78473   2.79160
 Alpha virt. eigenvalues --    2.80939   2.84055   2.84256   2.84884   2.86394
 Alpha virt. eigenvalues --    2.87373   2.87632   2.88609   2.89806   2.90446
 Alpha virt. eigenvalues --    2.90603   2.92112   2.92433   2.93179   2.94066
 Alpha virt. eigenvalues --    2.94660   2.95196   2.96422   2.97002   2.99268
 Alpha virt. eigenvalues --    3.00170   3.02279   3.03107   3.05453   3.06809
 Alpha virt. eigenvalues --    3.07423   3.08612   3.10292   3.11060   3.15219
 Alpha virt. eigenvalues --    3.18644   3.20209   3.21835   3.22958   3.31445
 Alpha virt. eigenvalues --    3.31866   3.36247   3.37651   3.39299   3.40501
 Alpha virt. eigenvalues --    3.42165   3.44051   3.46241   3.46813   3.47529
 Alpha virt. eigenvalues --    3.50156   3.50860   3.51497   3.52555   3.53495
 Alpha virt. eigenvalues --    3.55922   3.56961   3.60557   3.61977   3.65627
 Alpha virt. eigenvalues --    3.66032   3.68017   3.68750   4.27804   4.32397
 Alpha virt. eigenvalues --    4.35370   4.38549   4.39377   4.42462   4.45026
 Alpha virt. eigenvalues --    4.47951   4.48321   4.51886   4.53816   4.55945
 Alpha virt. eigenvalues --    4.57454   4.60340   4.63250   4.64982   4.69415
 Alpha virt. eigenvalues --    4.78557   4.80315   4.84486   4.87158   4.88440
 Alpha virt. eigenvalues --    4.92558
          Condensed to atoms (all electrons):
              1          2          3          4          5          6
     1  O    8.216929   0.393250  -0.154801  -0.011696   0.023307   0.023897
     2  C    0.393250   7.712532  -1.002848  -0.118307  -0.096358  -1.506575
     3  C   -0.154801  -1.002848   8.787810   0.253953   0.056629  -0.615950
     4  O   -0.011696  -0.118307   0.253953   8.217710   0.204403  -0.063964
     5  H    0.023307  -0.096358   0.056629   0.204403   0.420844   0.034108
     6  C    0.023897  -1.506575  -0.615950  -0.063964   0.034108  11.535022
     7  O   -0.000441   0.013353  -0.165944   0.004309  -0.000595   0.408556
     8  H    0.000016  -0.006578   0.031166  -0.000331   0.000011   0.028786
     9  C   -0.009837  -0.034685  -0.434234   0.009966  -0.004370   0.756805
    10  O   -0.026284   0.035170   0.011326   0.000549  -0.000091  -0.006682
    11  H    0.004249  -0.008620  -0.000120   0.000002   0.000000   0.000046
    12  C   -0.179894  -0.910341  -0.136698   0.023161   0.018038   0.267101
    13  O    0.003502  -0.019956  -0.014359  -0.000618   0.000030  -0.081383
    14  C    0.039960   0.716247  -0.129776   0.012447  -0.002566  -3.661000
    15  O    0.000407  -0.028866   0.005552  -0.000252   0.000076   0.195785
    16  C    0.002973   0.159475  -0.274540  -0.001550   0.000905  -0.837835
    17  C    0.001082  -0.017901  -0.080536   0.000715   0.000056   0.055285
    18  O    0.000020   0.007373  -0.001378  -0.000024   0.000000   0.016745
    19  H   -0.000017  -0.000866   0.006006  -0.000004   0.000000   0.010968
    20  C    0.000039   0.005404  -0.004339  -0.000143   0.000001   0.169685
    21  O    0.000000  -0.000014   0.000002   0.000000   0.000000  -0.000430
    22  H    0.000000   0.000000   0.000002   0.000000   0.000000  -0.000071
    23  C    0.000177   0.021095  -0.052853   0.000242   0.000015  -0.256989
    24  O    0.000004  -0.001037  -0.011352  -0.000129  -0.000004  -0.007312
    25  H    0.000000   0.000115   0.001141   0.000003   0.000000  -0.003968
    26  C   -0.000334   0.016515  -0.027061   0.000379  -0.000045  -0.246071
    27  O    0.000000  -0.000040   0.000952   0.000001   0.000000   0.006167
    28  C   -0.000004  -0.001046   0.004800   0.000004   0.000000  -0.011855
    29  O    0.000000  -0.000002   0.000011   0.000000   0.000000  -0.000603
    30  H    0.243884   0.037006   0.020703  -0.000888  -0.001762  -0.003242
    31  H    0.000000   0.000000   0.000000   0.000000   0.000000   0.000006
    32  H    0.000000  -0.000004   0.000016   0.000000   0.000000   0.000290
    33  H   -0.053520   0.470767  -0.085813  -0.002937  -0.000873  -0.027873
    34  H   -0.003702   0.085121   0.199233  -0.036800  -0.009074  -0.154534
    35  H    0.004781   0.027046  -0.036103  -0.000127  -0.000005  -0.043001
    36  H    0.000132  -0.002207  -0.003739   0.000034   0.000000   0.001087
    37  H   -0.000098   0.037166  -0.038936  -0.000181   0.000007  -0.132387
    38  H   -0.000717   0.098221  -0.221003   0.002671  -0.000057   0.299241
    39  H   -0.000003  -0.000839   0.004204  -0.000001   0.000000   0.012190
    40  H    0.000000  -0.000022   0.000416   0.000000   0.000000   0.003137
    41  H    0.000000   0.000034   0.000155   0.000000   0.000000   0.000875
    42  H    0.000000  -0.000112   0.000781   0.000000   0.000000   0.002652
    43  H    0.000000   0.000007  -0.000052   0.000000   0.000000  -0.000591
    44  H    0.000000   0.000026   0.001004   0.000001   0.000000   0.002454
    45  H   -0.000884  -0.013953  -0.003930  -0.000076   0.000000   0.019667
              7          8          9         10         11         12
     1  O   -0.000441   0.000016  -0.009837  -0.026284   0.004249  -0.179894
     2  C    0.013353  -0.006578  -0.034685   0.035170  -0.008620  -0.910341
     3  C   -0.165944   0.031166  -0.434234   0.011326  -0.000120  -0.136698
     4  O    0.004309  -0.000331   0.009966   0.000549   0.000002   0.023161
     5  H   -0.000595   0.000011  -0.004370  -0.000091   0.000000   0.018038
     6  C    0.408556   0.028786   0.756805  -0.006682   0.000046   0.267101
     7  O    8.225506   0.205368   0.001182   0.000032   0.000000   0.038223
     8  H    0.205368   0.341818   0.000127   0.000000   0.000000  -0.003180
     9  C    0.001182   0.000127   8.876762   0.046372   0.016399  -3.103810
    10  O    0.000032   0.000000   0.046372   8.422852   0.205483   0.023076
    11  H    0.000000   0.000000   0.016399   0.205483   0.414549   0.008663
    12  C    0.038223  -0.003180  -3.103810   0.023076   0.008663  11.564116
    13  O    0.010684   0.000156   0.067745  -0.004248   0.000068  -0.221676
    14  C   -0.170527  -0.054608  -0.963522   0.001286  -0.003838  -0.991688
    15  O   -0.006888   0.020467  -0.003106  -0.000153   0.000007   0.020764
    16  C    0.038459   0.008801  -0.281466  -0.003155  -0.000117   0.124474
    17  C    0.004155   0.001453  -0.038244  -0.000386  -0.000021  -0.294745
    18  O   -0.000051  -0.000027   0.005797  -0.000048   0.000013  -0.010356
    19  H   -0.000048  -0.000001  -0.001525   0.000011  -0.000006  -0.008791
    20  C    0.003023   0.001229   0.024463   0.000127   0.000005  -0.058401
    21  O   -0.000007   0.000000  -0.000099   0.000000   0.000000  -0.000117
    22  H    0.000000   0.000000  -0.000004   0.000000   0.000000   0.000072
    23  C    0.028588  -0.000607  -0.005161  -0.000041   0.000000  -0.037081
    24  O   -0.026207   0.008540   0.000423   0.000000   0.000000   0.004644
    25  H    0.001689  -0.003720  -0.000024   0.000000   0.000000  -0.000590
    26  C   -0.033467  -0.015139  -0.005113  -0.000007   0.000002   0.114973
    27  O    0.000335   0.000015  -0.000278   0.000000   0.000000  -0.001074
    28  C   -0.000287  -0.000056  -0.003270  -0.000002   0.000000   0.013163
    29  O    0.000000  -0.000001  -0.000046   0.000000   0.000000   0.000011
    30  H   -0.000015   0.000000  -0.007384   0.001252  -0.000176  -0.034602
    31  H    0.000000   0.000000   0.000000   0.000000   0.000000  -0.000005
    32  H    0.000001   0.000000   0.000005   0.000000   0.000000  -0.000019
    33  H   -0.000033   0.000003   0.010780  -0.000565   0.000008  -0.173261
    34  H    0.003313  -0.000073   0.022459   0.000251   0.000001  -0.021628
    35  H   -0.000138   0.000004   0.035420   0.005683  -0.000120   0.132898
    36  H   -0.000010   0.000000   0.387778  -0.040164  -0.011474  -0.018921
    37  H    0.003091  -0.000663   0.007763   0.000090   0.000000  -0.017180
    38  H   -0.045798  -0.007021   0.013948   0.000032   0.000000  -0.006701
    39  H   -0.000426   0.000128   0.000240   0.000002   0.000000   0.004016
    40  H    0.000007   0.000002   0.000184   0.000000   0.000000   0.001403
    41  H    0.000005   0.000000  -0.000007   0.000000   0.000000   0.000488
    42  H    0.000052   0.000025   0.000078   0.000000   0.000000   0.000627
    43  H   -0.000608   0.000397  -0.000004   0.000000   0.000000  -0.000042
    44  H    0.001766   0.000573   0.000017   0.000000   0.000000   0.001021
    45  H    0.000000   0.000000   0.702402  -0.068926   0.000289  -0.344380
             13         14         15         16         17         18
     1  O    0.003502   0.039960   0.000407   0.002973   0.001082   0.000020
     2  C   -0.019956   0.716247  -0.028866   0.159475  -0.017901   0.007373
     3  C   -0.014359  -0.129776   0.005552  -0.274540  -0.080536  -0.001378
     4  O   -0.000618   0.012447  -0.000252  -0.001550   0.000715  -0.000024
     5  H    0.000030  -0.002566   0.000076   0.000905   0.000056   0.000000
     6  C   -0.081383  -3.661000   0.195785  -0.837835   0.055285   0.016745
     7  O    0.010684  -0.170527  -0.006888   0.038459   0.004155  -0.000051
     8  H    0.000156  -0.054608   0.020467   0.008801   0.001453  -0.000027
     9  C    0.067745  -0.963522  -0.003106  -0.281466  -0.038244   0.005797
    10  O   -0.004248   0.001286  -0.000153  -0.003155  -0.000386  -0.000048
    11  H    0.000068  -0.003838   0.000007  -0.000117  -0.000021   0.000013
    12  C   -0.221676  -0.991688   0.020764   0.124474  -0.294745  -0.010356
    13  O    8.507457   0.184721  -0.047363   0.124728  -0.048195   0.016018
    14  C    0.184721  11.700703   0.030394  -0.225869  -0.872008  -0.051995
    15  O   -0.047363   0.030394   8.340427  -0.091316   0.070589   0.001441
    16  C    0.124728  -0.225869  -0.091316  15.671684  -3.589733  -0.086002
    17  C   -0.048195  -0.872008   0.070589  -3.589733   9.733436   0.372936
    18  O    0.016018  -0.051995   0.001441  -0.086002   0.372936   8.190871
    19  H    0.017499   0.000068   0.018557  -0.123247   0.065935   0.203193
    20  C   -0.020633  -0.049153   0.059203  -1.983734  -0.013856  -0.137896
    21  O   -0.000243   0.001038  -0.000872  -0.054304  -0.145956   0.009431
    22  H   -0.000002  -0.000838   0.000031  -0.004472   0.036801  -0.000752
    23  C    0.028977  -0.280255  -0.002782   0.193474  -0.091582   0.000912
    24  O   -0.004027   0.134935  -0.030030  -0.005188  -0.004770   0.000177
    25  H    0.000046  -0.009990   0.001656  -0.012722   0.000304   0.000000
    26  C   -0.031070  -0.574318  -0.076631  -4.710323   1.166200   0.030205
    27  O    0.000642  -0.022819   0.010646  -0.097373  -0.006824   0.001248
    28  C    0.003045   0.058479   0.010423   1.033476  -0.226424  -0.004054
    29  O    0.000039  -0.006218  -0.000064  -0.009814   0.027252  -0.000699
    30  H   -0.000470  -0.001157  -0.000020   0.000171  -0.000070   0.000000
    31  H    0.000000   0.000019  -0.000002  -0.005222   0.010354  -0.000054
    32  H    0.000005   0.004757  -0.000108   0.111781  -0.040271  -0.000341
    33  H    0.011273   0.088460  -0.000337   0.002183   0.001221   0.000036
    34  H    0.005310   0.118238  -0.000695   0.010626   0.001275   0.000016
    35  H   -0.045502   0.145363  -0.001192   0.004313   0.007477   0.000049
    36  H    0.002669   0.004335  -0.000227   0.006086  -0.000171  -0.001198
    37  H   -0.058389   0.381160  -0.066264   0.056437   0.028389  -0.000803
    38  H    0.013787   0.039928  -0.013380   0.046579   0.006317   0.000050
    39  H   -0.000264   0.050493  -0.067824   0.401620  -0.068125   0.000790
    40  H    0.001449   0.048710  -0.009482   0.131808   0.260904  -0.043528
    41  H    0.000592   0.010717  -0.001616   0.115893  -0.161715   0.004257
    42  H   -0.000339   0.046727   0.004039   0.113326  -0.078957   0.000162
    43  H    0.000000   0.002486   0.000166   0.006531  -0.004522   0.000024
    44  H    0.000217   0.008098   0.005343   0.012548  -0.010162   0.000031
    45  H    0.006092   0.001225  -0.000348  -0.007558   0.001537   0.000196
             19         20         21         22         23         24
     1  O   -0.000017   0.000039   0.000000   0.000000   0.000177   0.000004
     2  C   -0.000866   0.005404  -0.000014   0.000000   0.021095  -0.001037
     3  C    0.006006  -0.004339   0.000002   0.000002  -0.052853  -0.011352
     4  O   -0.000004  -0.000143   0.000000   0.000000   0.000242  -0.000129
     5  H    0.000000   0.000001   0.000000   0.000000   0.000015  -0.000004
     6  C    0.010968   0.169685  -0.000430  -0.000071  -0.256989  -0.007312
     7  O   -0.000048   0.003023  -0.000007   0.000000   0.028588  -0.026207
     8  H   -0.000001   0.001229   0.000000   0.000000  -0.000607   0.008540
     9  C   -0.001525   0.024463  -0.000099  -0.000004  -0.005161   0.000423
    10  O    0.000011   0.000127   0.000000   0.000000  -0.000041   0.000000
    11  H   -0.000006   0.000005   0.000000   0.000000   0.000000   0.000000
    12  C   -0.008791  -0.058401  -0.000117   0.000072  -0.037081   0.004644
    13  O    0.017499  -0.020633  -0.000243  -0.000002   0.028977  -0.004027
    14  C    0.000068  -0.049153   0.001038  -0.000838  -0.280255   0.134935
    15  O    0.018557   0.059203  -0.000872   0.000031  -0.002782  -0.030030
    16  C   -0.123247  -1.983734  -0.054304  -0.004472   0.193474  -0.005188
    17  C    0.065935  -0.013856  -0.145956   0.036801  -0.091582  -0.004770
    18  O    0.203193  -0.137896   0.009431  -0.000752   0.000912   0.000177
    19  H    0.354149   0.033322  -0.001201   0.000014  -0.003913   0.000015
    20  C    0.033322   9.177570   0.336213  -0.014830   0.068563  -0.008872
    21  O   -0.001201   0.336213   8.201721   0.217914   0.004235   0.000019
    22  H    0.000014  -0.014830   0.217914   0.416548  -0.000359   0.000000
    23  C   -0.003913   0.068563   0.004235  -0.000359   6.743264  -0.210855
    24  O    0.000015  -0.008872   0.000019   0.000000  -0.210855   8.565130
    25  H    0.000000   0.000280   0.000000   0.000000   0.043375   0.194236
    26  C    0.010010  -0.180649   0.057791   0.002591  -1.038356   0.119480
    27  O    0.000049  -0.194168   0.007993  -0.000209  -0.100712   0.004376
    28  C   -0.000758  -1.209391  -0.103734  -0.012758  -0.137163   0.011575
    29  O    0.000023  -0.195261   0.013975   0.013688  -0.003479  -0.000003
    30  H    0.000000   0.000000   0.000000   0.000000   0.000003   0.000000
    31  H    0.000000  -0.007392  -0.004255  -0.001245   0.000895  -0.000001
    32  H    0.000001  -0.114423   0.002340  -0.000145  -0.000179   0.000057
    33  H    0.000006   0.000025   0.000000   0.000000   0.000153   0.000006
    34  H    0.000000  -0.000010   0.000000   0.000000   0.001034   0.000061
    35  H    0.000408   0.000849   0.000000   0.000000   0.000678   0.000005
    36  H    0.000719  -0.001178  -0.000002   0.000000   0.000015   0.000000
    37  H    0.000412   0.007837   0.000008   0.000000   0.012853   0.000352
    38  H   -0.000002   0.000340   0.000000   0.000000   0.010366   0.001565
    39  H   -0.000306   0.029967  -0.000268   0.000002   0.017938  -0.000373
    40  H   -0.002564  -0.106287   0.002508  -0.000116   0.010322   0.000015
    41  H    0.000030   0.355658  -0.038536  -0.008188   0.011519  -0.000008
    42  H    0.000016  -0.007411  -0.000091   0.000003   0.013709   0.007350
    43  H    0.000000   0.001677  -0.000007   0.000000   0.407590  -0.039481
    44  H    0.000000   0.001553  -0.000008   0.000000   0.534463  -0.079610
    45  H   -0.000009   0.000386   0.000000   0.000000   0.000011   0.000000
             25         26         27         28         29         30
     1  O    0.000000  -0.000334   0.000000  -0.000004   0.000000   0.243884
     2  C    0.000115   0.016515  -0.000040  -0.001046  -0.000002   0.037006
     3  C    0.001141  -0.027061   0.000952   0.004800   0.000011   0.020703
     4  O    0.000003   0.000379   0.000001   0.000004   0.000000  -0.000888
     5  H    0.000000  -0.000045   0.000000   0.000000   0.000000  -0.001762
     6  C   -0.003968  -0.246071   0.006167  -0.011855  -0.000603  -0.003242
     7  O    0.001689  -0.033467   0.000335  -0.000287   0.000000  -0.000015
     8  H   -0.003720  -0.015139   0.000015  -0.000056  -0.000001   0.000000
     9  C   -0.000024  -0.005113  -0.000278  -0.003270  -0.000046  -0.007384
    10  O    0.000000  -0.000007   0.000000  -0.000002   0.000000   0.001252
    11  H    0.000000   0.000002   0.000000   0.000000   0.000000  -0.000176
    12  C   -0.000590   0.114973  -0.001074   0.013163   0.000011  -0.034602
    13  O    0.000046  -0.031070   0.000642   0.003045   0.000039  -0.000470
    14  C   -0.009990  -0.574318  -0.022819   0.058479  -0.006218  -0.001157
    15  O    0.001656  -0.076631   0.010646   0.010423  -0.000064  -0.000020
    16  C   -0.012722  -4.710323  -0.097373   1.033476  -0.009814   0.000171
    17  C    0.000304   1.166200  -0.006824  -0.226424   0.027252  -0.000070
    18  O    0.000000   0.030205   0.001248  -0.004054  -0.000699   0.000000
    19  H    0.000000   0.010010   0.000049  -0.000758   0.000023   0.000000
    20  C    0.000280  -0.180649  -0.194168  -1.209391  -0.195261   0.000000
    21  O    0.000000   0.057791   0.007993  -0.103734   0.013975   0.000000
    22  H    0.000000   0.002591  -0.000209  -0.012758   0.013688   0.000000
    23  C    0.043375  -1.038356  -0.100712  -0.137163  -0.003479   0.000003
    24  O    0.194236   0.119480   0.004376   0.011575  -0.000003   0.000000
    25  H    0.412925   0.003851  -0.000429  -0.001655   0.000001   0.000000
    26  C    0.003851  12.489754   0.303073  -0.690166  -0.026015  -0.000003
    27  O   -0.000429   0.303073   8.414229   0.126562  -0.094366   0.000000
    28  C   -0.001655  -0.690166   0.126562   5.945269   0.409479   0.000000
    29  O    0.000001  -0.026015  -0.094366   0.409479   8.271831   0.000000
    30  H    0.000000  -0.000003   0.000000   0.000000   0.000000   0.378452
    31  H    0.000000   0.002690   0.000034   0.010088   0.233212   0.000000
    32  H    0.000000  -0.072166  -0.053808   0.459568  -0.057794   0.000000
    33  H    0.000000   0.000000   0.000000  -0.000008   0.000000  -0.010304
    34  H    0.000000  -0.000170   0.000000  -0.000014   0.000000   0.000032
    35  H    0.000000  -0.000601   0.000000  -0.000145   0.000000  -0.000022
    36  H    0.000000  -0.000040   0.000000   0.000084   0.000000  -0.000029
    37  H    0.000010   0.005352   0.000101  -0.001653   0.000002   0.000003
    38  H   -0.000007  -0.007106   0.000005  -0.000159   0.000000   0.000014
    39  H    0.000003  -0.195380   0.009593   0.007411  -0.001494   0.000000
    40  H    0.000000  -0.093903   0.003869   0.012475  -0.000725   0.000000
    41  H    0.000000  -0.029437   0.006078  -0.020948  -0.004258   0.000000
    42  H   -0.000152   0.138224  -0.039179   0.033538  -0.002123   0.000000
    43  H   -0.010603  -0.023147  -0.010326  -0.000863  -0.000357   0.000000
    44  H   -0.001504  -0.209822   0.009757   0.006362  -0.000158   0.000000
    45  H    0.000000  -0.000367   0.000000  -0.000030   0.000000   0.000200
             31         32         33         34         35         36
     1  O    0.000000   0.000000  -0.053520  -0.003702   0.004781   0.000132
     2  C    0.000000  -0.000004   0.470767   0.085121   0.027046  -0.002207
     3  C    0.000000   0.000016  -0.085813   0.199233  -0.036103  -0.003739
     4  O    0.000000   0.000000  -0.002937  -0.036800  -0.000127   0.000034
     5  H    0.000000   0.000000  -0.000873  -0.009074  -0.000005   0.000000
     6  C    0.000006   0.000290  -0.027873  -0.154534  -0.043001   0.001087
     7  O    0.000000   0.000001  -0.000033   0.003313  -0.000138  -0.000010
     8  H    0.000000   0.000000   0.000003  -0.000073   0.000004   0.000000
     9  C    0.000000   0.000005   0.010780   0.022459   0.035420   0.387778
    10  O    0.000000   0.000000  -0.000565   0.000251   0.005683  -0.040164
    11  H    0.000000   0.000000   0.000008   0.000001  -0.000120  -0.011474
    12  C   -0.000005  -0.000019  -0.173261  -0.021628   0.132898  -0.018921
    13  O    0.000000   0.000005   0.011273   0.005310  -0.045502   0.002669
    14  C    0.000019   0.004757   0.088460   0.118238   0.145363   0.004335
    15  O   -0.000002  -0.000108  -0.000337  -0.000695  -0.001192  -0.000227
    16  C   -0.005222   0.111781   0.002183   0.010626   0.004313   0.006086
    17  C    0.010354  -0.040271   0.001221   0.001275   0.007477  -0.000171
    18  O   -0.000054  -0.000341   0.000036   0.000016   0.000049  -0.001198
    19  H    0.000000   0.000001   0.000006   0.000000   0.000408   0.000719
    20  C   -0.007392  -0.114423   0.000025  -0.000010   0.000849  -0.001178
    21  O   -0.004255   0.002340   0.000000   0.000000   0.000000  -0.000002
    22  H   -0.001245  -0.000145   0.000000   0.000000   0.000000   0.000000
    23  C    0.000895  -0.000179   0.000153   0.001034   0.000678   0.000015
    24  O   -0.000001   0.000057   0.000006   0.000061   0.000005   0.000000
    25  H    0.000000   0.000000   0.000000   0.000000   0.000000   0.000000
    26  C    0.002690  -0.072166   0.000000  -0.000170  -0.000601  -0.000040
    27  O    0.000034  -0.053808   0.000000   0.000000   0.000000   0.000000
    28  C    0.010088   0.459568  -0.000008  -0.000014  -0.000145   0.000084
    29  O    0.233212  -0.057794   0.000000   0.000000   0.000000   0.000000
    30  H    0.000000   0.000000  -0.010304   0.000032  -0.000022  -0.000029
    31  H    0.405592  -0.007474   0.000000   0.000000   0.000000   0.000000
    32  H   -0.007474   0.622430   0.000000   0.000000   0.000000   0.000000
    33  H    0.000000   0.000000   0.609808   0.006212   0.006988  -0.000081
    34  H    0.000000   0.000000   0.006212   0.617490   0.003378   0.000005
    35  H    0.000000   0.000000   0.006988   0.003378   0.617352  -0.010204
    36  H    0.000000   0.000000  -0.000081   0.000005  -0.010204   0.598696
    37  H    0.000000   0.000000   0.000028   0.002344   0.005288   0.000009
    38  H    0.000000   0.000000   0.002855   0.007272   0.000114   0.000001
    39  H    0.000004   0.000095   0.000000  -0.000002  -0.000024   0.000000
    40  H    0.000008   0.003316   0.000000   0.000000   0.000000   0.000000
    41  H    0.000137   0.005262   0.000000   0.000000   0.000000   0.000000
    42  H    0.000027   0.004306   0.000000   0.000000   0.000000   0.000000
    43  H   -0.000002  -0.000036   0.000000   0.000000   0.000000   0.000000
    44  H    0.000000  -0.000008   0.000000   0.000000   0.000000   0.000000
    45  H    0.000000   0.000000   0.004243   0.000000   0.006950  -0.049539
             37         38         39         40         41         42
     1  O   -0.000098  -0.000717  -0.000003   0.000000   0.000000   0.000000
     2  C    0.037166   0.098221  -0.000839  -0.000022   0.000034  -0.000112
     3  C   -0.038936  -0.221003   0.004204   0.000416   0.000155   0.000781
     4  O   -0.000181   0.002671  -0.000001   0.000000   0.000000   0.000000
     5  H    0.000007  -0.000057   0.000000   0.000000   0.000000   0.000000
     6  C   -0.132387   0.299241   0.012190   0.003137   0.000875   0.002652
     7  O    0.003091  -0.045798  -0.000426   0.000007   0.000005   0.000052
     8  H   -0.000663  -0.007021   0.000128   0.000002   0.000000   0.000025
     9  C    0.007763   0.013948   0.000240   0.000184  -0.000007   0.000078
    10  O    0.000090   0.000032   0.000002   0.000000   0.000000   0.000000
    11  H    0.000000   0.000000   0.000000   0.000000   0.000000   0.000000
    12  C   -0.017180  -0.006701   0.004016   0.001403   0.000488   0.000627
    13  O   -0.058389   0.013787  -0.000264   0.001449   0.000592  -0.000339
    14  C    0.381160   0.039928   0.050493   0.048710   0.010717   0.046727
    15  O   -0.066264  -0.013380  -0.067824  -0.009482  -0.001616   0.004039
    16  C    0.056437   0.046579   0.401620   0.131808   0.115893   0.113326
    17  C    0.028389   0.006317  -0.068125   0.260904  -0.161715  -0.078957
    18  O   -0.000803   0.000050   0.000790  -0.043528   0.004257   0.000162
    19  H    0.000412  -0.000002  -0.000306  -0.002564   0.000030   0.000016
    20  C    0.007837   0.000340   0.029967  -0.106287   0.355658  -0.007411
    21  O    0.000008   0.000000  -0.000268   0.002508  -0.038536  -0.000091
    22  H    0.000000   0.000000   0.000002  -0.000116  -0.008188   0.000003
    23  C    0.012853   0.010366   0.017938   0.010322   0.011519   0.013709
    24  O    0.000352   0.001565  -0.000373   0.000015  -0.000008   0.007350
    25  H    0.000010  -0.000007   0.000003   0.000000   0.000000  -0.000152
    26  C    0.005352  -0.007106  -0.195380  -0.093903  -0.029437   0.138224
    27  O    0.000101   0.000005   0.009593   0.003869   0.006078  -0.039179
    28  C   -0.001653  -0.000159   0.007411   0.012475  -0.020948   0.033538
    29  O    0.000002   0.000000  -0.001494  -0.000725  -0.004258  -0.002123
    30  H    0.000003   0.000014   0.000000   0.000000   0.000000   0.000000
    31  H    0.000000   0.000000   0.000004   0.000008   0.000137   0.000027
    32  H    0.000000   0.000000   0.000095   0.003316   0.005262   0.004306
    33  H    0.000028   0.002855   0.000000   0.000000   0.000000   0.000000
    34  H    0.002344   0.007272  -0.000002   0.000000   0.000000   0.000000
    35  H    0.005288   0.000114  -0.000024   0.000000   0.000000   0.000000
    36  H    0.000009   0.000001   0.000000   0.000000   0.000000   0.000000
    37  H    0.620179   0.005980   0.011589  -0.000019  -0.000051  -0.000003
    38  H    0.005980   0.599495   0.000014  -0.000002   0.000000  -0.000005
    39  H    0.011589   0.000014   0.650005   0.007381   0.004869   0.007377
    40  H   -0.000019  -0.000002   0.007381   0.626854   0.006249   0.003637
    41  H   -0.000051   0.000000   0.004869   0.006249   0.595410  -0.000006
    42  H   -0.000003  -0.000005   0.007377   0.003637  -0.000006   0.607469
    43  H    0.000001   0.000001   0.000018   0.000004   0.000002  -0.006228
    44  H   -0.000031  -0.000019   0.005579   0.000007  -0.000025   0.006182
    45  H   -0.000024  -0.000005   0.000000   0.000000   0.000000   0.000000
             43         44         45
     1  O    0.000000   0.000000  -0.000884
     2  C    0.000007   0.000026  -0.013953
     3  C   -0.000052   0.001004  -0.003930
     4  O    0.000000   0.000001  -0.000076
     5  H    0.000000   0.000000   0.000000
     6  C   -0.000591   0.002454   0.019667
     7  O   -0.000608   0.001766   0.000000
     8  H    0.000397   0.000573   0.000000
     9  C   -0.000004   0.000017   0.702402
    10  O    0.000000   0.000000  -0.068926
    11  H    0.000000   0.000000   0.000289
    12  C   -0.000042   0.001021  -0.344380
    13  O    0.000000   0.000217   0.006092
    14  C    0.002486   0.008098   0.001225
    15  O    0.000166   0.005343  -0.000348
    16  C    0.006531   0.012548  -0.007558
    17  C   -0.004522  -0.010162   0.001537
    18  O    0.000024   0.000031   0.000196
    19  H    0.000000   0.000000  -0.000009
    20  C    0.001677   0.001553   0.000386
    21  O   -0.000007  -0.000008   0.000000
    22  H    0.000000   0.000000   0.000000
    23  C    0.407590   0.534463   0.000011
    24  O   -0.039481  -0.079610   0.000000
    25  H   -0.010603  -0.001504   0.000000
    26  C   -0.023147  -0.209822  -0.000367
    27  O   -0.010326   0.009757   0.000000
    28  C   -0.000863   0.006362  -0.000030
    29  O   -0.000357  -0.000158   0.000000
    30  H    0.000000   0.000000   0.000200
    31  H   -0.000002   0.000000   0.000000
    32  H   -0.000036  -0.000008   0.000000
    33  H    0.000000   0.000000   0.004243
    34  H    0.000000   0.000000   0.000000
    35  H    0.000000   0.000000   0.006950
    36  H    0.000000   0.000000  -0.049539
    37  H    0.000001  -0.000031  -0.000024
    38  H    0.000001  -0.000019  -0.000005
    39  H    0.000018   0.005579   0.000000
    40  H    0.000004   0.000007   0.000000
    41  H    0.000002  -0.000025   0.000000
    42  H   -0.006228   0.006182   0.000000
    43  H    0.576764  -0.043224   0.000000
    44  H   -0.043224   0.600497   0.000000
    45  H    0.000000   0.000000   0.607927
 Mulliken atomic charges:
              1
     1  O   -0.516377
     2  C   -0.064746
     3  C    0.110504
     4  O   -0.492523
     5  H    0.357369
     6  C   -0.188241
     7  O   -0.540208
     8  H    0.442922
     9  C   -0.090927
    10  O   -0.602842
    11  H    0.374708
    12  C    0.214250
    13  O   -0.408016
    14  C    0.241150
    15  O   -0.346162
    16  C    0.027188
    17  C   -0.058499
    18  O   -0.522787
    19  H    0.421845
    20  C    0.030611
    21  O   -0.505043
    22  H    0.356323
    23  C    0.067904
    24  O   -0.623706
    25  H    0.385730
    26  C   -0.174186
    27  O   -0.284120
    28  C    0.280642
    29  O   -0.566045
    30  H    0.378424
    31  H    0.362587
    32  H    0.132549
    33  H    0.140549
    34  H    0.143031
    35  H    0.132143
    36  H    0.137534
    37  H    0.130226
    38  H    0.153186
    39  H    0.109802
    40  H    0.131985
    41  H    0.146564
    42  H    0.144300
    43  H    0.144426
    44  H    0.147074
    45  H    0.138904
 Sum of Mulliken atomic charges =   0.00000
 Mulliken charges with hydrogens summed into heavy atoms:
              1
     1  O   -0.137953
     2  C    0.075803
     3  C    0.253535
     4  O   -0.135154
     6  C   -0.035055
     7  O   -0.097286
     9  C    0.185511
    10  O   -0.228133
    12  C    0.346393
    13  O   -0.408016
    14  C    0.371376
    15  O   -0.346162
    16  C    0.136990
    17  C    0.073486
    18  O   -0.100941
    20  C    0.177174
    21  O   -0.148721
    23  C    0.359403
    24  O   -0.237976
    26  C   -0.029886
    27  O   -0.284120
    28  C    0.413191
    29  O   -0.203458
 Sum of Mulliken charges with hydrogens summed into heavy atoms =   0.00000
 APT atomic charges:
              1
     1  O   -0.631778
     2  C    0.415565
     3  C    0.417732
     4  O   -0.638881
     5  H    0.264735
     6  C    0.370963
     7  O   -0.730826
     8  H    0.450796
     9  C    0.496565
    10  O   -0.643197
    11  H    0.254626
    12  C    0.394905
    13  O   -0.803394
    14  C    0.897880
    15  O   -0.878380
    16  C    0.455599
    17  C    0.395343
    18  O   -0.742145
    19  H    0.418417
    20  C    0.388728
    21  O   -0.617865
    22  H    0.259291
    23  C    0.450448
    24  O   -0.664870
    25  H    0.256807
    26  C    0.435097
    27  O   -0.757416
    28  C    0.893331
    29  O   -0.668510
    30  H    0.279344
    31  H    0.262710
    32  H   -0.079157
    33  H   -0.042415
    34  H   -0.051299
    35  H   -0.056684
    36  H   -0.046724
    37  H   -0.060105
    38  H   -0.025648
    39  H   -0.044349
    40  H   -0.059209
    41  H   -0.036290
    42  H   -0.060956
    43  H   -0.030286
    44  H   -0.033046
    45  H   -0.055455
 Sum of APT charges=   0.00000
 APT Atomic charges with hydrogens summed into heavy atoms:
              1
     1  O   -0.352434
     2  C    0.373150
     3  C    0.366433
     4  O   -0.374146
[...]
 025,0.00000163,-0.00000513,-0.00001218,0.00002559,0.00004627,-0.000074
 13,-0.00009905,0.00020900,0.00010535,-0.00008910,0.00061400,0.00012360
 ,-0.00119911,-0.00629330,-0.00149521,-0.00171124,-0.00009206,0.0008093
 9,-0.00005201,0.00046673,0.00014767,0.00008562,-0.00010508,0.00002370,
 -0.00004685,0.00018091,0.00021082,0.00030084,0.00007412,-0.00031886,-0
 .00004017,-0.00000465,0.00006060,-0.00000469,-0.01735497,-0.00153245,-
 0.00296278,0.00206437,-0.00021260,-0.00017003,0.00016403,-0.00010053,-
 0.00003332,-0.34018299,-0.04763040,-0.04503629,-0.01183255,-0.00542821
 ,0.01394796,-0.00003655,0.00219303,-0.00102943,0.00018941,-0.00024135,
 0.00042881,-0.00000567,-0.00000168,0.00000364,-0.00002048,-0.00011559,
 0.00002656,0.00014265,-0.00134448,0.00079302,0.00000725,-0.00000033,-0
 .00000651,0.00000916,0.00000376,0.00000630,0.00000788,0.00000053,-0.00
 000052,-0.00000182,0.00000205,-0.00000118,0.00007469,0.00002125,0.0001
 6196,0.00001592,-0.00000211,-0.00003298,0.00070557,-0.00064103,-0.0002
 9478,0.00088794,-0.00068710,0.00034039,0.00006774,0.00014487,-0.000141
 56,0.36994536,-0.00000288,0.00000009,-0.00002591,-0.00000275,-0.000008
 51,0.00002310,0.00000533,0.00002071,0.00003551,-0.00000997,0.00001889,
 -0.00003382,0.00000454,-0.00000203,-0.00000179,0.00009782,-0.00017351,
 -0.00009491,-0.00008970,0.00010785,0.00011207,0.00011504,-0.00001736,-
 0.00010037,-0.00001040,0.00001943,0.00000609,0.00000324,-0.00001898,-0
 .00001624,-0.00000181,0.00000133,-0.00000016,0.00001059,0.00001529,0.0
 0005717,0.00005439,-0.00003287,-0.00006393,0.00007574,0.00018447,-0.00
 003096,0.00098739,0.00053530,0.00040307,-0.02742453,-0.00640760,-0.006
 38041,-0.00229046,0.00146099,-0.00075797,0.00087191,-0.00005539,0.0002
 7954,-0.00009835,0.00009889,-0.00002688,-0.00005520,-0.00017609,-0.000
 00924,0.00011830,-0.00014624,0.00007108,-0.00000027,-0.00000011,-0.000
 00319,0.03312488,0.00312420,0.00513045,-0.00198846,0.00207937,-0.00107
 712,0.00000264,0.00034857,-0.00026386,-0.04685384,-0.05561035,-0.00888
 648,-0.01119869,-0.00028217,0.00578290,-0.00269883,0.00134264,-0.00095
 150,0.00039646,-0.00013802,0.00028623,-0.00000309,0.00000126,0.0000039
 4,0.00000627,-0.00008560,0.00009830,0.00046992,0.00017955,0.00003530,0
 .00000127,0.00000202,-0.00000304,-0.00000083,-0.00000563,-0.00000501,0
 .00000319,0.00000130,-0.00000059,-0.00000314,0.00000270,-0.00000081,0.
 00016615,-0.00001076,0.00010832,-0.00002282,0.00003485,-0.00000960,-0.
 00047351,-0.00335595,-0.00308877,0.00077590,-0.00034801,0.00017958,0.0
 0025327,0.00010909,0.00000078,0.05352538,0.06119202,0.00000357,-0.0000
 0752,-0.00003267,-0.00001541,0.00000469,0.00001892,0.00000720,-0.00001
 515,0.00003992,0.00000980,0.00001481,-0.00003627,-0.00000139,-0.000000
 30,0.00000399,0.00006597,0.00001665,0.00001105,0.00007532,0.00004313,-
 0.00007045,-0.00013541,-0.00005747,0.00001286,-0.00000646,0.00001646,0
 .00002390,0.00000568,-0.00001593,-0.00002022,-0.00000346,0.00000326,0.
 00000276,-0.00000892,0.00005178,0.00007413,0.00014588,-0.00000014,0.00
 001227,-0.00035515,0.00027140,-0.00002897,0.00132182,0.00066076,0.0020
 7739,-0.02609702,-0.00775469,-0.00182714,-0.00075133,0.00158209,-0.000
 09766,0.00070261,-0.00020996,0.00003295,-0.00015778,0.00004133,0.00003
 906,-0.00031588,0.00025063,-0.00063300,-0.00002841,0.00028997,0.000318
 66,-0.00000791,-0.00009626,-0.00003400,-0.00882091,-0.00191226,0.00027
 607,0.00038320,-0.00055937,0.00039064,0.00007656,-0.00009923,-0.000012
 40,-0.04739616,-0.00783269,-0.04612790,0.04254203,0.01248114,-0.013048
 63,0.00354131,-0.00410833,0.00272810,-0.00043844,0.00029629,-0.0008697
 3,-0.00000520,0.00000075,0.00000550,-0.00008660,0.00028015,-0.00009692
 ,-0.00110195,0.00005208,-0.00010689,0.00000540,0.,-0.00000612,0.000007
 59,0.00000160,0.00000470,0.00000845,0.00000476,0.00000249,-0.00000112,
 0.00000545,-0.00000122,0.00027452,0.00004348,0.00006057,0.00000439,0.0
 0001965,-0.00005770,-0.00030870,-0.00374694,-0.00314785,0.00055315,-0.
 00027286,0.00042440,0.00007367,0.00001204,-0.00014203,0.03630662,0.008
 21053,0.05946780,-0.00000205,0.00000856,0.00000377,0.00001147,-0.00001
 083,0.00001041,-0.00003005,0.00002917,0.00001584,0.00000394,0.00001084
 ,-0.00000620,-0.00000059,-0.00000082,-0.00000003,0.00010800,-0.0000687
 5,0.00007097,0.00041399,0.00047239,0.00030191,-0.00088172,-0.00072874,
 -0.00060961,0.00000344,0.00000392,-0.00000561,0.00000074,-0.00000065,0
 .00000088,-0.00000035,0.00000005,-0.00000063,-0.00000902,-0.00000090,0
 .00002476,0.00007707,-0.00002432,-0.00002388,-0.00031248,0.00005311,0.
 00009125,0.00015290,-0.00025551,-0.00000830,-0.00140908,0.00186545,-0.
 00213918,0.00066663,0.00025000,0.00076745,-0.00013221,0.00045899,0.000
 02647,0.00000886,-0.00000129,-0.00008613,-0.00005531,-0.00004773,0.000
 09237,0.00002077,-0.00006143,-0.00004053,0.00000484,0.00001687,-0.0000
 0544,-0.04993691,-0.01167885,-0.01859476,0.00005833,0.00554710,0.02231
 736,0.00112824,0.00098641,-0.00076241,0.00083981,0.01422250,0.01413841
 ,0.00035564,-0.00241553,0.00095233,-0.00015995,0.00017513,0.00000460,-
 0.00008891,-0.00006298,0.00012564,0.00000136,0.00000022,0.00000082,0.0
 0000349,-0.00001507,-0.00001366,0.00000688,0.00001846,0.00000380,0.000
 00044,0.00000015,-0.00000165,0.00000622,0.00000126,0.00000418,0.000003
 37,0.00000390,0.00000085,-0.00000250,-0.00000029,-0.00000046,0.0000743
 3,0.00005299,0.00001342,0.00001507,-0.00001438,-0.00003541,0.00031627,
 0.00034738,0.00009136,-0.00001255,-0.00010911,0.00002341,0.00001853,0.
 00000827,-0.00001443,0.00066081,-0.00067581,0.00056758,0.04764164,-0.0
 0001245,0.00002487,-0.00004411,0.00000369,-0.00004873,0.00005892,-0.00
 002532,0.00007521,0.00004626,-0.00001168,0.00004779,-0.00004917,0.0000
 0780,-0.00000570,-0.00000252,0.00019236,-0.00037435,-0.00012031,0.0003
 9837,0.00066507,0.00069522,-0.00096208,-0.00079638,-0.00094833,-0.0000
 0263,0.00002993,0.00003783,-0.00000767,-0.00003911,-0.00005814,0.00000
 030,0.00000672,0.00000574,0.00004099,0.00001358,0.00010118,-0.00003727
 ,0.00002133,-0.00026595,0.00022947,0.00009078,0.00055380,-0.00025714,0
 .00037816,-0.00018029,0.00333367,-0.00404076,0.00398113,-0.00061708,0.
 00009987,-0.00180707,0.00027233,-0.00116858,-0.00017329,-0.00007406,0.
 00003678,0.00029605,0.00005112,0.00021421,-0.00053826,-0.00002703,0.00
 011700,0.00026042,-0.00000462,-0.00005156,-0.00000249,-0.00772860,-0.1
 5612832,-0.15685759,-0.00368147,0.00845530,0.02773864,0.00000135,0.003
 12669,0.00092723,-0.00309929,-0.01842386,-0.02342685,0.00017168,0.0016
 4270,-0.00082163,-0.00003011,-0.00016203,0.00029096,-0.00001870,0.0001
 1200,0.00021062,-0.00000160,-0.00000111,0.00000976,-0.00001783,-0.0000
 7767,0.00000723,-0.00006028,0.00008097,-0.00005038,0.00000018,0.000001
 09,-0.00000248,0.00000104,-0.00000475,-0.00000423,-0.00000746,-0.00000
 186,-0.00000994,0.00000524,0.00001799,-0.00000380,0.00001024,-0.000012
 93,-0.00001233,-0.00002736,-0.00000497,-0.00002100,0.00007758,0.000323
 47,0.00022956,0.00009644,-0.00001366,0.00007956,0.00000392,-0.00000270
 ,0.00001899,0.00003976,0.00116740,0.00011229,0.01114370,0.16592660,0.0
 0000192,-0.00005890,-0.00006935,-0.00002674,0.00007952,0.00000860,0.00
 006382,-0.00010149,0.00006089,0.00000259,-0.00000477,-0.00006353,0.000
 00152,-0.00000276,0.00001432,-0.00028675,0.00043513,0.00019805,-0.0004
 1160,-0.00072132,-0.00100981,0.00116004,0.00094316,0.00164158,-0.00000
 181,0.00003359,0.00001667,-0.00000530,-0.00003484,-0.00001949,0.000002
 68,0.00000385,0.00000081,0.00003008,0.00003484,0.00002133,0.00006326,-
 0.00018838,0.00003146,-0.00007852,0.00018148,-0.00008158,-0.00000722,-
 0.00030015,0.00012830,-0.00017370,0.00156616,-0.00069121,0.00008251,0.
 00014170,0.00032871,-0.00003957,0.00020248,0.00011722,-0.00001813,0.00
 005213,-0.00010639,-0.00005839,0.00005327,-0.00016727,0.00000497,0.000
 06344,0.00005504,-0.00000573,-0.00001571,-0.00000163,-0.01588739,-0.15
 239200,-0.24851809,0.00675004,-0.00239477,-0.03351812,0.00052661,-0.00
 066389,0.00012076,-0.00033405,0.00340136,0.00487205,-0.00050616,0.0020
 8304,0.00050397,0.00007354,0.00019569,0.00054497,0.00004365,-0.0000496
 9,-0.00004776,-0.00000807,0.00000513,0.00000992,-0.00000048,0.00001084
 ,0.00001011,0.00000648,-0.00000528,0.00000357,0.00000032,-0.00000317,-
 0.00000067,-0.00000438,0.00000534,-0.00000229,-0.00000366,0.00000314,-
 0.00000123,-0.00000216,-0.00001040,0.00000099,0.00000278,0.00000616,0.
 00000624,0.00003871,-0.00000579,0.00002449,0.00001713,0.00008870,-0.00
 000521,0.00000087,-0.00002043,0.00000755,0.00001422,-0.00000033,0.0000
 0528,0.00030467,-0.00029997,0.00042616,0.00952465,0.15388351,0.2795777
 3,0.00000313,0.00000719,-0.00001530,-0.00000215,-0.00000905,0.00002284
 ,-0.00003023,0.00002551,0.00003756,0.00001925,0.00002133,-0.00003553,-
 0.00000363,0.00000124,0.00000361,0.00004947,-0.00004904,0.00015020,0.0
 0050897,0.00058273,0.00021621,-0.00095590,-0.00084954,-0.00079324,-0.0
 0000847,0.00001062,0.00000309,0.00000920,-0.00000923,-0.00001030,-0.00
 000509,0.00000114,0.00000111,-0.00000683,0.00001281,0.00005433,0.00013
 406,-0.00005100,-0.00006391,-0.00047217,0.00016011,0.00022054,0.000398
 29,-0.00015418,0.00031016,0.00047277,-0.00159922,-0.00064128,0.0004115
 2,0.00003255,-0.00002265,0.00006282,0.00007694,0.00004879,-0.00004039,
 0.00002690,-0.00003067,-0.00011931,-0.00000543,-0.00009719,0.00005324,
 0.00001532,0.00004790,-0.00001521,-0.00000462,-0.00001328,-0.32815181,
 -0.04681023,-0.08008080,-0.01240246,-0.01098357,0.01013819,-0.00076582
 ,0.00036214,0.00037035,-0.01887080,-0.00140153,-0.00528036,0.00157695,
 0.00019306,-0.00013540,0.00023584,-0.00001086,-0.00001114,0.00010264,0
 .00014466,-0.00016533,-0.00000332,-0.00000126,0.00000409,0.00001614,0.
 00001537,-0.00000359,0.00004138,-0.00018396,0.00012676,0.00000540,-0.0
 0000104,-0.00000510,0.00001450,0.00000619,0.00000881,0.00000724,0.0000
 0545,-0.00000108,-0.00000249,0.00000284,-0.00000115,0.00013941,0.00006
 508,0.00000884,0.00004106,-0.00002979,-0.00005893,0.00069050,0.0009850
 2,0.00062320,0.00016284,-0.00024220,0.00008974,0.00005901,0.00004671,0
 .00000265,-0.00047269,0.00283157,-0.00064487,0.00042985,0.00063271,-0.
 00085788,0.35667770,0.00000285,0.00002439,0.00003847,0.00001154,-0.000
 02493,-0.00001475,-0.00003306,0.00002973,-0.00003161,0.00001261,-0.000
 00848,0.00003736,-0.00000692,0.00000415,-0.00000380,0.00006544,-0.0000
 9524,-0.00005376,0.00029705,0.00012902,0.00039748,-0.00074190,-0.00032
 346,-0.00080359,0.00000150,-0.00002209,-0.00000896,0.00000432,0.000023
 05,0.00001558,-0.00000179,-0.00000301,-0.00000001,-0.00001902,-0.00002
 030,-0.00004076,-0.00004161,0.00010187,0.00002324,0.00013366,-0.000191
 41,-0.00025111,-0.00034751,0.00025590,-0.00039035,0.00139433,0.0024971
 2,0.00089882,0.00018234,-0.00000172,0.00035969,-0.00016829,0.00000110,
 -0.00017763,0.00002925,-0.00006306,0.00004728,0.00002282,0.00006341,0.
 00001960,-0.00002490,-0.00000354,-0.00005218,0.00000370,0.00001551,0.0
 0000809,-0.04727494,-0.05451300,-0.01912609,-0.02180783,-0.00706460,0.
 00873876,-0.00157378,-0.00014121,-0.00016174,0.03305442,0.00156692,0.0
 0830314,-0.00081101,0.00144219,-0.00178460,-0.00005019,0.00012120,-0.0
 0006074,-0.00009375,-0.00012030,0.00007638,0.00000305,-0.00000302,-0.0
 0000486,0.00000371,-0.00000196,-0.00001050,-0.00014191,0.00010617,-0.0
 0009391,0.00000165,-0.00000122,-0.00000018,0.00000459,0.00000531,0.000
 00397,0.00000312,-0.00000174,0.00000184,0.00000209,0.00000315,-0.00000
 021,-0.00000717,-0.00002604,-0.00004036,0.00001622,-0.00002904,-0.0000
 2193,-0.00087721,-0.00020264,-0.00019349,-0.00029104,0.00001650,-0.000
 13198,-0.00004153,-0.00004765,0.00001749,0.00247521,-0.00517177,0.0019
 2397,-0.01950253,-0.00131313,-0.00619842,0.05613275,0.06298649,0.00000
 260,0.00001921,0.00005863,0.00002012,-0.00002476,-0.00002442,-0.000046
 15,0.00004776,-0.00006312,-0.00000525,-0.00002659,0.00006169,-0.000004
 70,0.00000343,-0.00000692,0.00013619,-0.00018399,-0.00006778,-0.000438
 31,-0.00001769,0.00033080,0.00114988,0.00047686,0.00013473,0.00000278,
 -0.00002972,-0.00002080,0.00000523,0.00003288,0.00003039,-0.00000210,-
 0.00000464,-0.00000143,-0.00002909,-0.00002360,-0.00006315,-0.00004937
 ,0.00012917,0.00010135,0.00007122,-0.00013758,-0.00020736,-0.00009970,
 0.00008208,0.00016336,0.00098277,-0.00029588,-0.00016344,0.00008208,-0
 .00004797,0.00005571,-0.00002261,0.00013095,0.00001600,0.00001653,-0.0
 0002487,-0.00001101,-0.00007383,-0.00003311,0.00003400,0.00002777,0.00
 003903,-0.00004433,-0.00001307,0.00000377,-0.00000123,-0.08366703,-0.0
 1968240,-0.06676665,0.03626355,0.01538200,-0.00288323,0.00096603,-0.00
 048584,0.00017846,-0.00573518,-0.00134528,0.00079633,0.00025389,-0.000
 07906,0.00071578,0.00000009,0.00000400,0.00011662,0.00010464,0.0000265
 3,-0.00009307,0.00000608,0.00000091,-0.00000893,-0.00000325,-0.0000057
 2,0.00000761,0.00009688,-0.00005930,0.00001216,-0.00000257,0.00000309,
 0.00000245,-0.00000433,-0.00000713,-0.00000437,0.00000460,-0.00000431,
 0.00000351,-0.00000119,-0.00000152,0.00000093,-0.00002321,-0.00006200,
 -0.00001089,-0.00005392,0.00005010,0.00004401,0.00007317,0.00027383,0.
 00027817,0.00003091,-0.00006639,-0.00000595,0.00001338,0.00003031,0.00
 001399,0.00030705,0.00131212,-0.00005219,-0.02682533,-0.00414563,-0.00
 443069,0.07648258,0.00874429,0.07177320,0.00025264,0.00024801,-0.00007
 924,0.00051854,-0.00125107,0.00049612,0.00035793,-0.00000582,-0.000108
 16,0.00005575,0.00024722,-0.00003792,-0.00001834,-0.00003122,0.0000271
 6,-0.00007731,-0.00006200,-0.00008435,0.00005771,-0.00001573,0.0000488
 1,-0.00002285,-0.00000164,-0.00001763,-0.35276383,-0.02665318,0.021768
 90,-0.00436001,-0.00910047,-0.01283299,-0.00092695,0.00061736,-0.00055
 321,-0.01925236,-0.00037250,0.00229944,0.00205058,-0.00077476,-0.00003
 069,0.00039166,0.00009930,0.00000464,0.00013122,0.00016807,0.00024738,
 -0.00003848,0.00004145,-0.00003984,-0.00000165,0.00009520,0.00006067,0
 .00022350,-0.00013448,-0.00004540,-0.00042044,0.00015786,0.00013592,-0
 .00002987,-0.00002742,-0.00000268,0.00002169,0.00000631,-0.00000070,-0
 .00000662,-0.00000651,-0.00000571,-0.00001282,0.00000023,-0.00000850,0
 .00002229,0.00000435,0.00001533,-0.00000865,-0.00000112,-0.00000317,-0
 .00001498,-0.00001916,0.00001616,0.00001637,-0.00000554,0.00000561,-0.
 00001540,0.00002467,0.00000781,0.00001720,-0.00000424,-0.00002115,-0.0
 0025159,-0.00009134,-0.00015399,-0.00000265,-0.00000030,0.00000304,0.0
 0000551,0.00000038,0.00000310,0.00036452,0.00089758,-0.00071366,0.0001
 4853,-0.00023755,-0.00002869,-0.00005157,0.00321027,0.00038871,-0.0068
 1645,0.00004562,0.00119073,0.00016013,-0.00028256,-0.00019615,0.000040
 68,0.00005701,0.00001368,0.00001858,-0.00000433,-0.00000285,0.00000528
 ,0.00000676,0.00002237,0.00001113,-0.00000156,-0.00000433,0.00000942,0
 .00000417,0.00000617,0.00000075,-0.00000223,0.00000062,0.00000558,-0.0
 0000035,0.00000017,0.38020562,-0.00016318,0.00025784,0.00053940,0.0007
 8270,0.00267107,-0.00119724,-0.00000538,0.00006205,-0.00014994,-0.0001
 5804,-0.00008005,0.00013010,0.00002720,-0.00004420,-0.00003108,0.00005
 774,0.00013071,-0.00002449,-0.00004635,-0.00002091,0.00002873,0.000007
 70,0.00001436,0.00000736,-0.02741146,-0.04811938,0.00896187,-0.0183220
 6,-0.00476270,-0.01298306,-0.00186810,-0.00014700,-0.00030187,0.035632
 36,-0.00143544,-0.00360188,-0.00117896,0.00225746,0.00184566,0.0005484
 5,0.00018999,0.00031298,-0.00020168,-0.00004455,-0.00011520,-0.0000245
 7,-0.00001473,0.00006377,0.00003698,0.00000931,-0.00001071,0.00008684,
 0.00000155,-0.00000712,-0.00015844,0.00001888,0.00002632,-0.00001673,-
 0.00001767,0.00000335,0.00000918,0.00001650,-0.00000736,-0.00000375,-0
 .00000448,-0.00000336,0.00000361,0.00000765,-0.00000087,-0.00000881,-0
 .00001050,-0.00000183,0.00000357,0.00000334,-0.00000077,0.00000235,0.0
 0000989,0.00001315,0.00000092,0.00000084,-0.00001757,-0.00000093,-0.00
 000309,0.00001762,0.00000883,0.00000134,-0.00001666,0.00003355,-0.0002
 7008,0.00016258,-0.00000128,-0.00000033,0.00000261,0.00000055,0.000001
 43,-0.00000046,-0.00079402,-0.00028027,0.00030379,-0.00024306,0.000088
 02,0.00004966,0.00219137,-0.00549754,-0.00186808,-0.02167310,-0.000270
 25,0.00220563,-0.00028190,-0.00006479,0.00003014,-0.00003060,-0.000056
 18,-0.00001334,0.00000792,-0.00000363,0.00001286,-0.00000225,0.0000133
 8,0.00000708,0.00000173,-0.00000334,-0.00000046,-0.00000073,-0.0000012
 6,-0.00000204,-0.00000129,-0.00000334,-0.00000121,-0.00000220,0.000001
 36,0.00000266,0.03315530,0.05539873,0.00021061,0.00028357,0.00016231,-
 0.00098966,-0.00033004,-0.00007100,0.00002610,0.00010599,0.00005875,0.
 00002167,-0.00011056,0.00001874,-0.00002128,0.00001679,-0.00002111,0.0
 0000566,0.00006819,0.00009935,-0.00001968,-0.00001120,-0.00006507,0.00
 001734,0.00000585,0.00002937,0.02212561,0.00950897,-0.04249961,-0.0370
 3220,-0.01649889,-0.01380266,-0.00229520,0.00032792,-0.00041090,0.0030
 2579,0.00018857,0.00166333,0.00036733,-0.00014854,0.00070550,0.0003268
 3,0.00022792,-0.00004492,-0.00012739,0.00000999,-0.00012039,0.00002749
 ,-0.00002214,0.00003534,-0.00002274,-0.00006915,-0.00003528,-0.0001971
 0,0.00007706,0.00002574,0.00040812,-0.00007548,-0.00017470,0.00002188,
 0.00001676,0.00000980,-0.00001723,0.00000289,-0.00001017,0.00000412,0.
 00000312,0.00000672,0.00000329,-0.00000624,0.00001415,-0.00001250,-0.0
 0000121,-0.00002678,0.00000387,0.00000243,0.00000411,0.00000326,0.0000
 0724,0.00000263,-0.00000820,0.00001108,-0.00001314,0.00000343,-0.00002
 011,0.00000966,-0.00000413,0.00000385,0.00000269,-0.00020302,-0.000105
 74,-0.00008536,0.00000047,0.00000044,0.00000032,-0.00000322,-0.0000009
 5,-0.00000306,0.00007424,0.00001782,0.00016071,0.00000412,0.00001680,-
 0.00003127,-0.00029102,-0.00123168,0.00011324,0.02650193,0.00219981,0.
 00111283,-0.00011191,-0.00007471,-0.00004029,-0.00000199,-0.00001677,0
 .00000684,-0.00001240,0.00000239,0.00000466,-0.00000380,-0.00001351,-0
 .00002305,-0.00000876,0.00000279,0.00000454,-0.00000478,-0.00000355,-0
 .00000433,-0.00000085,0.00000091,-0.00000246,-0.00000256,0.00000208,0.
 00000106,-0.01179154,0.00562925,0.05323316\\0.01538379,-0.02023059,-0.
 01596658,-0.01449100,0.00769802,-0.02308823,0.00477768,-0.01517211,0.0
 3260152,0.01731481,-0.00361085,0.01478393,-0.01537910,-0.01016982,-0.0
 2242801,-0.01686544,-0.00610032,-0.01015382,0.00477522,0.01220056,0.00
 326193,0.00233823,0.00529293,0.01551385,-0.00292161,0.02431872,0.00709
 003,0.00808950,0.01382438,0.00985831,-0.00116785,-0.03342144,-0.008429
 83,0.00567077,0.04772289,0.01909790,0.01563653,-0.02480207,0.04596193,
 -0.04224296,0.01402494,-0.04598089,-0.00406093,-0.02125611,-0.00991836
 ,0.02511311,-0.00142827,0.00910049,-0.00173735,0.01813576,0.03405547,0
 .00265119,0.00387208,0.00060952,0.00386884,-0.00688128,-0.02898758,-0.
 00764609,0.01032592,-0.00520046,0.00804528,0.00272781,-0.01249703,-0.0
 1581131,-0.01475596,0.02366223,-0.00160664,-0.00399291,0.01065976,0.00
 218661,-0.02495261,0.00289041,-0.00864901,0.02889174,0.00035440,-0.006
 04865,-0.01936316,0.00093651,-0.00396394,0.02027998,0.01398134,0.03929
 493,-0.01271401,-0.02128098,-0.00846424,0.00568140,0.00988224,-0.00300
 078,0.00399926,-0.00087755,-0.00276967,-0.00165138,-0.00450177,-0.0194
 9455,-0.00037366,-0.00525013,-0.01928776,-0.00647097,0.00112979,0.0226
 0979,0.00260847,-0.00128697,0.02279428,0.00300354,-0.00210225,0.002556
 25,0.00756908,-0.01762984,0.01998292,0.00530796,-0.00511897,-0.0217575
 8,-0.00162551,0.00278503,0.02250806,0.00397517,0.00050835,-0.02219268,
 -0.00076224,-0.00477565,0.01871051,-0.00061381,0.00392974,-0.02250896,
 -0.00485313,-0.00119170,-0.00088630,-0.00588448,-0.01624486,0.01991314
 ,0.00342149,0.00210642,-0.02126705,-0.00379543,-0.00184963\\\@


 IF YOU GIVE EVERYONE A PIECE OF YOUR MIND,
 PRETTY SOON IT WILL BE ALL GONE.
 Job cpu time:  0 days 13 hours  8 minutes 21.8 seconds.
 File lengths (MBytes):  RWF=   1323 Int=      0 D2E=      0 Chk=     19 Scr=      1
 Normal termination of Gaussian 09 at Thu Jan 21 05:08:03 2016.
Gaussian '09 finished on node023 at Thu Jan 21 05:08:03 EST 2016.
