Gaussian '09 started on node001 at Sun Mar 27 03:23:04 EDT 2016.
 Entering Gaussian System, Link 0=/usr/local/gaussian/g09/g09
 Initial command:
 /usr/local/gaussian/g09/l1.exe /home/srmcgrat/thesis/gaussian/cellobiose/450K/6535ps/1/2dp/gaussian18866/Gau-18902.inp -scrdir=/home/srmcgrat/thesis/gaussian/cellobiose/450K/6535ps/1/2dp/gaussian18866/
 Entering Link 1 = /usr/local/gaussian/g09/l1.exe PID=     18904.
  
 Copyright (c) 1988,1990,1992,1993,1995,1998,2003,2009,2010,
            Gaussian, Inc.  All Rights Reserved.
  
 This is part of the Gaussian(R) 09 program.  It is based on
 the Gaussian(R) 03 system (copyright 2003, Gaussian, Inc.),
 the Gaussian(R) 98 system (copyright 1998, Gaussian, Inc.),
 the Gaussian(R) 94 system (copyright 1995, Gaussian, Inc.),
 the Gaussian 92(TM) system (copyright 1992, Gaussian, Inc.),
 the Gaussian 90(TM) system (copyright 1990, Gaussian, Inc.),
 the Gaussian 88(TM) system (copyright 1988, Gaussian, Inc.),
 the Gaussian 86(TM) system (copyright 1986, Carnegie Mellon
 University), and the Gaussian 82(TM) system (copyright 1983,
 Carnegie Mellon University). Gaussian is a federally registered
 trademark of Gaussian, Inc.
  
 This software contains proprietary and confidential information,
 including trade secrets, belonging to Gaussian, Inc.
  
 This software is provided under written license and may be
 used, copied, transmitted, or stored only in accord with that
 written license.
  
 The following legend is applicable only to US Government
 contracts under FAR:
  
                    RESTRICTED RIGHTS LEGEND
  
 Use, reproduction and disclosure by the US Government is
 subject to restrictions as set forth in subparagraphs (a)
 and (c) of the Commercial Computer Software - Restricted
 Rights clause in FAR 52.227-19.
  
 Gaussian, Inc.
 340 Quinnipiac St., Bldg. 40, Wallingford CT 06492
  
  
 ---------------------------------------------------------------
 Warning -- This program may not be used in any manner that
 competes with the business of Gaussian, Inc. or will provide
 assistance to any competitor of Gaussian, Inc.  The licensee
 of this program is prohibited from giving any competitor of
 Gaussian, Inc. access to this program.  By using this program,
 the user acknowledges that Gaussian, Inc. is engaged in the
 business of creating and licensing software in the field of
 computational chemistry and represents and warrants to the
 licensee that it is not a competitor of Gaussian, Inc. and that
 it will not use this program in any manner prohibited above.
 ---------------------------------------------------------------
  

 Cite this work as:
 Gaussian 09, Revision B.01,
 M. J. Frisch, G. W. Trucks, H. B. Schlegel, G. E. Scuseria, 
 M. A. Robb, J. R. Cheeseman, G. Scalmani, V. Barone, B. Mennucci, 
 G. A. Petersson, H. Nakatsuji, M. Caricato, X. Li, H. P. Hratchian, 
 A. F. Izmaylov, J. Bloino, G. Zheng, J. L. Sonnenberg, M. Hada, 
 M. Ehara, K. Toyota, R. Fukuda, J. Hasegawa, M. Ishida, T. Nakajima, 
 Y. Honda, O. Kitao, H. Nakai, T. Vreven, J. A. Montgomery, Jr., 
 J. E. Peralta, F. Ogliaro, M. Bearpark, J. J. Heyd, E. Brothers, 
 K. N. Kudin, V. N. Staroverov, T. Keith, R. Kobayashi, J. Normand, 
 K. Raghavachari, A. Rendell, J. C. Burant, S. S. Iyengar, J. Tomasi, 
 M. Cossi, N. Rega, J. M. Millam, M. Klene, J. E. Knox, J. B. Cross, 
 V. Bakken, C. Adamo, J. Jaramillo, R. Gomperts, R. E. Stratmann, 
 O. Yazyev, A. J. Austin, R. Cammi, C. Pomelli, J. W. Ochterski, 
 R. L. Martin, K. Morokuma, V. G. Zakrzewski, G. A. Voth, 
 P. Salvador, J. J. Dannenberg, S. Dapprich, A. D. Daniels, 
 O. Farkas, J. B. Foresman, J. V. Ortiz, J. Cioslowski, 
 and D. J. Fox, Gaussian, Inc., Wallingford CT, 2010.
 
 ******************************************
 Gaussian 09:  EM64L-G09RevB.01 12-Aug-2010
                27-Mar-2016 
 ******************************************
 -------------------------------------------------
 # freq=raman b3lyp/6-31+g(2d,p) geom=connectivity
 -------------------------------------------------
 1/10=4,30=1,38=1,57=2/1,3;
 2/12=2,17=6,18=5,40=1/2;
 3/5=1,6=6,7=112,11=2,16=1,25=1,30=1,71=2,74=-5/1,2,3;
 4//1;
 5/5=2,38=5,98=1/2;
 8/6=4,10=90,11=11/1;
 10/13=10,15=4/2;
 11/6=3,8=1,9=11,15=111,16=1/1,2,10;
 10/6=1/2;
 6/7=2,8=2,9=2,10=2,18=1,28=1/1;
 7/8=1,10=1,25=1/1,2,3,16;
 1/10=4,30=1/3;
 99//99;
 -----------------
 450 6535/6535.com
 -----------------
 Symbolic Z-matrix:
 Charge =  0 Multiplicity = 1
 O                     10.478    8.012     11.692 
 C                     11.366    7.825     12.803 
 C                     11.769    9.169     13.388 
 O                     12.759    9.701     12.495 
 H                     12.416    9.483     11.581 
 C                     12.344    9.219     14.794 
 O                     12.314    10.599    15.184 
 H                     12.63     11.126    14.396 
 C                     10.361    5.678     13.468 
 O                     9.322     4.982     14.172 
 H                     9.442     4.054     13.818 
 C                     10.579    7.12      13.896 
 O                     11.262    7.02      15.155 
 C                     11.492    8.332     15.688 
 O                     12.013    7.928     16.963 
 C                     11.057    8.325     17.956 
 C                     10.416    7.011     18.372 
 O                     9.468     6.522     17.412 
 H                     9.882     6.561     16.503 
 C                     9.745     7.227     19.719 
 O                     9.239     6.054     20.371 
 H                     8.304     5.933     20.035 
 C                     12.318    10.372    18.732 
 O                     13.166    10.96     19.73 
 H                     14.106    10.619    19.753 
 C                     11.965    8.922     19.019 
 O                     11.377    8.961     20.327 
 C                     10.69     7.783     20.773 
 O                     10.028    7.878     22.042 
 H                     10.68327   7.93038   22.74163 
 H                     11.41292   10.93976   18.67393 
 H                     12.81615   10.42247   17.78638 
 H                     12.86735   8.34864   19.06278 
 H                     10.34748   9.02986   17.57566 
 H                     11.18755   6.27906   18.48981 
 H                     8.93801   7.91715   19.58725 
 H                     11.4501   7.04088   20.90107 
 H                     10.99075   8.14671   10.89166 
 H                     11.27749   5.14405   13.60886 
 H                     10.12291   5.67002   12.42486 
 H                     9.63457   7.60392   14.03304 
 H                     12.2255   7.25452   12.5189 
 H                     10.91368   9.81124   13.3589 
 H                     13.35375   8.8651    14.78631 
 H                     10.54743   8.81095   15.84062 
 

 GradGradGradGradGradGradGradGradGradGradGradGradGradGradGradGradGradGrad
 Berny optimization.
 Initialization pass.
 Trust Radius=3.00D-01 FncErr=1.00D-07 GrdErr=1.00D-07
 Number of steps in this run=      2 maximum allowed number of steps=      2.
 GradGradGradGradGradGradGradGradGradGradGradGradGradGradGradGradGradGrad

                          Input orientation:                          
 ---------------------------------------------------------------------
 Center     Atomic      Atomic             Coordinates (Angstroms)
 Number     Number       Type             X           Y           Z
 ---------------------------------------------------------------------
      1          8           0       10.478000    8.012000   11.692000
      2          6           0       11.366000    7.825000   12.803000
      3          6           0       11.769000    9.169000   13.388000
      4          8           0       12.759000    9.701000   12.495000
      5          1           0       12.416000    9.483000   11.581000
      6          6           0       12.344000    9.219000   14.794000
      7          8           0       12.314000   10.599000   15.184000
      8          1           0       12.630000   11.126000   14.396000
      9          6           0       10.361000    5.678000   13.468000
     10          8           0        9.322000    4.982000   14.172000
     11          1           0        9.442000    4.054000   13.818000
     12          6           0       10.579000    7.120000   13.896000
     13          8           0       11.262000    7.020000   15.155000
     14          6           0       11.492000    8.332000   15.688000
     15          8           0       12.013000    7.928000   16.963000
     16          6           0       11.057000    8.325000   17.956000
     17          6           0       10.416000    7.011000   18.372000
     18          8           0        9.468000    6.522000   17.412000
     19          1           0        9.882000    6.561000   16.503000
     20          6           0        9.745000    7.227000   19.719000
     21          8           0        9.239000    6.054000   20.371000
     22          1           0        8.304000    5.933000   20.035000
     23          6           0       12.318000   10.372000   18.732000
     24          8           0       13.166000   10.960000   19.730000
     25          1           0       14.106000   10.619000   19.753000
     26          6           0       11.965000    8.922000   19.019000
     27          8           0       11.377000    8.961000   20.327000
     28          6           0       10.690000    7.783000   20.773000
     29          8           0       10.028000    7.878000   22.042000
     30          1           0       10.683265    7.930376   22.741631
     31          1           0       11.412917   10.939762   18.673934
     32          1           0       12.816154   10.422472   17.786381
     33          1           0       12.867353    8.348639   19.062779
     34          1           0       10.347482    9.029859   17.575662
     35          1           0       11.187550    6.279063   18.489807
     36          1           0        8.938007    7.917149   19.587255
     37          1           0       11.450099    7.040877   20.901074
     38          1           0       10.990750    8.146710   10.891662
     39          1           0       11.277490    5.144047   13.608857
     40          1           0       10.122906    5.670019   12.424857
     41          1           0        9.634575    7.603921   14.033045
     42          1           0       12.225499    7.254521   12.518897
     43          1           0       10.913677    9.811242   13.358901
     44          1           0       13.353750    8.865100   14.786313
     45          1           0       10.547429    8.810951   15.840618
 ---------------------------------------------------------------------
                    Distance matrix (angstroms):
                    1          2          3          4          5
     1  O    0.000000
     2  C    1.434515   0.000000
     3  C    2.425231   1.520187   0.000000
     4  O    2.949659   2.356839   1.435470   0.000000
     5  H    2.435571   2.311871   1.944853   1.000284   0.000000
     6  C    3.815915   2.619886   1.519856   2.385362   3.224632
     7  O    4.717789   3.776631   2.359564   2.869695   3.773257
     8  H    4.651851   3.877105   2.363733   2.379300   3.266415
     9  C    2.935204   2.462084   3.765096   4.783478   4.718243
    10  O    4.082602   3.759620   4.912579   6.074064   6.045256
    11  H    4.610741   4.353440   5.635872   6.681424   6.582012
    12  C    2.379807   1.520211   2.423338   3.657426   3.783856
    13  O    3.686609   2.488121   2.827992   4.062557   4.491276
    14  C    4.135047   2.931919   2.463189   3.697932   4.364175
    15  O    5.490603   4.211273   3.792129   4.864470   5.616614
    16  C    6.298484   5.186414   4.699564   5.883256   6.620307
    17  C    6.754868   5.707789   5.597127   6.874946   7.498564
    18  O    5.996549   5.151999   5.337957   6.716667   7.173478
    19  H    5.060271   4.182099   4.479471   5.848144   6.259818
    20  C    8.098533   7.128555   6.924558   8.209205   8.857247
    21  O    8.982980   8.058238   8.053969   9.366023   9.955675
    22  H    8.868718   8.078201   8.164590   9.533963  10.048938
    23  C    7.649627   6.522772   5.505174   6.288473   7.206714
    24  O    8.973600   7.813549   6.736487   7.354995   8.315662
    25  H    9.216211   7.975997   6.933779   7.438797   8.421887
    26  C    7.531547   6.340415   5.639821   6.618146   7.472748
    27  O    8.733386   7.609283   6.953175   7.987349   8.822954
    28  C    9.086360   7.998727   7.591012   8.745557   9.505890
    29  O   10.360645   9.335533   8.921294  10.095885  10.849474
    30  H   11.051839   9.962611   9.497549  10.603643  11.400557
    31  H    7.628451   6.646188   5.586009   6.444044   7.310133
    32  H    6.958364   5.803783   4.691853   5.340646   6.288838
    33  H    7.755689   6.458567   5.838021   6.706440   7.580733
    34  H    5.972483   5.026665   4.424543   5.663830   6.357678
    35  H    7.051008   5.895892   5.892220   7.079324   7.714008
    36  H    8.044602   7.206230   6.929099   8.251193   8.868395
    37  H    9.311020   8.136383   7.815170   8.913560   9.683011
    38  H    0.960000   1.974215   2.807571   2.848371   2.071762
    39  H    3.541000   2.800848   4.060863   4.919489   4.922898
    40  H    2.479525   2.516390   3.984989   4.816920   4.528708
    41  H    2.521584   2.135350   2.724211   4.065139   4.156897
    42  H    2.076364   1.070000   2.151502   2.504088   2.425296
    43  H    2.491113   2.111582   1.070000   2.040514   2.350670
    44  H    4.309582   2.994410   2.135198   2.510493   3.396352
    45  H    4.225420   3.296859   2.763290   4.108089   4.699740
                    6          7          8          9         10
     6  C    0.000000
     7  O    1.434364   0.000000
     8  H    1.968972   0.999264   0.000000
     9  C    4.269572   5.565528   5.974132   0.000000
    10  O    5.241330   6.444137   6.981531   1.435114   0.000000
    11  H    6.004282   7.276769   7.778857   1.898535   1.000450
    12  C    2.885729   4.095438   4.528205   1.519892   2.495450
    13  O    2.477225   3.730521   4.393944   2.336393   2.980492
    14  C    1.520496   2.463532   3.281881   3.640230   4.269620
    15  O    2.545742   3.223303   4.146973   4.472877   4.869300
    16  C    3.529001   3.799356   4.795157   5.256726   5.338963
    17  C    4.625422   5.161346   6.135438   5.082237   4.791000
    18  O    4.732770   5.448452   6.347544   4.130971   3.590336
    19  H    4.005882   4.894878   5.729762   3.196929   2.870610
    20  C    5.914262   6.207767   7.201372   6.469456   5.999014
    21  O    7.124688   7.551001   8.539595   7.003690   6.291556
    22  H    7.388334   7.834785   8.802264   6.886346   6.026234
    23  C    4.103405   3.555257   4.412115   7.319370   7.669532
    24  O    5.298194   4.639218   5.363432   8.659110   9.022427
    25  H    5.445762   4.907894   5.579702   8.828348   9.263368
    26  C    4.252349   4.200161   5.164491   6.626459   6.782511
    27  O    5.622788   5.478272   6.436924   7.671781   7.611799
    28  C    6.367594   6.465613   7.456901   7.609355   7.300015
    29  O    7.726295   7.724105   8.705241   8.858011   8.415590
    30  H    8.220914   8.179159   9.146111   9.548680   9.164308
    31  H    4.345323   3.620457   4.451595   7.476257   7.754630
    32  H    3.259696   2.656258   3.467606   6.869222   7.407537
    33  H    4.387926   4.518324   5.435889   6.686978   6.915454
    34  H    3.429213   3.471230   4.440039   5.301701   5.387179
    35  H    4.862057   5.555097   6.506360   5.124745   4.879150
    36  H    6.022532   6.162654   7.132788   6.669631   6.171510
    37  H    6.545199   6.789072   7.771511   7.635061   7.351749
    38  H    4.267240   5.117507   4.883001   3.623346   4.853940
    39  H    4.375757   5.771650   6.183255   1.070000   2.041404
    40  H    4.810547   6.058764   6.319704   1.070000   2.041404
    41  H    3.244768   4.180253   4.637818   2.134512   2.644141
    42  H    3.008208   4.277400   4.321515   2.619651   4.040719
    43  H    2.110944   2.431554   2.397901   4.171456   5.149383
    44  H    1.070000   2.060496   2.405791   4.566411   5.631239
    45  H    2.118863   2.597891   3.432706   3.934394   4.352796
                   11         12         13         14         15
    11  H    0.000000
    12  C    3.270965   0.000000
    13  O    3.727885   1.435817   0.000000
    14  C    5.099087   2.348143   1.434689   0.000000
    15  O    5.613283   3.480763   2.158085   1.435368   0.000000
    16  C    6.162200   4.261937   3.096878   2.309350   1.434432
    17  C    5.516470   4.480293   3.326392   3.179099   2.318745
    18  O    4.359878   3.735530   2.925831   3.216341   2.942017
    19  H    3.699713   2.755855   1.982974   2.528392   2.573218
    20  C    6.706828   5.883395   4.813962   4.530121   3.637411
    21  O    6.854416   6.697580   5.677353   5.674133   4.777177
    22  H    6.593692   6.653714   5.809108   5.900420   5.212858
    23  C    8.505051   6.081654   5.014576   3.756303   3.032412
    24  O    9.824091   7.448069   6.330833   5.103570   4.263651
    25  H   10.003817   7.680311   6.494824   5.346736   4.405250
    26  C    7.557338   5.604759   4.363749   3.415756   2.284180
    27  O    8.377945   6.736753   5.525422   4.682861   3.576043
    28  C    7.989679   6.909777   5.698357   5.177048   4.035772
    29  O    9.088484   8.199724   7.049091   6.536263   5.453344
    30  H    9.808069   8.883286   7.662943   7.111193   5.929653
    31  H    8.653227   6.173707   5.269745   3.965159   3.515410
    32  H    8.227418   5.571916   4.573443   3.244482   2.746890
    33  H    7.595043   5.782881   4.428677   3.644311   2.305630
    34  H    6.300722   4.152237   3.276504   2.315210   2.088875
    35  H    5.461102   4.709626   3.416939   3.486741   2.394056
    36  H    6.961482   5.976511   5.084358   4.679655   4.042575
    37  H    7.945051   7.059471   5.749190   5.370744   4.075816
    38  H    5.264253   3.201518   4.418043   4.826017   6.160680
    39  H    2.144986   2.115355   2.431048   3.812072   4.420593
    40  H    2.239642   2.115355   3.251717   4.428167   5.409776
    41  H    3.561638   1.070000   2.061131   2.592104   3.787687
    42  H    4.436087   2.150690   2.816446   3.426689   4.499864
    43  H    5.960071   2.764646   3.337415   2.819099   4.212439
    44  H    6.275835   3.396656   2.813493   2.136199   2.722817
    45  H    5.285976   2.577179   2.046507   1.070000   2.046275
                   16         17         18         19         20
    16  C    0.000000
    17  C    1.520044   0.000000
    18  O    2.464075   1.435070   0.000000
    19  H    2.569733   1.995198   0.999599   0.000000
    20  C    2.456648   1.520298   2.428169   3.287093   0.000000
    21  O    3.780845   2.509418   3.004521   3.953723   1.434249
    22  H    4.197965   2.896238   2.929496   3.919119   1.962339
    23  C    2.526362   3.878598   4.968642   5.042446   4.181569
    24  O    3.812897   5.000126   6.224482   6.367840   5.063462
    25  H    4.217588   5.342371   6.616399   6.698660   5.524956
    26  C    1.520145   2.543606   3.818044   4.030318   2.879483
    27  O    2.475588   2.923704   4.253261   4.755839   2.457609
    28  C    2.892048   2.536900   3.792061   4.514316   1.520880
    29  O    4.237221   3.790928   4.856875   5.695290   2.429037
    30  H    4.816396   4.473294   5.644941   6.437215   3.242126
    31  H    2.734792   4.064503   4.989169   5.121545   4.202227
    32  H    2.742769   4.212105   5.154026   5.016702   4.835085
    33  H    2.122003   2.876732   4.197295   4.319775   3.381980
    34  H    1.070000   2.171323   2.662636   2.731766   2.864819
    35  H    2.118455   1.070000   2.043903   2.394024   2.119068
    36  H    2.705081   2.117171   2.638004   3.498984   1.070000
    37  H    3.236813   2.732484   4.046182   4.693854   2.083099
    38  H    7.066898   7.587861   6.890084   5.935564   8.962123
    39  H    5.391171   5.187987   4.431354   3.511582   6.634837
    40  H    6.206045   6.103494   5.101605   4.181284   7.468034
    41  H    4.234717   4.448451   3.551850   2.692505   5.699504
    42  H    5.663339   6.131264   5.664172   4.673974   7.615452
    43  H    4.833506   5.763697   5.416337   4.638296   6.963834
    44  H    3.951415   4.992515   5.242461   4.506544   6.327547
    45  H    2.229496   3.108857   2.978877   2.437996   4.265518
                   21         22         23         24         25
    21  O    0.000000
    22  H    1.000881   0.000000
    23  C    5.550828   6.124927   0.000000
    24  O    6.316727   7.000200   1.435567   0.000000
    25  H    6.701406   7.463332   2.073739   1.000205   0.000000
    26  C    4.181436   4.834180   1.519697   2.470094   2.828859
    27  O    3.608827   4.324046   2.328181   2.748260   3.244361
    28  C    2.292694   3.108077   3.676817   4.160740   4.555475
    29  O    2.596486   3.283786   4.735001   4.969015   5.420580
    30  H    3.350609   4.120227   4.971019   4.940902   5.279747
    31  H    5.610403   6.048598   1.070000   2.046700   2.918898
    32  H    6.209657   6.750643   1.070000   2.046700   2.360067
    33  H    4.487957   5.254019   2.122544   2.711748   2.676787
    34  H    4.230649   4.451371   2.649793   4.038646   4.625216
    35  H    2.717791   3.289717   4.253082   5.231015   5.380340
    36  H    2.043570   2.130561   4.264048   5.211069   5.834005
    37  H    2.478681   3.446072   4.068724   4.435680   4.601614
    38  H    9.864376   9.783648   8.257385   9.526937   9.712894
    39  H    7.121097   7.124563   7.393290   8.652177   8.702073
    40  H    8.004369   7.828911   8.167443   9.518899   9.698409
    41  H    6.536697   6.370704   6.078093   7.495968   7.861440
    42  H    8.486221   8.579999   6.951970   8.161809   8.196844
    43  H    8.129634   8.149937   5.581825   6.854452   7.192212
    44  H    7.484796   7.851490   4.348790   5.372513   5.320716
    45  H    5.462337   5.559534   3.732544   5.157772   5.589204
                   26         27         28         29         30
    26  C    0.000000
    27  O    1.434618   0.000000
    28  C    2.449380   1.434771   0.000000
    29  O    3.739042   2.435963   1.434444   0.000000
    30  H    4.060067   2.715492   1.974152   0.960000   0.000000
    31  H    2.120196   2.578646   3.859253   4.757757   5.112236
    32  H    2.120196   3.265243   4.517437   5.688447   5.942580
    33  H    1.070000   2.048022   2.825893   4.142365   4.298737
    34  H    2.170535   2.938454   3.448906   4.623530   5.292339
    35  H    2.805279   3.256372   2.778912   4.064386   4.589024
    36  H    3.239649   2.754185   2.119780   2.686148   3.605023
    37  H    2.710342   2.005437   1.070000   2.006203   2.183322
    38  H    8.222157   9.478284   9.892602  11.195049  11.855932
    39  H    6.634398   7.727385   7.657294   8.952855   9.566833
    40  H    7.579671   8.651426   8.630051   9.867808  10.576344
    41  H    5.659326   6.670201   6.824441   8.023295   8.777574
    42  H    6.715630   8.037319   8.412328   9.793223  10.360481
    43  H    5.825183   7.035054   7.689777   8.939690   9.572167
    44  H    4.455053   5.883532   6.641304   8.042386   8.443476
    45  H    3.481946   4.564901   5.040377   6.292642   6.958293
                   31         32         33         34         35
    31  H    0.000000
    32  H    1.739084   0.000000
    33  H    2.996748   2.435692   0.000000
    34  H    2.447261   2.842203   3.004218   0.000000
    35  H    4.669776   4.507217   2.726386   3.017989   0.000000
    36  H    4.011923   4.955786   3.987608   2.696525   2.991348
    37  H    4.490305   4.796103   2.664241   4.028670   2.542341
    38  H    8.279078   7.486544   8.386273   6.772710   7.826791
    39  H    7.698289   6.905140   6.522449   5.630274   5.011988
    40  H    8.275584   7.654106   7.666094   6.153840   6.187732
    41  H    5.985666   5.670469   6.025254   3.884800   4.902011
    42  H    7.219819   6.175045   6.665693   5.678877   6.138454
    43  H    5.456408   4.857531   6.204054   4.325761   6.235183
    44  H    4.815045   3.422693   4.334913   4.104298   5.009578
    45  H    3.648094   3.395601   3.997261   1.760192   3.720002
                   36         37         38         39         40
    36  H    0.000000
    37  H    2.967251   0.000000
    38  H    8.937549  10.080784   0.000000
    39  H    6.993176   7.536855   4.059724   0.000000
    40  H    7.599574   8.688322   3.039382   1.735387   0.000000
    41  H    5.606475   7.126217   3.464407   2.988325   2.562169
    42  H    7.823577   8.420676   2.229014   2.557505   2.634462
    43  H    6.803180   8.052767   2.977226   4.688022   4.318274
    44  H    6.591391   6.658977   4.611742   4.420802   5.120876
    45  H    4.174495   5.436560   5.012975   4.354300   4.659732
                   41         42         43         44         45
    41  H    0.000000
    42  H    3.021194   0.000000
    43  H    2.638720   2.993879   0.000000
    44  H    3.998781   3.001348   2.981049   0.000000
    45  H    2.357445   4.033885   2.700674   2.998321   0.000000
 Stoichiometry    C12H22O11
 Framework group  C1[X(C12H22O11)]
 Deg. of freedom   129
 Full point group                 C1      NOp   1
 Largest Abelian subgroup         C1      NOp   1
 Largest concise Abelian subgroup C1      NOp   1
                         Standard orientation:                         
 ---------------------------------------------------------------------
 Center     Atomic      Atomic             Coordinates (Angstroms)
 Number     Number       Type             X           Y           Z
 ---------------------------------------------------------------------
      1          8           0        4.934555   -0.402709   -0.830990
      2          6           0        3.884227   -0.048590    0.079639
      3          6           0        3.270055    1.284416   -0.316410
      4          8           0        4.196059    2.287019    0.128424
      5          1           0        5.097010    1.912182   -0.091469
      6          6           0        1.898187    1.653993    0.223361
      7          8           0        1.452465    2.769005   -0.561164
      8          1           0        2.235560    3.382150   -0.657832
      9          6           0        3.249134   -2.384759    0.527780
     10          8           0        2.515416   -3.549904    0.123246
     11          1           0        2.912347   -4.242625    0.726143
     12          6           0        2.777150   -1.077097   -0.086485
     13          8           0        1.564048   -0.768822    0.617020
     14          6           0        0.993177    0.439029    0.094013
     15          8           0       -0.233001    0.405267    0.839419
     16          6           0       -1.293824    0.184285   -0.100482
     17          6           0       -1.692974   -1.260312    0.153196
     18          8           0       -0.769776   -2.203376   -0.410506
     19          1           0        0.159038   -1.934564   -0.157046
     20          6           0       -3.083513   -1.466901   -0.425620
     21          8           0       -3.716025   -2.718663   -0.125472
     22          1           0       -3.429235   -3.352454   -0.845071
     23          6           0       -2.077697    2.584579   -0.181962
     24          8           0       -3.048437    3.551690    0.246070
     25          1           0       -3.004300    3.809335    1.211513
     26          6           0       -2.326351    1.193075    0.376040
     27          8           0       -3.666211    0.888725   -0.036603
     28          6           0       -4.103323   -0.470594    0.103944
     29          8           0       -5.410720   -0.771302   -0.403914
     30          1           0       -6.073451   -0.353793    0.151129
     31          1           0       -2.093896    2.532948   -1.250593
     32          1           0       -1.108019    2.910921    0.131289
     33          1           0       -2.295832    1.238554    1.444637
     34          1           0       -0.982858    0.356987   -1.109627
     35          1           0       -1.737435   -1.419729    1.210319
     36          1           0       -3.025502   -1.362030   -1.488887
     37          1           0       -4.158271   -0.644918    1.158217
     38          1           0        5.756779    0.001071   -0.543746
     39          1           0        3.182044   -2.298879    1.592216
     40          1           0        4.276524   -2.527293    0.264997
     41          1           0        2.567411   -1.220034   -1.125946
     42          1           0        4.239282   -0.025204    1.088742
     43          1           0        3.224825    1.322337   -1.384781
     44          1           0        1.977420    1.940935    1.251119
     45          1           0        0.768093    0.291930   -0.941650
 ---------------------------------------------------------------------
 Rotational constants (GHZ):      0.3883169      0.1534127      0.1136130
 Standard basis: 6-31+G(2d,p) (6D, 7F)
 There are   685 symmetry adapted basis functions of A   symmetry.
 Integral buffers will be    131072 words long.
 Raffenetti 2 integral format.
 Two-electron integral symmetry is turned on.
   685 basis functions,  1028 primitive gaussians,   685 cartesian basis functions
    91 alpha electrons       91 beta electrons
       nuclear repulsion energy      2291.9758441017 Hartrees.
 NAtoms=   45 NActive=   45 NUniq=   45 SFac= 1.00D+00 NAtFMM=   50 NAOKFM=F Big=F
 One-electron integrals computed using PRISM.
 NBasis=   685 RedAO= T  NBF=   685
 NBsUse=   685 1.00D-06 NBFU=   685
 Harris functional with IExCor=  402 diagonalized for initial guess.
 ExpMin= 4.38D-02 ExpMax= 5.48D+03 ExpMxC= 8.25D+02 IAcc=2 IRadAn=         0 AccDes= 0.00D+00
 HarFok:  IExCor=  402 AccDes= 0.00D+00 IRadAn=         0 IDoV= 1
 ScaDFX=  1.000000  1.000000  1.000000  1.000000
 FoFCou: FMM=F IPFlag=           0 FMFlag=      100000 FMFlg1=           0
         NFxFlg=           0 DoJE=T BraDBF=F KetDBF=T FulRan=T
         Omega=  0.000000  0.000000  1.000000  0.000000  0.000000 ICntrl=     500 IOpCl=  0
         NMat0=    1 NMatS0=    1 NMatT0=    0 NMatD0=    1 NMtDS0=    0 NMtDT0=    0
         I1Cent=           4 NGrid=           0.
 Petite list used in FoFCou.
 Initial guess orbital symmetries:
       Occupied  (A) (A) (A) (A) (A) (A) (A) (A) (A) (A) (A) (A)
                 (A) (A) (A) (A) (A) (A) (A) (A) (A) (A) (A) (A)
                 (A) (A) (A) (A) (A) (A) (A) (A) (A) (A) (A) (A)
                 (A) (A) (A) (A) (A) (A) (A) (A) (A) (A) (A) (A)
                 (A) (A) (A) (A) (A) (A) (A) (A) (A) (A) (A) (A)
                 (A) (A) (A) (A) (A) (A) (A) (A) (A) (A) (A) (A)
                 (A) (A) (A) (A) (A) (A) (A) (A) (A) (A) (A) (A)
                 (A) (A) (A) (A) (A) (A) (A)
       Virtual   (A) (A) (A) (A) (A) (A) (A) (A) (A) (A) (A) (A)
                 (A) (A) (A) (A) (A) (A) (A) (A) (A) (A) (A) (A)
                 (A) (A) (A) (A) (A) (A) (A) (A) (A) (A) (A) (A)
                 (A) (A) (A) (A) (A) (A) (A) (A) (A) (A) (A) (A)
                 (A) (A) (A) (A) (A) (A) (A) (A) (A) (A) (A) (A)
                 (A) (A) (A) (A) (A) (A) (A) (A) (A) (A) (A) (A)
                 (A) (A) (A) (A) (A) (A) (A) (A) (A) (A) (A) (A)
                 (A) (A) (A) (A) (A) (A) (A) (A) (A) (A) (A) (A)
                 (A) (A) (A) (A) (A) (A) (A) (A) (A) (A) (A) (A)
                 (A) (A) (A) (A) (A) (A) (A) (A) (A) (A) (A) (A)
                 (A) (A) (A) (A) (A) (A) (A) (A) (A) (A) (A) (A)
                 (A) (A) (A) (A) (A) (A) (A) (A) (A) (A) (A) (A)
                 (A) (A) (A) (A) (A) (A) (A) (A) (A) (A) (A) (A)
                 (A) (A) (A) (A) (A) (A) (A) (A) (A) (A) (A) (A)
                 (A) (A) (A) (A) (A) (A) (A) (A) (A) (A) (A) (A)
                 (A) (A) (A) (A) (A) (A) (A) (A) (A) (A) (A) (A)
                 (A) (A) (A) (A) (A) (A) (A) (A) (A) (A) (A) (A)
                 (A) (A) (A) (A) (A) (A) (A) (A) (A) (A) (A) (A)
                 (A) (A) (A) (A) (A) (A) (A) (A) (A) (A) (A) (A)
                 (A) (A) (A) (A) (A) (A) (A) (A) (A) (A) (A) (A)
                 (A) (A) (A) (A) (A) (A) (A) (A) (A) (A) (A) (A)
                 (A) (A) (A) (A) (A) (A) (A) (A) (A) (A) (A) (A)
                 (A) (A) (A) (A) (A) (A) (A) (A) (A) (A) (A) (A)
                 (A) (A) (A) (A) (A) (A) (A) (A) (A) (A) (A) (A)
                 (A) (A) (A) (A) (A) (A) (A) (A) (A) (A) (A) (A)
                 (A) (A) (A) (A) (A) (A) (A) (A) (A) (A) (A) (A)
                 (A) (A) (A) (A) (A) (A) (A) (A) (A) (A) (A) (A)
                 (A) (A) (A) (A) (A) (A) (A) (A) (A) (A) (A) (A)
                 (A) (A) (A) (A) (A) (A) (A) (A) (A) (A) (A) (A)
                 (A) (A) (A) (A) (A) (A) (A) (A) (A) (A) (A) (A)
                 (A) (A) (A) (A) (A) (A) (A) (A) (A) (A) (A) (A)
                 (A) (A) (A) (A) (A) (A) (A) (A) (A) (A) (A) (A)
                 (A) (A) (A) (A) (A) (A) (A) (A) (A) (A) (A) (A)
                 (A) (A) (A) (A) (A) (A) (A) (A) (A) (A) (A) (A)
                 (A) (A) (A) (A) (A) (A) (A) (A) (A) (A) (A) (A)
                 (A) (A) (A) (A) (A) (A) (A) (A) (A) (A) (A) (A)
                 (A) (A) (A) (A) (A) (A) (A) (A) (A) (A) (A) (A)
                 (A) (A) (A) (A) (A) (A) (A) (A) (A) (A) (A) (A)
                 (A) (A) (A) (A) (A) (A) (A) (A) (A) (A) (A) (A)
                 (A) (A) (A) (A) (A) (A) (A) (A) (A) (A) (A) (A)
                 (A) (A) (A) (A) (A) (A) (A) (A) (A) (A) (A) (A)
                 (A) (A) (A) (A) (A) (A) (A) (A) (A) (A) (A) (A)
                 (A) (A) (A) (A) (A) (A) (A) (A) (A) (A) (A) (A)
                 (A) (A) (A) (A) (A) (A) (A) (A) (A) (A) (A) (A)
                 (A) (A) (A) (A) (A) (A) (A) (A) (A) (A) (A) (A)
                 (A) (A) (A) (A) (A) (A) (A) (A) (A) (A) (A) (A)
                 (A) (A) (A) (A) (A) (A) (A) (A) (A) (A) (A) (A)
                 (A) (A) (A) (A) (A) (A) (A) (A) (A) (A) (A) (A)
                 (A) (A) (A) (A) (A) (A) (A) (A) (A) (A) (A) (A)
                 (A) (A) (A) (A) (A) (A)
 The electronic state of the initial guess is 1-A.
 Requested convergence on RMS density matrix=1.00D-08 within 128 cycles.
 Requested convergence on MAX density matrix=1.00D-06.
 Requested convergence on             energy=1.00D-06.
 No special actions if energy rises.
 SCF Done:  E(RB3LYP) =  -1297.97369342     A.U. after   13 cycles
             Convg  =    0.5095D-08             -V/T =  2.0063
 Range of M.O.s used for correlation:     1   685
 NBasis=   685 NAE=    91 NBE=    91 NFC=     0 NFV=     0
 NROrb=    685 NOA=    91 NOB=    91 NVA=   594 NVB=   594

 **** Warning!!: The largest alpha MO coefficient is  0.87206383D+02

          Differentiating once with respect to electric field.
                with respect to dipole field.
          Electric field/nuclear overlap derivatives assumed to be zero.
          There are     3 degrees of freedom in the 1st order CPHF.  IDoFFX=0.
      3 vectors produced by pass  0 Test12= 1.80D-12 3.33D-08 XBig12= 1.20D+02 1.14D+00.
 AX will form     3 AO Fock derivatives at one time.
      3 vectors produced by pass  1 Test12= 1.80D-12 3.33D-08 XBig12= 2.62D+01 3.55D-01.
      3 vectors produced by pass  2 Test12= 1.80D-12 3.33D-08 XBig12= 1.07D+01 2.46D-01.
      3 vectors produced by pass  3 Test12= 1.80D-12 3.33D-08 XBig12= 1.16D+00 7.22D-02.
      3 vectors produced by pass  4 Test12= 1.80D-12 3.33D-08 XBig12= 3.47D-01 3.72D-02.
      3 vectors produced by pass  5 Test12= 1.80D-12 3.33D-08 XBig12= 7.41D-02 1.51D-02.
      3 vectors produced by pass  6 Test12= 1.80D-12 3.33D-08 XBig12= 2.32D-02 1.24D-02.
      3 vectors produced by pass  7 Test12= 1.80D-12 3.33D-08 XBig12= 2.99D-03 6.26D-03.
      3 vectors produced by pass  8 Test12= 1.80D-12 3.33D-08 XBig12= 7.23D-04 2.01D-03.
      3 vectors produced by pass  9 Test12= 1.80D-12 3.33D-08 XBig12= 1.59D-04 1.47D-03.
      3 vectors produced by pass 10 Test12= 1.80D-12 3.33D-08 XBig12= 4.49D-05 7.37D-04.
      3 vectors produced by pass 11 Test12= 1.80D-12 3.33D-08 XBig12= 9.42D-06 3.54D-04.
      3 vectors produced by pass 12 Test12= 1.80D-12 3.33D-08 XBig12= 1.46D-06 1.23D-04.
      3 vectors produced by pass 13 Test12= 1.80D-12 3.33D-08 XBig12= 2.78D-07 5.73D-05.
      3 vectors produced by pass 14 Test12= 1.80D-12 3.33D-08 XBig12= 6.40D-08 2.42D-05.
      3 vectors produced by pass 15 Test12= 1.80D-12 3.33D-08 XBig12= 1.44D-08 1.32D-05.
      3 vectors produced by pass 16 Test12= 1.80D-12 3.33D-08 XBig12= 1.09D-09 4.99D-06.
      3 vectors produced by pass 17 Test12= 1.80D-12 3.33D-08 XBig12= 1.11D-10 1.31D-06.
      3 vectors produced by pass 18 Test12= 1.80D-12 3.33D-08 XBig12= 3.01D-11 4.61D-07.
      3 vectors produced by pass 19 Test12= 1.80D-12 3.33D-08 XBig12= 1.71D-11 3.69D-07.
      3 vectors produced by pass 20 Test12= 1.80D-12 3.33D-08 XBig12= 8.41D-12 2.53D-07.
      2 vectors produced by pass 21 Test12= 1.80D-12 3.33D-08 XBig12= 1.68D-12 9.43D-08.
      1 vectors produced by pass 22 Test12= 1.80D-12 3.33D-08 XBig12= 6.63D-13 5.74D-08.
 Inverted reduced A of dimension    66 with in-core refinement.
 End of Minotr Frequency-dependent properties file   721 does not exist.
 End of Minotr Frequency-dependent properties file   722 does not exist.
 Symmetrizing basis deriv contribution to polar:
 IMax=3 JMax=2 DiffMx= 0.00D+00
 G2DrvN: will do    16 centers at a time, making    3 passes doing MaxLOS=2.
 Calling FoFCou, ICntrl=  3107 FMM=F I1Cent=   0 AccDes= 0.00D+00.
 Calling FoFCou, ICntrl=  3107 FMM=F I1Cent=   0 AccDes= 0.00D+00.
 Calling FoFCou, ICntrl=  3107 FMM=F I1Cent=   0 AccDes= 0.00D+00.
 FoFDir/FoFCou used for L=0 through L=2.
 End of G2Drv Frequency-dependent properties file   721 does not exist.
 End of G2Drv Frequency-dependent properties file   722 does not exist.
          IDoAtm=111111111111111111111111111111111111111111111
          Differentiating once with respect to electric field.
                with respect to dipole field.
          Differentiating once with respect to nuclear coordinates.
          There are   138 degrees of freedom in the 1st order CPHF.  IDoFFX=5.
 Will reuse    3 saved solutions.
    135 vectors produced by pass  0 Test12= 5.41D-14 1.00D-09 XBig12= 1.77D-01 6.00D-02.
 AX will form    45 AO Fock derivatives at one time.
    135 vectors produced by pass  1 Test12= 5.41D-14 1.00D-09 XBig12= 1.49D-02 1.23D-02.
    132 vectors produced by pass  2 Test12= 5.41D-14 1.00D-09 XBig12= 2.25D-04 2.26D-03.
    132 vectors produced by pass  3 Test12= 5.41D-14 1.00D-09 XBig12= 9.88D-07 8.57D-05.
    132 vectors produced by pass  4 Test12= 5.41D-14 1.00D-09 XBig12= 2.14D-09 2.76D-06.
    132 vectors produced by pass  5 Test12= 5.41D-14 1.00D-09 XBig12= 4.88D-12 1.35D-07.
     82 vectors produced by pass  6 Test12= 5.41D-14 1.00D-09 XBig12= 2.18D-13 2.43D-08.
      1 vectors produced by pass  7 Test12= 5.41D-14 1.00D-09 XBig12= 4.87D-16 1.21D-09.
 Inverted reduced A of dimension   881 with in-core refinement.
 Isotropic polarizability for W=    0.000000      189.56 Bohr**3.
 End of Minotr Frequency-dependent properties file   721 does not exist.
 End of Minotr Frequency-dependent properties file   722 does not exist.

 **********************************************************************

            Population analysis using the SCF density.

 **********************************************************************

 Orbital symmetries:
       Occupied  (A) (A) (A) (A) (A) (A) (A) (A) (A) (A) (A) (A)
                 (A) (A) (A) (A) (A) (A) (A) (A) (A) (A) (A) (A)
                 (A) (A) (A) (A) (A) (A) (A) (A) (A) (A) (A) (A)
                 (A) (A) (A) (A) (A) (A) (A) (A) (A) (A) (A) (A)
                 (A) (A) (A) (A) (A) (A) (A) (A) (A) (A) (A) (A)
                 (A) (A) (A) (A) (A) (A) (A) (A) (A) (A) (A) (A)
                 (A) (A) (A) (A) (A) (A) (A) (A) (A) (A) (A) (A)
                 (A) (A) (A) (A) (A) (A) (A)
       Virtual   (A) (A) (A) (A) (A) (A) (A) (A) (A) (A) (A) (A)
                 (A) (A) (A) (A) (A) (A) (A) (A) (A) (A) (A) (A)
                 (A) (A) (A) (A) (A) (A) (A) (A) (A) (A) (A) (A)
                 (A) (A) (A) (A) (A) (A) (A) (A) (A) (A) (A) (A)
                 (A) (A) (A) (A) (A) (A) (A) (A) (A) (A) (A) (A)
                 (A) (A) (A) (A) (A) (A) (A) (A) (A) (A) (A) (A)
                 (A) (A) (A) (A) (A) (A) (A) (A) (A) (A) (A) (A)
                 (A) (A) (A) (A) (A) (A) (A) (A) (A) (A) (A) (A)
                 (A) (A) (A) (A) (A) (A) (A) (A) (A) (A) (A) (A)
                 (A) (A) (A) (A) (A) (A) (A) (A) (A) (A) (A) (A)
                 (A) (A) (A) (A) (A) (A) (A) (A) (A) (A) (A) (A)
                 (A) (A) (A) (A) (A) (A) (A) (A) (A) (A) (A) (A)
                 (A) (A) (A) (A) (A) (A) (A) (A) (A) (A) (A) (A)
                 (A) (A) (A) (A) (A) (A) (A) (A) (A) (A) (A) (A)
                 (A) (A) (A) (A) (A) (A) (A) (A) (A) (A) (A) (A)
                 (A) (A) (A) (A) (A) (A) (A) (A) (A) (A) (A) (A)
                 (A) (A) (A) (A) (A) (A) (A) (A) (A) (A) (A) (A)
                 (A) (A) (A) (A) (A) (A) (A) (A) (A) (A) (A) (A)
                 (A) (A) (A) (A) (A) (A) (A) (A) (A) (A) (A) (A)
                 (A) (A) (A) (A) (A) (A) (A) (A) (A) (A) (A) (A)
                 (A) (A) (A) (A) (A) (A) (A) (A) (A) (A) (A) (A)
                 (A) (A) (A) (A) (A) (A) (A) (A) (A) (A) (A) (A)
                 (A) (A) (A) (A) (A) (A) (A) (A) (A) (A) (A) (A)
                 (A) (A) (A) (A) (A) (A) (A) (A) (A) (A) (A) (A)
                 (A) (A) (A) (A) (A) (A) (A) (A) (A) (A) (A) (A)
                 (A) (A) (A) (A) (A) (A) (A) (A) (A) (A) (A) (A)
                 (A) (A) (A) (A) (A) (A) (A) (A) (A) (A) (A) (A)
                 (A) (A) (A) (A) (A) (A) (A) (A) (A) (A) (A) (A)
                 (A) (A) (A) (A) (A) (A) (A) (A) (A) (A) (A) (A)
                 (A) (A) (A) (A) (A) (A) (A) (A) (A) (A) (A) (A)
                 (A) (A) (A) (A) (A) (A) (A) (A) (A) (A) (A) (A)
                 (A) (A) (A) (A) (A) (A) (A) (A) (A) (A) (A) (A)
                 (A) (A) (A) (A) (A) (A) (A) (A) (A) (A) (A) (A)
                 (A) (A) (A) (A) (A) (A) (A) (A) (A) (A) (A) (A)
                 (A) (A) (A) (A) (A) (A) (A) (A) (A) (A) (A) (A)
                 (A) (A) (A) (A) (A) (A) (A) (A) (A) (A) (A) (A)
                 (A) (A) (A) (A) (A) (A) (A) (A) (A) (A) (A) (A)
                 (A) (A) (A) (A) (A) (A) (A) (A) (A) (A) (A) (A)
                 (A) (A) (A) (A) (A) (A) (A) (A) (A) (A) (A) (A)
                 (A) (A) (A) (A) (A) (A) (A) (A) (A) (A) (A) (A)
                 (A) (A) (A) (A) (A) (A) (A) (A) (A) (A) (A) (A)
                 (A) (A) (A) (A) (A) (A) (A) (A) (A) (A) (A) (A)
                 (A) (A) (A) (A) (A) (A) (A) (A) (A) (A) (A) (A)
                 (A) (A) (A) (A) (A) (A) (A) (A) (A) (A) (A) (A)
                 (A) (A) (A) (A) (A) (A) (A) (A) (A) (A) (A) (A)
                 (A) (A) (A) (A) (A) (A) (A) (A) (A) (A) (A) (A)
                 (A) (A) (A) (A) (A) (A) (A) (A) (A) (A) (A) (A)
                 (A) (A) (A) (A) (A) (A) (A) (A) (A) (A) (A) (A)
                 (A) (A) (A) (A) (A) (A) (A) (A) (A) (A) (A) (A)
                 (A) (A) (A) (A) (A) (A)
 The electronic state is 1-A.
 Alpha  occ. eigenvalues --  -19.20193 -19.19531 -19.19127 -19.18093 -19.17720
 Alpha  occ. eigenvalues --  -19.16709 -19.15211 -19.14549 -19.14376 -19.14355
 Alpha  occ. eigenvalues --  -19.14244 -10.31228 -10.27887 -10.27667 -10.26993
 Alpha  occ. eigenvalues --  -10.26701 -10.26542 -10.24783 -10.24458 -10.23826
 Alpha  occ. eigenvalues --  -10.23407 -10.23136 -10.22488  -1.11262  -1.08656
 Alpha  occ. eigenvalues --   -1.06406  -1.05917  -1.04676  -1.04195  -1.03208
 Alpha  occ. eigenvalues --   -1.01967  -1.01135  -1.00169  -0.99604  -0.82821
 Alpha  occ. eigenvalues --   -0.81702  -0.78453  -0.77374  -0.71942  -0.69577
 Alpha  occ. eigenvalues --   -0.67874  -0.65331  -0.63849  -0.62982  -0.61986
 Alpha  occ. eigenvalues --   -0.59220  -0.58112  -0.56672  -0.54932  -0.54095
 Alpha  occ. eigenvalues --   -0.53948  -0.53218  -0.52882  -0.51838  -0.50732
 Alpha  occ. eigenvalues --   -0.49932  -0.49872  -0.48985  -0.47461  -0.47005
 Alpha  occ. eigenvalues --   -0.45808  -0.45033  -0.44437  -0.44121  -0.43706
 Alpha  occ. eigenvalues --   -0.42464  -0.41882  -0.41334  -0.40628  -0.40113
 Alpha  occ. eigenvalues --   -0.39398  -0.38504  -0.37803  -0.37319  -0.36397
 Alpha  occ. eigenvalues --   -0.35846  -0.35280  -0.34975  -0.33897  -0.33371
 Alpha  occ. eigenvalues --   -0.32216  -0.32109  -0.31190  -0.30264  -0.29602
 Alpha  occ. eigenvalues --   -0.29517  -0.29049  -0.28346  -0.27155  -0.26214
 Alpha  occ. eigenvalues --   -0.25046
 Alpha virt. eigenvalues --   -0.04787  -0.01596  -0.00559  -0.00360   0.00600
 Alpha virt. eigenvalues --    0.01119   0.01610   0.01974   0.02127   0.03401
 Alpha virt. eigenvalues --    0.03775   0.04016   0.04805   0.05208   0.05606
 Alpha virt. eigenvalues --    0.06061   0.06217   0.07004   0.07287   0.08299
 Alpha virt. eigenvalues --    0.08546   0.08666   0.09439   0.09723   0.10174
 Alpha virt. eigenvalues --    0.10295   0.10695   0.10967   0.11406   0.11625
 Alpha virt. eigenvalues --    0.12102   0.12239   0.12763   0.13327   0.13740
 Alpha virt. eigenvalues --    0.14057   0.14515   0.14615   0.14768   0.14955
 Alpha virt. eigenvalues --    0.15346   0.15511   0.16020   0.16432   0.16840
 Alpha virt. eigenvalues --    0.16998   0.17803   0.18019   0.18056   0.18444
 Alpha virt. eigenvalues --    0.18579   0.19309   0.19695   0.19791   0.20088
 Alpha virt. eigenvalues --    0.20258   0.20770   0.21142   0.21543   0.21721
 Alpha virt. eigenvalues --    0.21831   0.22118   0.22258   0.22566   0.22669
 Alpha virt. eigenvalues --    0.22866   0.23424   0.23853   0.24276   0.24571
 Alpha virt. eigenvalues --    0.24827   0.25062   0.25288   0.25674   0.25759
 Alpha virt. eigenvalues --    0.26019   0.26197   0.26669   0.27240   0.27309
 Alpha virt. eigenvalues --    0.27748   0.27914   0.28116   0.28457   0.29253
 Alpha virt. eigenvalues --    0.29543   0.29724   0.30020   0.30218   0.30649
 Alpha virt. eigenvalues --    0.31030   0.31338   0.31608   0.32071   0.32447
 Alpha virt. eigenvalues --    0.32832   0.33164   0.33344   0.33678   0.34254
 Alpha virt. eigenvalues --    0.34523   0.34771   0.34995   0.35514   0.35730
 Alpha virt. eigenvalues --    0.36066   0.36122   0.36902   0.37039   0.37451
 Alpha virt. eigenvalues --    0.37980   0.38076   0.38653   0.38991   0.39255
 Alpha virt. eigenvalues --    0.39582   0.40079   0.40517   0.40798   0.40998
 Alpha virt. eigenvalues --    0.41424   0.41997   0.42259   0.43095   0.43279
 Alpha virt. eigenvalues --    0.43678   0.44137   0.44513   0.44887   0.45375
 Alpha virt. eigenvalues --    0.46040   0.47140   0.48199   0.49208   0.49887
 Alpha virt. eigenvalues --    0.51864   0.53689   0.54648   0.57080   0.58188
 Alpha virt. eigenvalues --    0.59523   0.59918   0.60344   0.60779   0.61294
 Alpha virt. eigenvalues --    0.63414   0.64272   0.65136   0.65548   0.66995
 Alpha virt. eigenvalues --    0.67425   0.68223   0.69138   0.69548   0.69784
 Alpha virt. eigenvalues --    0.71114   0.71657   0.72312   0.72826   0.73043
 Alpha virt. eigenvalues --    0.74152   0.75616   0.76407   0.76647   0.76765
 Alpha virt. eigenvalues --    0.78568   0.78860   0.79639   0.80719   0.81554
 Alpha virt. eigenvalues --    0.82267   0.83368   0.83654   0.84997   0.85852
 Alpha virt. eigenvalues --    0.86333   0.86866   0.87961   0.89086   0.89660
 Alpha virt. eigenvalues --    0.89908   0.90273   0.90867   0.91486   0.92135
 Alpha virt. eigenvalues --    0.92661   0.92994   0.93168   0.93523   0.94236
 Alpha virt. eigenvalues --    0.94825   0.95355   0.95752   0.96092   0.96738
 Alpha virt. eigenvalues --    0.96951   0.97296   0.98561   0.99085   0.99317
 Alpha virt. eigenvalues --    0.99507   0.99819   1.01175   1.01925   1.02762
 Alpha virt. eigenvalues --    1.03520   1.03859   1.04604   1.05326   1.05414
 Alpha virt. eigenvalues --    1.05959   1.06645   1.06829   1.06875   1.08023
 Alpha virt. eigenvalues --    1.08898   1.10048   1.10496   1.11343   1.12463
 Alpha virt. eigenvalues --    1.12651   1.12920   1.13571   1.14079   1.15119
 Alpha virt. eigenvalues --    1.15469   1.15860   1.16078   1.16871   1.17697
 Alpha virt. eigenvalues --    1.18096   1.18405   1.19257   1.19510   1.20170
 Alpha virt. eigenvalues --    1.20493   1.21024   1.21730   1.21771   1.22274
 Alpha virt. eigenvalues --    1.22597   1.23021   1.24823   1.25252   1.25367
 Alpha virt. eigenvalues --    1.25734   1.25952   1.26869   1.27137   1.27286
 Alpha virt. eigenvalues --    1.27825   1.28888   1.28995   1.29991   1.30558
 Alpha virt. eigenvalues --    1.30838   1.31740   1.32660   1.32828   1.33531
 Alpha virt. eigenvalues --    1.33906   1.34798   1.35466   1.35942   1.36864
 Alpha virt. eigenvalues --    1.37113   1.39059   1.39888   1.40069   1.40803
 Alpha virt. eigenvalues --    1.42005   1.42919   1.43227   1.43784   1.44589
 Alpha virt. eigenvalues --    1.44976   1.45807   1.46927   1.47236   1.47932
 Alpha virt. eigenvalues --    1.49213   1.49585   1.49842   1.51990   1.52454
 Alpha virt. eigenvalues --    1.53431   1.54203   1.55151   1.55297   1.56602
 Alpha virt. eigenvalues --    1.57105   1.58470   1.59006   1.59852   1.60332
 Alpha virt. eigenvalues --    1.60710   1.62171   1.63963   1.64585   1.65542
 Alpha virt. eigenvalues --    1.66224   1.68393   1.68531   1.69287   1.70113
 Alpha virt. eigenvalues --    1.70894   1.71516   1.73071   1.73721   1.74963
 Alpha virt. eigenvalues --    1.75386   1.76413   1.77929   1.78920   1.79139
 Alpha virt. eigenvalues --    1.80046   1.81213   1.81999   1.83194   1.83484
 Alpha virt. eigenvalues --    1.84581   1.85484   1.86891   1.88217   1.88844
 Alpha virt. eigenvalues --    1.89968   1.91587   1.93223   1.93971   1.94936
 Alpha virt. eigenvalues --    1.96016   1.96619   1.97420   1.98693   1.99607
 Alpha virt. eigenvalues --    2.00336   2.01417   2.02742   2.04277   2.05005
 Alpha virt. eigenvalues --    2.05824   2.07098   2.07605   2.08875   2.10109
 Alpha virt. eigenvalues --    2.12261   2.14545   2.15295   2.16483   2.16863
 Alpha virt. eigenvalues --    2.19387   2.20567   2.23353   2.24091   2.24533
 Alpha virt. eigenvalues --    2.25758   2.27113   2.28552   2.29634   2.30273
 Alpha virt. eigenvalues --    2.31609   2.33274   2.33681   2.34024   2.36946
 Alpha virt. eigenvalues --    2.40787   2.42038   2.42301   2.46701   2.51451
 Alpha virt. eigenvalues --    2.52422   2.53669   2.54592   2.55354   2.56310
 Alpha virt. eigenvalues --    2.59870   2.60791   2.61551   2.63201   2.63617
 Alpha virt. eigenvalues --    2.65100   2.67768   2.68172   2.69482   2.71420
 Alpha virt. eigenvalues --    2.72868   2.73515   2.75244   2.76131   2.78782
 Alpha virt. eigenvalues --    2.79959   2.80085   2.81769   2.85479   2.86461
 Alpha virt. eigenvalues --    2.87173   2.88304   2.89762   2.91612   2.93832
 Alpha virt. eigenvalues --    2.94055   2.95078   2.96204   2.96821   2.97074
 Alpha virt. eigenvalues --    2.97868   2.98789   3.00160   3.00493   3.01970
 Alpha virt. eigenvalues --    3.02502   3.03801   3.03962   3.04469   3.05042
 Alpha virt. eigenvalues --    3.05731   3.07075   3.08263   3.08744   3.10305
 Alpha virt. eigenvalues --    3.10669   3.11465   3.12294   3.12970   3.13927
 Alpha virt. eigenvalues --    3.15323   3.15912   3.18550   3.21475   3.24207
 Alpha virt. eigenvalues --    3.24675   3.27941   3.32710   3.79701   3.82045
 Alpha virt. eigenvalues --    3.93868   4.00677   4.06721   4.09576   4.11365
 Alpha virt. eigenvalues --    4.13010   4.14116   4.15497   4.15820   4.16802
 Alpha virt. eigenvalues --    4.17373   4.18476   4.19462   4.20076   4.20930
 Alpha virt. eigenvalues --    4.22111   4.23504   4.24637   4.24751   4.25369
 Alpha virt. eigenvalues --    4.25991   4.26615   4.28233   4.28671   4.29329
 Alpha virt. eigenvalues --    4.30080   4.30909   4.31878   4.32308   4.33076
 Alpha virt. eigenvalues --    4.33512   4.33803   4.34031   4.34825   4.35548
 Alpha virt. eigenvalues --    4.36122   4.37340   4.37765   4.37860   4.38363
 Alpha virt. eigenvalues --    4.39227   4.39963   4.42418   4.42968   4.44853
 Alpha virt. eigenvalues --    4.46262   4.46585   4.47562   4.49345   4.49903
 Alpha virt. eigenvalues --    4.51417   4.52292   4.53128   4.54501   4.55754
 Alpha virt. eigenvalues --    4.56417   4.57502   4.57774   4.58984   4.60438
 Alpha virt. eigenvalues --    4.60898   4.61616   4.62493   4.63256   4.63452
 Alpha virt. eigenvalues --    4.64362   4.65239   4.65902   4.67006   4.68359
 Alpha virt. eigenvalues --    4.68763   4.68862   4.69873   4.70293   4.70892
 Alpha virt. eigenvalues --    4.71590   4.72003   4.73100   4.73180   4.73944
 Alpha virt. eigenvalues --    4.75000   4.75732   4.77119   4.77196   4.77605
 Alpha virt. eigenvalues --    4.77942   4.78896   4.79480   4.80747   4.80957
 Alpha virt. eigenvalues --    4.82465   4.83555   4.83961   4.84383   4.85772
 Alpha virt. eigenvalues --    4.87541   4.88010   4.89340   4.91305   4.91756
 Alpha virt. eigenvalues --    4.93485   4.93656   4.94508   4.95848   4.96616
 Alpha virt. eigenvalues --    4.99591   5.00885   5.04533   5.05583   5.06313
 Alpha virt. eigenvalues --    5.08753   5.10859   5.13023   5.14928   5.16204
 Alpha virt. eigenvalues --    5.21237   5.23623   5.28033   5.34333   5.42541
 Alpha virt. eigenvalues --    5.49679   5.85065   5.94497   6.08192   6.56801
 Alpha virt. eigenvalues --    6.70468   6.74049   6.77185   6.79143   6.83870
 Alpha virt. eigenvalues --    6.87012   6.89210   6.93009   6.97451   7.05285
 Alpha virt. eigenvalues --    7.13653  11.86637  11.92892  11.99971  12.04472
 Alpha virt. eigenvalues --   12.26604  12.49474  12.71606  12.75921  12.81110
 Alpha virt. eigenvalues --   12.91738  13.03922  13.11898  13.17048  13.19701
 Alpha virt. eigenvalues --   13.29975  13.34439  13.40616  13.48770  13.50727
 Alpha virt. eigenvalues --   13.57216  13.60383  13.72813  13.98438
          Condensed to atoms (all electrons):
              1          2          3          4          5          6
     1  O    8.241264  -0.067404   0.124417  -0.016747   0.013219   0.039100
     2  C   -0.067404   8.621578  -1.210902   0.139219  -0.047286  -1.287816
     3  C    0.124417  -1.210902   6.916950  -0.140206   0.062719  -0.236113
     4  O   -0.016747   0.139219  -0.140206   8.292930   0.206620   0.167715
     5  H    0.013219  -0.047286   0.062719   0.206620   0.482119  -0.049883
     6  C    0.039100  -1.287816  -0.236113   0.167715  -0.049883  10.714650
     7  O   -0.000492   0.014458   0.032904  -0.021820   0.000902   0.108134
     8  H   -0.000034   0.004745  -0.032013   0.012346  -0.000571   0.002551
     9  C   -0.010369   0.247578  -0.220555   0.010054  -0.003628   0.071676
    10  O    0.000189   0.019164   0.009355   0.000022  -0.000003  -0.013775
    11  H    0.000239  -0.002917  -0.000064   0.000001   0.000000   0.001633
    12  C    0.014983  -1.542671   0.418351  -0.015519   0.009225   0.364515
    13  O    0.003073   0.012939  -0.045728  -0.003297  -0.000026   0.118170
    14  C   -0.032248   0.669932  -0.300653  -0.044615   0.020473  -2.977701
    15  O   -0.000071   0.005403  -0.026522   0.000482   0.000013  -0.136708
    16  C   -0.000467   0.148576   0.267308  -0.005286   0.000313  -0.716432
    17  C   -0.000272  -0.072189  -0.037574   0.000417   0.000059   0.049088
    18  O    0.000064  -0.003538   0.000004  -0.000016   0.000000   0.030014
    19  H   -0.000039   0.000490   0.004187   0.000003   0.000000   0.002299
    20  C   -0.000001  -0.000629   0.011889  -0.000020   0.000003  -0.097741
    21  O    0.000000   0.000110  -0.000091   0.000000   0.000000   0.000060
    22  H    0.000000   0.000006   0.000001   0.000000   0.000000   0.000056
    23  C   -0.000074   0.004092  -0.011642   0.000370  -0.000061  -0.098727
    24  O    0.000000  -0.000045  -0.001641  -0.000001   0.000000  -0.001591
    25  H    0.000000   0.000010  -0.000362   0.000000   0.000000   0.001396
    26  C    0.000218  -0.034403   0.004167  -0.000084   0.000010  -0.035266
    27  O    0.000000  -0.000083  -0.000707   0.000001   0.000000  -0.001595
    28  C    0.000006   0.002727  -0.005724   0.000009   0.000000   0.015481
    29  O    0.000000   0.000004   0.000003   0.000000   0.000000   0.000134
    30  H    0.000000   0.000000   0.000000   0.000000   0.000000   0.000008
    31  H    0.000000   0.000264  -0.000439   0.000001   0.000000  -0.002844
    32  H    0.000000  -0.000436   0.006428  -0.000008   0.000000  -0.019448
    33  H    0.000000   0.000127  -0.001659   0.000000   0.000000   0.000708
    34  H   -0.000001  -0.003850  -0.000596   0.000010   0.000000   0.033544
    35  H    0.000000   0.000400   0.000171   0.000000   0.000000   0.011882
    36  H    0.000000   0.000101  -0.000042   0.000000   0.000000  -0.000465
    37  H    0.000000   0.000014  -0.000010   0.000000   0.000000  -0.000086
    38  H    0.243039   0.071824  -0.039299  -0.006231   0.006277  -0.023053
    39  H    0.000694   0.013902  -0.009698  -0.000037  -0.000002  -0.001696
    40  H   -0.004576   0.042136   0.001245  -0.000093  -0.000001  -0.003753
    41  H   -0.002255   0.094820  -0.065763   0.000125   0.000004  -0.034819
    42  H   -0.026642   0.357999  -0.117886   0.004287  -0.000203   0.006984
    43  H   -0.004392   0.049460   0.339234  -0.028939  -0.003116  -0.206430
    44  H   -0.000191  -0.014258   0.022557  -0.002779  -0.000161   0.400318
    45  H   -0.000083  -0.039859  -0.005363  -0.000062   0.000004  -0.022903
              7          8          9         10         11         12
     1  O   -0.000492  -0.000034  -0.010369   0.000189   0.000239   0.014983
     2  C    0.014458   0.004745   0.247578   0.019164  -0.002917  -1.542671
     3  C    0.032904  -0.032013  -0.220555   0.009355  -0.000064   0.418351
     4  O   -0.021820   0.012346   0.010054   0.000022   0.000001  -0.015519
     5  H    0.000902  -0.000571  -0.003628  -0.000003   0.000000   0.009225
     6  C    0.108134   0.002551   0.071676  -0.013775   0.001633   0.364515
     7  O    8.215372   0.237007  -0.002858  -0.000014   0.000000  -0.004028
     8  H    0.237007   0.407461   0.000768   0.000000   0.000000   0.004532
     9  C   -0.002858   0.000768   5.905983   0.062537  -0.003919  -0.570813
    10  O   -0.000014   0.000000   0.062537   8.214829   0.231903   0.012706
    11  H    0.000000   0.000000  -0.003919   0.231903   0.451660   0.009646
    12  C   -0.004028   0.004532  -0.570813   0.012706   0.009646   7.814916
    13  O    0.001552  -0.000202   0.001942   0.003203  -0.000165   0.019615
    14  C    0.020546   0.001859  -0.151868   0.018204  -0.003520  -0.582649
    15  O    0.002285  -0.000148  -0.020019  -0.001781  -0.000011  -0.002828
    16  C   -0.003655  -0.001339  -0.034549   0.020186  -0.000541  -0.198920
    17  C   -0.000025  -0.000238   0.030310  -0.008181  -0.000542  -0.049045
    18  O    0.000183  -0.000003  -0.004065  -0.004012   0.000321   0.001563
    19  H   -0.000054   0.000000  -0.007246   0.004869  -0.000138   0.007895
    20  C   -0.000393  -0.000073  -0.009588  -0.000452  -0.000166  -0.004497
    21  O    0.000001   0.000000  -0.000244  -0.000001   0.000000   0.000578
    22  H    0.000000   0.000000  -0.000024  -0.000001   0.000000  -0.000030
    23  C   -0.006429  -0.000028   0.000273  -0.000084   0.000000   0.022460
    24  O   -0.000366  -0.000035   0.000012   0.000000   0.000000  -0.000165
    25  H    0.000031   0.000000   0.000004   0.000000   0.000000  -0.000015
    26  C   -0.015916   0.002228   0.000387  -0.000480   0.000018  -0.002883
    27  O   -0.000200  -0.000001   0.000042   0.000005   0.000000   0.000512
    28  C    0.000114   0.000007  -0.000151   0.000338   0.000001  -0.000920
    29  O    0.000000   0.000000  -0.000005   0.000000   0.000000   0.000076
    30  H    0.000000   0.000000   0.000000   0.000000   0.000000  -0.000002
    31  H    0.000517   0.000006   0.000047   0.000000   0.000000   0.000918
    32  H   -0.002704   0.000014  -0.000076   0.000000   0.000000   0.000296
    33  H    0.000205   0.000001   0.000179   0.000000   0.000000   0.002195
    34  H   -0.000776   0.000011   0.000733  -0.000003   0.000000   0.013905
    35  H    0.000014   0.000000   0.000725  -0.000041   0.000000  -0.000034
    36  H    0.000004   0.000000   0.000006   0.000000   0.000000   0.000763
    37  H    0.000001   0.000000  -0.000006   0.000000   0.000000   0.000115
    38  H   -0.000002  -0.000001  -0.003894   0.000017  -0.000001  -0.006982
    39  H    0.000005   0.000000   0.491824  -0.029620  -0.007238  -0.154522
    40  H   -0.000010   0.000000   0.460751  -0.040135  -0.003987  -0.135674
    41  H    0.000016   0.000001   0.066931   0.003057  -0.000118   0.097524
    42  H    0.000251   0.000003   0.019198   0.000363  -0.000007  -0.014994
    43  H    0.006652  -0.001143   0.009346   0.000024   0.000000   0.023279
    44  H   -0.035843  -0.001863   0.006296  -0.000014   0.000000   0.043522
    45  H    0.001374  -0.000363   0.014447  -0.000065   0.000000   0.059800
             13         14         15         16         17         18
     1  O    0.003073  -0.032248  -0.000071  -0.000467  -0.000272   0.000064
     2  C    0.012939   0.669932   0.005403   0.148576  -0.072189  -0.003538
     3  C   -0.045728  -0.300653  -0.026522   0.267308  -0.037574   0.000004
     4  O   -0.003297  -0.044615   0.000482  -0.005286   0.000417  -0.000016
     5  H   -0.000026   0.020473   0.000013   0.000313   0.000059   0.000000
     6  C    0.118170  -2.977701  -0.136708  -0.716432   0.049088   0.030014
     7  O    0.001552   0.020546   0.002285  -0.003655  -0.000025   0.000183
     8  H   -0.000202   0.001859  -0.000148  -0.001339  -0.000238  -0.000003
     9  C    0.001942  -0.151868  -0.020019  -0.034549   0.030310  -0.004065
    10  O    0.003203   0.018204  -0.001781   0.020186  -0.008181  -0.004012
    11  H   -0.000165  -0.003520  -0.000011  -0.000541  -0.000542   0.000321
    12  C    0.019615  -0.582649  -0.002828  -0.198920  -0.049045   0.001563
    13  O    8.153761   0.106265  -0.032447  -0.049011   0.056669  -0.027661
    14  C    0.106265   9.965644   0.325149  -1.453245   0.519859   0.051646
    15  O   -0.032447   0.325149   8.069480   0.256174  -0.111662  -0.000249
    16  C   -0.049011  -1.453245   0.256174  10.907368  -2.041369  -0.138768
    17  C    0.056669   0.519859  -0.111662  -2.041369   8.583486   0.165073
    18  O   -0.027661   0.051646  -0.000249  -0.138768   0.165073   8.240227
    19  H    0.026898   0.022597   0.003219  -0.035277   0.030229   0.231843
    20  C   -0.016172  -0.362317   0.040982  -0.703753  -0.590325   0.012006
    21  O    0.000088  -0.005111   0.000164   0.000532  -0.105064   0.013216
    22  H   -0.000012   0.001692   0.000017  -0.014067  -0.039316   0.001717
    23  C    0.006445   0.427515  -0.010560  -0.207824  -0.051089   0.008610
    24  O   -0.000071   0.007361  -0.003042  -0.074680   0.012609   0.000007
    25  H   -0.000011  -0.001468  -0.000617   0.032351   0.004868   0.000003
    26  C   -0.024710  -0.895192  -0.052196  -1.498349  -0.366002   0.025913
    27  O    0.000292   0.007577   0.001949  -0.039582  -0.070238  -0.000723
    28  C    0.001251  -0.003714   0.002135   0.728026  -0.321316   0.002310
    29  O    0.000014   0.001695  -0.000138   0.004695  -0.016122   0.000509
    30  H    0.000000   0.000309   0.000008   0.002604   0.001057  -0.000012
    31  H    0.000157   0.050838  -0.000744   0.071270   0.019656   0.000117
    32  H    0.000083   0.007049   0.002760   0.020215  -0.014920  -0.000107
    33  H    0.000052   0.089801  -0.011081   0.056703   0.009834  -0.000073
    34  H    0.003523   0.082750  -0.040450   0.091409   0.095665   0.000230
    35  H   -0.000137   0.028549  -0.007334  -0.106364   0.359668  -0.029349
    36  H    0.000121  -0.013865   0.000534   0.088138  -0.183041   0.005293
    37  H    0.000052  -0.001006   0.000218   0.056204  -0.001762   0.001124
    38  H   -0.000509   0.009111   0.000013   0.000055  -0.000005  -0.000001
    39  H   -0.005030   0.017067   0.000224   0.001032   0.001983   0.000314
    40  H   -0.000175   0.002020  -0.000186   0.000945  -0.000442  -0.000142
    41  H   -0.016077   0.100927  -0.001674   0.014269   0.006631   0.001025
    42  H    0.004402   0.037001  -0.000584  -0.003990   0.001459   0.000014
    43  H    0.001352   0.076456   0.000365  -0.007567   0.002306   0.000019
    44  H    0.006379  -0.157883  -0.004752   0.002936   0.003944   0.000025
    45  H   -0.029137   0.225921  -0.035552   0.036068   0.014878  -0.000026
             19         20         21         22         23         24
     1  O   -0.000039  -0.000001   0.000000   0.000000  -0.000074   0.000000
     2  C    0.000490  -0.000629   0.000110   0.000006   0.004092  -0.000045
     3  C    0.004187   0.011889  -0.000091   0.000001  -0.011642  -0.001641
     4  O    0.000003  -0.000020   0.000000   0.000000   0.000370  -0.000001
     5  H    0.000000   0.000003   0.000000   0.000000  -0.000061   0.000000
     6  C    0.002299  -0.097741   0.000060   0.000056  -0.098727  -0.001591
     7  O   -0.000054  -0.000393   0.000001   0.000000  -0.006429  -0.000366
     8  H    0.000000  -0.000073   0.000000   0.000000  -0.000028  -0.000035
     9  C   -0.007246  -0.009588  -0.000244  -0.000024   0.000273   0.000012
    10  O    0.004869  -0.000452  -0.000001  -0.000001  -0.000084   0.000000
    11  H   -0.000138  -0.000166   0.000000   0.000000   0.000000   0.000000
    12  C    0.007895  -0.004497   0.000578  -0.000030   0.022460  -0.000165
    13  O    0.026898  -0.016172   0.000088  -0.000012   0.006445  -0.000071
    14  C    0.022597  -0.362317  -0.005111   0.001692   0.427515   0.007361
    15  O    0.003219   0.040982   0.000164   0.000017  -0.010560  -0.003042
    16  C   -0.035277  -0.703753   0.000532  -0.014067  -0.207824  -0.074680
    17  C    0.030229  -0.590325  -0.105064  -0.039316  -0.051089   0.012609
    18  O    0.231843   0.012006   0.013216   0.001717   0.008610   0.000007
    19  H    0.361220  -0.024935  -0.000193  -0.000018  -0.001673   0.000001
    20  C   -0.024935   6.966735   0.333703   0.051944   0.059362  -0.006275
    21  O   -0.000193   0.333703   8.196446   0.241555  -0.003288  -0.000050
    22  H   -0.000018   0.051944   0.241555   0.430272   0.000309   0.000001
    23  C   -0.001673   0.059362  -0.003288   0.000309   6.050253   0.122541
    24  O    0.000001  -0.006275  -0.000050   0.000001   0.122541   8.176445
    25  H    0.000000  -0.002895   0.000000   0.000000   0.015210   0.248503
    26  C   -0.012228   0.667727   0.013749   0.002975  -1.066808   0.147348
    27  O   -0.000066   0.038472  -0.003866   0.000279  -0.004525  -0.032246
    28  C    0.002512  -0.313321  -0.121602  -0.000606  -0.042867  -0.019530
    29  O    0.000005  -0.022286  -0.056937   0.000528   0.005479   0.000355
    30  H    0.000000   0.020685  -0.001198   0.000040  -0.000073   0.000060
    31  H   -0.000001  -0.021667   0.000012   0.000000   0.501267  -0.036794
    32  H    0.000001   0.005083  -0.000005   0.000000   0.418045  -0.027094
    33  H    0.000022  -0.053432  -0.000016   0.000000   0.034839  -0.002072
    34  H    0.000203  -0.012599  -0.000232   0.000012   0.027625   0.001127
    35  H   -0.002924  -0.039354   0.000470  -0.000012   0.008706   0.000042
    36  H   -0.000212   0.315940  -0.015000  -0.011218   0.003416  -0.000087
    37  H    0.000002  -0.196642   0.006653  -0.000243   0.002066  -0.000386
    38  H    0.000000   0.000000   0.000000   0.000000  -0.000002   0.000000
    39  H   -0.000112   0.000098   0.000000   0.000000  -0.000008   0.000000
    40  H    0.000024  -0.000001   0.000000   0.000000   0.000001   0.000000
    41  H   -0.001939   0.001383   0.000001   0.000000  -0.000085   0.000000
    42  H   -0.000008   0.000019   0.000000   0.000000   0.000108   0.000000
    43  H   -0.000001   0.000070   0.000000   0.000000   0.000971  -0.000001
    44  H   -0.000002   0.000491   0.000000   0.000000   0.001893   0.000000
    45  H   -0.002063   0.016172   0.000030   0.000000  -0.003858   0.000017
             25         26         27         28         29         30
     1  O    0.000000   0.000218   0.000000   0.000006   0.000000   0.000000
     2  C    0.000010  -0.034403  -0.000083   0.002727   0.000004   0.000000
     3  C   -0.000362   0.004167  -0.000707  -0.005724   0.000003   0.000000
     4  O    0.000000  -0.000084   0.000001   0.000009   0.000000   0.000000
     5  H    0.000000   0.000010   0.000000   0.000000   0.000000   0.000000
     6  C    0.001396  -0.035266  -0.001595   0.015481   0.000134   0.000008
     7  O    0.000031  -0.015916  -0.000200   0.000114   0.000000   0.000000
     8  H    0.000000   0.002228  -0.000001   0.000007   0.000000   0.000000
     9  C    0.000004   0.000387   0.000042  -0.000151  -0.000005   0.000000
    10  O    0.000000  -0.000480   0.000005   0.000338   0.000000   0.000000
    11  H    0.000000   0.000018   0.000000   0.000001   0.000000   0.000000
    12  C   -0.000015  -0.002883   0.000512  -0.000920   0.000076  -0.000002
    13  O   -0.000011  -0.024710   0.000292   0.001251   0.000014   0.000000
    14  C   -0.001468  -0.895192   0.007577  -0.003714   0.001695   0.000309
    15  O   -0.000617  -0.052196   0.001949   0.002135  -0.000138   0.000008
    16  C    0.032351  -1.498349  -0.039582   0.728026   0.004695   0.002604
    17  C    0.004868  -0.366002  -0.070238  -0.321316  -0.016122   0.001057
    18  O    0.000003   0.025913  -0.000723   0.002310   0.000509  -0.000012
    19  H    0.000000  -0.012228  -0.000066   0.002512   0.000005   0.000000
    20  C   -0.002895   0.667727   0.038472  -0.313321  -0.022286   0.020685
    21  O    0.000000   0.013749  -0.003866  -0.121602  -0.056937  -0.001198
    22  H    0.000000   0.002975   0.000279  -0.000606   0.000528   0.000040
    23  C    0.015210  -1.066808  -0.004525  -0.042867   0.005479  -0.000073
    24  O    0.248503   0.147348  -0.032246  -0.019530   0.000355   0.000060
    25  H    0.441548  -0.061470  -0.001132   0.001913   0.000001   0.000000
    26  C   -0.061470  10.038042   0.193754  -0.578469  -0.029911  -0.003603
    27  O   -0.001132   0.193754   8.205166   0.104340   0.006338   0.004290
    28  C    0.001913  -0.578469   0.104340   5.443394   0.272616  -0.029155
    29  O    0.000001  -0.029911   0.006338   0.272616   8.119610   0.253159
    30  H    0.000000  -0.003603   0.004290  -0.029155   0.253159   0.436592
    31  H    0.005349  -0.280257   0.001034   0.010449   0.000075   0.000000
    32  H   -0.006977  -0.063044   0.001100  -0.001488  -0.000003   0.000000
    33  H    0.002245   0.092469  -0.039870   0.054301  -0.000242  -0.000007
    34  H   -0.000001  -0.049707   0.004422  -0.000685  -0.000059   0.000001
    35  H    0.000000   0.042083   0.002426  -0.014406   0.000347   0.000006
    36  H    0.000000   0.036678  -0.000704   0.025480   0.001213  -0.000145
    37  H    0.000001  -0.007887  -0.074172   0.500215  -0.038724  -0.008906
    38  H    0.000000  -0.000010   0.000000   0.000000   0.000000   0.000000
    39  H    0.000000   0.000075   0.000000  -0.000002   0.000000   0.000000
    40  H    0.000000  -0.000017   0.000000   0.000001   0.000000   0.000000
    41  H    0.000000   0.001002   0.000002   0.000012   0.000000   0.000000
    42  H    0.000000  -0.000033   0.000000  -0.000004   0.000000   0.000000
    43  H    0.000000  -0.001462   0.000000  -0.000013   0.000000   0.000000
    44  H    0.000000  -0.006394   0.000009  -0.000092   0.000000   0.000000
    45  H    0.000000   0.019627   0.000480   0.000615  -0.000005   0.000000
             31         32         33         34         35         36
     1  O    0.000000   0.000000   0.000000  -0.000001   0.000000   0.000000
     2  C    0.000264  -0.000436   0.000127  -0.003850   0.000400   0.000101
     3  C   -0.000439   0.006428  -0.001659  -0.000596   0.000171  -0.000042
     4  O    0.000001  -0.000008   0.000000   0.000010   0.000000   0.000000
     5  H    0.000000   0.000000   0.000000   0.000000   0.000000   0.000000
     6  C   -0.002844  -0.019448   0.000708   0.033544   0.011882  -0.000465
     7  O    0.000517  -0.002704   0.000205  -0.000776   0.000014   0.000004
     8  H    0.000006   0.000014   0.000001   0.000011   0.000000   0.000000
     9  C    0.000047  -0.000076   0.000179   0.000733   0.000725   0.000006
    10  O    0.000000   0.000000   0.000000  -0.000003  -0.000041   0.000000
    11  H    0.000000   0.000000   0.000000   0.000000   0.000000   0.000000
    12  C    0.000918   0.000296   0.002195   0.013905  -0.000034   0.000763
    13  O    0.000157   0.000083   0.000052   0.003523  -0.000137   0.000121
    14  C    0.050838   0.007049   0.089801   0.082750   0.028549  -0.013865
    15  O   -0.000744   0.002760  -0.011081  -0.040450  -0.007334   0.000534
    16  C    0.071270   0.020215   0.056703   0.091409  -0.106364   0.088138
    17  C    0.019656  -0.014920   0.009834   0.095665   0.359668  -0.183041
    18  O    0.000117  -0.000107  -0.000073   0.000230  -0.029349   0.005293
    19  H   -0.000001   0.000001   0.000022   0.000203  -0.002924  -0.000212
    20  C   -0.021667   0.005083  -0.053432  -0.012599  -0.039354   0.315940
    21  O    0.000012  -0.000005  -0.000016  -0.000232   0.000470  -0.015000
    22  H    0.000000   0.000000   0.000000   0.000012  -0.000012  -0.011218
    23  C    0.501267   0.418045   0.034839   0.027625   0.008706   0.003416
    24  O   -0.036794  -0.027094  -0.002072   0.001127   0.000042  -0.000087
    25  H    0.005349  -0.006977   0.002245  -0.000001   0.000000   0.000000
    26  C   -0.280257  -0.063044   0.092469  -0.049707   0.042083   0.036678
    27  O    0.001034   0.001100  -0.039870   0.004422   0.002426  -0.000704
    28  C    0.010449  -0.001488   0.054301  -0.000685  -0.014406   0.025480
    29  O    0.000075  -0.000003  -0.000242  -0.000059   0.000347   0.001213
    30  H    0.000000   0.000000  -0.000007   0.000001   0.000006  -0.000145
    31  H    0.561597  -0.039035   0.006174   0.005638  -0.000004  -0.000036
    32  H   -0.039035   0.557248  -0.002103  -0.000243  -0.000010  -0.000001
    33  H    0.006174  -0.002103   0.644524   0.006387   0.000521  -0.000084
    34  H    0.005638  -0.000243   0.006387   0.621209   0.005249   0.000707
    35  H   -0.000004  -0.000010   0.000521   0.005249   0.603137   0.006054
    36  H   -0.000036  -0.000001  -0.000084   0.000707   0.006054   0.612873
    37  H   -0.000005   0.000012   0.003254  -0.000053   0.001961   0.006319
    38  H    0.000000   0.000000   0.000000   0.000000   0.000000   0.000000
    39  H    0.000000   0.000000   0.000000   0.000000  -0.000001   0.000000
    40  H    0.000000   0.000000   0.000000   0.000000   0.000000   0.000000
    41  H    0.000000   0.000000   0.000000  -0.000022  -0.000005   0.000000
    42  H    0.000000   0.000000   0.000000   0.000000   0.000000   0.000000
    43  H    0.000000   0.000000   0.000000  -0.000009   0.000000   0.000000
    44  H   -0.000001   0.000007  -0.000017  -0.000047  -0.000002   0.000000
    45  H    0.000005  -0.000088  -0.000030   0.005397  -0.000101  -0.000016
             37         38         39         40         41         42
     1  O    0.000000   0.243039   0.000694  -0.004576  -0.002255  -0.026642
     2  C    0.000014   0.071824   0.013902   0.042136   0.094820   0.357999
     3  C   -0.000010  -0.039299  -0.009698   0.001245  -0.065763  -0.117886
     4  O    0.000000  -0.006231  -0.000037  -0.000093   0.000125   0.004287
     5  H    0.000000   0.006277  -0.000002  -0.000001   0.000004  -0.000203
     6  C   -0.000086  -0.023053  -0.001696  -0.003753  -0.034819   0.006984
     7  O    0.000001  -0.000002   0.000005  -0.000010   0.000016   0.000251
     8  H    0.000000  -0.000001   0.000000   0.000000   0.000001   0.000003
     9  C   -0.000006  -0.003894   0.491824   0.460751   0.066931   0.019198
    10  O    0.000000   0.000017  -0.029620  -0.040135   0.003057   0.000363
    11  H    0.000000  -0.000001  -0.007238  -0.003987  -0.000118  -0.000007
    12  C    0.000115  -0.006982  -0.154522  -0.135674   0.097524  -0.014994
    13  O    0.000052  -0.000509  -0.005030  -0.000175  -0.016077   0.004402
    14  C   -0.001006   0.009111   0.017067   0.002020   0.100927   0.037001
    15  O    0.000218   0.000013   0.000224  -0.000186  -0.001674  -0.000584
    16  C    0.056204   0.000055   0.001032   0.000945   0.014269  -0.003990
    17  C   -0.001762  -0.000005   0.001983  -0.000442   0.006631   0.001459
    18  O    0.001124  -0.000001   0.000314  -0.000142   0.001025   0.000014
    19  H    0.000002   0.000000  -0.000112   0.000024  -0.001939  -0.000008
    20  C   -0.196642   0.000000   0.000098  -0.000001   0.001383   0.000019
    21  O    0.006653   0.000000   0.000000   0.000000   0.000001   0.000000
    22  H   -0.000243   0.000000   0.000000   0.000000   0.000000   0.000000
    23  C    0.002066  -0.000002  -0.000008   0.000001  -0.000085   0.000108
    24  O   -0.000386   0.000000   0.000000   0.000000   0.000000   0.000000
    25  H    0.000001   0.000000   0.000000   0.000000   0.000000   0.000000
    26  C   -0.007887  -0.000010   0.000075  -0.000017   0.001002  -0.000033
    27  O   -0.074172   0.000000   0.000000   0.000000   0.000002   0.000000
    28  C    0.500215   0.000000  -0.000002   0.000001   0.000012  -0.000004
    29  O   -0.038724   0.000000   0.000000   0.000000   0.000000   0.000000
    30  H   -0.008906   0.000000   0.000000   0.000000   0.000000   0.000000
    31  H   -0.000005   0.000000   0.000000   0.000000   0.000000   0.000000
    32  H    0.000012   0.000000   0.000000   0.000000   0.000000   0.000000
    33  H    0.003254   0.000000   0.000000   0.000000   0.000000   0.000000
    34  H   -0.000053   0.000000   0.000000   0.000000  -0.000022   0.000000
    35  H    0.001961   0.000000  -0.000001   0.000000  -0.000005   0.000000
    36  H    0.006319   0.000000   0.000000   0.000000   0.000000   0.000000
    37  H    0.647355   0.000000   0.000000   0.000000   0.000000   0.000000
    38  H    0.000000   0.439226  -0.000043  -0.000173  -0.000258  -0.009447
    39  H    0.000000  -0.000043   0.579651  -0.051498   0.005287   0.002391
    40  H    0.000000  -0.000173  -0.051498   0.578481  -0.000012  -0.000143
    41  H    0.000000  -0.000258   0.005287  -0.000012   0.584659   0.005448
    42  H    0.000000  -0.009447   0.002391  -0.000143   0.005448   0.586851
    43  H    0.000000  -0.000085  -0.000008  -0.000031   0.000892   0.005061
    44  H    0.000000   0.000003  -0.000012  -0.000002  -0.000085   0.000394
    45  H    0.000000  -0.000001   0.000001   0.000005   0.003259  -0.000055
             43         44         45
     1  O   -0.004392  -0.000191  -0.000083
     2  C    0.049460  -0.014258  -0.039859
     3  C    0.339234   0.022557  -0.005363
     4  O   -0.028939  -0.002779  -0.000062
     5  H   -0.003116  -0.000161   0.000004
     6  C   -0.206430   0.400318  -0.022903
     7  O    0.006652  -0.035843   0.001374
     8  H   -0.001143  -0.001863  -0.000363
     9  C    0.009346   0.006296   0.014447
    10  O    0.000024  -0.000014  -0.000065
    11  H    0.000000   0.000000   0.000000
    12  C    0.023279   0.043522   0.059800
    13  O    0.001352   0.006379  -0.029137
    14  C    0.076456  -0.157883   0.225921
    15  O    0.000365  -0.004752  -0.035552
    16  C   -0.007567   0.002936   0.036068
    17  C    0.002306   0.003944   0.014878
    18  O    0.000019   0.000025  -0.000026
    19  H   -0.000001  -0.000002  -0.002063
    20  C    0.000070   0.000491   0.016172
    21  O    0.000000   0.000000   0.000030
    22  H    0.000000   0.000000   0.000000
[...]
 001031,-0.00002340,0.00004842,-0.00003031,0.00001042,-0.00006496,0.000
 05632,-0.00001664,-0.00000114,0.00000779,0.00000147,0.00000456,-0.0000
 0564,-0.00000206,-0.00000268,0.00000419,-0.00000024,-0.00000772,0.0000
 0163,0.00001063,0.00000198,-0.00000052,-0.00000877,-0.00000007,0.00000
 025,0.00000326,-0.00000705,-0.00000300,0.00000254,0.00001074,0.0000028
 3,-0.00000651,-0.00001023,-0.00000191,0.00000256,0.00000407,-0.0000014
 8,-0.00000232,-0.00000076,0.00000109,0.00000079,0.00000085,-0.00000069
 ,-0.00000065,0.00000467,0.00000032,0.00000117,0.00000366,-0.00000065,0
 .00000213,-0.00000003,-0.00000818,-0.00000240,0.00000879,-0.00000022,0
 .00000943,0.00000275,-0.00000316,-0.00000240,0.00000266,-0.00000043,0.
 00000091,0.00070947,-0.00057503,0.00020134,0.00031564,-0.00080076,0.00
 012619,-0.00025559,0.00003364,-0.00023580,-0.00073713,-0.00131270,0.00
 179629,0.26382681,0.00342606,0.00022762,0.00281162,0.13404696,-0.13495
 778,-0.04768796,0.02388348,-0.01813622,-0.01045330,0.00075132,0.005198
 13,0.00014448,0.00064313,-0.00127490,0.00088265,0.00077952,-0.00053870
 ,0.00101047,-0.00105210,-0.00028876,-0.00093550,0.00037816,0.00013945,
 -0.00010195,-0.00128867,0.00072900,0.00047467,0.00041065,0.00014717,-0
 .00033521,0.00003057,-0.00006029,-0.00003442,-0.01550066,0.01044465,0.
 00539505,0.00073924,0.00024219,-0.00111517,-0.00011956,-0.00057791,0.0
 0000824,0.00005083,0.00009529,-0.00004297,-0.00001087,0.00002412,0.000
 01691,-0.00002292,-0.00002726,-0.00002836,0.00005117,-0.00000464,0.000
 02672,-0.00006680,0.00004246,-0.00005252,0.00000579,0.00000272,0.00000
 516,0.00000388,0.00000488,-0.00000350,-0.00000011,0.00000058,-0.000001
 02,0.00000335,0.00000586,0.00003785,-0.00001596,-0.00000035,-0.0000300
 8,0.00000414,-0.00000227,0.00000311,-0.00000104,-0.00001310,0.00000584
 ,0.00001065,0.00001848,-0.00001642,-0.00001031,-0.00001685,0.00001062,
 0.00000309,0.00000410,-0.00000566,0.00000028,-0.00000139,0.00000210,-0
 .00000546,0.00000123,0.00000512,0.00001761,-0.00000686,0.00000513,-0.0
 0000128,0.00000313,-0.00000379,-0.00000921,-0.00000558,0.00000274,0.00
 000866,0.00000330,0.00000338,-0.00000115,-0.00000096,-0.00000125,-0.00
 000053,0.00000292,-0.00000059,0.00057337,0.00054252,0.00027477,0.00016
 407,0.00002453,0.00031126,0.00009878,0.00012433,-0.00020989,-0.0020320
 6,-0.00151708,0.00262826,-0.14348482,0.14340370,-0.03445753,0.01758894
 ,-0.00324070,0.07577347,-0.05125001,-0.07194659,0.01324624,-0.00539957
 ,-0.00167508,-0.00085495,0.00229620,0.00102167,-0.00038666,0.00014358,
 0.00018893,0.00059275,0.00006060,0.00040156,-0.00049078,-0.00000936,-0
 .00021187,0.00015137,0.00003792,-0.00000070,-0.00025667,-0.00157383,0.
 00013676,-0.00031394,-0.00000334,0.00011161,0.00000493,0.00004971,0.00
 004518,0.02017204,-0.01236403,-0.00561445,-0.00140725,0.00013156,0.001
 43231,0.00019693,-0.00016660,0.00001819,-0.00000775,0.00001861,-0.0001
 9617,-0.00004544,-0.00000121,0.00003761,0.00005592,0.00001632,0.000042
 43,-0.00009165,0.00002576,-0.00006123,0.00011866,-0.00006678,0.0000638
 0,-0.00002143,-0.00001336,0.00001465,0.00001262,0.00001976,-0.00002254
 ,-0.00000539,-0.00000443,0.00000839,0.00002050,0.00002187,0.00002207,-
 0.00002709,-0.00001757,-0.00002690,0.00000653,0.00000094,0.00000116,0.
 00001346,-0.00000412,0.00002731,0.00000058,0.00000814,-0.00003711,0.00
 000544,-0.00001164,0.00003503,0.00000210,0.00000044,-0.00002876,0.0000
 0135,-0.00000241,0.00000440,-0.00000394,0.00000168,0.00000294,0.000008
 21,-0.00000238,0.00000026,-0.00000544,0.00000160,-0.00000698,-0.000006
 32,0.00001448,0.00001029,-0.00001299,-0.00000011,-0.00001470,-0.000002
 50,0.00000336,0.00000257,-0.00000301,0.00000249,-0.00000299,-0.0006491
 3,0.00006344,0.00313257,-0.00023703,0.00058525,0.00004544,-0.00009175,
 0.00033999,0.00027130,0.00167180,0.00239864,-0.00306531,-0.07100846,0.
 04910228,0.07979772,0.00137645,-0.00051526,0.00053944,0.00670551,-0.00
 644891,-0.00186321,-0.23216519,0.15210018,-0.01344748,-0.02898907,0.00
 510662,0.01417411,-0.00054722,-0.00024427,-0.00050437,-0.01014921,0.00
 963733,-0.00418517,0.00253797,-0.00008771,0.00212116,-0.00145480,-0.00
 032468,-0.00025111,0.00029311,0.00015687,-0.00028055,-0.00008812,0.000
 04453,0.00011813,0.00002681,0.00002836,-0.00001173,0.00034248,0.000761
 94,-0.00013666,0.00015944,-0.00006127,0.00024007,-0.00122437,-0.000661
 75,0.00031759,0.00040523,0.00003958,-0.00031579,-0.00005609,0.00011526
 ,-0.00001584,0.00000693,-0.00003058,-0.00007205,0.00002549,-0.00000830
 ,0.00005594,-0.00001262,0.00002158,-0.00003280,0.00000707,0.00002270,0
 .00000222,0.00000232,-0.00000459,0.00000194,0.00000094,0.00000237,-0.0
 0000513,-0.00002703,-0.00000386,-0.00002080,0.00003015,0.00000058,0.00
 003015,-0.00000489,0.00000169,0.00000377,0.00000183,0.00001568,0.00000
 228,0.00000127,-0.00001743,0.00000632,-0.00000474,0.00000817,-0.000012
 93,-0.00000004,-0.00000258,0.00001261,-0.00000096,0.00000179,-0.000002
 38,0.00001294,-0.00000369,-0.00001533,-0.00002144,0.00001842,-0.000012
 37,0.00000710,-0.00000664,0.00001297,0.00002729,-0.00001704,-0.0000216
 2,0.00000218,-0.00000935,0.00000789,0.00000416,-0.00000328,-0.00000227
 ,0.00000239,-0.00000261,0.00000168,-0.00005571,-0.00014186,-0.00019071
 ,-0.00008121,-0.00007454,-0.00003002,0.00001806,-0.00006685,0.00004741
 ,0.00029056,-0.00013008,-0.00002068,-0.00041562,-0.00188696,-0.0012883
 8,0.26247446,-0.00007774,0.00400873,0.00215758,0.02509672,-0.02301166,
 -0.00047962,0.15530588,-0.16401743,0.00881778,-0.01895515,0.01150657,0
 .00417828,0.00014338,0.00014957,-0.00066919,0.00118409,-0.00119698,-0.
 00228251,-0.00251522,0.00129034,-0.00140679,-0.00052168,0.00020170,-0.
 00020125,-0.00027313,0.00010174,-0.00005671,-0.00020778,-0.00013686,0.
 00006367,0.00000873,-0.00001241,0.00000981,0.00189326,0.00098095,-0.00
 074114,-0.00062266,-0.00004153,0.00027534,0.00096861,-0.00041886,-0.00
 042200,-0.00016150,0.00011212,-0.00001941,0.00001285,-0.00002748,0.000
 02674,-0.00000445,-0.00000379,0.00000486,-0.00003957,0.00003973,0.0000
 0807,0.00006778,-0.00004217,-0.00003971,0.00000223,-0.00000767,0.00000
 607,0.00000023,0.00000856,-0.00000484,0.00000086,-0.00000332,0.0000013
 5,0.00000606,0.00000821,0.00001185,-0.00001355,-0.00000786,-0.00000868
 ,0.00000301,-0.00000028,-0.00000190,-0.00000020,0.00000850,0.00000694,
 -0.00000415,0.00000172,-0.00000858,0.00000332,-0.00000312,0.00000995,-
 0.00000067,0.00000094,-0.00000554,0.00000053,-0.00000069,0.00000101,0.
 00000201,0.00000322,-0.00000145,0.00000172,0.00000280,-0.00000691,-0.0
 0000512,-0.00000197,-0.00000717,-0.00000827,0.00001374,0.00001697,-0.0
 0000271,0.00000358,-0.00000688,-0.00000298,0.00000278,0.00000238,-0.00
 000230,0.00000100,-0.00000169,-0.00007000,-0.00003551,0.00000157,-0.00
 009568,0.00022870,-0.00000491,0.00003441,-0.00001473,0.00006192,-0.000
 85214,-0.00015787,0.00051083,-0.00204165,-0.00402932,-0.00209175,-0.15
 739406,0.17430346,0.00127049,0.00078268,0.00097844,0.00686566,-0.01117
 511,0.00045751,-0.01615336,0.00908082,-0.04201583,0.02958238,-0.006713
 76,-0.00672396,0.00104446,-0.00076683,0.00036038,-0.02861416,0.0183808
 2,-0.00556643,0.00208458,0.00172276,0.00309588,-0.00071419,-0.00062442
 ,-0.00009062,-0.00016978,-0.00002008,0.00007806,-0.00004966,-0.0001052
 4,0.00002871,-0.00000629,-0.00001431,0.00000673,-0.00036002,0.00030752
 ,-0.00058167,0.00043899,0.00030916,-0.00032692,-0.00171875,-0.00048095
 ,0.00186796,0.00058700,-0.00013571,-0.00040719,-0.00009119,0.00014688,
 0.00005054,0.00002183,-0.00003269,-0.00005858,0.00003950,-0.00000257,0
 .00000337,-0.00005539,0.00000349,0.00001806,-0.00001079,0.00001726,0.0
 0001557,0.00001606,0.00001038,-0.00001776,-0.00000363,-0.00000003,0.00
 000017,-0.00002125,0.00001356,0.00002726,0.00000548,-0.00002379,-0.000
 00477,0.00000440,0.00000759,0.00001196,-0.00000023,0.00001521,0.000042
 92,0.00001851,-0.00000706,-0.00004319,-0.00001191,-0.00001138,0.000021
 27,0.00000611,-0.00000172,-0.00001502,-0.00000030,0.00000043,0.0000026
 2,0.00001787,-0.00000531,-0.00002632,-0.00001866,0.00004162,-0.0000172
 9,0.00000995,-0.00001117,0.00001678,0.00003007,-0.00001128,-0.00004030
 ,-0.00000302,-0.00000969,0.00000880,0.00000412,-0.00000220,-0.00000289
 ,0.00000177,-0.00000001,0.00000061,0.00025909,-0.00029608,-0.00018098,
 -0.00000195,0.00004403,-0.00003742,0.00001557,0.00000089,0.00005058,-0
 .00007023,0.00011275,0.00014743,-0.00028882,-0.00161560,-0.00064542,0.
 00683119,-0.00820256,0.05513701,0.00015608,-0.00036759,-0.00031269,-0.
 00044970,0.00097304,0.00001700,-0.01291983,0.00351554,0.00029114,0.001
 95339,-0.00056067,0.00136007,0.00027881,-0.00024386,0.00030764,-0.3306
 8851,0.09008347,-0.00128000,0.00747487,0.00295105,0.00052814,0.0003048
 8,0.00027657,0.00042317,-0.00006810,0.00006230,0.00003138,0.00005212,-
 0.00002334,-0.00001382,-0.00001758,-0.00000278,-0.00000855,-0.00016882
 ,-0.00000149,0.00007108,0.00139717,-0.00103602,-0.00059384,-0.02004783
 ,0.00673609,-0.00016900,0.00200308,-0.00032166,-0.00047904,0.00001898,
 0.00035765,0.00014942,0.00012086,-0.00003974,-0.00018787,0.00005152,-0
 .00010473,0.00001758,-0.00007579,0.00009177,0.00005190,0.00001348,0.00
 005572,0.00000989,0.00001341,-0.00000444,-0.00001437,-0.00000235,0.000
 00473,-0.00000439,-0.00005276,-0.00000904,0.00005269,0.00001826,-0.000
 02197,-0.00000336,0.00000140,0.00001294,0.00000889,0.00001119,-0.00003
 091,0.00006042,0.00001588,-0.00001239,-0.00001674,-0.00001659,0.000007
 24,-0.00000155,0.00000622,-0.00000570,0.00000219,-0.00000183,0.0000035
 1,0.00000032,0.00002352,-0.00000941,-0.00003114,-0.00001014,0.00007715
 ,-0.00002061,0.00002800,0.00000382,0.00006344,0.00019379,-0.00013499,-
 0.00010719,-0.00001237,-0.00003499,0.00003047,0.00000935,-0.00000722,-
 0.00000406,0.00000464,-0.00000282,0.00000237,-0.00005443,-0.00000856,-
 0.00002961,0.00001275,-0.00006416,-0.00000933,0.00000420,-0.00000613,-
 0.00000446,0.00013544,0.00004153,0.00003776,0.00008876,-0.00048291,-0.
 00027624,-0.00005488,-0.00049086,-0.00140841,0.35101960,0.00014608,0.0
 0010104,0.00010766,-0.00002536,-0.00031289,0.00051634,-0.00114783,0.00
 345921,0.00210822,0.00034012,0.00002346,-0.00014375,-0.00020727,0.0000
 2776,-0.00009485,0.08763384,-0.06717373,0.00261291,0.03034557,-0.03203
 347,-0.00679855,0.00158638,0.00005164,-0.00070208,-0.00002480,0.000072
 44,0.00002526,-0.00000583,-0.00004196,-0.00000609,-0.00000486,-0.00000
 010,-0.00000041,-0.00008211,-0.00003025,-0.00008966,0.00164031,0.00121
 725,-0.00037039,-0.02045111,0.00771019,0.00058201,0.00131763,0.0002900
 5,-0.00100441,-0.00002749,0.00035646,-0.00005550,0.00001014,-0.0000174
 0,-0.00018114,0.00003681,-0.00012505,0.00009208,-0.00005349,0.00017429
 ,0.00007141,0.00002990,0.00001633,-0.00001205,-0.00000605,-0.00000374,
 0.00001928,0.00000789,0.00000142,-0.00001013,-0.00000717,-0.00001590,0
 .00007173,-0.00003696,0.00005397,-0.00007925,0.00000349,-0.00001554,-0
 .00001680,0.00008257,-0.00016717,-0.00005375,0.00000268,0.00005907,0.0
 0001920,-0.00002217,-0.00002077,-0.00002959,0.00000275,0.00001289,0.00
 002178,-0.00000078,-0.00000307,-0.00000101,-0.00006095,-0.00000159,0.0
 0006866,0.00013330,-0.00010063,0.00001056,0.00001271,0.00006319,0.0000
 4012,0.00010735,-0.00018637,0.00009075,0.00000367,-0.00002034,0.000017
 40,0.00000288,-0.00000292,-0.00000459,0.00000129,0.00000518,0.00000148
 ,0.00003771,0.00002271,0.00000053,-0.00000142,-0.00002960,-0.00000697,
 -0.00000427,-0.00001433,-0.00001199,0.00009267,-0.00000638,0.00004791,
 -0.00009112,0.00005410,-0.00005552,-0.00002012,0.00017851,-0.00095841,
 -0.09928474,0.08876237,0.00003930,-0.00072703,-0.00075498,0.00000537,0
 .00115146,0.00049732,-0.03317178,0.00998202,-0.00217198,0.00107714,-0.
 00067682,0.00350638,-0.00000195,-0.00021858,0.00063744,-0.00031041,0.0
 0283398,-0.04365591,0.01013182,-0.00990858,0.00195543,-0.00020811,0.00
 051840,-0.00025817,-0.00007326,0.00006655,0.00008625,-0.00000363,-0.00
 006383,0.00001895,-0.00001093,-0.00000543,0.00000817,-0.00033084,0.000
 02128,-0.00065913,-0.00125645,0.00037695,0.00044214,0.02524868,-0.0058
 5284,-0.00023383,-0.00186798,-0.00089192,0.00206006,0.00033539,-0.0006
 1810,-0.00022195,-0.00005978,0.00004605,0.00025698,-0.00005831,0.00010
 406,-0.00010283,0.00003155,-0.00013858,-0.00000629,-0.00001822,-0.0000
 4783,-0.00001434,-0.00002409,-0.00001383,0.00001648,-0.00000037,-0.000
 00241,0.00000692,0.00006041,0.00003244,-0.00011504,-0.00003505,0.00002
 221,0.00004099,-0.00000069,-0.00001206,-0.00004967,-0.00002923,0.00009
 393,-0.00007603,-0.00006367,-0.00002780,0.00008284,0.00005570,0.000043
 52,-0.00002177,-0.00001920,-0.00000584,0.00001338,0.00000277,0.0000004
 7,-0.00000565,-0.00004404,0.00001224,0.00006583,0.00006386,-0.00012213
 ,-0.00003575,-0.00004834,0.00000627,-0.00009685,-0.00022518,0.00019856
 ,-0.00005937,-0.00000312,0.00004653,-0.00002202,-0.00001035,0.00000667
 ,0.00000656,-0.00000566,-0.00000250,-0.00000263,-0.00007704,-0.0000655
 0,-0.00005835,0.00001353,-0.00003323,0.00000308,0.00001305,0.00003787,
 0.00001573,0.00005811,-0.00003408,-0.00010533,-0.00000035,-0.00050055,
 -0.00019122,-0.00157810,0.00017864,-0.00518808,-0.00010589,0.00183208,
 0.04647125,0.00019947,0.00009058,0.00005639,-0.00035217,0.00001941,0.0
 0005668,-0.00111876,0.00032969,-0.00084431,0.00044893,-0.00028000,0.00
 030806,0.00001365,-0.00007558,0.00017053,-0.01993659,0.00957435,0.0062
 2233,0.00213098,0.00004100,-0.00129183,0.00028921,0.00002350,-0.000146
 30,0.00061342,-0.00035734,0.00008811,-0.00005879,0.00002980,0.00003965
 ,0.00000868,0.00001044,0.00000186,0.00206751,-0.00101422,0.00103939,0.
 01109759,-0.00394643,-0.00334128,-0.29417947,0.11448191,0.04128658,-0.
 01311290,0.00962719,-0.00823676,-0.00079259,0.00073521,0.00646265,0.00
 089141,0.00007536,-0.00009148,-0.00008876,-0.00044954,-0.00035459,-0.0
 0031225,-0.00021918,0.00036736,0.00009273,0.00011183,0.00004091,0.0000
 1304,-0.00000135,-0.00007863,-0.00001353,-0.00000017,0.00000584,-0.000
 12698,-0.00000427,-0.00013039,0.00009658,-0.00002809,0.00008788,-0.000
 00733,0.00001433,0.00002635,0.00057226,-0.00064738,0.00023624,-0.00002
 778,-0.00010082,-0.00008204,-0.00000011,0.00006281,-0.00000366,0.00000
 179,-0.00002076,-0.00000981,-0.00000138,0.00000627,-0.00000060,0.00005
 513,-0.00006055,-0.00008717,-0.00006993,0.00008119,-0.00000651,0.00029
 430,0.00015658,0.00042147,0.00233380,-0.00107841,0.00154798,-0.0001914
 4,-0.00028480,0.00015578,0.00002783,-0.00000920,-0.00000996,0.00001121
 ,-0.00001260,0.00000308,-0.00000839,-0.00000404,-0.00002814,-0.0001909
 7,-0.00019225,-0.00017969,-0.00003075,0.00006543,0.00001471,0.00020204
 ,0.00054055,0.00106446,-0.00003006,-0.00009134,-0.00010315,0.00059109,
 -0.00037252,0.00061690,-0.00077013,-0.00201185,0.00250538,0.30936841,0
 .00017821,0.00029671,-0.00020521,-0.00060556,-0.00041707,-0.00012799,-
 0.00041832,0.00018870,-0.00084079,0.00010580,-0.00007169,0.00046938,0.
 00008217,-0.00014308,0.00009449,-0.01832385,0.00928615,0.00556481,0.00
 130661,0.00218940,-0.00086936,0.00019458,0.00028294,-0.00003244,-0.000
 13232,-0.00008383,-0.00019590,-0.00019123,-0.00008026,0.00003140,0.000
 02590,0.00003593,0.00001752,0.00330489,0.00007713,0.00403820,0.0234476
 7,-0.03331289,-0.01605838,0.10866510,-0.09470680,-0.01479276,0.0104597
 5,-0.00285789,0.00562092,0.00079972,0.00110985,-0.00304491,0.00022616,
 0.00000894,0.00046765,-0.00044049,0.00073496,-0.00036898,0.00063034,-0
 .00181420,-0.00051581,-0.00012004,-0.00001277,0.00003551,0.00002431,0.
 00001784,-0.00006116,-0.00001985,-0.00001200,0.00002873,-0.00001822,0.
 00007261,-0.00004265,-0.00001460,-0.00003772,-0.00000041,0.00000697,0.
 00000063,0.00000114,-0.00028790,0.00029148,-0.00011984,-0.00004106,-0.
 00001509,0.00009143,0.00008765,0.00006766,0.00003098,-0.00001942,-0.00
 001953,-0.00004806,0.00000510,-0.00000154,0.00000051,-0.00000263,-0.00
 001696,-0.00002215,0.00000007,-0.00000204,0.00000810,-0.00016496,-0.00
 008710,-0.00015981,-0.00040447,0.00148904,-0.00098304,0.00001721,0.000
 12623,-0.00016840,-0.00001371,0.00001539,0.00001741,-0.00001198,-0.000
 00523,-0.00000778,-0.00004359,-0.00000739,-0.00007167,-0.00018069,0.00
 028878,0.00008585,-0.00021000,-0.00006077,-0.00007638,-0.00120279,0.00
 058057,-0.00073606,-0.00002939,-0.00002621,0.00010444,0.00008462,0.000
 01430,0.00023012,-0.00194102,-0.00239028,0.00235728,-0.12481474,0.1190
 0708,-0.00008744,0.00001928,-0.00017656,-0.00007382,0.00010727,-0.0002
 3591,0.00048612,-0.00080552,0.00077336,-0.00035603,0.00013781,0.000152
 90,-0.00008510,-0.00001230,-0.00001079,0.02183284,-0.00598216,-0.00007
 314,-0.00162941,-0.00014856,0.00053008,-0.00012913,-0.00006897,-0.0000
 0414,-0.00004557,-0.00021137,-0.00004893,-0.00006135,0.00001651,-0.000
 00585,0.00001558,0.00000914,0.00000672,0.00292138,-0.00128950,0.002296
 77,0.00872937,-0.01439496,-0.00329954,0.05081740,-0.02151589,-0.048478
 43,-0.02609386,0.01587245,-0.01613306,-0.00962714,0.00588245,-0.004703
 40,-0.00014026,0.00028597,-0.00074363,0.00021331,-0.00019501,0.0004555
 0,0.00016949,0.00027882,-0.00000040,0.00001090,0.00008294,-0.00000186,
 0.00003646,-0.00000403,0.00001125,0.00000990,0.00000845,-0.00001290,0.
 00005603,0.00003075,0.00007585,0.00002958,-0.00001833,-0.00002104,0.00
 001722,0.00002676,0.00001167,-0.00058571,0.00004295,-0.00040918,0.0002
 2568,-0.00002497,-0.00030647,-0.00014343,-0.00013366,0.00004545,0.0000
 4011,0.00001425,-0.00001980,-0.00000312,-0.00000046,0.00001088,-0.0000
 0218,-0.00012723,-0.00003844,0.00000553,0.00002981,-0.00006717,0.00035
 388,-0.00029131,-0.00011570,0.00034360,-0.00067328,-0.00558891,0.00018
 692,-0.00025186,0.00005122,0.00006078,-0.00002797,-0.00004280,0.000015
 76,0.00000893,0.00001472,-0.00002249,0.00001596,-0.00000161,-0.0001482
 4,0.00013024,-0.00004011,-0.00006204,0.00000601,-0.00001250,-0.0007625
 5,0.00026016,-0.00007469,-0.00007446,0.00000727,0.00011259,-0.00020945
 ,0.00031961,-0.00043796,0.00156521,0.00232950,-0.00208502,-0.04780028,
 0.02025408,0.07864098\\-0.00383366,-0.00066992,-0.00509165,0.02077464,
 -0.01198524,-0.02760191,-0.02127922,0.01056808,0.02585606,0.00614942,-
 0.00274388,0.02754063,-0.01528527,-0.01561777,-0.02708699,0.00386103,-
 0.00257508,0.01069825,-0.00665629,-0.00592996,0.01167780,0.00730504,0.
 01565696,-0.02400044,0.01517341,-0.00106518,-0.00288455,-0.01133814,0.
 02330982,0.01368896,0.01276981,-0.02605996,-0.01836672,0.00043918,0.05
 074812,0.00249058,0.00086449,-0.03060908,0.03378845,-0.01730276,0.0363
 2333,-0.02461672,0.00893072,-0.05002549,0.03983762,-0.03485616,0.02977
 720,-0.02067458,0.02231460,-0.00569459,-0.00917865,-0.00913482,-0.0114
 3289,0.01186595,0.00670195,0.00747708,-0.02565307,0.01326367,0.0093316
 6,-0.02361638,0.03497779,0.00786526,0.02941238,-0.03198035,0.00139298,
 -0.01096716,-0.02809284,0.01044103,-0.00872857,-0.01596571,0.00243989,
 -0.00520984,0.03452028,-0.00444455,0.00979979,0.02096726,-0.01564187,-
 0.03147854,0.02391364,-0.00318647,-0.01490091,-0.01600866,0.00485825,-
 0.00332773,-0.00270764,-0.02004889,0.03208168,-0.00533501,-0.00146893,
 0.00069540,0.01042082,-0.01309534,-0.00535246,-0.00458645,-0.00143575,
 0.01795866,-0.01506827,0.01410973,0.00025076,0.01076766,-0.00926589,0.
 00065451,-0.01571077,0.01111195,-0.00191506,0.01508132,-0.01414894,0.0
 0279260,-0.01665394,0.01713082,-0.00275353,0.00023214,0.00274454,0.004
 50146,-0.01934795,0.00568975,-0.00285077,0.00369199,-0.00181077,0.0183
 9176,0.01714102,-0.01074661,-0.00173404,-0.01456083,0.00916312,0.00371
 065,0.01796797,-0.00898807,-0.00195977,-0.01726743,0.00763879,-0.00046
 750,0.01474233,-0.00908726,0.00272360\\\@


 ALL MY ATTEMPTS TO ADAPT THE THEORETICAL FOUNDATIONS OF PHYSICS
 TO THESE NEW NOTIONS FAILED COMPLETELY. IT WAS AS IF THE GROUND HAD
 BEEN PULLED OUT FROM UNDER ONE WITH NO FIRM FOUNDATION TO BE SEEN ANYWHERE,
 UPON WHICH ONE COULD HAVE BUILT.  -- A.EINSTEIN
 Job cpu time:  1 days  6 hours 55 minutes 59.9 seconds.
 File lengths (MBytes):  RWF=   1769 Int=      0 D2E=      0 Chk=     28 Scr=      1
 Normal termination of Gaussian 09 at Mon Mar 28 10:19:41 2016.
Gaussian '09 finished on node001 at Mon Mar 28 10:19:41 EDT 2016.
