Gaussian '09 started on node002 at Mon Feb  1 16:09:56 EST 2016.
 Entering Gaussian System, Link 0=/usr/local/gaussian/g09/g09
 Initial command:
 /usr/local/gaussian/g09/l1.exe /home/srmcgrat/thesis/gaussian/cellobiose/280/9000/1/2dfp/gaussian12576/Gau-12612.inp -scrdir=/home/srmcgrat/thesis/gaussian/cellobiose/280/9000/1/2dfp/gaussian12576/
 Entering Link 1 = /usr/local/gaussian/g09/l1.exe PID=     12614.
  
 Copyright (c) 1988,1990,1992,1993,1995,1998,2003,2009,2010,
            Gaussian, Inc.  All Rights Reserved.
  
 This is part of the Gaussian(R) 09 program.  It is based on
 the Gaussian(R) 03 system (copyright 2003, Gaussian, Inc.),
 the Gaussian(R) 98 system (copyright 1998, Gaussian, Inc.),
 the Gaussian(R) 94 system (copyright 1995, Gaussian, Inc.),
 the Gaussian 92(TM) system (copyright 1992, Gaussian, Inc.),
 the Gaussian 90(TM) system (copyright 1990, Gaussian, Inc.),
 the Gaussian 88(TM) system (copyright 1988, Gaussian, Inc.),
 the Gaussian 86(TM) system (copyright 1986, Carnegie Mellon
 University), and the Gaussian 82(TM) system (copyright 1983,
 Carnegie Mellon University). Gaussian is a federally registered
 trademark of Gaussian, Inc.
  
 This software contains proprietary and confidential information,
 including trade secrets, belonging to Gaussian, Inc.
  
 This software is provided under written license and may be
 used, copied, transmitted, or stored only in accord with that
 written license.
  
 The following legend is applicable only to US Government
 contracts under FAR:
  
                    RESTRICTED RIGHTS LEGEND
  
 Use, reproduction and disclosure by the US Government is
 subject to restrictions as set forth in subparagraphs (a)
 and (c) of the Commercial Computer Software - Restricted
 Rights clause in FAR 52.227-19.
  
 Gaussian, Inc.
 340 Quinnipiac St., Bldg. 40, Wallingford CT 06492
  
  
 ---------------------------------------------------------------
 Warning -- This program may not be used in any manner that
 competes with the business of Gaussian, Inc. or will provide
 assistance to any competitor of Gaussian, Inc.  The licensee
 of this program is prohibited from giving any competitor of
 Gaussian, Inc. access to this program.  By using this program,
 the user acknowledges that Gaussian, Inc. is engaged in the
 business of creating and licensing software in the field of
 computational chemistry and represents and warrants to the
 licensee that it is not a competitor of Gaussian, Inc. and that
 it will not use this program in any manner prohibited above.
 ---------------------------------------------------------------
  

 Cite this work as:
 Gaussian 09, Revision B.01,
 M. J. Frisch, G. W. Trucks, H. B. Schlegel, G. E. Scuseria, 
 M. A. Robb, J. R. Cheeseman, G. Scalmani, V. Barone, B. Mennucci, 
 G. A. Petersson, H. Nakatsuji, M. Caricato, X. Li, H. P. Hratchian, 
 A. F. Izmaylov, J. Bloino, G. Zheng, J. L. Sonnenberg, M. Hada, 
 M. Ehara, K. Toyota, R. Fukuda, J. Hasegawa, M. Ishida, T. Nakajima, 
 Y. Honda, O. Kitao, H. Nakai, T. Vreven, J. A. Montgomery, Jr., 
 J. E. Peralta, F. Ogliaro, M. Bearpark, J. J. Heyd, E. Brothers, 
 K. N. Kudin, V. N. Staroverov, T. Keith, R. Kobayashi, J. Normand, 
 K. Raghavachari, A. Rendell, J. C. Burant, S. S. Iyengar, J. Tomasi, 
 M. Cossi, N. Rega, J. M. Millam, M. Klene, J. E. Knox, J. B. Cross, 
 V. Bakken, C. Adamo, J. Jaramillo, R. Gomperts, R. E. Stratmann, 
 O. Yazyev, A. J. Austin, R. Cammi, C. Pomelli, J. W. Ochterski, 
 R. L. Martin, K. Morokuma, V. G. Zakrzewski, G. A. Voth, 
 P. Salvador, J. J. Dannenberg, S. Dapprich, A. D. Daniels, 
 O. Farkas, J. B. Foresman, J. V. Ortiz, J. Cioslowski, 
 and D. J. Fox, Gaussian, Inc., Wallingford CT, 2010.
 
 ******************************************
 Gaussian 09:  EM64L-G09RevB.01 12-Aug-2010
                 1-Feb-2016 
 ******************************************
 --------------------------------------------------
 # freq=raman b3lyp/6-31+g(2df,p) geom=connectivity
 --------------------------------------------------
 1/10=4,30=1,38=1,57=2/1,3;
 2/12=2,17=6,18=5,40=1/2;
 3/5=1,6=6,7=114,11=2,16=1,25=1,30=1,71=2,74=-5/1,2,3;
 4//1;
 5/5=2,38=5,98=1/2;
 8/6=4,10=90,11=11/1;
 10/13=10,15=4/2;
 11/6=3,8=1,9=11,15=111,16=1/1,2,10;
 10/6=1/2;
 6/7=2,8=2,9=2,10=2,18=1,28=1/1;
 7/8=1,10=1,25=1/1,2,3,16;
 1/10=4,30=1/3;
 99//99;
 ------------
 280 9000.com
 ------------
 Symbolic Z-matrix:
 Charge =  0 Multiplicity = 1
 O                     7.67637   7.7832    12.2334 
 C                     8.283     8.1       13.489 
 C                     7.822     9.487     13.905 
 O                     8.166     10.467    12.914 
 H                     7.996     10.07     12.012 
 C                     8.323     9.805     15.304 
 O                     7.964     11.109    15.784 
 H                     8.408     11.275    16.664 
 C                     8.527     5.606     14.207 
 O                     8.139     4.933     13.001 
 H                     8.1       3.943     13.139 
 C                     7.953     6.989     14.472 
 O                     8.433     7.367     15.77 
 C                     7.953     8.645     16.214 
 O                     8.589     8.807     17.49 
 C                     7.963     8.517     18.748 
 C                     8.37      7.077     19.014 
 O                     7.919     6.054     18.115 
 H                     8.21      6.208     17.171 
 C                     7.925     6.691     20.415 
 O                     8.645     5.535     20.866 
 H                     8.476     5.372     21.838 
 C                     8.125     10.874    19.681 
 O                     8.729     11.507    18.544 
 H                     8.63      12.501    18.597 
 C                     8.533     9.417     19.832 
 O                     8.        8.989     21.094 
 C                     8.437     7.672     21.458 
 O                     7.606     7.608     22.627 
 H                     8.15885   7.5651    23.41066 
 H                     9.48478   7.60382   21.66391 
 H                     9.60006   9.33877   19.84432 
 H                     6.86607   6.55269   20.48167 
 H                     9.43961   7.05018   19.00343 
 H                     6.89931   8.61246   18.68206 
 H                     8.41247   11.40542   20.5641 
 H                     7.06112   10.92488   19.5787 
 H                     6.89121   8.60861   16.34119 
 H                     9.39125   9.80231   15.24291 
 H                     6.75359   9.45917   13.95619 
 H                     9.34421   8.12511   13.35443 
 H                     6.88793   6.90016   14.52328 
 H                     8.25437   4.97893   15.03001 
 H                     9.59338   5.69364   14.20038 
 H                     8.36024   7.61837   11.58013 
 

 GradGradGradGradGradGradGradGradGradGradGradGradGradGradGradGradGradGrad
 Berny optimization.
 Initialization pass.
 Trust Radius=3.00D-01 FncErr=1.00D-07 GrdErr=1.00D-07
 Number of steps in this run=      2 maximum allowed number of steps=      2.
 GradGradGradGradGradGradGradGradGradGradGradGradGradGradGradGradGradGrad

                          Input orientation:                          
 ---------------------------------------------------------------------
 Center     Atomic      Atomic             Coordinates (Angstroms)
 Number     Number       Type             X           Y           Z
 ---------------------------------------------------------------------
      1          8           0        7.676369    7.783198   12.233398
      2          6           0        8.283000    8.100000   13.489000
      3          6           0        7.822000    9.487000   13.905000
      4          8           0        8.166000   10.467000   12.914000
      5          1           0        7.996000   10.070000   12.012000
      6          6           0        8.323000    9.805000   15.304000
      7          8           0        7.964000   11.109000   15.784000
      8          1           0        8.408000   11.275000   16.664000
      9          6           0        8.527000    5.606000   14.207000
     10          8           0        8.139000    4.933000   13.001000
     11          1           0        8.100000    3.943000   13.139000
     12          6           0        7.953000    6.989000   14.472000
     13          8           0        8.433000    7.367000   15.770000
     14          6           0        7.953000    8.645000   16.214000
     15          8           0        8.589000    8.807000   17.490000
     16          6           0        7.963000    8.517000   18.748000
     17          6           0        8.370000    7.077000   19.014000
     18          8           0        7.919000    6.054000   18.115000
     19          1           0        8.210000    6.208000   17.171000
     20          6           0        7.925000    6.691000   20.415000
     21          8           0        8.645000    5.535000   20.866000
     22          1           0        8.476000    5.372000   21.838000
     23          6           0        8.125000   10.874000   19.681000
     24          8           0        8.729000   11.507000   18.544000
     25          1           0        8.630000   12.501000   18.597000
     26          6           0        8.533000    9.417000   19.832000
     27          8           0        8.000000    8.989000   21.094000
     28          6           0        8.437000    7.672000   21.458000
     29          8           0        7.606000    7.608000   22.627000
     30          1           0        8.158849    7.565097   23.410656
     31          1           0        9.484785    7.603824   21.663911
     32          1           0        9.600065    9.338766   19.844325
     33          1           0        6.866074    6.552687   20.481665
     34          1           0        9.439612    7.050182   19.003431
     35          1           0        6.899308    8.612459   18.682065
     36          1           0        8.412470   11.405417   20.564095
     37          1           0        7.061118   10.924877   19.578696
     38          1           0        6.891210    8.608614   16.341193
     39          1           0        9.391251    9.802306   15.242909
     40          1           0        6.753588    9.459165   13.956192
     41          1           0        9.344207    8.125114   13.354428
     42          1           0        6.887928    6.900159   14.523279
     43          1           0        8.254367    4.978928   15.030014
     44          1           0        9.593384    5.693642   14.200377
     45          1           0        8.360239    7.618373   11.580134
 ---------------------------------------------------------------------
                    Distance matrix (angstroms):
                    1          2          3          4          5
     1  O    0.000000
     2  C    1.430000   0.000000
     3  C    2.391318   1.519653   0.000000
     4  O    2.811716   2.438648   1.435555   0.000000
     5  H    2.319621   2.478870   1.988370   1.000056   0.000000
     6  C    3.732882   2.490552   1.519647   2.484953   3.318798
     7  O    4.873444   3.797745   2.486300   2.947858   3.912612
     8  H    5.688426   4.491868   3.339524   3.843687   4.823160
     9  C    3.059227   2.606740   3.956057   5.042965   5.002727
    10  O    2.987787   3.207611   4.653667   5.534750   5.233291
    11  H    3.968211   4.175720   5.603568   6.528212   6.230656
    12  C    2.391362   1.519707   2.564889   3.816964   3.942843
    13  O    3.640503   2.400573   2.888935   4.223509   4.649703
    14  C    4.082207   2.798491   2.461220   3.775586   4.437260
    15  O    5.432580   4.074492   3.728661   4.886134   5.652902
    16  C    6.562062   5.285203   4.941197   6.154613   6.912785
    17  C    6.852474   5.619584   5.675411   6.981670   7.624036
    18  O    6.135327   5.071340   5.433139   6.825392   7.306216
    19  H    5.210175   4.140304   4.644259   6.021882   6.447955
    20  C    8.257925   7.076929   7.085783   8.401265   9.057212
    21  O    8.972985   7.818593   8.046810   9.369545   9.968989
    22  H    9.934871   8.785501   8.960660  10.280705  10.901921
    23  C    8.075958   6.786818   5.947920   6.779352   7.712109
    24  O    7.402596   6.112249   5.140367   5.752866   6.728245
    25  H    7.978878   6.751361   5.634885   6.053837   7.047974
    26  C    7.819327   6.483104   5.969904   7.006848   7.865569
    27  O    8.948126   7.662012   7.208426   8.314111   9.146109
    28  C    9.256576   7.981971   7.792321   8.993631   9.755604
    29  O   10.395316   9.176243   8.924717  10.140505  10.903750
    30  H   11.189792   9.936840   9.703849  10.890403  11.671779
    31  H    9.604015   8.277659   8.155483   9.300425  10.072630
    32  H    8.002912   6.607522   6.201537   7.166509   8.028265
    33  H    8.378821   7.300632   7.264745   8.618655   9.240317
    34  H    7.034179   5.731389   5.877818   7.097739   7.751349
    35  H    6.548037   5.398624   4.943332   6.189863   6.914978
    36  H    9.113881   7.810219   6.955036   7.711377   8.665744
    37  H    8.012620   6.823293   5.902310   6.771159   7.672009
    38  H    4.262835   3.214152   2.751902   4.101748   4.700864
    39  H    4.009335   2.683703   2.086137   2.714198   3.529470
    40  H    2.574570   2.098738   1.070000   2.024056   2.386753
    41  H    2.038455   1.070000   2.115414   2.658304   2.720727
    42  H    2.577780   2.110823   2.818954   4.116503   4.193117
    43  H    4.002383   3.480896   4.666403   5.882539   5.924034
    44  H    3.451116   2.830852   4.196977   5.145595   5.147149
    45  H    0.960000   1.970203   3.030919   3.151445   2.515880
                    6          7          8          9         10
     6  C    0.000000
     7  O    1.435164   0.000000
     8  H    2.004426   0.999546   0.000000
     9  C    4.344724   5.752122   6.179690   0.000000
    10  O    5.392036   6.776333   7.328772   1.434541   0.000000
    11  H    6.252999   7.639769   8.141174   2.022009   1.000332
    12  C    2.959557   4.323872   4.835461   1.520654   2.534871
    13  O    2.484572   3.771302   4.009030   2.356465   3.698399
    14  C    1.520066   2.501263   2.706737   3.686875   4.912933
    15  O    2.417717   2.932621   2.608843   4.585666   5.946553
    16  C    3.694547   3.937482   3.485347   5.423347   6.775252
    17  C    4.605246   5.182158   4.811148   5.029487   6.387978
    18  O    4.704778   5.566742   5.440897   3.980306   5.240042
    19  H    4.054241   5.099420   5.096150   3.041084   4.361143
    20  C    5.998143   6.400500   5.942756   6.330789   7.622582
    21  O    7.019432   7.573636   7.117624   6.660424   7.904218
    22  H    7.897345   8.356209   7.849860   7.634757   8.854313
    23  C    4.509999   3.907397   3.056661   7.607766   8.939691
    24  O    3.682287   2.891579   1.921267   7.326130   8.619189
    25  H    4.266909   3.208456   2.299750   8.174579   9.425016
    26  C    4.549443   4.424130   3.674781   6.794438   8.180712
    27  O    5.856132   5.717674   5.001716   7.691111   9.053569
    28  C    6.514169   6.650637   5.997073   7.540123   8.894480
    29  O    7.679012   7.694921   7.046096   8.703600  10.004978
    30  H    8.412014   8.412081   7.703430   9.417053  10.737284
    31  H    6.829596   7.012303   6.295721   7.779085   9.164631
    32  H    4.739495   4.721935   3.909538   6.845761   8.269013
    33  H    6.285570   6.635774   6.265169   6.559445   7.759129
    34  H    4.745696   5.386665   4.938243   5.091588   6.496401
    35  H    3.854916   3.970525   3.665769   5.631552   6.881115
    36  H    5.498904   4.810228   3.902278   8.605755   9.958282
    37  H    4.595596   3.904974   3.229881   7.700285   8.962729
    38  H    2.134743   2.777277   3.084553   4.030668   5.120938
    39  H    1.070000   2.009297   2.270487   4.407837   5.504946
    40  H    2.097437   2.743708   3.656030   4.249091   4.828864
    41  H    2.768702   4.087954   4.663854   2.782200   3.430310
    42  H    3.332725   4.523460   5.102209   2.112211   2.784282
    43  H    4.834331   6.183090   6.506462   1.070000   2.032810
    44  H    4.442424   5.872722   6.214993   1.070000   2.032810
    45  H    4.318553   5.478501   6.262499   3.313288   3.046151
                   11         12         13         14         15
    11  H    0.000000
    12  C    3.328155   0.000000
    13  O    4.330915   1.434604   0.000000
    14  C    5.620146   2.403518   1.435556   0.000000
    15  O    6.544373   3.580216   2.248630   1.434892   0.000000
    16  C    7.238862   4.540822   3.226745   2.537250   1.434761
    17  C    6.664119   4.561951   3.257546   3.236126   2.315910
    18  O    5.408295   3.761227   2.736273   3.213758   2.901471
    19  H    4.625943   2.821455   1.831887   2.630754   2.645790
    20  C    7.779608   5.950532   4.721341   4.633282   3.670692
    21  O    7.908098   6.593650   5.419445   5.638446   4.701755
    22  H    8.823606   7.559509   6.387683   6.528050   5.542301
    23  C    9.530853   6.500499   5.262113   4.125302   3.047666
    24  O    9.317927   6.131532   4.992223   3.771223   2.901813
    25  H   10.164154   6.917810   5.864187   4.583203   3.856523
    26  C    8.657275   5.912798   4.551082   3.744637   2.420785
    27  O    9.420942   6.917593   5.582414   4.892335   3.656345
    28  C    9.122761   7.035975   5.696173   5.355420   4.129934
    29  O   10.183241   8.185817   6.910894   6.505563   5.365879
    30  H   10.891739   8.959567   7.648139   7.280139   6.064777
    31  H    9.380478   7.378885   5.991704   5.756035   4.435267
    32  H    8.736468   6.090657   4.674401   4.046405   2.616844
    33  H    7.889726   6.122733   5.031715   4.875669   4.123162
    34  H    6.770575   4.769447   3.401281   3.540393   2.469903
    35  H    7.346501   4.633630   3.519020   2.683779   2.076998
    36  H   10.531730   7.538533   6.268380   5.172460   4.029019
    37  H    9.554872   6.508835   5.389501   4.161067   3.344022
    38  H    5.786464   2.691548   2.060336   1.070000   2.059516
    39  H    6.358084   3.252316   2.669605   2.085892   2.585278
    40  H    5.736611   2.793987   3.238438   2.683123   4.035078
    41  H    4.368585   2.115461   2.690729   3.222249   4.258904
    42  H    3.482835   1.070000   2.039485   2.652807   3.915498
    43  H    2.161691   2.107746   2.506468   3.864290   4.562636
    44  H    2.534061   2.107746   2.571057   3.931419   4.639332
    45  H    4.000769   2.987447   4.198030   4.763667   6.032552
                   16         17         18         19         20
    16  C    0.000000
    17  C    1.519870   0.000000
    18  O    2.543422   1.434619   0.000000
    19  H    2.807030   2.043871   0.999766   0.000000
    20  C    2.472774   1.519810   2.386589   3.292119   0.000000
    21  O    3.720668   2.425550   2.892134   3.780897   1.434621
    22  H    4.438727   3.300490   3.825716   4.748741   2.017000
    23  C    2.540115   3.862916   5.072198   5.298951   4.251617
    24  O    3.093295   4.469304   5.529498   5.498535   5.228854
    25  H    4.042270   5.446216   6.503972   6.466199   6.128479
    26  C    1.519854   2.484209   3.825553   4.181259   2.853179
    27  O    2.393297   2.849394   4.182730   4.813314   2.397388
    28  C    2.877986   2.516277   3.749920   4.535768   1.520643
    29  O    4.000046   3.730875   4.782366   5.665047   2.415697
    30  H    4.762860   4.428703   5.512251   6.385737   3.129327
    31  H    3.413540   2.922724   4.177129   4.874387   2.196805
    32  H    2.134762   2.705196   4.075075   4.345186   3.184679
    33  H    2.840311   2.165812   2.637887   3.589631   1.070000
    34  H    2.096946   1.070000   2.023351   2.361995   2.101330
    35  H    1.070000   2.151918   2.811947   3.127723   2.783364
    36  H    3.441392   4.597803   5.905865   6.210252   4.741897
    37  H    2.702096   4.103439   5.157889   5.419028   4.401297
    38  H    2.636257   3.417098   3.275485   2.861946   4.619727
    39  H    3.997197   4.763547   4.946335   4.246402   6.211332
    40  H    5.031081   5.819701   5.499911   4.798562   7.123984
    41  H    5.581391   5.837669   5.383658   4.419046   7.343194
    42  H    4.649540   4.732271   3.831391   3.039307   5.985954
    43  H    5.140649   4.504157   3.284112   2.469091   5.660190
    44  H    5.595568   5.155707   4.272902   3.317064   6.511510
    45  H    7.234890   7.453559   6.733976   5.767972   8.894060
                   21         22         23         24         25
    21  O    0.000000
    22  H    0.999957   0.000000
    23  C    5.493591   5.920123   0.000000
    24  O    6.408083   6.967975   1.434669   0.000000
    25  H    7.326237   7.832652   2.019210   1.000323   0.000000
    26  C    4.018908   4.515452   1.520564   2.462815   3.323506
    27  O    3.521097   3.723278   2.359114   3.657084   4.355003
    28  C    2.227217   2.331506   3.675306   4.825338   5.616210
    29  O    2.911696   2.525691   4.428886   5.756233   6.421131
    30  H    3.291339   2.717261   4.986013   6.288721   6.910601
    31  H    2.371062   2.455401   4.058941   5.053695   5.841141
    32  H    4.052729   4.579683   2.135283   2.674104   3.535048
    33  H    2.085181   2.413613   4.571620   5.636511   6.484276
    34  H    2.529100   3.432146   4.099864   4.536438   5.525583
    35  H    4.157856   4.790246   2.759486   3.427127   4.257145
    36  H    5.882773   6.166765   1.070000   2.047265   2.262097
    37  H    5.763385   6.159610   1.070000   2.047265   2.430901
    38  H    5.744281   6.572832   4.220014   4.078047   4.823144
    39  H    7.098306   7.997533   4.737993   3.773826   4.371771
    40  H    8.168351   9.044032   6.054416   5.398505   5.857540
    41  H    7.976296   8.961273   7.004881   6.224732   6.866078
    42  H    6.721687   7.639528   6.627507   6.385822   7.141389
    43  H    5.875419   6.822925   7.510013   7.428937   8.333431
    44  H    6.734621   7.725625   7.683065   7.308170   8.160792
    45  H    9.520968  10.501591   8.733755   7.984537   8.552732
                   26         27         28         29         30
    26  C    0.000000
    27  O    1.435241   0.000000
    28  C    2.387073   1.434557   0.000000
    29  O    3.455985   2.100592   1.435694   0.000000
    30  H    4.046766   2.723900   1.975263   0.960000   0.000000
    31  H    2.747617   2.109051   1.070000   2.111253   2.193336
    32  H    1.070000   2.060154   2.595145   3.836031   4.235768
    33  H    3.377129   2.756151   2.161921   2.502726   3.357861
    34  H    2.666514   3.194053   2.723380   4.099213   4.618347
    35  H    2.153738   2.677823   3.309800   4.131690   5.004297
    36  H    2.122332   2.507988   3.839020   4.396174   4.786992
    37  H    2.122332   2.631590   4.000756   4.537701   5.213162
    38  H    3.941408   4.895231   5.426641   6.404961   7.257627
    39  H    4.684529   6.068964   6.638988   7.907396   8.557805
    40  H    6.139479   7.261054   7.893349   8.907094   9.744185
    41  H    6.654770   7.902795   8.166775   9.448246  10.141322
    42  H    6.101088   6.983863   7.147428   8.166209   9.002381
    43  H    6.544708   7.274429   6.971729   8.065148   8.771121
    44  H    6.833958   7.805145   7.610796   8.866929   9.507338
    45  H    8.447378   9.618838   9.878310  11.072589  11.832356
                   31         32         33         34         35
    31  H    0.000000
    32  H    2.516785   0.000000
    33  H    3.059451   3.955143   0.000000
    34  H    2.717851   2.443453   3.009282   0.000000
    35  H    4.073504   3.028607   2.735384   2.999521   0.000000
    36  H    4.100191   2.489879   5.093833   4.739068   3.692196
    37  H    4.609954   3.005422   4.468719   4.582731   2.485440
    38  H    6.005627   4.488090   4.622876   4.001321   2.340889
    39  H    6.787587   4.629417   6.661916   4.660263   4.410591
    40  H    8.385145   6.541180   7.144373   6.204236   4.803334
    41  H    8.327004   6.607357   7.707865   5.751157   5.882070
    42  H    7.630690   6.451048   5.968550   5.158038   4.497510
    43  H    7.239655   6.633000   5.841625   4.634970   5.326933
    44  H    7.704863   6.718714   6.901504   4.993313   5.988577
    45  H   10.146298   8.531926   9.088755   7.522847   7.318466
                   36         37         38         39         40
    36  H    0.000000
    37  H    1.740138   0.000000
    38  H    5.288595   3.984391   0.000000
    39  H    5.642961   5.048638   2.980157   0.000000
    40  H    7.085490   5.818543   2.535864   2.954768   0.000000
    41  H    7.975451   7.196714   3.895090   2.526172   2.975419
    42  H    7.688500   6.464178   2.494723   3.899609   2.624528
    43  H    8.482383   7.580810   4.092923   4.960122   4.845406
    44  H    8.632256   7.918618   4.514632   4.243684   4.722630
    45  H    9.749666   8.752011   5.079991   4.387308   3.408152
                   41         42         43         44         45
    41  H    0.000000
    42  H    2.983292   0.000000
    43  H    3.727442   2.411445   0.000000
    44  H    2.586460   2.979839   1.729763   0.000000
    45  H    2.091196   3.368327   4.345060   3.477199   0.000000
 Stoichiometry    C12H22O11
 Framework group  C1[X(C12H22O11)]
 Deg. of freedom   129
 Full point group                 C1      NOp   1
 Largest Abelian subgroup         C1      NOp   1
 Largest concise Abelian subgroup C1      NOp   1
                         Standard orientation:                         
 ---------------------------------------------------------------------
 Center     Atomic      Atomic             Coordinates (Angstroms)
 Number     Number       Type             X           Y           Z
 ---------------------------------------------------------------------
      1          8           0       -4.947295   -0.358032    0.445937
      2          6           0       -3.680029   -0.057409   -0.144456
      3          6           0       -3.250187    1.322358    0.325463
      4          8           0       -4.222994    2.317163   -0.027843
      5          1           0       -5.132512    1.932502    0.130038
      6          6           0       -1.840822    1.621875   -0.157555
      7          8           0       -1.346914    2.918015    0.210919
      8          1           0       -0.459298    3.072731   -0.221856
      9          6           0       -2.994327   -2.560655   -0.386671
     10          8           0       -4.214348   -3.217565   -0.015286
     11          1           0       -4.090804   -4.209515    0.022620
     12          6           0       -2.716896   -1.183051    0.194387
     13          8           0       -1.407925   -0.822168   -0.268696
     14          6           0       -0.951856    0.448165    0.220258
     15          8           0        0.333981    0.593791   -0.399687
     16          6           0        1.580021    0.284400    0.240784
     17          6           0        1.830652   -1.158140   -0.166975
     18          8           0        0.911874   -2.169517    0.270167
     19          1           0       -0.026233   -2.001430   -0.031884
     20          6           0        3.220526   -1.565065    0.293984
     21          8           0        3.663955   -2.725425   -0.423700
     22          1           0        4.631422   -2.902587   -0.243323
     23          6           0        2.548064    2.628400    0.096771
     24          8           0        1.427569    3.278987   -0.519267
     25          1           0        1.493362    4.271876   -0.416844
     26          6           0        2.683488    1.170489   -0.313438
     27          8           0        3.932718    0.723301    0.233703
     28          6           0        4.283433   -0.597557   -0.202516
     29          8           0        5.441167   -0.680253    0.642488
     30          1           0        6.230841   -0.732771    0.099113
     31          1           0        4.501157   -0.665881   -1.247900
     32          1           0        2.707754    1.094895   -1.380489
     33          1           0        3.272283   -1.707090    1.353253
     34          1           0        1.832784   -1.181994   -1.236707
     35          1           0        1.502437    0.377985    1.303857
     36          1           0        3.442011    3.148040   -0.178425
     37          1           0        2.433488    2.677921    1.159465
     38          1           0       -0.838180    0.407195    1.283413
     39          1           0       -1.888880    1.622853   -1.226475
     40          1           0       -3.212459    1.290994    1.394338
     41          1           0       -3.801249   -0.027607   -1.207149
     42          1           0       -2.679901   -1.275407    1.259752
     43          1           0       -2.183630   -3.200008   -0.105785
     44          1           0       -2.986675   -2.470126   -1.452807
     45          1           0       -5.594408   -0.511812   -0.246303
 ---------------------------------------------------------------------
 Rotational constants (GHZ):      0.4043377      0.1475821      0.1106097
 Standard basis: 6-31+G(2df,p) (6D, 7F)
 There are   846 symmetry adapted basis functions of A   symmetry.
 Integral buffers will be    131072 words long.
 Raffenetti 2 integral format.
 Two-electron integral symmetry is turned on.
   846 basis functions,  1258 primitive gaussians,   915 cartesian basis functions
    91 alpha electrons       91 beta electrons
       nuclear repulsion energy      2288.3031158047 Hartrees.
 NAtoms=   45 NActive=   45 NUniq=   45 SFac= 1.00D+00 NAtFMM=   50 NAOKFM=F Big=F
 One-electron integrals computed using PRISM.
 NBasis=   846 RedAO= T  NBF=   846
 NBsUse=   846 1.00D-06 NBFU=   846
 Harris functional with IExCor=  402 diagonalized for initial guess.
 ExpMin= 4.38D-02 ExpMax= 5.48D+03 ExpMxC= 8.25D+02 IAcc=2 IRadAn=         0 AccDes= 0.00D+00
 HarFok:  IExCor=  402 AccDes= 0.00D+00 IRadAn=         0 IDoV= 1
 ScaDFX=  1.000000  1.000000  1.000000  1.000000
 FoFCou: FMM=F IPFlag=           0 FMFlag=      100000 FMFlg1=           0
         NFxFlg=           0 DoJE=T BraDBF=F KetDBF=T FulRan=T
         Omega=  0.000000  0.000000  1.000000  0.000000  0.000000 ICntrl=     500 IOpCl=  0
         NMat0=    1 NMatS0=    1 NMatT0=    0 NMatD0=    1 NMtDS0=    0 NMtDT0=    0
         I1Cent=           4 NGrid=           0.
 Petite list used in FoFCou.
 Initial guess orbital symmetries:
       Occupied  (A) (A) (A) (A) (A) (A) (A) (A) (A) (A) (A) (A)
                 (A) (A) (A) (A) (A) (A) (A) (A) (A) (A) (A) (A)
                 (A) (A) (A) (A) (A) (A) (A) (A) (A) (A) (A) (A)
                 (A) (A) (A) (A) (A) (A) (A) (A) (A) (A) (A) (A)
                 (A) (A) (A) (A) (A) (A) (A) (A) (A) (A) (A) (A)
                 (A) (A) (A) (A) (A) (A) (A) (A) (A) (A) (A) (A)
                 (A) (A) (A) (A) (A) (A) (A) (A) (A) (A) (A) (A)
                 (A) (A) (A) (A) (A) (A) (A)
       Virtual   (A) (A) (A) (A) (A) (A) (A) (A) (A) (A) (A) (A)
                 (A) (A) (A) (A) (A) (A) (A) (A) (A) (A) (A) (A)
                 (A) (A) (A) (A) (A) (A) (A) (A) (A) (A) (A) (A)
                 (A) (A) (A) (A) (A) (A) (A) (A) (A) (A) (A) (A)
                 (A) (A) (A) (A) (A) (A) (A) (A) (A) (A) (A) (A)
                 (A) (A) (A) (A) (A) (A) (A) (A) (A) (A) (A) (A)
                 (A) (A) (A) (A) (A) (A) (A) (A) (A) (A) (A) (A)
                 (A) (A) (A) (A) (A) (A) (A) (A) (A) (A) (A) (A)
                 (A) (A) (A) (A) (A) (A) (A) (A) (A) (A) (A) (A)
                 (A) (A) (A) (A) (A) (A) (A) (A) (A) (A) (A) (A)
                 (A) (A) (A) (A) (A) (A) (A) (A) (A) (A) (A) (A)
                 (A) (A) (A) (A) (A) (A) (A) (A) (A) (A) (A) (A)
                 (A) (A) (A) (A) (A) (A) (A) (A) (A) (A) (A) (A)
                 (A) (A) (A) (A) (A) (A) (A) (A) (A) (A) (A) (A)
                 (A) (A) (A) (A) (A) (A) (A) (A) (A) (A) (A) (A)
                 (A) (A) (A) (A) (A) (A) (A) (A) (A) (A) (A) (A)
                 (A) (A) (A) (A) (A) (A) (A) (A) (A) (A) (A) (A)
                 (A) (A) (A) (A) (A) (A) (A) (A) (A) (A) (A) (A)
                 (A) (A) (A) (A) (A) (A) (A) (A) (A) (A) (A) (A)
                 (A) (A) (A) (A) (A) (A) (A) (A) (A) (A) (A) (A)
                 (A) (A) (A) (A) (A) (A) (A) (A) (A) (A) (A) (A)
                 (A) (A) (A) (A) (A) (A) (A) (A) (A) (A) (A) (A)
                 (A) (A) (A) (A) (A) (A) (A) (A) (A) (A) (A) (A)
                 (A) (A) (A) (A) (A) (A) (A) (A) (A) (A) (A) (A)
                 (A) (A) (A) (A) (A) (A) (A) (A) (A) (A) (A) (A)
                 (A) (A) (A) (A) (A) (A) (A) (A) (A) (A) (A) (A)
                 (A) (A) (A) (A) (A) (A) (A) (A) (A) (A) (A) (A)
                 (A) (A) (A) (A) (A) (A) (A) (A) (A) (A) (A) (A)
                 (A) (A) (A) (A) (A) (A) (A) (A) (A) (A) (A) (A)
                 (A) (A) (A) (A) (A) (A) (A) (A) (A) (A) (A) (A)
                 (A) (A) (A) (A) (A) (A) (A) (A) (A) (A) (A) (A)
                 (A) (A) (A) (A) (A) (A) (A) (A) (A) (A) (A) (A)
                 (A) (A) (A) (A) (A) (A) (A) (A) (A) (A) (A) (A)
                 (A) (A) (A) (A) (A) (A) (A) (A) (A) (A) (A) (A)
                 (A) (A) (A) (A) (A) (A) (A) (A) (A) (A) (A) (A)
                 (A) (A) (A) (A) (A) (A) (A) (A) (A) (A) (A) (A)
                 (A) (A) (A) (A) (A) (A) (A) (A) (A) (A) (A) (A)
                 (A) (A) (A) (A) (A) (A) (A) (A) (A) (A) (A) (A)
                 (A) (A) (A) (A) (A) (A) (A) (A) (A) (A) (A) (A)
                 (A) (A) (A) (A) (A) (A) (A) (A) (A) (A) (A) (A)
                 (A) (A) (A) (A) (A) (A) (A) (A) (A) (A) (A) (A)
                 (A) (A) (A) (A) (A) (A) (A) (A) (A) (A) (A) (A)
                 (A) (A) (A) (A) (A) (A) (A) (A) (A) (A) (A) (A)
                 (A) (A) (A) (A) (A) (A) (A) (A) (A) (A) (A) (A)
                 (A) (A) (A) (A) (A) (A) (A) (A) (A) (A) (A) (A)
                 (A) (A) (A) (A) (A) (A) (A) (A) (A) (A) (A) (A)
                 (A) (A) (A) (A) (A) (A) (A) (A) (A) (A) (A) (A)
                 (A) (A) (A) (A) (A) (A) (A) (A) (A) (A) (A) (A)
                 (A) (A) (A) (A) (A) (A) (A) (A) (A) (A) (A) (A)
                 (A) (A) (A) (A) (A) (A) (A) (A) (A) (A) (A) (A)
                 (A) (A) (A) (A) (A) (A) (A) (A) (A) (A) (A) (A)
                 (A) (A) (A) (A) (A) (A) (A) (A) (A) (A) (A) (A)
                 (A) (A) (A) (A) (A) (A) (A) (A) (A) (A) (A) (A)
                 (A) (A) (A) (A) (A) (A) (A) (A) (A) (A) (A) (A)
                 (A) (A) (A) (A) (A) (A) (A) (A) (A) (A) (A) (A)
                 (A) (A) (A) (A) (A) (A) (A) (A) (A) (A) (A) (A)
                 (A) (A) (A) (A) (A) (A) (A) (A) (A) (A) (A) (A)
                 (A) (A) (A) (A) (A) (A) (A) (A) (A) (A) (A) (A)
                 (A) (A) (A) (A) (A) (A) (A) (A) (A) (A) (A) (A)
                 (A) (A) (A) (A) (A) (A) (A) (A) (A) (A) (A) (A)
                 (A) (A) (A) (A) (A) (A) (A) (A) (A) (A) (A) (A)
                 (A) (A) (A) (A) (A) (A) (A) (A) (A) (A) (A) (A)
                 (A) (A) (A) (A) (A) (A) (A) (A) (A) (A) (A)
 The electronic state of the initial guess is 1-A.
 Requested convergence on RMS density matrix=1.00D-08 within 128 cycles.
 Requested convergence on MAX density matrix=1.00D-06.
 Requested convergence on             energy=1.00D-06.
 No special actions if energy rises.
 SCF Done:  E(RB3LYP) =  -1298.01699730     A.U. after   13 cycles
             Convg  =    0.3538D-08             -V/T =  2.0065
 Range of M.O.s used for correlation:     1   846
 NBasis=   846 NAE=    91 NBE=    91 NFC=     0 NFV=     0
 NROrb=    846 NOA=    91 NOB=    91 NVA=   755 NVB=   755

 **** Warning!!: The largest alpha MO coefficient is  0.63585435D+02

          Differentiating once with respect to electric field.
                with respect to dipole field.
          Electric field/nuclear overlap derivatives assumed to be zero.
          There are     3 degrees of freedom in the 1st order CPHF.  IDoFFX=0.
      3 vectors produced by pass  0 Test12= 2.29D-12 3.33D-08 XBig12= 1.24D+02 1.39D+00.
 AX will form     3 AO Fock derivatives at one time.
      3 vectors produced by pass  1 Test12= 2.29D-12 3.33D-08 XBig12= 2.40D+01 4.17D-01.
      3 vectors produced by pass  2 Test12= 2.29D-12 3.33D-08 XBig12= 1.04D+01 2.34D-01.
      3 vectors produced by pass  3 Test12= 2.29D-12 3.33D-08 XBig12= 1.16D+00 7.69D-02.
      3 vectors produced by pass  4 Test12= 2.29D-12 3.33D-08 XBig12= 3.14D-01 3.87D-02.
      3 vectors produced by pass  5 Test12= 2.29D-12 3.33D-08 XBig12= 6.17D-02 1.93D-02.
      3 vectors produced by pass  6 Test12= 2.29D-12 3.33D-08 XBig12= 2.18D-02 1.64D-02.
      3 vectors produced by pass  7 Test12= 2.29D-12 3.33D-08 XBig12= 2.91D-03 8.93D-03.
      3 vectors produced by pass  8 Test12= 2.29D-12 3.33D-08 XBig12= 5.39D-04 2.65D-03.
      3 vectors produced by pass  9 Test12= 2.29D-12 3.33D-08 XBig12= 1.65D-04 1.32D-03.
      3 vectors produced by pass 10 Test12= 2.29D-12 3.33D-08 XBig12= 3.89D-05 4.81D-04.
      3 vectors produced by pass 11 Test12= 2.29D-12 3.33D-08 XBig12= 7.35D-06 2.40D-04.
      3 vectors produced by pass 12 Test12= 2.29D-12 3.33D-08 XBig12= 1.11D-06 8.65D-05.
      3 vectors produced by pass 13 Test12= 2.29D-12 3.33D-08 XBig12= 3.90D-07 4.49D-05.
      3 vectors produced by pass 14 Test12= 2.29D-12 3.33D-08 XBig12= 6.15D-08 2.02D-05.
      3 vectors produced by pass 15 Test12= 2.29D-12 3.33D-08 XBig12= 1.43D-08 9.93D-06.
      3 vectors produced by pass 16 Test12= 2.29D-12 3.33D-08 XBig12= 1.65D-09 3.67D-06.
      3 vectors produced by pass 17 Test12= 2.29D-12 3.33D-08 XBig12= 1.44D-10 9.11D-07.
      3 vectors produced by pass 18 Test12= 2.29D-12 3.33D-08 XBig12= 3.88D-11 4.67D-07.
      3 vectors produced by pass 19 Test12= 2.29D-12 3.33D-08 XBig12= 7.15D-12 1.51D-07.
      2 vectors produced by pass 20 Test12= 2.29D-12 3.33D-08 XBig12= 6.12D-12 2.10D-07.
      2 vectors produced by pass 21 Test12= 2.29D-12 3.33D-08 XBig12= 5.13D-12 2.47D-07.
      1 vectors produced by pass 22 Test12= 2.29D-12 3.33D-08 XBig12= 1.44D-12 9.71D-08.
 Inverted reduced A of dimension    65 with in-core refinement.
 End of Minotr Frequency-dependent properties file   721 does not exist.
 End of Minotr Frequency-dependent properties file   722 does not exist.
 Symmetrizing basis deriv contribution to polar:
 IMax=3 JMax=2 DiffMx= 0.00D+00
 G2DrvN: will do     8 centers at a time, making    6 passes doing MaxLOS=3.
 Calling FoFCou, ICntrl=  3107 FMM=F I1Cent=   0 AccDes= 0.00D+00.
 Calling FoFCou, ICntrl=  3107 FMM=F I1Cent=   0 AccDes= 0.00D+00.
 Calling FoFCou, ICntrl=  3107 FMM=F I1Cent=   0 AccDes= 0.00D+00.
 Calling FoFCou, ICntrl=  3107 FMM=F I1Cent=   0 AccDes= 0.00D+00.
 Calling FoFCou, ICntrl=  3107 FMM=F I1Cent=   0 AccDes= 0.00D+00.
 Calling FoFCou, ICntrl=  3107 FMM=F I1Cent=   0 AccDes= 0.00D+00.
 FoFDir/FoFCou used for L=0 through L=3.
 End of G2Drv Frequency-dependent properties file   721 does not exist.
 End of G2Drv Frequency-dependent properties file   722 does not exist.
          IDoAtm=111111111111111111111111111111111111111111111
          Differentiating once with respect to electric field.
                with respect to dipole field.
          Differentiating once with respect to nuclear coordinates.
          There are   138 degrees of freedom in the 1st order CPHF.  IDoFFX=5.
 Will reuse    3 saved solutions.
    135 vectors produced by pass  0 Test12= 6.87D-14 1.00D-09 XBig12= 1.49D-01 6.29D-02.
 AX will form    27 AO Fock derivatives at one time.
    135 vectors produced by pass  1 Test12= 6.87D-14 1.00D-09 XBig12= 2.27D-02 1.10D-02.
    132 vectors produced by pass  2 Test12= 6.87D-14 1.00D-09 XBig12= 1.71D-04 1.36D-03.
    132 vectors produced by pass  3 Test12= 6.87D-14 1.00D-09 XBig12= 8.88D-07 5.84D-05.
    132 vectors produced by pass  4 Test12= 6.87D-14 1.00D-09 XBig12= 2.19D-09 3.09D-06.
    132 vectors produced by pass  5 Test12= 6.87D-14 1.00D-09 XBig12= 5.80D-12 1.55D-07.
     93 vectors produced by pass  6 Test12= 6.87D-14 1.00D-09 XBig12= 2.09D-13 2.92D-08.
      1 vectors produced by pass  7 Test12= 6.87D-14 1.00D-09 XBig12= 4.54D-16 1.07D-09.
 Inverted reduced A of dimension   892 with in-core refinement.
 Isotropic polarizability for W=    0.000000      192.59 Bohr**3.
 End of Minotr Frequency-dependent properties file   721 does not exist.
 End of Minotr Frequency-dependent properties file   722 does not exist.

 **********************************************************************

            Population analysis using the SCF density.

 **********************************************************************

 Orbital symmetries:
       Occupied  (A) (A) (A) (A) (A) (A) (A) (A) (A) (A) (A) (A)
                 (A) (A) (A) (A) (A) (A) (A) (A) (A) (A) (A) (A)
                 (A) (A) (A) (A) (A) (A) (A) (A) (A) (A) (A) (A)
                 (A) (A) (A) (A) (A) (A) (A) (A) (A) (A) (A) (A)
                 (A) (A) (A) (A) (A) (A) (A) (A) (A) (A) (A) (A)
                 (A) (A) (A) (A) (A) (A) (A) (A) (A) (A) (A) (A)
                 (A) (A) (A) (A) (A) (A) (A) (A) (A) (A) (A) (A)
                 (A) (A) (A) (A) (A) (A) (A)
       Virtual   (A) (A) (A) (A) (A) (A) (A) (A) (A) (A) (A) (A)
                 (A) (A) (A) (A) (A) (A) (A) (A) (A) (A) (A) (A)
                 (A) (A) (A) (A) (A) (A) (A) (A) (A) (A) (A) (A)
                 (A) (A) (A) (A) (A) (A) (A) (A) (A) (A) (A) (A)
                 (A) (A) (A) (A) (A) (A) (A) (A) (A) (A) (A) (A)
                 (A) (A) (A) (A) (A) (A) (A) (A) (A) (A) (A) (A)
                 (A) (A) (A) (A) (A) (A) (A) (A) (A) (A) (A) (A)
                 (A) (A) (A) (A) (A) (A) (A) (A) (A) (A) (A) (A)
                 (A) (A) (A) (A) (A) (A) (A) (A) (A) (A) (A) (A)
                 (A) (A) (A) (A) (A) (A) (A) (A) (A) (A) (A) (A)
                 (A) (A) (A) (A) (A) (A) (A) (A) (A) (A) (A) (A)
                 (A) (A) (A) (A) (A) (A) (A) (A) (A) (A) (A) (A)
                 (A) (A) (A) (A) (A) (A) (A) (A) (A) (A) (A) (A)
                 (A) (A) (A) (A) (A) (A) (A) (A) (A) (A) (A) (A)
                 (A) (A) (A) (A) (A) (A) (A) (A) (A) (A) (A) (A)
                 (A) (A) (A) (A) (A) (A) (A) (A) (A) (A) (A) (A)
                 (A) (A) (A) (A) (A) (A) (A) (A) (A) (A) (A) (A)
                 (A) (A) (A) (A) (A) (A) (A) (A) (A) (A) (A) (A)
                 (A) (A) (A) (A) (A) (A) (A) (A) (A) (A) (A) (A)
                 (A) (A) (A) (A) (A) (A) (A) (A) (A) (A) (A) (A)
                 (A) (A) (A) (A) (A) (A) (A) (A) (A) (A) (A) (A)
                 (A) (A) (A) (A) (A) (A) (A) (A) (A) (A) (A) (A)
                 (A) (A) (A) (A) (A) (A) (A) (A) (A) (A) (A) (A)
                 (A) (A) (A) (A) (A) (A) (A) (A) (A) (A) (A) (A)
                 (A) (A) (A) (A) (A) (A) (A) (A) (A) (A) (A) (A)
                 (A) (A) (A) (A) (A) (A) (A) (A) (A) (A) (A) (A)
                 (A) (A) (A) (A) (A) (A) (A) (A) (A) (A) (A) (A)
                 (A) (A) (A) (A) (A) (A) (A) (A) (A) (A) (A) (A)
                 (A) (A) (A) (A) (A) (A) (A) (A) (A) (A) (A) (A)
                 (A) (A) (A) (A) (A) (A) (A) (A) (A) (A) (A) (A)
                 (A) (A) (A) (A) (A) (A) (A) (A) (A) (A) (A) (A)
                 (A) (A) (A) (A) (A) (A) (A) (A) (A) (A) (A) (A)
                 (A) (A) (A) (A) (A) (A) (A) (A) (A) (A) (A) (A)
                 (A) (A) (A) (A) (A) (A) (A) (A) (A) (A) (A) (A)
                 (A) (A) (A) (A) (A) (A) (A) (A) (A) (A) (A) (A)
                 (A) (A) (A) (A) (A) (A) (A) (A) (A) (A) (A) (A)
                 (A) (A) (A) (A) (A) (A) (A) (A) (A) (A) (A) (A)
                 (A) (A) (A) (A) (A) (A) (A) (A) (A) (A) (A) (A)
                 (A) (A) (A) (A) (A) (A) (A) (A) (A) (A) (A) (A)
                 (A) (A) (A) (A) (A) (A) (A) (A) (A) (A) (A) (A)
                 (A) (A) (A) (A) (A) (A) (A) (A) (A) (A) (A) (A)
                 (A) (A) (A) (A) (A) (A) (A) (A) (A) (A) (A) (A)
                 (A) (A) (A) (A) (A) (A) (A) (A) (A) (A) (A) (A)
                 (A) (A) (A) (A) (A) (A) (A) (A) (A) (A) (A) (A)
                 (A) (A) (A) (A) (A) (A) (A) (A) (A) (A) (A) (A)
                 (A) (A) (A) (A) (A) (A) (A) (A) (A) (A) (A) (A)
                 (A) (A) (A) (A) (A) (A) (A) (A) (A) (A) (A) (A)
                 (A) (A) (A) (A) (A) (A) (A) (A) (A) (A) (A) (A)
                 (A) (A) (A) (A) (A) (A) (A) (A) (A) (A) (A) (A)
                 (A) (A) (A) (A) (A) (A) (A) (A) (A) (A) (A) (A)
                 (A) (A) (A) (A) (A) (A) (A) (A) (A) (A) (A) (A)
                 (A) (A) (A) (A) (A) (A) (A) (A) (A) (A) (A) (A)
                 (A) (A) (A) (A) (A) (A) (A) (A) (A) (A) (A) (A)
                 (A) (A) (A) (A) (A) (A) (A) (A) (A) (A) (A) (A)
                 (A) (A) (A) (A) (A) (A) (A) (A) (A) (A) (A) (A)
                 (A) (A) (A) (A) (A) (A) (A) (A) (A) (A) (A) (A)
                 (A) (A) (A) (A) (A) (A) (A) (A) (A) (A) (A) (A)
                 (A) (A) (A) (A) (A) (A) (A) (A) (A) (A) (A) (A)
                 (A) (A) (A) (A) (A) (A) (A) (A) (A) (A) (A) (A)
                 (A) (A) (A) (A) (A) (A) (A) (A) (A) (A) (A) (A)
                 (A) (A) (A) (A) (A) (A) (A) (A) (A) (A) (A) (A)
                 (A) (A) (A) (A) (A) (A) (A) (A) (A) (A) (A) (A)
                 (A) (A) (A) (A) (A) (A) (A) (A) (A) (A) (A)
 The electronic state is 1-A.
 Alpha  occ. eigenvalues --  -19.18607 -19.17895 -19.17380 -19.16849 -19.16602
 Alpha  occ. eigenvalues --  -19.16594 -19.16559 -19.15298 -19.15268 -19.14235
 Alpha  occ. eigenvalues --  -19.13849 -10.30455 -10.29951 -10.25652 -10.25296
 Alpha  occ. eigenvalues --  -10.25196 -10.25125 -10.24766 -10.24690 -10.24387
 Alpha  occ. eigenvalues --  -10.24355 -10.24128 -10.23874  -1.09556  -1.09071
 Alpha  occ. eigenvalues --   -1.05363  -1.04472  -1.03449  -1.02801  -1.02707
 Alpha  occ. eigenvalues --   -1.01928  -1.01537  -1.00346  -0.99956  -0.81957
 Alpha  occ. eigenvalues --   -0.80392  -0.78554  -0.78234  -0.71620  -0.69786
 Alpha  occ. eigenvalues --   -0.67309  -0.64387  -0.62997  -0.62514  -0.61130
 Alpha  occ. eigenvalues --   -0.60266  -0.56325  -0.55484  -0.54503  -0.54370
 Alpha  occ. eigenvalues --   -0.53738  -0.53334  -0.52766  -0.51738  -0.51388
 Alpha  occ. eigenvalues --   -0.50070  -0.49725  -0.49215  -0.48815  -0.46494
 Alpha  occ. eigenvalues --   -0.45394  -0.44785  -0.44699  -0.43587  -0.42838
 Alpha  occ. eigenvalues --   -0.42308  -0.41552  -0.40971  -0.40236  -0.39103
 Alpha  occ. eigenvalues --   -0.38491  -0.37742  -0.36976  -0.36139  -0.35718
 Alpha  occ. eigenvalues --   -0.34942  -0.34519  -0.33961  -0.33855  -0.32970
 Alpha  occ. eigenvalues --   -0.32060  -0.31037  -0.30542  -0.29992  -0.29529
 Alpha  occ. eigenvalues --   -0.29328  -0.29071  -0.27857  -0.27630  -0.27082
 Alpha  occ. eigenvalues --   -0.26174
 Alpha virt. eigenvalues --   -0.01871  -0.01809  -0.01567  -0.00339   0.00563
 Alpha virt. eigenvalues --    0.01168   0.01892   0.02223   0.03129   0.03470
 Alpha virt. eigenvalues --    0.03641   0.04308   0.05060   0.05349   0.05460
 Alpha virt. eigenvalues --    0.06239   0.06634   0.07185   0.07682   0.08246
 Alpha virt. eigenvalues --    0.08488   0.08665   0.08939   0.09625   0.10152
 Alpha virt. eigenvalues --    0.10728   0.11047   0.11492   0.11963   0.12413
 Alpha virt. eigenvalues --    0.12475   0.12799   0.13132   0.13423   0.14022
 Alpha virt. eigenvalues --    0.14247   0.14318   0.14642   0.14989   0.15307
 Alpha virt. eigenvalues --    0.15869   0.16091   0.16716   0.16982   0.17114
 Alpha virt. eigenvalues --    0.17358   0.17649   0.17727   0.17973   0.18511
 Alpha virt. eigenvalues --    0.18840   0.19134   0.19539   0.19765   0.20203
 Alpha virt. eigenvalues --    0.20236   0.20742   0.21143   0.21415   0.21728
 Alpha virt. eigenvalues --    0.21940   0.22316   0.22399   0.23084   0.23196
 Alpha virt. eigenvalues --    0.23417   0.23644   0.23991   0.24569   0.24801
 Alpha virt. eigenvalues --    0.24871   0.25165   0.25510   0.25820   0.25873
 Alpha virt. eigenvalues --    0.26528   0.26761   0.26785   0.27219   0.27563
 Alpha virt. eigenvalues --    0.27578   0.28130   0.28228   0.28468   0.29108
 Alpha virt. eigenvalues --    0.29300   0.29411   0.29601   0.30002   0.30386
 Alpha virt. eigenvalues --    0.31224   0.31274   0.31545   0.31738   0.32344
 Alpha virt. eigenvalues --    0.32863   0.33121   0.33383   0.33521   0.33758
 Alpha virt. eigenvalues --    0.34018   0.34594   0.35244   0.35393   0.35663
 Alpha virt. eigenvalues --    0.36135   0.36490   0.36988   0.37292   0.37438
 Alpha virt. eigenvalues --    0.37728   0.37970   0.38600   0.39408   0.39777
 Alpha virt. eigenvalues --    0.40293   0.40695   0.41114   0.41739   0.41933
 Alpha virt. eigenvalues --    0.42499   0.42747   0.43207   0.43384   0.44344
 Alpha virt. eigenvalues --    0.44590   0.45019   0.45540   0.46281   0.46504
 Alpha virt. eigenvalues --    0.47340   0.47787   0.48695   0.49132   0.49863
 Alpha virt. eigenvalues --    0.49921   0.51300   0.55358   0.57082   0.57821
 Alpha virt. eigenvalues --    0.59046   0.59335   0.60382   0.60540   0.61587
 Alpha virt. eigenvalues --    0.63033   0.63250   0.64374   0.65020   0.65463
 Alpha virt. eigenvalues --    0.66288   0.67454   0.67872   0.68562   0.70054
 Alpha virt. eigenvalues --    0.70354   0.70576   0.71093   0.72159   0.73277
 Alpha virt. eigenvalues --    0.73455   0.74214   0.74745   0.75527   0.76478
 Alpha virt. eigenvalues --    0.77106   0.77729   0.80073   0.80679   0.81169
 Alpha virt. eigenvalues --    0.81684   0.82620   0.83266   0.83711   0.84805
 Alpha virt. eigenvalues --    0.86613   0.87003   0.87672   0.88611   0.89242
 Alpha virt. eigenvalues --    0.89600   0.89972   0.90284   0.90704   0.90989
 Alpha virt. eigenvalues --    0.91886   0.92130   0.92779   0.93539   0.93922
 Alpha virt. eigenvalues --    0.94023   0.94745   0.95380   0.95810   0.96397
 Alpha virt. eigenvalues --    0.96738   0.97521   0.97559   0.98428   0.98632
 Alpha virt. eigenvalues --    0.98956   0.99509   1.00587   1.01548   1.02369
 Alpha virt. eigenvalues --    1.02609   1.03956   1.04170   1.05020   1.05327
 Alpha virt. eigenvalues --    1.05581   1.06196   1.06447   1.07010   1.07202
 Alpha virt. eigenvalues --    1.08545   1.08678   1.09488   1.10127   1.10662
 Alpha virt. eigenvalues --    1.11898   1.12161   1.12913   1.13599   1.14206
 Alpha virt. eigenvalues --    1.14327   1.14955   1.15672   1.16134   1.16540
 Alpha virt. eigenvalues --    1.17108   1.17314   1.18119   1.18563   1.19236
 Alpha virt. eigenvalues --    1.19623   1.20119   1.21030   1.21716   1.21813
 Alpha virt. eigenvalues --    1.22545   1.23245   1.23568   1.24551   1.24945
 Alpha virt. eigenvalues --    1.25029   1.26048   1.26547   1.26598   1.27755
 Alpha virt. eigenvalues --    1.28031   1.28639   1.29088   1.29824   1.31112
 Alpha virt. eigenvalues --    1.31800   1.32793   1.33323   1.33945   1.34029
 Alpha virt. eigenvalues --    1.34768   1.35718   1.35862   1.36561   1.36941
 Alpha virt. eigenvalues --    1.37324   1.38555   1.38837   1.39155   1.40322
 Alpha virt. eigenvalues --    1.40667   1.41289   1.41992   1.42122   1.43181
 Alpha virt. eigenvalues --    1.43447   1.45043   1.45191   1.46464   1.47240
 Alpha virt. eigenvalues --    1.47684   1.48152   1.49116   1.49749   1.50990
 Alpha virt. eigenvalues --    1.51524   1.52411   1.53708   1.54657   1.55814
 Alpha virt. eigenvalues --    1.56273   1.56759   1.57642   1.59288   1.59397
 Alpha virt. eigenvalues --    1.60405   1.61299   1.61904   1.62273   1.63568
 Alpha virt. eigenvalues --    1.63844   1.64819   1.66063   1.66249   1.66877
 Alpha virt. eigenvalues --    1.67917   1.68213   1.69980   1.70935   1.72087
 Alpha virt. eigenvalues --    1.72534   1.73256   1.74023   1.74828   1.75972
 Alpha virt. eigenvalues --    1.76532   1.77512   1.78179   1.79501   1.80386
 Alpha virt. eigenvalues --    1.81537   1.83361   1.83908   1.84536   1.85381
 Alpha virt. eigenvalues --    1.86357   1.86916   1.87907   1.88733   1.89716
 Alpha virt. eigenvalues --    1.91653   1.91944   1.92951   1.94868   1.95296
 Alpha virt. eigenvalues --    1.95911   1.97191   1.98345   1.98807   2.00988
 Alpha virt. eigenvalues --    2.01867   2.02453   2.03582   2.03983   2.04833
 Alpha virt. eigenvalues --    2.05929   2.08330   2.10718   2.11074   2.13161
 Alpha virt. eigenvalues --    2.13945   2.14527   2.15924   2.17943   2.19015
 Alpha virt. eigenvalues --    2.21027   2.22544   2.23006   2.24567   2.25039
 Alpha virt. eigenvalues --    2.27093   2.29243   2.30078   2.31757   2.32095
 Alpha virt. eigenvalues --    2.32426   2.35081   2.37282   2.38601   2.40643
 Alpha virt. eigenvalues --    2.43901   2.45134   2.46700   2.48408   2.50588
 Alpha virt. eigenvalues --    2.51015   2.51815   2.52700   2.54910   2.55711
 Alpha virt. eigenvalues --    2.56498   2.57030   2.58212   2.58815   2.60006
 Alpha virt. eigenvalues --    2.61882   2.62414   2.63193   2.63520   2.64056
 Alpha virt. eigenvalues --    2.65048   2.66550   2.67821   2.70451   2.71589
 Alpha virt. eigenvalues --    2.73255   2.75745   2.77137   2.77441   2.78989
 Alpha virt. eigenvalues --    2.80031   2.80350   2.82477   2.83047   2.84962
 Alpha virt. eigenvalues --    2.85042   2.86933   2.87433   2.88292   2.88926
 Alpha virt. eigenvalues --    2.89790   2.89899   2.90553   2.91475   2.93518
 Alpha virt. eigenvalues --    2.94098   2.95059   2.96319   2.96732   2.98500
 Alpha virt. eigenvalues --    2.99024   3.00572   3.00716   3.02432   3.02527
 Alpha virt. eigenvalues --    3.03195   3.04074   3.05636   3.06114   3.06939
 Alpha virt. eigenvalues --    3.08546   3.08838   3.09726   3.10726   3.12241
 Alpha virt. eigenvalues --    3.12999   3.14768   3.15226   3.16563   3.17875
 Alpha virt. eigenvalues --    3.18574   3.20522   3.21556   3.23123   3.23483
 Alpha virt. eigenvalues --    3.25129   3.25677   3.25947   3.27387   3.28140
 Alpha virt. eigenvalues --    3.28583   3.29706   3.31071   3.31801   3.33377
 Alpha virt. eigenvalues --    3.34489   3.36440   3.38070   3.38970   3.39717
 Alpha virt. eigenvalues --    3.41547   3.41684   3.42498   3.44154   3.44441
 Alpha virt. eigenvalues --    3.47492   3.48096   3.49109   3.50009   3.51154
 Alpha virt. eigenvalues --    3.52976   3.53104   3.54743   3.58215   3.61044
 Alpha virt. eigenvalues --    3.62690   3.63741   3.64556   3.65905   3.67897
 Alpha virt. eigenvalues --    3.68358   3.69528   3.71511   3.72989   3.73907
 Alpha virt. eigenvalues --    3.75166   3.76720   3.77477   3.78737   3.80368
 Alpha virt. eigenvalues --    3.81593   3.82800   3.83427   3.84368   3.85829
 Alpha virt. eigenvalues --    3.87971   3.88063   3.88709   3.90984   3.92416
 Alpha virt. eigenvalues --    3.95243   3.96094   3.99504   3.99863   4.02220
 Alpha virt. eigenvalues --    4.04331   4.07917   4.08463   4.11573   4.14964
 Alpha virt. eigenvalues --    4.16008   4.16775   4.17830   4.19841   4.20586
 Alpha virt. eigenvalues --    4.21866   4.22695   4.23872   4.25457   4.26930
 Alpha virt. eigenvalues --    4.26964   4.27861   4.29141   4.30007   4.30104
 Alpha virt. eigenvalues --    4.30894   4.32608   4.33824   4.33882   4.35625
 Alpha virt. eigenvalues --    4.36140   4.36468   4.37338   4.38716   4.39262
 Alpha virt. eigenvalues --    4.39931   4.40370   4.41838   4.42304   4.43779
 Alpha virt. eigenvalues --    4.44440   4.45724   4.46553   4.47449   4.48097
 Alpha virt. eigenvalues --    4.49025   4.49505   4.50465   4.51094   4.52360
 Alpha virt. eigenvalues --    4.52687   4.52763   4.54139   4.54575   4.55299
 Alpha virt. eigenvalues --    4.56007   4.56555   4.56846   4.58454   4.58973
 Alpha virt. eigenvalues --    4.59203   4.59837   4.61203   4.61531   4.61904
 Alpha virt. eigenvalues --    4.62154   4.62959   4.64668   4.65138   4.65571
 Alpha virt. eigenvalues --    4.65801   4.66022   4.67476   4.67559   4.68741
 Alpha virt. eigenvalues --    4.69326   4.69351   4.70179   4.70751   4.70990
 Alpha virt. eigenvalues --    4.71997   4.72662   4.74432   4.74797   4.75578
 Alpha virt. eigenvalues --    4.76398   4.76875   4.77949   4.78323   4.79217
 Alpha virt. eigenvalues --    4.80739   4.81032   4.81958   4.82654   4.83117
 Alpha virt. eigenvalues --    4.83935   4.84801   4.85027   4.85830   4.86261
 Alpha virt. eigenvalues --    4.86859   4.89128   4.89665   4.90461   4.91112
 Alpha virt. eigenvalues --    4.92315   4.92755   4.94226   4.94525   4.96028
 Alpha virt. eigenvalues --    4.97445   4.98343   4.98460   4.99683   5.01560
 Alpha virt. eigenvalues --    5.04040   5.04297   5.06977   5.09030   5.09679
 Alpha virt. eigenvalues --    5.10651   5.13012   5.13837   5.15935   5.18687
 Alpha virt. eigenvalues --    5.19153   5.19994   5.20259   5.22837   5.23578
 Alpha virt. eigenvalues --    5.24328   5.25246   5.26405   5.27493   5.28282
 Alpha virt. eigenvalues --    5.29835   5.30707   5.31395   5.32292   5.33378
 Alpha virt. eigenvalues --    5.34721   5.36125   5.37606   5.38209   5.39221
 Alpha virt. eigenvalues --    5.40148   5.40670   5.41911   5.42610   5.42893
 Alpha virt. eigenvalues --    5.43482   5.45542   5.45772   5.46117   5.47781
 Alpha virt. eigenvalues --    5.48811   5.49221   5.49948   5.50530   5.52276
 Alpha virt. eigenvalues --    5.53384   5.53739   5.55034   5.55888   5.57370
 Alpha virt. eigenvalues --    5.57949   5.59707   5.63638   5.63977   5.65387
 Alpha virt. eigenvalues --    5.67071   5.68824   5.71077   5.73048   5.76606
 Alpha virt. eigenvalues --    5.77248   5.78521   5.80431   5.81176   5.84789
 Alpha virt. eigenvalues --    5.87450   5.87622   5.88524   5.88841   5.89645
 Alpha virt. eigenvalues --    5.91262   5.92542   5.92886   5.93323   5.94288
 Alpha virt. eigenvalues --    5.95420   5.97447   5.97861   5.98862   6.00033
 Alpha virt. eigenvalues --    6.01134   6.02989   6.04665   6.05769   6.08965
 Alpha virt. eigenvalues --    6.10302   6.10595   6.11805   6.12270   6.14029
 Alpha virt. eigenvalues --    6.14456   6.17523   6.17926   6.19400   6.19943
 Alpha virt. eigenvalues --    6.23028   6.26691   6.29906   6.34229   6.36639
 Alpha virt. eigenvalues --    6.60423   6.68899   6.99299   7.05037   7.08806
 Alpha virt. eigenvalues --    7.13073   7.22444   7.25275   7.27694   7.32467
 Alpha virt. eigenvalues --    7.35340   7.41641   7.44384   7.53443   7.81907
 Alpha virt. eigenvalues --    7.90734   8.09714  12.02725  12.17661  12.28064
 Alpha virt. eigenvalues --   12.29640  12.44395  12.54933  12.79446  12.94191
 Alpha virt. eigenvalues --   12.96433  13.08825  13.28787  13.36305  13.42063
 Alpha virt. eigenvalues --   13.45298  13.50244  13.59413  13.61723  13.65598
 Alpha virt. eigenvalues --   13.70064  13.79312  14.06223  14.12669  14.27169
          Condensed to atoms (all electrons):
              1          2          3          4          5          6
     1  O    8.070834   0.302082  -0.112589  -0.023011   0.023800   0.030084
     2  C    0.302082   7.486414  -0.448173   0.054778  -0.057252  -1.245981
     3  C   -0.112589  -0.448173   6.909837   0.265298  -0.012496   0.295849
     4  O   -0.023011   0.054778   0.265298   8.066325   0.241156  -0.162090
     5  H    0.023800  -0.057252  -0.012496   0.241156   0.415899   0.027262
     6  C    0.030084  -1.245981   0.295849  -0.162090   0.027262   7.760205
     7  O   -0.000403   0.018190  -0.130619   0.009364  -0.000482   0.330353
     8  H    0.000009  -0.002648   0.019361  -0.000339   0.000011   0.017391
     9  C   -0.011294  -0.178322  -0.259924   0.006290  -0.002125   0.248055
    10  O   -0.005588   0.043752   0.012296  -0.000085  -0.000034  -0.000526
    11  H    0.001476  -0.010928  -0.000286   0.000001   0.000000   0.000263
    12  C   -0.089933  -1.073429  -0.154520   0.007032   0.018077   0.253155
    13  O    0.003583  -0.064907  -0.027337  -0.001672  -0.000001   0.017950
    14  C   -0.014423   0.751282  -0.275641   0.011232   0.001799  -1.453097
    15  O   -0.000082  -0.004494  -0.021845   0.000605   0.000001  -0.036808
    16  C   -0.000163   0.132948  -0.064288  -0.000086   0.000174  -0.148546
    17  C    0.000151  -0.072873   0.001221   0.000067   0.000043  -0.000277
    18  O    0.000052   0.009173   0.001121  -0.000006   0.000000  -0.009569
    19  H   -0.000042   0.001187   0.000640   0.000005   0.000000  -0.000925
    20  C    0.000062   0.009375  -0.013880   0.000008   0.000001   0.029485
    21  O    0.000000   0.000000  -0.000004   0.000000   0.000000   0.000387
    22  H    0.000000   0.000000   0.000001   0.000000   0.000000  -0.000029
    23  C   -0.000059   0.011526   0.013712   0.000139  -0.000016  -0.091871
    24  O    0.000004  -0.000791  -0.017237  -0.000041  -0.000001   0.011569
    25  H    0.000000  -0.000006   0.001573   0.000003   0.000000   0.002922
    26  C    0.000096  -0.016263  -0.016983  -0.000241   0.000022   0.048659
    27  O    0.000000   0.000067   0.000042   0.000000   0.000000   0.001578
    28  C    0.000002   0.000537  -0.002905   0.000004   0.000000   0.000276
    29  O    0.000000  -0.000001   0.000028   0.000000   0.000000  -0.000232
    30  H    0.000000   0.000000   0.000000   0.000000   0.000000   0.000006
    31  H    0.000000   0.000005  -0.000003   0.000000   0.000000  -0.000065
    32  H    0.000000  -0.000082   0.000758   0.000000   0.000000  -0.002224
    33  H    0.000000   0.000096  -0.000038   0.000000   0.000000   0.000490
    34  H    0.000000  -0.000518   0.001536   0.000000   0.000000   0.004278
    35  H    0.000000  -0.002781   0.005146   0.000001   0.000000   0.004065
    36  H    0.000000  -0.000005  -0.000088   0.000000   0.000000  -0.000198
    37  H    0.000000   0.000058   0.000311   0.000000   0.000000  -0.003558
    38  H    0.000094  -0.027915  -0.025256   0.000193   0.000003   0.032737
    39  H    0.000234  -0.010248  -0.107529   0.002218  -0.000162   0.383083
    40  H    0.000767   0.008201   0.263922  -0.022415  -0.001742  -0.157875
    41  H   -0.009695   0.333554  -0.065029   0.001354  -0.000166  -0.003683
    42  H    0.004637   0.105221  -0.065033   0.000188   0.000003  -0.012262
    43  H    0.000149   0.001421   0.002819   0.000002   0.000000  -0.001670
    44  H    0.000260  -0.003331  -0.006993  -0.000029   0.000000   0.010704
    45  H    0.275644   0.036356  -0.024826   0.001063  -0.002859   0.003737
              7          8          9         10         11         12
     1  O   -0.000403   0.000009  -0.011294  -0.005588   0.001476  -0.089933
     2  C    0.018190  -0.002648  -0.178322   0.043752  -0.010928  -1.073429
     3  C   -0.130619   0.019361  -0.259924   0.012296  -0.000286  -0.154520
     4  O    0.009364  -0.000339   0.006290  -0.000085   0.000001   0.007032
     5  H   -0.000482   0.000011  -0.002125  -0.000034   0.000000   0.018077
     6  C    0.330353   0.017391   0.248055  -0.000526   0.000263   0.253155
     7  O    8.086244   0.254732  -0.000474  -0.000002   0.000000   0.006723
     8  H    0.254732   0.343123  -0.000271   0.000000   0.000000  -0.003874
     9  C   -0.000474  -0.000271   7.311348   0.166278  -0.010592  -1.391845
    10  O   -0.000002   0.000000   0.166278   8.137526   0.241271  -0.069423
    11  H    0.000000   0.000000  -0.010592   0.241271   0.421503   0.020060
    12  C    0.006723  -0.003874  -1.391845  -0.069423   0.020060   9.642390
    13  O    0.002485  -0.000317  -0.013461   0.001162  -0.000749   0.015130
    14  C   -0.042639  -0.055700  -0.521192   0.004590  -0.003298  -0.916952
    15  O    0.004504   0.006029  -0.001791   0.000081  -0.000003  -0.010951
    16  C   -0.003747   0.011905  -0.133930  -0.000314  -0.000094   0.031016
    17  C   -0.000229   0.001159   0.047488  -0.000112  -0.000021  -0.092679
    18  O    0.000138  -0.000014  -0.010126  -0.000093  -0.000004   0.002374
    19  H   -0.000063  -0.000001  -0.001876   0.000017  -0.000007  -0.006188
    20  C    0.000729   0.000425   0.005819   0.000006   0.000002  -0.024181
    21  O    0.000000   0.000000   0.000049   0.000000   0.000000   0.000007
    22  H    0.000000   0.000000  -0.000004   0.000000   0.000000   0.000020
    23  C    0.005538  -0.004722  -0.002446   0.000002   0.000000   0.006510
    24  O   -0.033070   0.014197   0.000210   0.000000   0.000000   0.002269
    25  H    0.001320  -0.002150  -0.000012   0.000000   0.000000  -0.000192
    26  C   -0.009100  -0.001555   0.009671   0.000023  -0.000001  -0.013108
    27  O   -0.000083  -0.000055   0.000057   0.000000   0.000000   0.000160
    28  C    0.000087   0.000040  -0.000906  -0.000001   0.000000   0.003775
    29  O   -0.000001   0.000000  -0.000005   0.000000   0.000000   0.000082
    30  H    0.000000   0.000000   0.000000   0.000000   0.000000  -0.000002
    31  H    0.000000   0.000000  -0.000003   0.000000   0.000000   0.000059
    32  H   -0.000190  -0.000013   0.000097   0.000000   0.000000   0.000712
    33  H    0.000001   0.000000  -0.000131   0.000000   0.000000   0.000457
    34  H   -0.000025   0.000000  -0.000627   0.000000   0.000000   0.000424
    35  H   -0.001006  -0.000025   0.000380   0.000000   0.000000   0.001597
    36  H   -0.000330   0.000137   0.000000   0.000000   0.000000   0.000053
    37  H    0.000636   0.000003   0.000000   0.000000   0.000000  -0.000093
    38  H   -0.000749  -0.000083   0.020495   0.000076   0.000000   0.073113
    39  H   -0.031006  -0.005549   0.018024   0.000017   0.000000   0.083075
    40  H    0.006091  -0.000120   0.013403  -0.000104   0.000000   0.070298
    41  H    0.000829   0.000004  -0.014730  -0.001619  -0.000016  -0.063519
    42  H    0.000202   0.000001   0.060082   0.002330  -0.000275   0.042238
    43  H   -0.000009   0.000000   0.377182  -0.012041  -0.012754  -0.033788
    44  H    0.000006   0.000000   0.616338  -0.053618   0.001706  -0.245434
    45  H   -0.000011   0.000000   0.008065  -0.000955  -0.000044  -0.031194
             13         14         15         16         17         18
     1  O    0.003583  -0.014423  -0.000082  -0.000163   0.000151   0.000052
     2  C   -0.064907   0.751282  -0.004494   0.132948  -0.072873   0.009173
     3  C   -0.027337  -0.275641  -0.021845  -0.064288   0.001221   0.001121
     4  O   -0.001672   0.011232   0.000605  -0.000086   0.000067  -0.000006
     5  H   -0.000001   0.001799   0.000001   0.000174   0.000043   0.000000
     6  C    0.017950  -1.453097  -0.036808  -0.148546  -0.000277  -0.009569
     7  O    0.002485  -0.042639   0.004504  -0.003747  -0.000229   0.000138
     8  H   -0.000317  -0.055700   0.006029   0.011905   0.001159  -0.000014
     9  C   -0.013461  -0.521192  -0.001791  -0.133930   0.047488  -0.010126
    10  O    0.001162   0.004590   0.000081  -0.000314  -0.000112  -0.000093
    11  H   -0.000749  -0.003298  -0.000003  -0.000094  -0.000021  -0.000004
    12  C    0.015130  -0.916952  -0.010951   0.031016  -0.092679   0.002374
    13  O    7.905465   0.262218  -0.005159  -0.025146   0.056709  -0.041658
    14  C    0.262218   8.206114   0.244834  -0.825580   0.413361   0.033945
    15  O   -0.005159   0.244834   7.819630   0.274249  -0.090263  -0.004562
    16  C   -0.025146  -0.825580   0.274249  10.475735  -2.410887  -0.062105
    17  C    0.056709   0.413361  -0.090263  -2.410887   8.607726   0.278776
    18  O   -0.041658   0.033945  -0.004562  -0.062105   0.278776   8.115099
    19  H    0.037956  -0.016548   0.004221  -0.023375   0.002266   0.242864
    20  C   -0.018894  -0.265578   0.041281  -0.738029  -0.526873  -0.076486
    21  O    0.000044   0.002277  -0.000352   0.109573  -0.054611   0.005922
    22  H    0.000000  -0.000692  -0.000010  -0.014899  -0.008020  -0.000394
    23  C    0.000143   0.104644   0.025668   0.154984  -0.277647   0.008530
    24  O   -0.001251   0.044852  -0.027352   0.004684   0.001433  -0.000003
    25  H   -0.000014  -0.008410   0.001989  -0.012484  -0.001338   0.000000
    26  C   -0.023979  -0.172463  -0.114068  -1.988621   0.406563   0.004037
    27  O    0.000001   0.006090   0.002864   0.146450  -0.120943  -0.000661
    28  C    0.001577  -0.031725  -0.008199   0.894153  -0.359067  -0.000550
    29  O    0.000015   0.002230  -0.000014  -0.020558  -0.025043   0.000288
    30  H    0.000000   0.000021   0.000003  -0.000773   0.012220  -0.000014
    31  H    0.000009   0.000545   0.000210   0.035419   0.006154   0.000298
    32  H   -0.000450   0.032964   0.001424  -0.018276  -0.027169   0.000331
    33  H    0.000095  -0.004191   0.000262   0.095321  -0.163733   0.007419
    34  H   -0.000438   0.013325  -0.001616  -0.122936   0.378963  -0.024333
    35  H   -0.002543   0.010586  -0.011790   0.085260   0.060484  -0.001809
    36  H    0.000017   0.005013   0.000489   0.001386   0.006357   0.000008
    37  H    0.000025   0.001206   0.002322   0.066533  -0.003556   0.000079
    38  H   -0.043290   0.215934  -0.007859  -0.015766   0.004564  -0.001377
    39  H    0.008302  -0.070411  -0.008852  -0.033497   0.008517   0.000095
    40  H    0.005078   0.046076   0.000967  -0.006161   0.002893   0.000053
    41  H    0.006983   0.071571  -0.000162  -0.002478   0.001904   0.000022
    42  H   -0.023351   0.129290  -0.001461  -0.003233   0.006910  -0.000114
    43  H   -0.002488   0.002687   0.000031   0.003039   0.000523  -0.000569
    44  H   -0.007115  -0.005950  -0.000756  -0.005944   0.003934  -0.000137
    45  H   -0.000678  -0.001002  -0.000001   0.000110  -0.000066  -0.000001
             19         20         21         22         23         24
     1  O   -0.000042   0.000062   0.000000   0.000000  -0.000059   0.000004
     2  C    0.001187   0.009375   0.000000   0.000000   0.011526  -0.000791
     3  C    0.000640  -0.013880  -0.000004   0.000001   0.013712  -0.017237
     4  O    0.000005   0.000008   0.000000   0.000000   0.000139  -0.000041
     5  H    0.000000   0.000001   0.000000   0.000000  -0.000016  -0.000001
     6  C   -0.000925   0.029485   0.000387  -0.000029  -0.091871   0.011569
     7  O   -0.000063   0.000729   0.000000   0.000000   0.005538  -0.033070
     8  H   -0.000001   0.000425   0.000000   0.000000  -0.004722   0.014197
     9  C   -0.001876   0.005819   0.000049  -0.000004  -0.002446   0.000210
    10  O    0.000017   0.000006   0.000000   0.000000   0.000002   0.000000
    11  H   -0.000007   0.000002   0.000000   0.000000   0.000000   0.000000
    12  C   -0.006188  -0.024181   0.000007   0.000020   0.006510   0.002269
    13  O    0.037956  -0.018894   0.000044   0.000000   0.000143  -0.001251
    14  C   -0.016548  -0.265578   0.002277  -0.000692   0.104644   0.044852
    15  O    0.004221   0.041281  -0.000352  -0.000010   0.025668  -0.027352
    16  C   -0.023375  -0.738029   0.109573  -0.014899   0.154984   0.004684
    17  C    0.002266  -0.526873  -0.054611  -0.008020  -0.277647   0.001433
    18  O    0.242864  -0.076486   0.005922  -0.000394   0.008530  -0.000003
    19  H    0.354359   0.016087  -0.000315   0.000016  -0.001911   0.000003
    20  C    0.016087   7.599887   0.051718  -0.006535   0.062349  -0.005667
    21  O   -0.000315   0.051718   8.139027   0.234406   0.002928   0.000003
    22  H    0.000016  -0.006535   0.234406   0.432652  -0.000417   0.000000
    23  C   -0.001911   0.062349   0.002928  -0.000417   6.206505   0.053567
    24  O    0.000003  -0.005667   0.000003   0.000000   0.053567   8.200590
    25  H    0.000000   0.000886   0.000000   0.000000  -0.036786   0.247651
    26  C    0.000788   0.624218  -0.057807   0.008396  -0.766289   0.039741
    27  O    0.000062  -0.164027   0.006522  -0.000060  -0.098326   0.005231
    28  C    0.002395  -0.849131   0.047916   0.011977  -0.101857   0.006698
    29  O   -0.000002   0.041288  -0.015293   0.011394   0.019909   0.000020
    30  H    0.000000  -0.030245  -0.000540  -0.001917  -0.000480  -0.000002
    31  H    0.000005  -0.114291  -0.001892  -0.001238  -0.001640   0.000003
    32  H    0.000014  -0.021283  -0.000087   0.000008   0.083859   0.002981
    33  H   -0.000159   0.306373  -0.013265  -0.004375   0.007840   0.000000
    34  H   -0.004067  -0.062156   0.002104  -0.000180   0.011680  -0.000042
    35  H    0.000118   0.032775  -0.000329   0.000009  -0.012153   0.000976
    36  H    0.000000  -0.004939  -0.000005   0.000000   0.384212  -0.024395
    37  H    0.000000  -0.001203  -0.000002   0.000000   0.559151  -0.048690
    38  H   -0.000009   0.015168   0.000004   0.000000   0.000858   0.000103
    39  H   -0.000013   0.000930   0.000000   0.000000   0.000270   0.000231
    40  H   -0.000001   0.000097   0.000000   0.000000   0.000192   0.000013
    41  H   -0.000016   0.000036   0.000000   0.000000   0.000004   0.000004
    42  H   -0.000445   0.000840  -0.000001   0.000000  -0.000106  -0.000001
    43  H    0.002404  -0.000557   0.000001   0.000000  -0.000006   0.000000
    44  H   -0.000040   0.000199   0.000000   0.000000  -0.000042   0.000000
    45  H    0.000000   0.000000   0.000000   0.000000   0.000002   0.000000
             25         26         27         28         29         30
     1  O    0.000000   0.000096   0.000000   0.000002   0.000000   0.000000
     2  C   -0.000006  -0.016263   0.000067   0.000537  -0.000001   0.000000
     3  C    0.001573  -0.016983   0.000042  -0.002905   0.000028   0.000000
     4  O    0.000003  -0.000241   0.000000   0.000004   0.000000   0.000000
     5  H    0.000000   0.000022   0.000000   0.000000   0.000000   0.000000
     6  C    0.002922   0.048659   0.001578   0.000276  -0.000232   0.000006
     7  O    0.001320  -0.009100  -0.000083   0.000087  -0.000001   0.000000
     8  H   -0.002150  -0.001555  -0.000055   0.000040   0.000000   0.000000
     9  C   -0.000012   0.009671   0.000057  -0.000906  -0.000005   0.000000
    10  O    0.000000   0.000023   0.000000  -0.000001   0.000000   0.000000
    11  H    0.000000  -0.000001   0.000000   0.000000   0.000000   0.000000
    12  C   -0.000192  -0.013108   0.000160   0.003775   0.000082  -0.000002
    13  O   -0.000014  -0.023979   0.000001   0.001577   0.000015   0.000000
    14  C   -0.008410  -0.172463   0.006090  -0.031725   0.002230   0.000021
    15  O    0.001989  -0.114068   0.002864  -0.008199  -0.000014   0.000003
    16  C   -0.012484  -1.988621   0.146450   0.894153  -0.020558  -0.000773
    17  C   -0.001338   0.406563  -0.120943  -0.359067  -0.025043   0.012220
    18  O    0.000000   0.004037  -0.000661  -0.000550   0.000288  -0.000014
    19  H    0.000000   0.000788   0.000062   0.002395  -0.000002   0.000000
    20  C    0.000886   0.624218  -0.164027  -0.849131   0.041288  -0.030245
    21  O    0.000000  -0.057807   0.006522   0.047916  -0.015293  -0.000540
    22  H    0.000000   0.008396  -0.000060   0.011977   0.011394  -0.001917
    23  C   -0.036786  -0.766289  -0.098326  -0.101857   0.019909  -0.000480
    24  O    0.247651   0.039741   0.005231   0.006698   0.000020  -0.000002
    25  H    0.410064   0.043757  -0.000986  -0.001089  -0.000005   0.000000
    26  C    0.043757   8.989084   0.043368  -0.855286  -0.027898  -0.005217
    27  O   -0.000986   0.043368   8.015530   0.321942  -0.096800  -0.001170
    28  C   -0.001089  -0.855286   0.321942   6.254728   0.285129   0.011550
    29  O   -0.000005  -0.027898  -0.096800   0.285129   8.031978   0.270163
    30  H    0.000000  -0.005217  -0.001170   0.011550   0.270163   0.416097
    31  H    0.000000  -0.007634  -0.036140   0.423042  -0.018577  -0.008129
    32  H   -0.000236   0.165986  -0.018466   0.046248  -0.000531   0.000026
    33  H    0.000000  -0.001527   0.004669   0.033230  -0.002677  -0.000005
    34  H    0.000000   0.073116   0.002044  -0.024445   0.000572   0.000006
    35  H   -0.000018   0.085493   0.002068  -0.004939  -0.000352   0.000003
    36  H   -0.008375  -0.026711  -0.005468   0.002689  -0.000174  -0.000001
    37  H   -0.001347  -0.271914   0.001442   0.005472  -0.000194   0.000000
    38  H    0.000006   0.013518   0.000148  -0.000592  -0.000003   0.000000
    39  H   -0.000004  -0.001941   0.000003   0.000038   0.000000   0.000000
    40  H    0.000000  -0.000880   0.000000  -0.000003   0.000000   0.000000
    41  H    0.000000  -0.000069   0.000000  -0.000005   0.000000   0.000000
    42  H    0.000000   0.000335   0.000001  -0.000012   0.000000   0.000000
    43  H    0.000000   0.000106   0.000000   0.000051   0.000000   0.000000
    44  H    0.000000  -0.000018   0.000000  -0.000003   0.000000   0.000000
    45  H    0.000000  -0.000006   0.000000   0.000000   0.000000   0.000000
             31         32         33         34         35         36
     1  O    0.000000   0.000000   0.000000   0.000000   0.000000   0.000000
     2  C    0.000005  -0.000082   0.000096  -0.000518  -0.002781  -0.000005
     3  C   -0.000003   0.000758  -0.000038   0.001536   0.005146  -0.000088
     4  O    0.000000   0.000000   0.000000   0.000000   0.000001   0.000000
     5  H    0.000000   0.000000   0.000000   0.000000   0.000000   0.000000
     6  C   -0.000065  -0.002224   0.000490   0.004278   0.004065  -0.000198
     7  O    0.000000  -0.000190   0.000001  -0.000025  -0.001006  -0.000330
     8  H    0.000000  -0.000013   0.000000   0.000000  -0.000025   0.000137
     9  C   -0.000003   0.000097  -0.000131  -0.000627   0.000380   0.000000
    10  O    0.000000   0.000000   0.000000   0.000000   0.000000   0.000000
    11  H    0.000000   0.000000   0.000000   0.000000   0.000000   0.000000
    12  C    0.000059   0.000712   0.000457   0.000424   0.001597   0.000053
    13  O    0.000009  -0.000450   0.000095  -0.000438  -0.002543   0.000017
    14  C    0.000545   0.032964  -0.004191   0.013325   0.010586   0.005013
    15  O    0.000210   0.001424   0.000262  -0.001616  -0.011790   0.000489
    16  C    0.035419  -0.018276   0.095321  -0.122936   0.085260   0.001386
    17  C    0.006154  -0.027169  -0.163733   0.378963   0.060484   0.006357
    18  O    0.000298   0.000331   0.007419  -0.024333  -0.001809   0.000008
    19  H    0.000005   0.000014  -0.000159  -0.004067   0.000118   0.000000
    20  C   -0.114291  -0.021283   0.306373  -0.062156   0.032775  -0.004939
    21  O   -0.001892  -0.000087  -0.013265   0.002104  -0.000329  -0.000005
    22  H   -0.001238   0.000008  -0.004375  -0.000180   0.000009   0.000000
    23  C   -0.001640   0.083859   0.007840   0.011680  -0.012153   0.384212
    24  O    0.000003   0.002981   0.000000  -0.000042   0.000976  -0.024395
    25  H    0.000000  -0.000236   0.000000   0.000000  -0.000018  -0.008375
    26  C   -0.007634   0.165986  -0.001527   0.073116   0.085493  -0.026711
    27  O   -0.036140  -0.018466   0.004669   0.002044   0.002068  -0.005468
    28  C    0.423042   0.046248   0.033230  -0.024445  -0.004939   0.002689
    29  O   -0.018577  -0.000531  -0.002677   0.000572  -0.000352  -0.000174
    30  H   -0.008129   0.000026  -0.000005   0.000006   0.000003  -0.000001
    31  H    0.563622   0.002612   0.003851   0.001386  -0.000069  -0.000027
    32  H    0.002612   0.611519  -0.000097   0.002301   0.005687  -0.003601
    33  H    0.003851  -0.000097   0.575552   0.005709   0.000695   0.000001
    34  H    0.001386   0.002301   0.005709   0.606643   0.005762   0.000004
    35  H   -0.000069   0.005687   0.000695   0.005762   0.602183   0.000049
    36  H   -0.000027  -0.003601   0.000001   0.000004   0.000049   0.566477
    37  H   -0.000013   0.005693  -0.000015  -0.000005   0.003213  -0.044573
    38  H    0.000000  -0.000003  -0.000005  -0.000046   0.005162   0.000000
    39  H    0.000000   0.000001   0.000000  -0.000008   0.000001   0.000000
    40  H    0.000000   0.000000   0.000000   0.000000   0.000000   0.000000
    41  H    0.000000   0.000000   0.000000   0.000000   0.000000   0.000000
    42  H    0.000000   0.000000   0.000000  -0.000002  -0.000002   0.000000
    43  H    0.000000   0.000000   0.000000   0.000000   0.000000   0.000000
    44  H    0.000000   0.000000   0.000000   0.000000   0.000000   0.000000
    45  H    0.000000   0.000000   0.000000   0.000000   0.000000   0.000000
             37         38         39         40         41         42
[...]
 3,-0.02300417,0.02701393,-0.01024517,-0.00429237,-0.01305017,0.0001005
 9,0.00185550,0.00115467,0.00054718,-0.00007573,-0.00035507,-0.00018518
 ,-0.00007612,0.00015827,0.00000825,0.00005275,0.00002278,0.00023570,0.
 00014127,-0.00034498,-0.00040679,-0.00045615,0.00046617,-0.00002829,-0
 .00002998,0.00001977,0.00001577,0.00002639,-0.00002166,-0.00000709,-0.
 00000563,-0.00000217,-0.00002644,0.00000288,0.00002073,0.00001389,-0.0
 0000854,-0.00002936,-0.00000439,0.00000177,-0.00000228,0.00002205,0.00
 002041,0.00001897,0.00000463,0.00000833,-0.00005833,-0.00000302,-0.000
 01017,0.00004105,0.00002158,0.00000349,-0.00004533,-0.00000126,-0.0000
 0150,0.00000573,0.00000237,0.00000219,-0.00000034,0.00000876,0.0000005
 6,0.00000654,0.00000659,0.00000186,-0.00001553,0.00002898,0.00001155,0
 .00004203,0.00002859,-0.00001225,-0.00002377,0.00000098,-0.00000479,-0
 .00000560,0.00000723,0.00000003,0.00000123,0.00040905,-0.00133727,-0.0
 0078405,0.00007162,0.00015372,0.00010835,0.00075854,-0.00054071,-0.000
 20787,0.00061758,-0.00130432,0.00057299,0.37732674,0.00159931,0.000724
 98,-0.00151925,-0.02784006,-0.00421495,0.00541472,-0.00155483,0.001635
 73,-0.00003045,0.00079296,-0.00021372,-0.00005221,-0.00012963,0.000060
 34,-0.00006170,0.00001316,-0.00030992,0.00006565,0.00008271,-0.0001355
 3,-0.00006712,-0.00000064,-0.00000385,0.00001528,0.03529727,-0.0009504
 9,-0.00222836,-0.00240489,0.00181128,0.00069792,0.00004016,0.00012086,
 0.00009077,-0.02258227,-0.04728246,0.00448150,-0.01037440,-0.00090396,
 -0.00732173,-0.00312973,0.00156969,0.00066918,0.00044517,-0.00012609,-
 0.00014438,0.00001484,-0.00001597,-0.00003936,0.00003131,0.00012396,0.
 00009600,-0.00009169,-0.00004160,-0.00025258,0.00017797,-0.00015282,0.
 00026814,-0.00000600,-0.00002630,-0.00000214,-0.00001236,0.00000301,-0
 .00000770,0.00000351,-0.00000041,0.00000157,-0.00001277,0.00000046,-0.
 00000621,0.00000491,-0.00000104,-0.00000588,-0.00000260,-0.00000045,0.
 00000142,0.00002010,-0.00000592,0.00000550,-0.00000190,-0.00001105,-0.
 00000004,0.00000380,0.00002607,0.00000665,0.00000068,-0.00000642,-0.00
 001330,0.00000137,-0.00000059,0.00000085,-0.00000104,-0.00000292,-0.00
 000245,0.00000076,0.00000059,0.00000269,-0.00000215,0.00000398,0.00000
 313,-0.00001521,-0.00002468,-0.00001144,0.00000944,0.00000701,-0.00003
 181,0.00000255,-0.00000212,-0.00000079,0.00000282,-0.00000090,-0.00000
 215,0.00053028,0.00029465,0.00007711,0.00020543,0.00009854,0.00000420,
 0.00070494,-0.00041816,0.00010171,-0.00083660,-0.00308661,0.00309458,0
 .02654414,0.05539144,-0.00084962,-0.00081729,0.00221034,0.02476407,0.0
 0468490,-0.00151808,0.00058141,-0.00125832,0.00008603,-0.00065827,0.00
 032110,-0.00001804,0.00019338,-0.00004610,0.00008062,0.00036037,-0.000
 22506,-0.00043400,0.00001297,-0.00024439,0.00026845,0.00000363,0.00008
 005,-0.00000738,0.00798696,0.00121573,0.00150010,-0.00069917,0.0007167
 7,0.00049546,0.00000813,0.00003658,0.00001194,0.03095679,0.00303837,-0
 .04199614,-0.04227303,-0.01064950,-0.01586926,-0.00385777,0.00403886,0
 .00240900,0.00066055,-0.00017162,-0.00082892,-0.00005911,-0.00017015,0
 .00028349,-0.00004505,-0.00007076,-0.00002067,0.00030560,0.00015794,-0
 .00008589,-0.00058110,-0.00047142,0.00040879,0.00000067,-0.00001849,0.
 00003609,0.00000069,0.00004182,-0.00002703,-0.00000426,-0.00000367,-0.
 00000184,-0.00000279,0.00002382,0.00000974,-0.00000655,-0.00003079,0.0
 0000479,0.00000386,0.00000067,-0.00000922,0.00003297,0.00004242,0.0000
 3348,-0.00001196,0.00001732,-0.00007549,0.00000673,-0.00003893,0.00004
 333,0.00001416,0.00000981,-0.00003514,-0.00000006,-0.00000139,0.000004
 38,-0.00000037,0.00000327,-0.00000193,0.00000284,0.00000034,0.00000405
 ,0.00000311,0.00000225,-0.00001670,0.00004027,0.00001398,0.00004843,0.
 00003490,0.00000229,-0.00008293,-0.00000141,-0.00000706,-0.00000305,0.
 00000096,0.00000042,0.00000388,0.00112442,-0.00001993,0.00005131,0.000
 01635,0.00004784,-0.00016072,-0.00047765,0.00036442,0.00019846,0.00078
 267,0.00341936,-0.00309418,-0.01796254,-0.00207571,0.05505102,0.000061
 15,-0.00028248,0.00014737,-0.00107547,0.00217889,0.00181771,0.00073254
 ,0.00016239,-0.00065270,-0.00008320,0.00046185,-0.00007403,0.00000330,
 -0.00000554,0.00005408,-0.00006619,-0.00001688,-0.00004193,0.00001751,
 -0.00002243,0.00000928,-0.00000135,0.00000615,0.00001374,-0.07115724,-
 0.05332959,0.06808072,0.00482192,0.00532097,-0.01527972,0.00188411,0.0
 0108742,0.00053161,0.00350496,0.01381313,-0.01215203,0.00041650,-0.001
 74596,-0.00079351,-0.00016709,0.00014876,-0.00006122,-0.00005392,-0.00
 002951,-0.00019825,0.00000683,-0.00005081,0.00010206,-0.00010871,-0.00
 012401,-0.00007505,-0.00021895,0.00030629,0.00012330,0.00059389,-0.000
 45679,-0.00010895,0.00004048,0.00001515,0.00001868,-0.00002015,0.00002
 620,0.00000838,0.00000116,0.00000224,-0.00000070,0.00000183,-0.0000097
 1,0.00002261,0.00000252,0.00000962,-0.00001572,0.00000078,-0.00000183,
 0.00000083,-0.00000037,0.00001630,-0.00000711,-0.00001215,0.00003558,-
 0.00001898,0.00000829,-0.00006244,-0.00000970,-0.00000881,0.00001727,0
 .00002086,0.00000041,-0.00000186,-0.00000367,-0.00000285,0.00000220,-0
 .00000014,-0.00000263,-0.00000221,-0.00000135,-0.00000609,0.00000253,0
 .00000336,0.00000150,-0.00002541,-0.00002485,-0.00000411,0.00000901,-0
 .00000606,-0.00000035,0.00000431,-0.00000174,-0.00000099,0.00000176,-0
 .00000068,-0.00001002,0.00002938,0.00000398,0.00001938,0.00000716,0.00
 001182,-0.00002057,-0.00010090,-0.00001722,0.00030164,0.00034005,-0.00
 014635,0.00092835,-0.00067884,-0.00077796,0.06779820,0.00001013,0.0005
 6668,0.00011732,0.00321533,-0.00441891,-0.00412615,-0.00079957,0.00034
 562,0.00165037,0.00017149,-0.00118238,0.00018771,-0.00009140,0.0001212
 7,-0.00018248,-0.00000710,0.00023614,0.00053733,-0.00000295,0.00000721
 ,-0.00034605,0.00001659,-0.00003782,0.00010898,-0.05019414,-0.15749917
 ,0.14706805,0.00151669,0.00684727,-0.02424895,0.00058974,0.00360774,-0
 .00136554,-0.00875306,-0.02179439,0.02385514,-0.00000411,0.00265388,0.
 00051783,0.00015366,-0.00011348,-0.00009675,0.00002048,0.00006381,-0.0
 0031820,-0.00001460,-0.00003269,0.00018431,-0.00024471,-0.00049104,-0.
 00032352,0.00021594,0.00073901,0.00050069,-0.00018268,-0.00103302,-0.0
 0107502,0.00005156,0.00013507,0.00001896,0.00002286,-0.00001133,0.0000
 4335,-0.00000684,0.00000723,-0.00000659,-0.00002093,-0.00006296,0.0000
 8963,0.00001207,0.00006011,-0.00012022,0.00000369,-0.00000327,0.000018
 53,-0.00001911,0.00001060,-0.00004868,-0.00000881,0.00007788,-0.000017
 39,-0.00000400,-0.00014761,-0.00004687,-0.00001389,0.00003656,0.000076
 30,-0.00000324,0.00000129,-0.00000867,0.00000077,0.00001118,0.00000800
 ,0.00000087,-0.00000117,0.00000394,0.00000203,-0.00000874,-0.00001064,
 0.00006307,0.00004748,0.00003406,0.00000417,-0.00000535,-0.00001424,0.
 00000315,0.00002091,-0.00001009,0.00000460,0.00000349,-0.00000426,-0.0
 0002732,0.00001578,0.00001832,-0.00000354,-0.00000822,-0.00001873,0.00
 013098,-0.00007316,-0.00008160,0.00008498,0.00032604,-0.00022032,0.000
 12505,0.00144981,0.00004200,0.05373296,0.16948875,0.00003033,0.0004215
 4,0.00014633,-0.00015543,-0.00152565,-0.00040552,-0.00000636,-0.000074
 23,0.00021678,0.00001670,-0.00013502,0.00010632,-0.00000957,-0.0000532
 9,-0.00003245,0.00007178,-0.00002989,-0.00011296,-0.00000935,-0.000051
 48,0.00004497,0.00000547,0.00001750,-0.00000118,0.06445456,0.14095759,
 -0.21479767,0.00164021,0.00432075,-0.04080062,-0.00027156,0.00105381,0
 .00087003,0.00003564,-0.00163928,0.00225607,0.00033934,-0.00125093,0.0
 0109995,-0.00023346,-0.00002751,0.00049203,-0.00001627,0.00002933,-0.0
 0001689,0.00001606,0.00001963,0.00002492,0.00002409,0.00006812,-0.0000
 3858,0.00000579,-0.00018676,-0.00022650,-0.00002332,-0.00005440,-0.000
 00517,-0.00001580,-0.00001384,-0.00001451,-0.00000399,-0.00001146,-0.0
 0001174,0.00000306,0.00000288,0.00000426,0.00000379,0.00001131,-0.0000
 0841,-0.00000609,-0.00001327,0.00000788,0.00000172,0.00000288,-0.00000
 189,-0.00000053,0.00000679,0.00000486,-0.00000130,-0.00001899,-0.00000
 226,-0.00000185,0.00002685,0.00001460,0.00000603,-0.00000945,-0.000020
 70,0.00000005,0.00000160,0.00000383,0.00000004,-0.00000123,-0.00000085
 ,-0.00000043,0.00000013,-0.00000118,-0.00000066,0.00000154,0.00000331,
 -0.00000500,-0.00000023,0.00000103,-0.00000150,0.00000105,-0.00000096,
 -0.00000124,-0.00000311,-0.00000026,-0.00000075,0.00000025,0.00000137,
 0.00000322,0.00001525,-0.00000441,-0.00001318,0.00000718,0.00000649,0.
 00000968,-0.00001281,-0.00000745,0.00001576,-0.00003700,-0.00001662,-0
 .00037633,0.00023108,0.00045955,-0.06642825,-0.14398549,0.24977720,0.0
 0027731,0.00010158,0.00001615,0.00051126,-0.00123207,0.00038080,0.0003
 8450,0.00001797,-0.00007836,0.00005946,0.00017275,-0.00000581,-0.00004
 180,-0.00002738,0.00001544,-0.00013356,0.00000039,-0.00000798,0.000063
 21,-0.00000389,0.00000771,-0.00001981,0.00000176,-0.00000059,-0.350292
 60,-0.02011138,0.01704847,-0.00447727,-0.00910898,-0.01241093,-0.00104
 740,0.00073134,-0.00074546,-0.01912549,0.00049002,0.00137561,0.0016154
 8,-0.00027553,0.00038516,0.00037036,0.00003707,0.00011339,0.00009085,0
 .00011297,0.00020363,0.00000102,0.00004269,-0.00001539,-0.00006696,-0.
 00000238,-0.00001208,0.00018940,-0.00001693,0.00007105,-0.00034463,0.0
 0000953,-0.00007099,-0.00000893,0.00000976,0.00000336,0.00002795,-0.00
 000879,-0.00000015,-0.00000526,-0.00000310,-0.00000144,-0.00000892,-0.
 00000078,0.00000182,0.00001681,0.00000131,0.00000157,-0.00000712,0.000
 00078,-0.00000092,-0.00002834,-0.00000933,0.00000233,0.00001829,-0.000
 00713,0.00000667,-0.00002064,0.00001356,0.00000623,0.00001191,-0.00000
 394,-0.00000874,-0.00000319,0.00000102,0.00000311,0.00000450,0.0000014
 0,0.00000353,0.00000878,0.00000151,0.00000633,0.00000750,-0.00000120,-
 0.00000883,0.00002305,0.00002369,0.00003782,0.00001241,-0.00001126,-0.
 00000043,-0.00000020,0.00000065,0.00000039,0.00000498,-0.00000134,-0.0
 0000079,0.00010531,-0.00025473,-0.00016282,0.00006502,0.00003943,0.000
 00735,0.00011380,-0.00024369,-0.00003940,0.00052273,0.00101241,-0.0007
 2383,0.00008159,0.00299583,0.00038603,-0.00800415,0.00021998,0.0009262
 2,0.37921464,-0.00014907,0.00010339,0.00044437,0.00134708,0.00291346,-
 0.00100145,0.00002405,-0.00009068,-0.00014100,-0.00016193,-0.00004891,
 0.00008864,0.00003222,-0.00003825,-0.00001072,0.00002887,0.00006316,-0
 .00000036,-0.00002723,0.00001861,0.00003083,0.00000550,0.00000981,-0.0
 0000579,-0.02107672,-0.04587854,0.00779363,-0.01857970,-0.00464986,-0.
 01291084,-0.00182887,-0.00012769,-0.00047784,0.03627818,-0.00301615,-0
 .00234189,-0.00111836,0.00206060,0.00171622,0.00017654,0.00004064,0.00
 006001,-0.00013029,-0.00006606,-0.00012055,-0.00000422,-0.00001639,0.0
 0006834,-0.00002069,-0.00004288,-0.00002178,0.00007422,0.00010351,0.00
 007105,-0.00012804,-0.00017091,-0.00012174,-0.00000089,0.00001389,0.00
 000608,0.00001012,0.00000304,-0.00000263,-0.00000296,-0.00000112,-0.00
 000099,0.00000420,0.00000687,0.00000095,-0.00000335,-0.00000677,0.0000
 0370,0.00000140,0.00000081,-0.00000203,0.00000035,0.00001270,0.0000055
 9,-0.00000144,0.00000159,-0.00001458,-0.00000400,-0.00001184,0.0000098
 2,0.00000512,0.00000215,-0.00000511,-0.00000149,0.00000061,0.00000175,
 0.00000095,0.00000201,0.00000049,-0.00000016,-0.00000002,-0.00000151,0
 .00000159,-0.00000317,-0.00000191,0.00000948,0.00001613,0.00001205,0.0
 0000284,-0.00000019,0.00000295,-0.00000159,-0.00000110,-0.00000060,-0.
 00000111,0.00000034,0.00000186,-0.00024364,0.00007655,0.00004869,-0.00
 004397,-0.00003883,-0.00001679,-0.00025163,0.00011536,0.00007106,-0.00
 096432,-0.00015510,0.00036197,0.00233224,-0.00554082,-0.00187386,-0.02
 084325,0.00019298,0.00220932,0.02525943,0.05432897,0.00017157,0.000139
 31,0.00010876,-0.00092135,-0.00030903,-0.00003179,0.00004741,0.0001099
 0,0.00004356,0.00002605,-0.00009710,0.00001102,-0.00002526,0.00002568,
 -0.00002144,0.00000105,0.00004417,0.00008850,-0.00000993,-0.00001220,-
 0.00006175,0.00000906,-0.00000262,0.00002280,0.01801864,0.00843794,-0.
 04111491,-0.03687904,-0.01579069,-0.01387800,-0.00233807,0.00022903,-0
 .00083108,0.00270776,0.00029339,0.00223438,-0.00002074,0.00028912,0.00
 089990,0.00019968,0.00002720,0.00001800,-0.00007431,0.00003618,-0.0000
 5556,-0.00000032,-0.00001837,-0.00000657,0.00006187,0.00004120,0.00003
 878,-0.00018404,-0.00006756,-0.00013401,0.00042186,0.00012732,0.000112
 72,-0.00000159,-0.00001995,-0.00000163,-0.00002070,0.00001369,-0.00000
 683,0.00000282,-0.00000012,0.00000152,-0.00000188,-0.00000667,0.000003
 21,-0.00000596,0.00000550,-0.00001943,0.00000296,0.00000115,0.00000455
 ,0.00001351,-0.00000413,0.00001266,-0.00000890,0.00001047,-0.00000665,
 0.00001246,-0.00000435,0.00000755,-0.00000254,0.00000169,-0.00000822,0
 .00000155,-0.00000158,-0.00000032,-0.00000266,-0.00000181,-0.00000381,
 -0.00000489,-0.00000168,-0.00000435,-0.00000526,0.00000255,0.00000865,
 -0.00002330,-0.00002939,-0.00003935,-0.00000765,0.00000660,0.00000352,
 0.00000023,-0.00000115,-0.00000240,-0.00000125,0.00000192,0.00000075,-
 0.00010989,-0.00001017,-0.00003131,-0.00000918,-0.00001749,0.00000728,
 0.00001832,0.00000107,-0.00002804,0.00004076,-0.00002951,0.00014417,-0
 .00041875,-0.00105730,0.00009918,0.02603733,0.00171100,0.00097049,-0.0
 0659219,0.00596241,0.05150997,-0.30245279,0.06908859,0.26680355,0.0089
 8022,-0.00645267,-0.02378657,-0.00167819,0.00041444,-0.00269809,-0.000
 26339,-0.00027593,0.00037958,0.00042610,0.00040140,0.00016262,0.000763
 14,-0.00060515,0.00012550,-0.00019798,-0.00021484,-0.00043547,0.000060
 97,-0.00007691,0.00003486,0.00054374,0.00009458,0.00008523,-0.00030395
 ,0.00025384,-0.00017163,0.00000105,0.00007843,-0.00008342,-0.00124123,
 -0.00145037,-0.00081478,0.00009758,0.00050849,-0.00149681,-0.00011913,
 0.00017837,0.00034242,-0.00001631,-0.00002110,-0.00018450,-0.00004970,
 -0.00002114,0.00007172,0.00003075,0.00001832,0.00001998,0.00000142,0.0
 0004138,-0.00011172,-0.00000947,-0.00010676,0.00011542,-0.00000106,-0.
 00001478,0.00001253,-0.00001118,0.00001986,-0.00001540,0.00000173,-0.0
 0000162,0.00000080,-0.00000935,-0.00000912,0.00001211,-0.00001871,0.00
 000234,-0.00005850,0.00001267,0.00000578,0.00000760,0.00001935,0.00000
 826,0.00001857,-0.00001028,0.00001200,-0.00002804,0.00001137,-0.000013
 70,0.00002325,0.00000378,0.00000295,-0.00002015,0.00000150,-0.00000071
 ,0.00000242,-0.00000197,0.00000060,-0.00000266,-0.00000281,0.00000024,
 -0.00000254,-0.00000208,0.00000121,-0.00000030,-0.00000490,-0.00000527
 ,-0.00000286,0.00000150,0.00000204,-0.00000285,0.00000170,-0.00000109,
 -0.00000745,-0.00000003,0.00000180,0.00000233,0.00000902,-0.00001503,-
 0.00002410,-0.00002274,0.00001646,0.00009578,0.00040642,-0.00001277,-0
 .00003085,0.00128235,-0.00081484,-0.00318516,0.00025952,0.00015221,-0.
 00001582,-0.00012188,0.00002911,-0.00002734,-0.00016589,-0.00000543,-0
 .00012525,0.29378914,0.05396380,-0.01013354,-0.06437881,0.00694914,-0.
 00701593,-0.00489092,-0.00092606,-0.00049257,-0.00677208,-0.00099316,0
 .00038047,0.00129378,0.00151803,-0.00251746,-0.00060609,0.00029148,-0.
 00119187,0.00055043,-0.00026622,-0.00024770,-0.00040285,0.00005179,-0.
 00012355,-0.00007597,0.00024865,0.00095494,0.00196981,0.00019213,0.000
 07478,-0.00108093,0.00000940,0.00009695,-0.00052945,-0.00005144,0.0009
 9472,0.00219968,0.00048892,-0.00093246,0.00144663,0.00008105,-0.000093
 60,-0.00008737,-0.00000300,-0.00001221,0.00019544,0.00003816,0.0000207
 4,-0.00010530,0.00000644,0.00004856,0.00003666,-0.00001760,-0.00014283
 ,0.00003609,0.00001046,0.00019664,-0.00005781,-0.00000488,0.00001972,-
 0.00002154,0.00000692,-0.00004702,0.00001179,0.00000305,0.00000848,0.0
 0000217,0.00001184,0.00002236,-0.00004194,-0.00000930,-0.00002228,0.00
 004373,-0.00000077,0.00000399,-0.00001383,0.00000113,-0.00000112,-0.00
 002006,0.00000875,-0.00004895,0.00003821,-0.00000938,0.00005755,-0.000
 02352,-0.00000752,-0.00001799,0.00001773,0.00000019,0.00000489,-0.0000
 0166,0.00000163,-0.00000265,0.00000173,-0.00000049,0.00000146,0.000001
 00,0.00000209,0.00000002,0.00000314,-0.00000602,0.00000114,-0.00000296
 ,-0.00000330,-0.00000082,0.00000657,0.00000038,-0.00000084,0.00000568,
 -0.00000238,-0.00000256,0.00000038,0.00000467,0.00000605,0.00000189,-0
 .00012892,0.00002701,-0.00011398,-0.00047589,0.00032551,0.00032121,-0.
 00001122,0.00144573,0.00056341,0.00016300,0.00015734,-0.00012789,0.000
 05287,-0.00014910,-0.00027106,0.00002505,-0.00018189,-0.00003562,-0.06
 121346,0.01852989,0.21214501,-0.06528827,-0.25236376,0.02728356,-0.004
 05426,-0.02406383,-0.00163419,-0.00032144,-0.00313753,0.00006659,0.000
 98736,0.00024924,0.00000989,-0.00063106,0.00086938,0.00039470,-0.00064
 783,0.00016817,-0.00016233,0.00020729,0.00003720,0.00001649,-0.0000656
 0,-0.00007657,0.00008798,0.00049346,-0.00067178,-0.00010537,-0.0006370
 7,-0.00024480,-0.00001573,-0.00005766,0.00037464,-0.00154309,-0.002211
 23,-0.00350069,-0.00026961,0.00106722,-0.00074145,-0.00002909,0.000027
 04,-0.00012444,0.00001318,-0.00002873,0.00030458,0.00006532,0.00004950
 ,-0.00013340,-0.00003294,-0.00004335,-0.00004949,0.00002419,0.00004816
 ,0.00010702,-0.00001747,-0.00002285,-0.00010909,0.00000412,0.00002916,
 -0.00002920,0.00001303,-0.00003824,0.00004117,-0.00000070,0.00000588,-
 0.00000482,0.00001345,0.00000310,-0.00002490,0.00001113,0.00001085,0.0
 0006589,-0.00001051,-0.00001130,-0.00000892,-0.00001265,-0.00001908,-0
 .00005252,0.00000763,-0.00001719,0.00006951,-0.00000527,0.00001782,-0.
 00007509,-0.00002311,-0.00000201,0.00006735,0.00000090,0.00000043,-0.0
 0001201,0.00000138,-0.00000142,0.00000476,-0.00000054,0.00000121,0.000
 00154,0.00000152,-0.00000319,0.00000082,0.00000564,0.00000777,-0.00000
 081,-0.00000741,-0.00000489,0.00000677,0.00000180,0.00000661,0.0000123
 9,-0.00000303,-0.00000421,-0.00000510,-0.00000197,0.00000367,0.0000102
 8,-0.00013408,-0.00000116,-0.00004670,-0.00020997,0.00047522,0.0000978
 2,-0.00061237,0.00016456,0.00346405,-0.00011913,-0.00039563,0.00048467
 ,-0.00010989,-0.00011536,0.00001658,-0.00012304,0.00010222,-0.00006447
 ,-0.23498402,0.07091449,0.27908751\\0.00339348,-0.00704912,0.00342451,
 -0.00072344,0.01113090,0.01503718,0.00930298,-0.01070065,0.00734333,-0
 .00504364,0.01478066,0.01165062,-0.00127110,-0.00850007,-0.03035497,-0
 .02330695,-0.01938702,0.00297908,0.00386908,0.01484772,-0.00944561,0.0
 1105171,0.01185434,0.01810664,-0.00531095,0.01314360,0.01094591,0.0091
 1051,0.01679665,0.00073057,-0.00261141,-0.03621469,-0.00071717,0.00677
 132,-0.00767843,-0.00066428,-0.00228461,-0.00583669,0.01229992,-0.0142
 9807,0.00743035,-0.04421650,0.00129500,-0.02414269,0.02343235,-0.01517
 178,0.02240907,0.03184898,0.00997440,0.02822752,-0.00967211,0.00514222
 ,-0.01099126,0.01006190,0.00345263,-0.00775431,-0.02832425,-0.04402848
 ,0.01412154,-0.02742146,0.00526694,0.03213412,-0.01240372,0.00148062,-
 0.00706407,0.03241556,-0.00553175,-0.00576026,0.01013287,-0.00494301,-
 0.02779533,0.00370668,-0.00109200,0.03374573,-0.00378545,0.01629141,-0
 .00566239,-0.00067610,-0.02488716,-0.01835822,0.02540371,0.08278127,-0
 .05384269,-0.00582682,-0.01889270,0.03374294,-0.00449216,-0.00083516,-
 0.00123980,-0.00353529,-0.01615735,0.00123901,-0.00089018,-0.02018717,
 0.00064374,0.00229378,0.01665007,-0.00022207,-0.00154823,-0.02073578,-
 0.00267861,-0.00039430,0.01871400,-0.00441247,0.00086751,-0.00416868,-
 0.00597511,-0.01633396,0.01955658,-0.00042337,-0.00063389,0.02157409,0
 .00327449,-0.00317697,-0.02281154,0.00315196,0.00023617,0.02358684,0.0
 0119284,-0.00000740,-0.02054804,-0.00184040,0.00039435,0.02222367,0.00
 134233,0.00091429,0.00395569,0.00607303,-0.01751411,-0.02100807,-0.002
 04348,-0.00223663,0.00040434,0.00429067,0.00004566\\\@


 YOU CAN LEAD A BOY TO COLLEGE....
 BUT YOU CANNOT MAKE HIM THINK....
           ELBERT HUBBARD
 Job cpu time:  3 days 20 hours 38 minutes 38.2 seconds.
 File lengths (MBytes):  RWF=   2351 Int=      0 D2E=      0 Chk=     43 Scr=      1
 Normal termination of Gaussian 09 at Fri Feb  5 12:50:11 2016.
Gaussian '09 finished on node002 at Fri Feb  5 12:50:11 EST 2016.
