Gaussian '09 started on node016 at Tue Mar 29 18:47:47 EDT 2016.
 Entering Gaussian System, Link 0=/usr/local/gaussian/g09/g09
 Initial command:
 /usr/local/gaussian/g09/l1.exe /home/srmcgrat/thesis/gaussian/cellobiose/483K/9000ps/1/2dp/gaussian9884/Gau-9920.inp -scrdir=/home/srmcgrat/thesis/gaussian/cellobiose/483K/9000ps/1/2dp/gaussian9884/
 Entering Link 1 = /usr/local/gaussian/g09/l1.exe PID=      9922.
  
 Copyright (c) 1988,1990,1992,1993,1995,1998,2003,2009,2010,
            Gaussian, Inc.  All Rights Reserved.
  
 This is part of the Gaussian(R) 09 program.  It is based on
 the Gaussian(R) 03 system (copyright 2003, Gaussian, Inc.),
 the Gaussian(R) 98 system (copyright 1998, Gaussian, Inc.),
 the Gaussian(R) 94 system (copyright 1995, Gaussian, Inc.),
 the Gaussian 92(TM) system (copyright 1992, Gaussian, Inc.),
 the Gaussian 90(TM) system (copyright 1990, Gaussian, Inc.),
 the Gaussian 88(TM) system (copyright 1988, Gaussian, Inc.),
 the Gaussian 86(TM) system (copyright 1986, Carnegie Mellon
 University), and the Gaussian 82(TM) system (copyright 1983,
 Carnegie Mellon University). Gaussian is a federally registered
 trademark of Gaussian, Inc.
  
 This software contains proprietary and confidential information,
 including trade secrets, belonging to Gaussian, Inc.
  
 This software is provided under written license and may be
 used, copied, transmitted, or stored only in accord with that
 written license.
  
 The following legend is applicable only to US Government
 contracts under FAR:
  
                    RESTRICTED RIGHTS LEGEND
  
 Use, reproduction and disclosure by the US Government is
 subject to restrictions as set forth in subparagraphs (a)
 and (c) of the Commercial Computer Software - Restricted
 Rights clause in FAR 52.227-19.
  
 Gaussian, Inc.
 340 Quinnipiac St., Bldg. 40, Wallingford CT 06492
  
  
 ---------------------------------------------------------------
 Warning -- This program may not be used in any manner that
 competes with the business of Gaussian, Inc. or will provide
 assistance to any competitor of Gaussian, Inc.  The licensee
 of this program is prohibited from giving any competitor of
 Gaussian, Inc. access to this program.  By using this program,
 the user acknowledges that Gaussian, Inc. is engaged in the
 business of creating and licensing software in the field of
 computational chemistry and represents and warrants to the
 licensee that it is not a competitor of Gaussian, Inc. and that
 it will not use this program in any manner prohibited above.
 ---------------------------------------------------------------
  

 Cite this work as:
 Gaussian 09, Revision B.01,
 M. J. Frisch, G. W. Trucks, H. B. Schlegel, G. E. Scuseria, 
 M. A. Robb, J. R. Cheeseman, G. Scalmani, V. Barone, B. Mennucci, 
 G. A. Petersson, H. Nakatsuji, M. Caricato, X. Li, H. P. Hratchian, 
 A. F. Izmaylov, J. Bloino, G. Zheng, J. L. Sonnenberg, M. Hada, 
 M. Ehara, K. Toyota, R. Fukuda, J. Hasegawa, M. Ishida, T. Nakajima, 
 Y. Honda, O. Kitao, H. Nakai, T. Vreven, J. A. Montgomery, Jr., 
 J. E. Peralta, F. Ogliaro, M. Bearpark, J. J. Heyd, E. Brothers, 
 K. N. Kudin, V. N. Staroverov, T. Keith, R. Kobayashi, J. Normand, 
 K. Raghavachari, A. Rendell, J. C. Burant, S. S. Iyengar, J. Tomasi, 
 M. Cossi, N. Rega, J. M. Millam, M. Klene, J. E. Knox, J. B. Cross, 
 V. Bakken, C. Adamo, J. Jaramillo, R. Gomperts, R. E. Stratmann, 
 O. Yazyev, A. J. Austin, R. Cammi, C. Pomelli, J. W. Ochterski, 
 R. L. Martin, K. Morokuma, V. G. Zakrzewski, G. A. Voth, 
 P. Salvador, J. J. Dannenberg, S. Dapprich, A. D. Daniels, 
 O. Farkas, J. B. Foresman, J. V. Ortiz, J. Cioslowski, 
 and D. J. Fox, Gaussian, Inc., Wallingford CT, 2010.
 
 ******************************************
 Gaussian 09:  EM64L-G09RevB.01 12-Aug-2010
                29-Mar-2016 
 ******************************************
 -------------------------------------------------
 # freq=raman b3lyp/6-31+g(2d,p) geom=connectivity
 -------------------------------------------------
 1/10=4,30=1,38=1,57=2/1,3;
 2/12=2,17=6,18=5,40=1/2;
 3/5=1,6=6,7=112,11=2,16=1,25=1,30=1,71=2,74=-5/1,2,3;
 4//1;
 5/5=2,38=5,98=1/2;
 8/6=4,10=90,11=11/1;
 10/13=10,15=4/2;
 11/6=3,8=1,9=11,15=111,16=1/1,2,10;
 10/6=1/2;
 6/7=2,8=2,9=2,10=2,18=1,28=1/1;
 7/8=1,10=1,25=1/1,2,3,16;
 1/10=4,30=1/3;
 99//99;
 -----------------
 483 9000/9000.com
 -----------------
 Symbolic Z-matrix:
 Charge =  0 Multiplicity = 1
 O                     7.514     7.558     12.337 
 C                     8.126     7.903     13.589 
 C                     7.638     9.27      14.042 
 O                     8.091     10.305    13.157 
 H                     7.903     10.028    12.214 
 C                     8.093     9.606     15.453 
 O                     7.419     10.646    16.177 
 H                     7.96      10.866    16.988 
 C                     8.581     5.537     14.327 
 O                     8.078     4.812     13.196 
 H                     7.994     3.831     13.374 
 C                     7.859     6.838     14.639 
 O                     8.566     7.258     15.814 
 C                     7.993     8.431     16.411 
 O                     8.928     8.731     17.456 
 C                     8.419     8.39      18.753 
 C                     8.765     6.98      19.203 
 O                     8.355     6.044     18.195 
 H                     8.632     6.414     17.308 
 C                     8.324     6.652     20.621 
 O                     8.841     5.359     20.969 
 H                     8.635     5.278     21.944 
 C                     8.444     10.792    19.483 
 O                     8.773     11.538    18.302 
 H                     8.668     12.524    18.433 
 C                     8.922     9.382     19.788 
 O                     8.415     9.043     21.087 
 C                     8.737     7.741     21.597 
 O                     7.897     7.59      22.751 
 H                     8.44363   7.48761   23.5335 
 H                     9.77257   7.66562   21.85548 
 H                     7.25569   6.59232   20.62861 
 H                     9.83395   6.93569   19.2199 
 H                     7.35251   8.46801   18.71546 
 H                     9.99169   9.36487   19.80747 
 H                     8.75957   11.39462   20.30893 
 H                     8.19633   7.3786    11.68596 
 H                     8.51625   4.90342   15.18682 
 H                     9.61236   5.76035   14.15002 
 H                     6.81518   6.69325   14.82443 
 H                     9.18354   7.96139   13.43705 
 H                     6.5681    9.26327   14.02869 
 H                     9.12512   9.88124   15.39085 
 H                     7.00049   8.27136   16.77753 
 H                     7.37526   10.75444   19.51891 
 

 GradGradGradGradGradGradGradGradGradGradGradGradGradGradGradGradGradGrad
 Berny optimization.
 Initialization pass.
 Trust Radius=3.00D-01 FncErr=1.00D-07 GrdErr=1.00D-07
 Number of steps in this run=      2 maximum allowed number of steps=      2.
 GradGradGradGradGradGradGradGradGradGradGradGradGradGradGradGradGradGrad

                          Input orientation:                          
 ---------------------------------------------------------------------
 Center     Atomic      Atomic             Coordinates (Angstroms)
 Number     Number       Type             X           Y           Z
 ---------------------------------------------------------------------
      1          8           0        7.514000    7.558000   12.337000
      2          6           0        8.126000    7.903000   13.589000
      3          6           0        7.638000    9.270000   14.042000
      4          8           0        8.091000   10.305000   13.157000
      5          1           0        7.903000   10.028000   12.214000
      6          6           0        8.093000    9.606000   15.453000
      7          8           0        7.419000   10.646000   16.177000
      8          1           0        7.960000   10.866000   16.988000
      9          6           0        8.581000    5.537000   14.327000
     10          8           0        8.078000    4.812000   13.196000
     11          1           0        7.994000    3.831000   13.374000
     12          6           0        7.859000    6.838000   14.639000
     13          8           0        8.566000    7.258000   15.814000
     14          6           0        7.993000    8.431000   16.411000
     15          8           0        8.928000    8.731000   17.456000
     16          6           0        8.419000    8.390000   18.753000
     17          6           0        8.765000    6.980000   19.203000
     18          8           0        8.355000    6.044000   18.195000
     19          1           0        8.632000    6.414000   17.308000
     20          6           0        8.324000    6.652000   20.621000
     21          8           0        8.841000    5.359000   20.969000
     22          1           0        8.635000    5.278000   21.944000
     23          6           0        8.444000   10.792000   19.483000
     24          8           0        8.773000   11.538000   18.302000
     25          1           0        8.668000   12.524000   18.433000
     26          6           0        8.922000    9.382000   19.788000
     27          8           0        8.415000    9.043000   21.087000
     28          6           0        8.737000    7.741000   21.597000
     29          8           0        7.897000    7.590000   22.751000
     30          1           0        8.443631    7.487610   23.533503
     31          1           0        9.772570    7.665616   21.855480
     32          1           0        7.255693    6.592323   20.628612
     33          1           0        9.833948    6.935687   19.219900
     34          1           0        7.352508    8.468009   18.715458
     35          1           0        9.991686    9.364875   19.807470
     36          1           0        8.759571   11.394619   20.308933
     37          1           0        8.196326    7.378601   11.685964
     38          1           0        8.516253    4.903422   15.186818
     39          1           0        9.612355    5.760352   14.150024
     40          1           0        6.815178    6.693254   14.824427
     41          1           0        9.183545    7.961394   13.437047
     42          1           0        6.568104    9.263268   14.028690
     43          1           0        9.125125    9.881238   15.390849
     44          1           0        7.000494    8.271356   16.777531
     45          1           0        7.375263   10.754438   19.518913
 ---------------------------------------------------------------------
                    Distance matrix (angstroms):
                    1          2          3          4          5
     1  O    0.000000
     2  C    1.435644   0.000000
     3  C    2.419369   1.520540   0.000000
     4  O    2.924267   2.440789   1.435151   0.000000
     5  H    2.503468   2.540862   1.996590   1.000661   0.000000
     6  C    3.773460   2.525033   1.520145   2.400046   3.271896
     7  O    4.928526   3.836879   2.549424   3.112598   4.039994
     8  H    5.724821   4.512220   3.365979   3.874073   4.847326
     9  C    3.030351   2.519846   3.860798   4.933845   5.009345
    10  O    2.931978   3.116253   4.558846   5.493154   5.310518
    11  H    3.898243   4.079808   5.491419   6.478362   6.305291
    12  C    2.436520   1.519215   2.513936   3.777597   4.007326
    13  O    3.645029   2.358018   2.837131   4.070563   4.590476
    14  C    4.193930   2.874049   2.538131   3.756327   4.491472
    15  O    5.438703   4.035155   3.689176   4.653971   5.496490
    16  C    6.532710   5.195182   4.855706   5.923683   6.760756
    17  C    7.002931   5.725142   5.757617   6.932822   7.673296
    18  O    6.108653   4.972279   5.307407   6.603579   7.200619
    19  H    5.222021   4.037836   4.451014   5.715187   6.288185
    20  C    8.372669   7.145154   7.113913   8.313242   9.069304
    21  O    9.005995   7.838849   8.045276   9.276463   9.966415
    22  H    9.937278   8.772442   8.909078  10.137950  10.852245
    23  C    7.898669   6.571657   5.707066   6.354530   7.329034
    24  O    7.280570   5.987003   4.957787   5.334458   6.332515
    25  H    7.946955   6.716527   5.561501   5.752657   6.744717
    26  C    7.799156   6.422512   5.888779   6.746306   7.669495
    27  O    8.920736   7.589672   7.091353   8.036325   8.942175
    28  C    9.342206   8.032909   7.786120   8.844490   9.693638
    29  O   10.421090   9.170205   8.873340   9.972647  10.815371
    30  H   11.235250   9.958242   9.690954  10.757967  11.613656
    31  H    9.783362   8.432214   8.257173   9.244327  10.101202
    32  H    8.351651   7.213282   7.120363   8.384909   9.112002
    33  H    7.289975   5.963205   6.089487   7.151845   7.897695
    34  H    6.445070   5.215179   4.750359   5.900539   6.708619
    35  H    8.075372   6.654865   6.228120   6.980343   7.903362
    36  H    8.934361   7.599363   6.711660   7.265287   8.254047
    37  H    0.960000   1.975218   3.072462   3.277018   2.717384
    38  H    4.021537   3.420934   4.598798   5.786022   5.956091
    39  H    3.304798   2.667385   4.028322   4.894328   4.988277
    40  H    2.724598   2.169798   2.815821   4.177648   4.372439
    41  H    2.039659   1.070000   2.113558   2.600878   2.721488
    42  H    2.581564   2.114402   1.070000   2.040652   2.379046
    43  H    4.161629   2.856280   2.098701   2.497813   3.406978
    44  H    4.526685   3.401350   2.981080   4.293385   4.972538
    45  H    7.862337   6.622551   5.680596   6.417805   7.359890
                    6          7          8          9         10
     6  C    0.000000
     7  O    1.435288   0.000000
     8  H    1.990355   0.999401   0.000000
     9  C    4.250033   5.556494   5.988723   0.000000
    10  O    5.298746   6.584542   7.144516   1.434502   0.000000
    11  H    6.138621   7.391323   7.909069   2.040396   1.000550
    12  C    2.894681   4.130364   4.663988   1.520273   2.496975
    13  O    2.422221   3.595264   3.842288   2.274475   3.615935
    14  C    1.519338   2.300099   2.502647   3.614421   4.841550
    15  O    2.339842   2.753207   2.390455   4.484717   5.850527
    16  C    3.531987   3.567256   3.075139   5.268333   6.618052
    17  C    4.627090   4.940440   4.544804   5.088367   6.423102
    18  O    4.502783   5.111441   4.986437   3.907627   5.156021
    19  H    3.731007   4.545366   4.513789   3.107747   4.447681
    20  C    5.957155   6.043194   5.575749   6.397164   7.653544
    21  O    7.001626   7.275831   6.852122   6.649470   7.829490
    22  H    7.820385   7.971974   7.499554   7.621593   8.778093
    23  C    4.215530   3.464329   2.542589   7.363296   8.684511
    24  O    3.508821   2.672939   1.684977   7.200659   8.473095
    25  H    4.210196   3.190050   2.310466   8.104627   9.340729
    26  C    4.419235   4.110478   3.311752   6.687513   8.065463
    27  O    5.671209   5.260202   4.509119   7.616902   8.960068
    28  C    6.453038   6.289082   5.622476   7.598345   8.921330
    29  O    7.573868   7.265335   6.629352   8.697496   9.952290
    30  H    8.360924   8.071148   7.381804   9.411878  10.684407
    31  H    6.897666   6.831333   6.100838   7.913839   9.273687
    32  H    6.047337   6.022941   5.658129   6.525370   7.686966
    33  H    4.934674   5.371930   4.892895   5.240865   6.624256
    34  H    3.533693   3.345420   3.017204   5.418355   6.660117
    35  H    4.756528   4.630367   3.785569   6.832145   8.252417
    36  H    5.217620   4.407996   3.456493   8.374193   9.715412
    37  H    4.377504   5.607988   6.350542   3.242613   2.980210
    38  H    4.729084   5.929724   6.253480   1.070000   2.040534
    39  H    4.335343   5.726168   6.070587   1.070000   2.040534
    40  H    3.242225   4.221168   4.837714   2.168521   2.790271
    41  H    2.821007   4.222330   4.747954   2.651936   3.346493
    42  H    2.114576   2.692807   3.641928   4.245682   4.773568
    43  H    1.070000   2.028239   2.208656   4.505580   5.622367
    44  H    2.174679   2.484899   2.774370   3.997475   5.094657
    45  H    4.285523   3.343958   2.599978   7.458648   8.705495
                   11         12         13         14         15
    11  H    0.000000
    12  C    3.265042   0.000000
    13  O    4.245599   1.434181   0.000000
    14  C    5.512111   2.386543   1.435502   0.000000
    15  O    6.445547   3.558328   2.235383   1.433963   0.000000
    16  C    7.063905   4.432527   3.152896   2.380782   1.434424
    17  C    6.669924   4.655222   3.406201   3.239853   2.478826
    18  O    5.316929   3.677171   2.680947   3.001911   2.845069
    19  H    4.749241   2.810848   1.717186   2.298090   2.340515
    20  C    7.783698   6.002928   4.851087   4.582412   3.834616
    21  O    7.793344   6.574243   5.500532   5.561623   4.870228
    22  H    8.714906   7.509914   6.442209   6.400599   5.670203
    23  C    9.272427   6.280181   5.095645   3.900629   2.930991
    24  O    9.180952   6.028513   4.954936   3.719910   2.935812
    25  H   10.080476   6.883278   5.882204   4.614841   3.925427
    26  C    8.533123   5.840728   4.520043   3.629266   2.421169
    27  O    9.318399   6.837241   5.568982   4.734723   3.680309
    28  C    9.135528   7.071072   5.805654   5.284338   4.261979
    29  O   10.102852   8.146870   6.977088   6.396256   5.513789
    30  H   10.806871   8.937336   7.723886   7.198826   6.222272
    31  H    9.476449   7.511609   6.174256   5.778844   4.604754
    32  H    7.797396   6.024930   5.033936   4.659679   4.175646
    33  H    6.870155   4.989449   3.648524   3.676271   2.674927
    34  H    7.102432   4.419386   3.369739   2.392097   2.034103
    35  H    8.718030   6.135676   4.734902   4.050046   2.657562
    36  H   10.290176   7.329526   6.111752   4.956264   3.906720
    37  H    3.933939   3.021003   4.146310   4.845085   5.971402
    38  H    2.170056   2.115343   2.437185   3.770441   4.468677
    39  H    2.635087   2.115343   2.471159   3.855734   4.496951
    40  H    3.418458   1.070000   2.088917   2.631395   3.942284
    41  H    4.298738   2.112137   2.554609   3.237641   4.099949
    42  H    5.654320   2.814395   3.346643   2.897999   4.195101
    43  H    6.477075   3.380776   2.715337   2.103712   2.372078
    44  H    5.682239   2.713827   2.099069   1.070000   2.094486
    45  H    9.277758   6.275830   5.231569   3.929261   3.280382
                   16         17         18         19         20
    16  C    0.000000
    17  C    1.519972   0.000000
    18  O    2.412297   1.435361   0.000000
    19  H    2.457228   1.982188   1.000199   0.000000
    20  C    2.553251   1.520786   2.501220   3.335787   0.000000
    21  O    3.778320   2.398369   2.898361   3.815708   1.435354
    22  H    4.462475   3.229053   3.836686   4.773154   1.932596
    23  C    2.510603   3.835725   4.920403   4.892122   4.295235
    24  O    3.199785   4.646206   5.510917   5.221426   5.427003
    25  H    4.153836   5.598057   6.491919   6.212811   6.275832
    26  C    1.519308   2.477192   3.741842   3.878598   2.916229
    27  O    2.423630   2.815657   4.166685   4.608641   2.437687
    28  C    2.934393   2.512198   3.820908   4.490821   1.519561
    29  O    4.110534   3.703219   4.832910   5.616890   2.366236
    30  H    4.864990   4.371979   5.530957   6.320206   3.032364
    31  H    3.461541   2.919061   4.247147   4.852526   2.156319
    32  H    2.846550   2.112030   2.726096   3.598956   1.070000
    33  H    2.082091   1.070000   2.008187   2.317800   2.079304
    34  H    1.070000   2.108791   2.674263   2.799462   2.805846
    35  H    2.129701   2.749140   4.038194   4.099238   3.286746
    36  H    3.400684   4.551042   5.767280   5.816222   4.772792
    37  H    7.142514   7.549046   6.646344   5.720800   8.965440
    38  H    4.988320   4.528109   3.221192   2.606656   5.711814
    39  H    5.433832   5.266699   4.245377   3.370633   6.657960
    40  H    4.569998   4.801659   3.762093   3.089816   5.989867
    41  H    5.387726   5.863832   5.196249   4.205105   7.352721
    42  H    5.148545   6.067384   5.560110   4.809560   7.304823
    43  H    3.745191   4.804099   4.814639   3.992540   6.198730
    44  H    2.434895   3.265575   2.967325   2.528434   4.375641
    45  H    2.695659   4.034545   4.990076   5.030599   4.352551
                   21         22         23         24         25
    21  O    0.000000
    22  H    0.999811   0.000000
    23  C    5.646529   6.041291   0.000000
    24  O    6.730346   7.243674   1.435102   0.000000
    25  H    7.602529   8.051877   2.037768   1.000191   0.000000
    26  C    4.193549   4.644730   1.519740   2.622734   3.431138
    27  O    3.710425   3.867567   2.373322   3.756250   4.384642
    28  C    2.465588   2.489414   3.723365   5.027477   5.735220
    29  O    3.007328   2.557584   4.607802   6.012294   6.601812
    30  H    3.356421   2.728648   5.227386   6.624407   7.171520
    31  H    2.640861   2.646245   4.143433   5.349927   6.044612
    32  H    2.037191   2.315206   4.512404   5.672307   6.480750
    33  H    2.555629   3.406777   4.107594   4.811386   5.762629
    34  H    4.118251   4.716399   2.679816   3.407872   4.273332
    35  H    4.326692   4.807068   2.130093   2.911032   3.690716
    36  H    6.072151   6.332614   1.070000   2.012093   2.191577
    37  H    9.522035  10.480089   8.515069   7.836139   8.498241
    38  H    5.809186   6.768598   7.289565   7.334024   8.284560
    39  H    6.874191   7.869812   7.424498   7.164122   8.061180
    40  H    6.606055   7.483516   6.415223   6.276794   7.102982
    41  H    7.976221   8.936988   6.716606   6.052142   6.785477
    42  H    8.281139   9.099811   5.967035   5.319507   5.868550
    43  H    7.186594   8.023329   4.247248   3.368034   4.055593
    44  H    5.425651   6.190653   3.969499   4.017057   4.858615
    45  H    5.775975   6.120405   1.070000   2.012093   2.445757
                   26         27         28         29         30
    26  C    0.000000
    27  O    1.435051   0.000000
    28  C    2.449405   1.434917   0.000000
    29  O    3.611268   2.269015   1.435311   0.000000
    30  H    4.224493   2.899213   1.974922   0.960000   0.000000
    31  H    2.818495   2.081044   1.070000   2.079769   2.147913
    32  H    3.356413   2.749533   2.109860   2.431289   3.263607
    33  H    2.671860   3.152816   2.739057   4.080265   4.565608
    34  H    2.109273   2.661525   3.278512   4.165690   5.036396
    35  H    1.070000   2.055904   2.722797   4.025203   4.450160
    36  H    2.085279   2.500846   3.874088   4.602483   5.075667
    37  H    8.377541   9.549739   9.932386  11.071102  11.850621
    38  H    6.433752   7.208225   7.013631   8.050964   8.737875
    39  H    6.736446   7.767308   7.755428   8.959177   9.612441
    40  H    6.025372   6.877540   7.117508   8.050159   8.895553
    41  H    6.513151   7.764168   8.175133   9.409721  10.134612
    42  H    6.222907   7.299266   8.018774   8.980227   9.849469
    43  H    4.430060   5.801125   6.576288   7.805759   8.514499
    44  H    3.740139   4.600846   5.150147   6.078676   6.952702
    45  H    2.085279   2.543417   3.905583   4.553269   5.284932
                   31         32         33         34         35
    31  H    0.000000
    32  H    2.998639   0.000000
    33  H    2.735479   2.958001   0.000000
    34  H    4.044783   2.680994   2.959733   0.000000
    35  H    2.670176   3.980826   2.504211   2.993680   0.000000
    36  H    4.162144   5.042410   4.714060   3.617187   2.426815
    37  H   10.294949   9.026293   7.722575   7.163283   8.551459
    38  H    7.326602   5.835625   4.704484   5.148969   6.590287
    39  H    7.939127   6.943928   5.209045   5.769012   6.718867
    40  H    7.689432   5.821752   5.337783   4.310290   6.485251
    41  H    8.444196   7.570308   5.909017   5.609900   6.573061
    42  H    8.606959   7.153020   6.559881   4.818041   6.717554
    43  H    6.864373   6.461106   4.882656   4.023979   4.530352
    44  H    5.816948   4.208931   3.972108   1.979431   4.395855
    45  H    4.554937   4.309168   4.551638   2.423596   2.976545
                   36         37         38         39         40
    36  H    0.000000
    37  H    9.528968   0.000000
    38  H    8.272298   4.299400   0.000000
    39  H    8.390731   3.270392   1.735140   0.000000
    40  H    7.480863   3.496744   2.495693   3.024786   0.000000
    41  H    7.693478   2.092974   3.585829   2.353041   3.023601
    42  H    6.984743   3.419275   4.913736   4.642479   2.701706
    43  H    5.158633   4.566403   5.019064   4.331137   3.977428
    44  H    5.031891   5.305759   4.021302   4.475573   2.517809
    45  H    1.717636   8.568869   7.369077   7.666189   6.232585
                   41         42         43         44         45
    41  H    0.000000
    42  H    2.980847   0.000000
    43  H    2.739810   2.962384   0.000000
    44  H    4.002577   2.954146   3.004774   0.000000
    45  H    6.932538   5.746099   4.567867   3.717705   0.000000
 Stoichiometry    C12H22O11
 Framework group  C1[X(C12H22O11)]
 Deg. of freedom   129
 Full point group                 C1      NOp   1
 Largest Abelian subgroup         C1      NOp   1
 Largest concise Abelian subgroup C1      NOp   1
                         Standard orientation:                         
 ---------------------------------------------------------------------
 Center     Atomic      Atomic             Coordinates (Angstroms)
 Number     Number       Type             X           Y           Z
 ---------------------------------------------------------------------
      1          8           0       -4.986699   -0.368023    0.436969
      2          6           0       -3.683462   -0.080885   -0.092367
      3          6           0       -3.223431    1.287716    0.384441
      4          8           0       -4.039984    2.332657   -0.164191
      5          1           0       -5.002443    2.090107   -0.037053
      6          6           0       -1.773295    1.566425    0.023512
      7          8           0       -1.066955    2.606577    0.715769
      8          1           0       -0.212452    2.784254    0.228882
      9          6           0       -2.990461   -2.481584   -0.417970
     10          8           0       -4.177344   -3.155572    0.023442
     11          1           0       -4.037262   -4.138038    0.150874
     12          6           0       -2.689969   -1.166907    0.283854
     13          8           0       -1.454249   -0.805753   -0.348155
     14          6           0       -0.862986    0.367635    0.229978
     15          8           0        0.255748    0.605110   -0.635059
     16          6           0        1.501128    0.243175   -0.022197
     17          6           0        1.929676   -1.190314   -0.290102
     18          8           0        0.865382   -2.081844    0.074197
     19          1           0        0.012923   -1.695280   -0.278338
     20          6           0        3.300998   -1.545118    0.263415
     21          8           0        3.643926   -2.864440   -0.186065
     22          1           0        4.598453   -2.967273    0.093087
     23          6           0        2.307315    2.620361   -0.068892
     24          8           0        1.177520    3.389496   -0.506514
     25          1           0        1.332008    4.374158   -0.423113
     26          6           0        2.600831    1.186734   -0.478978
     27          8           0        3.848413    0.826670    0.131974
     28          6           0        4.338490   -0.499896   -0.110999
     29          8           0        5.423514   -0.656700    0.815420
     30          1           0        6.239726   -0.800437    0.330921
     31          1           0        4.668424   -0.617553   -1.122038
     32          1           0        3.229656   -1.569155    1.330763
     33          1           0        2.022180   -1.270909   -1.353044
     34          1           0        1.389299    0.357960    1.035735
     35          1           0        2.696818    1.133199   -1.543319
     36          1           0        3.172660    3.187389   -0.341941
     37          1           0       -5.592238   -0.550869   -0.285174
     38          1           0       -2.158208   -3.137773   -0.270758
     39          1           0       -3.085398   -2.287792   -1.465983
     40          1           0       -2.584999   -1.282005    1.342454
     41          1           0       -3.756829   -0.053503   -1.159497
     42          1           0       -3.314054    1.317243    1.450188
     43          1           0       -1.752052    1.808632   -1.018498
     44          1           0       -0.574251    0.230581    1.251128
     45          1           0        2.264862    2.617595    1.000262
 ---------------------------------------------------------------------
 Rotational constants (GHZ):      0.4081610      0.1504312      0.1131845
 Standard basis: 6-31+G(2d,p) (6D, 7F)
 There are   685 symmetry adapted basis functions of A   symmetry.
 Integral buffers will be    131072 words long.
 Raffenetti 2 integral format.
 Two-electron integral symmetry is turned on.
   685 basis functions,  1028 primitive gaussians,   685 cartesian basis functions
    91 alpha electrons       91 beta electrons
       nuclear repulsion energy      2302.3914328325 Hartrees.
 NAtoms=   45 NActive=   45 NUniq=   45 SFac= 1.00D+00 NAtFMM=   50 NAOKFM=F Big=F
 One-electron integrals computed using PRISM.
 NBasis=   685 RedAO= T  NBF=   685
 NBsUse=   685 1.00D-06 NBFU=   685
 Harris functional with IExCor=  402 diagonalized for initial guess.
 ExpMin= 4.38D-02 ExpMax= 5.48D+03 ExpMxC= 8.25D+02 IAcc=2 IRadAn=         0 AccDes= 0.00D+00
 HarFok:  IExCor=  402 AccDes= 0.00D+00 IRadAn=         0 IDoV= 1
 ScaDFX=  1.000000  1.000000  1.000000  1.000000
 FoFCou: FMM=F IPFlag=           0 FMFlag=      100000 FMFlg1=           0
         NFxFlg=           0 DoJE=T BraDBF=F KetDBF=T FulRan=T
         Omega=  0.000000  0.000000  1.000000  0.000000  0.000000 ICntrl=     500 IOpCl=  0
         NMat0=    1 NMatS0=    1 NMatT0=    0 NMatD0=    1 NMtDS0=    0 NMtDT0=    0
         I1Cent=           4 NGrid=           0.
 Petite list used in FoFCou.
 Initial guess orbital symmetries:
       Occupied  (A) (A) (A) (A) (A) (A) (A) (A) (A) (A) (A) (A)
                 (A) (A) (A) (A) (A) (A) (A) (A) (A) (A) (A) (A)
                 (A) (A) (A) (A) (A) (A) (A) (A) (A) (A) (A) (A)
                 (A) (A) (A) (A) (A) (A) (A) (A) (A) (A) (A) (A)
                 (A) (A) (A) (A) (A) (A) (A) (A) (A) (A) (A) (A)
                 (A) (A) (A) (A) (A) (A) (A) (A) (A) (A) (A) (A)
                 (A) (A) (A) (A) (A) (A) (A) (A) (A) (A) (A) (A)
                 (A) (A) (A) (A) (A) (A) (A)
       Virtual   (A) (A) (A) (A) (A) (A) (A) (A) (A) (A) (A) (A)
                 (A) (A) (A) (A) (A) (A) (A) (A) (A) (A) (A) (A)
                 (A) (A) (A) (A) (A) (A) (A) (A) (A) (A) (A) (A)
                 (A) (A) (A) (A) (A) (A) (A) (A) (A) (A) (A) (A)
                 (A) (A) (A) (A) (A) (A) (A) (A) (A) (A) (A) (A)
                 (A) (A) (A) (A) (A) (A) (A) (A) (A) (A) (A) (A)
                 (A) (A) (A) (A) (A) (A) (A) (A) (A) (A) (A) (A)
                 (A) (A) (A) (A) (A) (A) (A) (A) (A) (A) (A) (A)
                 (A) (A) (A) (A) (A) (A) (A) (A) (A) (A) (A) (A)
                 (A) (A) (A) (A) (A) (A) (A) (A) (A) (A) (A) (A)
                 (A) (A) (A) (A) (A) (A) (A) (A) (A) (A) (A) (A)
                 (A) (A) (A) (A) (A) (A) (A) (A) (A) (A) (A) (A)
                 (A) (A) (A) (A) (A) (A) (A) (A) (A) (A) (A) (A)
                 (A) (A) (A) (A) (A) (A) (A) (A) (A) (A) (A) (A)
                 (A) (A) (A) (A) (A) (A) (A) (A) (A) (A) (A) (A)
                 (A) (A) (A) (A) (A) (A) (A) (A) (A) (A) (A) (A)
                 (A) (A) (A) (A) (A) (A) (A) (A) (A) (A) (A) (A)
                 (A) (A) (A) (A) (A) (A) (A) (A) (A) (A) (A) (A)
                 (A) (A) (A) (A) (A) (A) (A) (A) (A) (A) (A) (A)
                 (A) (A) (A) (A) (A) (A) (A) (A) (A) (A) (A) (A)
                 (A) (A) (A) (A) (A) (A) (A) (A) (A) (A) (A) (A)
                 (A) (A) (A) (A) (A) (A) (A) (A) (A) (A) (A) (A)
                 (A) (A) (A) (A) (A) (A) (A) (A) (A) (A) (A) (A)
                 (A) (A) (A) (A) (A) (A) (A) (A) (A) (A) (A) (A)
                 (A) (A) (A) (A) (A) (A) (A) (A) (A) (A) (A) (A)
                 (A) (A) (A) (A) (A) (A) (A) (A) (A) (A) (A) (A)
                 (A) (A) (A) (A) (A) (A) (A) (A) (A) (A) (A) (A)
                 (A) (A) (A) (A) (A) (A) (A) (A) (A) (A) (A) (A)
                 (A) (A) (A) (A) (A) (A) (A) (A) (A) (A) (A) (A)
                 (A) (A) (A) (A) (A) (A) (A) (A) (A) (A) (A) (A)
                 (A) (A) (A) (A) (A) (A) (A) (A) (A) (A) (A) (A)
                 (A) (A) (A) (A) (A) (A) (A) (A) (A) (A) (A) (A)
                 (A) (A) (A) (A) (A) (A) (A) (A) (A) (A) (A) (A)
                 (A) (A) (A) (A) (A) (A) (A) (A) (A) (A) (A) (A)
                 (A) (A) (A) (A) (A) (A) (A) (A) (A) (A) (A) (A)
                 (A) (A) (A) (A) (A) (A) (A) (A) (A) (A) (A) (A)
                 (A) (A) (A) (A) (A) (A) (A) (A) (A) (A) (A) (A)
                 (A) (A) (A) (A) (A) (A) (A) (A) (A) (A) (A) (A)
                 (A) (A) (A) (A) (A) (A) (A) (A) (A) (A) (A) (A)
                 (A) (A) (A) (A) (A) (A) (A) (A) (A) (A) (A) (A)
                 (A) (A) (A) (A) (A) (A) (A) (A) (A) (A) (A) (A)
                 (A) (A) (A) (A) (A) (A) (A) (A) (A) (A) (A) (A)
                 (A) (A) (A) (A) (A) (A) (A) (A) (A) (A) (A) (A)
                 (A) (A) (A) (A) (A) (A) (A) (A) (A) (A) (A) (A)
                 (A) (A) (A) (A) (A) (A) (A) (A) (A) (A) (A) (A)
                 (A) (A) (A) (A) (A) (A) (A) (A) (A) (A) (A) (A)
                 (A) (A) (A) (A) (A) (A) (A) (A) (A) (A) (A) (A)
                 (A) (A) (A) (A) (A) (A) (A) (A) (A) (A) (A) (A)
                 (A) (A) (A) (A) (A) (A) (A) (A) (A) (A) (A) (A)
                 (A) (A) (A) (A) (A) (A)
 The electronic state of the initial guess is 1-A.
 Requested convergence on RMS density matrix=1.00D-08 within 128 cycles.
 Requested convergence on MAX density matrix=1.00D-06.
 Requested convergence on             energy=1.00D-06.
 No special actions if energy rises.
 SCF Done:  E(RB3LYP) =  -1297.99368089     A.U. after   13 cycles
             Convg  =    0.4721D-08             -V/T =  2.0064
 Range of M.O.s used for correlation:     1   685
 NBasis=   685 NAE=    91 NBE=    91 NFC=     0 NFV=     0
 NROrb=    685 NOA=    91 NOB=    91 NVA=   594 NVB=   594

 **** Warning!!: The largest alpha MO coefficient is  0.62374798D+02

          Differentiating once with respect to electric field.
                with respect to dipole field.
          Electric field/nuclear overlap derivatives assumed to be zero.
          There are     3 degrees of freedom in the 1st order CPHF.  IDoFFX=0.
      3 vectors produced by pass  0 Test12= 1.80D-12 3.33D-08 XBig12= 1.22D+02 1.04D+00.
 AX will form     3 AO Fock derivatives at one time.
      3 vectors produced by pass  1 Test12= 1.80D-12 3.33D-08 XBig12= 2.56D+01 3.98D-01.
      3 vectors produced by pass  2 Test12= 1.80D-12 3.33D-08 XBig12= 1.09D+01 2.57D-01.
      3 vectors produced by pass  3 Test12= 1.80D-12 3.33D-08 XBig12= 1.10D+00 1.05D-01.
      3 vectors produced by pass  4 Test12= 1.80D-12 3.33D-08 XBig12= 3.19D-01 5.01D-02.
      3 vectors produced by pass  5 Test12= 1.80D-12 3.33D-08 XBig12= 6.28D-02 2.15D-02.
      3 vectors produced by pass  6 Test12= 1.80D-12 3.33D-08 XBig12= 2.22D-02 1.96D-02.
      3 vectors produced by pass  7 Test12= 1.80D-12 3.33D-08 XBig12= 3.07D-03 9.84D-03.
      3 vectors produced by pass  8 Test12= 1.80D-12 3.33D-08 XBig12= 5.71D-04 2.70D-03.
      3 vectors produced by pass  9 Test12= 1.80D-12 3.33D-08 XBig12= 1.44D-04 1.45D-03.
      3 vectors produced by pass 10 Test12= 1.80D-12 3.33D-08 XBig12= 3.63D-05 5.45D-04.
      3 vectors produced by pass 11 Test12= 1.80D-12 3.33D-08 XBig12= 9.63D-06 3.63D-04.
      3 vectors produced by pass 12 Test12= 1.80D-12 3.33D-08 XBig12= 8.22D-07 9.16D-05.
      3 vectors produced by pass 13 Test12= 1.80D-12 3.33D-08 XBig12= 2.07D-07 3.35D-05.
      3 vectors produced by pass 14 Test12= 1.80D-12 3.33D-08 XBig12= 5.15D-08 2.26D-05.
      3 vectors produced by pass 15 Test12= 1.80D-12 3.33D-08 XBig12= 1.26D-08 8.25D-06.
      3 vectors produced by pass 16 Test12= 1.80D-12 3.33D-08 XBig12= 1.55D-09 3.01D-06.
      3 vectors produced by pass 17 Test12= 1.80D-12 3.33D-08 XBig12= 1.71D-10 1.12D-06.
      3 vectors produced by pass 18 Test12= 1.80D-12 3.33D-08 XBig12= 2.27D-11 3.14D-07.
      3 vectors produced by pass 19 Test12= 1.80D-12 3.33D-08 XBig12= 9.87D-12 2.42D-07.
      3 vectors produced by pass 20 Test12= 1.80D-12 3.33D-08 XBig12= 1.10D-11 3.17D-07.
      2 vectors produced by pass 21 Test12= 1.80D-12 3.33D-08 XBig12= 1.79D-12 1.33D-07.
 Inverted reduced A of dimension    65 with in-core refinement.
 End of Minotr Frequency-dependent properties file   721 does not exist.
 End of Minotr Frequency-dependent properties file   722 does not exist.
 Symmetrizing basis deriv contribution to polar:
 IMax=3 JMax=2 DiffMx= 0.00D+00
 G2DrvN: will do    16 centers at a time, making    3 passes doing MaxLOS=2.
 Calling FoFCou, ICntrl=  3107 FMM=F I1Cent=   0 AccDes= 0.00D+00.
 Calling FoFCou, ICntrl=  3107 FMM=F I1Cent=   0 AccDes= 0.00D+00.
 Calling FoFCou, ICntrl=  3107 FMM=F I1Cent=   0 AccDes= 0.00D+00.
 FoFDir/FoFCou used for L=0 through L=2.
 End of G2Drv Frequency-dependent properties file   721 does not exist.
 End of G2Drv Frequency-dependent properties file   722 does not exist.
          IDoAtm=111111111111111111111111111111111111111111111
          Differentiating once with respect to electric field.
                with respect to dipole field.
          Differentiating once with respect to nuclear coordinates.
          There are   138 degrees of freedom in the 1st order CPHF.  IDoFFX=5.
 Will reuse    3 saved solutions.
    135 vectors produced by pass  0 Test12= 5.41D-14 1.00D-09 XBig12= 1.51D-01 8.31D-02.
 AX will form    45 AO Fock derivatives at one time.
    135 vectors produced by pass  1 Test12= 5.41D-14 1.00D-09 XBig12= 1.71D-02 1.13D-02.
    132 vectors produced by pass  2 Test12= 5.41D-14 1.00D-09 XBig12= 1.19D-04 1.29D-03.
    132 vectors produced by pass  3 Test12= 5.41D-14 1.00D-09 XBig12= 4.23D-07 6.44D-05.
    132 vectors produced by pass  4 Test12= 5.41D-14 1.00D-09 XBig12= 9.00D-10 2.14D-06.
