Gaussian '09 started on node023 at Mon Feb  8 13:53:38 EST 2016.
 Entering Gaussian System, Link 0=/usr/local/gaussian/g09/g09
 Initial command:
 /usr/local/gaussian/g09/l1.exe /home/srmcgrat/thesis/gaussian/cellobiose/300/6000/1/2dfp/gaussian29828/Gau-29864.inp -scrdir=/home/srmcgrat/thesis/gaussian/cellobiose/300/6000/1/2dfp/gaussian29828/
 Entering Link 1 = /usr/local/gaussian/g09/l1.exe PID=     29866.
  
 Copyright (c) 1988,1990,1992,1993,1995,1998,2003,2009,2010,
            Gaussian, Inc.  All Rights Reserved.
  
 This is part of the Gaussian(R) 09 program.  It is based on
 the Gaussian(R) 03 system (copyright 2003, Gaussian, Inc.),
 the Gaussian(R) 98 system (copyright 1998, Gaussian, Inc.),
 the Gaussian(R) 94 system (copyright 1995, Gaussian, Inc.),
 the Gaussian 92(TM) system (copyright 1992, Gaussian, Inc.),
 the Gaussian 90(TM) system (copyright 1990, Gaussian, Inc.),
 the Gaussian 88(TM) system (copyright 1988, Gaussian, Inc.),
 the Gaussian 86(TM) system (copyright 1986, Carnegie Mellon
 University), and the Gaussian 82(TM) system (copyright 1983,
 Carnegie Mellon University). Gaussian is a federally registered
 trademark of Gaussian, Inc.
  
 This software contains proprietary and confidential information,
 including trade secrets, belonging to Gaussian, Inc.
  
 This software is provided under written license and may be
 used, copied, transmitted, or stored only in accord with that
 written license.
  
 The following legend is applicable only to US Government
 contracts under FAR:
  
                    RESTRICTED RIGHTS LEGEND
  
 Use, reproduction and disclosure by the US Government is
 subject to restrictions as set forth in subparagraphs (a)
 and (c) of the Commercial Computer Software - Restricted
 Rights clause in FAR 52.227-19.
  
 Gaussian, Inc.
 340 Quinnipiac St., Bldg. 40, Wallingford CT 06492
  
  
 ---------------------------------------------------------------
 Warning -- This program may not be used in any manner that
 competes with the business of Gaussian, Inc. or will provide
 assistance to any competitor of Gaussian, Inc.  The licensee
 of this program is prohibited from giving any competitor of
 Gaussian, Inc. access to this program.  By using this program,
 the user acknowledges that Gaussian, Inc. is engaged in the
 business of creating and licensing software in the field of
 computational chemistry and represents and warrants to the
 licensee that it is not a competitor of Gaussian, Inc. and that
 it will not use this program in any manner prohibited above.
 ---------------------------------------------------------------
  

 Cite this work as:
 Gaussian 09, Revision B.01,
 M. J. Frisch, G. W. Trucks, H. B. Schlegel, G. E. Scuseria, 
 M. A. Robb, J. R. Cheeseman, G. Scalmani, V. Barone, B. Mennucci, 
 G. A. Petersson, H. Nakatsuji, M. Caricato, X. Li, H. P. Hratchian, 
 A. F. Izmaylov, J. Bloino, G. Zheng, J. L. Sonnenberg, M. Hada, 
 M. Ehara, K. Toyota, R. Fukuda, J. Hasegawa, M. Ishida, T. Nakajima, 
 Y. Honda, O. Kitao, H. Nakai, T. Vreven, J. A. Montgomery, Jr., 
 J. E. Peralta, F. Ogliaro, M. Bearpark, J. J. Heyd, E. Brothers, 
 K. N. Kudin, V. N. Staroverov, T. Keith, R. Kobayashi, J. Normand, 
 K. Raghavachari, A. Rendell, J. C. Burant, S. S. Iyengar, J. Tomasi, 
 M. Cossi, N. Rega, J. M. Millam, M. Klene, J. E. Knox, J. B. Cross, 
 V. Bakken, C. Adamo, J. Jaramillo, R. Gomperts, R. E. Stratmann, 
 O. Yazyev, A. J. Austin, R. Cammi, C. Pomelli, J. W. Ochterski, 
 R. L. Martin, K. Morokuma, V. G. Zakrzewski, G. A. Voth, 
 P. Salvador, J. J. Dannenberg, S. Dapprich, A. D. Daniels, 
 O. Farkas, J. B. Foresman, J. V. Ortiz, J. Cioslowski, 
 and D. J. Fox, Gaussian, Inc., Wallingford CT, 2010.
 
 ******************************************
 Gaussian 09:  EM64L-G09RevB.01 12-Aug-2010
                 8-Feb-2016 
 ******************************************
 --------------------------------------------------
 # freq=raman b3lyp/6-31+g(2df,p) geom=connectivity
 --------------------------------------------------
 1/10=4,30=1,38=1,57=2/1,3;
 2/12=2,17=6,18=5,40=1/2;
 3/5=1,6=6,7=114,11=2,16=1,25=1,30=1,71=2,74=-5/1,2,3;
 4//1;
 5/5=2,38=5,98=1/2;
 8/6=4,10=90,11=11/1;
 10/13=10,15=4/2;
 11/6=3,8=1,9=11,15=111,16=1/1,2,10;
 10/6=1/2;
 6/7=2,8=2,9=2,10=2,18=1,28=1/1;
 7/8=1,10=1,25=1/1,2,3,16;
 1/10=4,30=1/3;
 99//99;
 ------------
 300 6000.com
 ------------
 Symbolic Z-matrix:
 Charge =  0 Multiplicity = 1
 O                     7.723     7.548     12.042 
 C                     8.19      7.927     13.345 
 C                     7.732     9.278     13.87 
 O                     7.927     10.312    12.894 
 H                     7.794     9.999     11.954 
 C                     8.361     9.669     15.197 
 O                     7.817     10.802    15.889 
 H                     8.369     10.969    16.707 
 C                     8.415     5.504     14.125 
 O                     8.115     4.76      12.936 
 H                     8.15      3.788     13.168 
 C                     7.909     6.904     14.433 
 O                     8.59      7.307     15.631 
 C                     8.149     8.548     16.201 
 O                     8.979     8.632     17.368 
 C                     8.382     8.344     18.641 
 C                     8.983     7.013     19.065 
 O                     8.637     5.889     18.243 
 H                     8.816     6.133     17.29 
 C                     8.527     6.634     20.465 
 O                     9.126     5.499     21.107 
 H                     8.578     5.266     21.911 
 C                     8.225     10.801    19.445 
 O                     8.707     11.503    18.29 
 H                     8.369     12.439    18.392 
 C                     8.668     9.374     19.721 
 O                     8.102     8.939     20.966 
 C                     8.65      7.73      21.51 
 O                     7.667     7.635     22.551 
 H                     8.4747    7.38123   11.46865 
 H                     8.10714   7.55746   23.40063 
 H                     9.64469   7.85789   21.88302 
 H                     7.48338   6.41321   20.38132 
 H                     10.04843   7.11166   19.07086 
 H                     7.32409   8.23597   18.52246 
 H                     9.72978   9.39916   19.85096 
 H                     8.49267   11.38411   20.30129 
 H                     7.15678   10.79196   19.3839 
 H                     7.11792   8.48412   16.47972 
 H                     9.41102   9.81776   15.0548 
 H                     6.67781   9.20329   14.03734 
 H                     9.25517   7.98843   13.26413 
 H                     6.85611   6.86652   14.61985 
 H                     8.09905   4.89077   14.94294 
 H                     9.48237   5.5596    14.1754 
 

 GradGradGradGradGradGradGradGradGradGradGradGradGradGradGradGradGradGrad
 Berny optimization.
 Initialization pass.
 Trust Radius=3.00D-01 FncErr=1.00D-07 GrdErr=1.00D-07
 Number of steps in this run=      2 maximum allowed number of steps=      2.
 GradGradGradGradGradGradGradGradGradGradGradGradGradGradGradGradGradGrad

                          Input orientation:                          
 ---------------------------------------------------------------------
 Center     Atomic      Atomic             Coordinates (Angstroms)
 Number     Number       Type             X           Y           Z
 ---------------------------------------------------------------------
      1          8           0        7.723000    7.548000   12.042000
      2          6           0        8.190000    7.927000   13.345000
      3          6           0        7.732000    9.278000   13.870000
      4          8           0        7.927000   10.312000   12.894000
      5          1           0        7.794000    9.999000   11.954000
      6          6           0        8.361000    9.669000   15.197000
      7          8           0        7.817000   10.802000   15.889000
      8          1           0        8.369000   10.969000   16.707000
      9          6           0        8.415000    5.504000   14.125000
     10          8           0        8.115000    4.760000   12.936000
     11          1           0        8.150000    3.788000   13.168000
     12          6           0        7.909000    6.904000   14.433000
     13          8           0        8.590000    7.307000   15.631000
     14          6           0        8.149000    8.548000   16.201000
     15          8           0        8.979000    8.632000   17.368000
     16          6           0        8.382000    8.344000   18.641000
     17          6           0        8.983000    7.013000   19.065000
     18          8           0        8.637000    5.889000   18.243000
     19          1           0        8.816000    6.133000   17.290000
     20          6           0        8.527000    6.634000   20.465000
     21          8           0        9.126000    5.499000   21.107000
     22          1           0        8.578000    5.266000   21.911000
     23          6           0        8.225000   10.801000   19.445000
     24          8           0        8.707000   11.503000   18.290000
     25          1           0        8.369000   12.439000   18.392000
     26          6           0        8.668000    9.374000   19.721000
     27          8           0        8.102000    8.939000   20.966000
     28          6           0        8.650000    7.730000   21.510000
     29          8           0        7.667000    7.635000   22.551000
     30          1           0        8.474703    7.381231   11.468650
     31          1           0        8.107137    7.557464   23.400628
     32          1           0        9.644685    7.857888   21.883024
     33          1           0        7.483377    6.413211   20.381317
     34          1           0       10.048426    7.111658   19.070855
     35          1           0        7.324088    8.235968   18.522461
     36          1           0        9.729781    9.399159   19.850958
     37          1           0        8.492669   11.384112   20.301291
     38          1           0        7.156784   10.791963   19.383901
     39          1           0        7.117916    8.484122   16.479722
     40          1           0        9.411024    9.817758   15.054804
     41          1           0        6.677811    9.203291   14.037343
     42          1           0        9.255170    7.988435   13.264134
     43          1           0        6.856107    6.866518   14.619848
     44          1           0        8.099050    4.890769   14.942938
     45          1           0        9.482365    5.559597   14.175400
 ---------------------------------------------------------------------
                    Distance matrix (angstroms):
                    1          2          3          4          5
     1  O    0.000000
     2  C    1.435109   0.000000
     3  C    2.516856   1.520062   0.000000
     4  O    2.899520   2.441474   1.435185   0.000000
     5  H    2.453607   2.526832   2.048107   0.999629   0.000000
     6  C    3.854829   2.548276   1.519688   2.430147   3.308691
     7  O    5.039520   3.857031   2.531040   3.036812   4.016163
     8  H    5.820892   4.537494   3.363602   3.894353   4.884929
     9  C    2.999281   2.555377   3.843773   4.987020   5.030299
    10  O    2.953954   3.194181   4.629403   5.555341   5.339896
    11  H    3.948139   4.142976   5.550462   6.533558   6.338537
    12  C    2.483186   1.519616   2.446257   3.739426   3.967076
    13  O    3.700093   2.402123   2.778871   4.118345   4.626101
    14  C    4.298692   2.923022   2.477973   3.754628   4.502048
    15  O    5.578429   4.159817   3.769394   4.893443   5.708267
    16  C    6.679423   5.315860   4.904824   6.091638   6.913808
    17  C    7.155163   5.846593   5.803727   7.076707   7.803604
    18  O    6.483832   5.323876   5.606021   6.977022   7.560044
    19  H    5.544220   4.378737   4.771004   6.130186   6.668083
    20  C    8.510508   7.244296   7.149600   8.438467   9.181374
    21  O    9.398991   8.186570   8.282406   9.594579  10.285992
    22  H   10.165417   8.978186   9.026048  10.353367  11.052502
    23  C    8.101754   6.743226   5.800276   6.575981   7.546128
    24  O    7.459744   6.124385   5.043575   5.580654   6.575749
    25  H    8.041250   6.772178   5.553933   5.911641   6.908840
    26  C    7.949487   6.555583   5.926172   6.930862   7.840969
    27  O    9.039707   7.688402   7.113722   8.189807   9.079351
    28  C    9.515013   8.180320   7.849116   9.023575   9.858916
    29  O   10.509509   9.225466   8.835351  10.024549  10.858224
    30  H    0.960000   1.974743   3.148940   3.304695   2.748024
    31  H   11.365126  10.062757   9.691947  10.863202  11.708307
    32  H   10.031682   8.661335   8.359643   9.475001  10.324481
    33  H    8.419583   7.231918   7.118011   8.453240   9.163735
    34  H    7.416388   6.074862   6.091614   7.272976   8.004299
    35  H    6.529074   5.258457   4.785146   6.029344   6.817168
    36  H    8.272472   6.845850   6.306954   7.244485   8.152853
    37  H    9.139148   7.773880   6.809980   7.505822   8.490226
    38  H    8.046577   6.763422   5.746831   6.553046   7.499218
    39  H    4.575569   3.359499   2.796067   4.105259   4.820177
    40  H    4.132580   2.826535   2.124670   2.667523   3.501800
    41  H    2.795318   2.096419   1.070000   2.024091   2.493863
    42  H    2.008765   1.070000   2.085689   2.701849   2.809598
    43  H    2.803787   2.128175   2.672959   3.999589   4.218867
    44  H    3.951928   3.432256   4.531415   5.798060   5.926283
    45  H    3.405952   2.822122   4.121113   5.162023   5.243424
                    6          7          8          9         10
     6  C    0.000000
     7  O    1.434744   0.000000
     8  H    1.992527   1.000858   0.000000
     9  C    4.301084   5.615880   6.044424   0.000000
    10  O    5.410260   6.731625   7.268881   1.434314   0.000000
    11  H    6.224751   7.530666   8.008698   1.982607   0.999916
    12  C    2.904002   4.162067   4.680481   1.520164   2.623010
    13  O    2.412435   3.588749   3.823200   2.355731   3.738430
    14  C    1.519737   2.299583   2.483078   3.694113   5.001032
    15  O    2.484056   2.871687   2.504115   4.540873   5.948235
    16  C    3.690149   3.732893   3.260544   5.334880   6.742653
    17  C    4.733143   5.079671   4.646192   5.196470   6.587418
    18  O    4.862375   5.509200   5.313899   4.141912   5.450814
    19  H    4.134123   4.975979   4.891482   3.251718   4.618858
    20  C    6.081990   6.230257   5.739316   6.440888   7.769650
    21  O    7.273392   7.553993   7.060733   7.018110   8.266407
    22  H    8.031892   8.215285   7.723309   7.791342   9.001168
    23  C    4.398343   3.579330   2.746926   7.509774   8.881039
    24  O    3.612467   2.654864   1.704491   7.308932   8.630401
    25  H    4.228592   3.041296   2.236096   8.142704   9.423348
    26  C    4.543991   4.177034   3.423101   6.808533   8.223809
    27  O    5.820768   5.415526   4.725597   7.661362   9.052354
    28  C    6.610387   6.459622   5.799904   7.716769   9.089588
    29  O    7.661600   7.377983   6.764665   8.723425  10.045624
    30  H    4.375775   5.627942   6.350084   3.253269   3.025451
    31  H    8.474818   8.187536   7.517433   9.505197  10.832096
    32  H    7.044919   6.923622   6.172326   8.199990   9.590937
    33  H    6.184458   6.289172   5.919472   6.390312   7.652764
    34  H    4.939044   5.359299   4.825699   5.451067   6.848714
    35  H    3.766624   3.709798   3.443429   5.290690   6.626948
    36  H    4.858570   4.617771   3.768368   7.048937   8.482096
    37  H    5.386347   4.501521   3.620295   8.528090   9.913072
    38  H    4.499036   3.556729   2.943911   7.563181   8.881339
    39  H    2.143494   2.492033   2.791323   4.013511   5.236528
    40  H    1.070000   2.050739   2.267360   4.523838   5.634707
    41  H    2.096381   2.698566   3.620071   4.087819   4.798052
    42  H    2.712897   4.107847   4.639223   2.760324   3.439542
    43  H    3.232911   4.245242   4.845143   2.128726   2.976167
    44  H    4.792146   5.993099   6.334799   1.070000   2.011257
    45  H    4.380448   5.761307   6.075378   1.070000   2.011257
                   11         12         13         14         15
    11  H    0.000000
    12  C    3.371611   0.000000
    13  O    4.317792   1.435749   0.000000
    14  C    5.644173   2.426141   1.435083   0.000000
    15  O    6.464641   3.570029   2.219035   1.434519   0.000000
    16  C    7.124934   4.472649   3.190413   2.459574   1.435229
    17  C    6.772675   4.756131   3.468896   3.354739   2.345418
    18  O    5.514254   4.009527   2.972453   3.387948   2.899420
    19  H    4.788890   3.095083   2.044904   2.731856   2.505525
    20  C    7.841432   6.069584   4.881030   4.689134   3.713182
    21  O    8.179720   6.928015   5.791609   5.858307   4.880309
    22  H    8.877371   7.684471   6.603350   6.599975   5.668298
    23  C    9.412148   6.356619   5.185350   3.950357   3.096289
    24  O    9.277196   6.055085   4.968942   3.661599   3.027657
    25  H   10.108310   6.820668   5.831757   4.470879   3.989226
    26  C    8.626328   5.885569   4.583304   3.652675   2.486744
    27  O    9.345796   6.845331   5.600339   4.781246   3.716044
    28  C    9.240039   7.163469   5.894503   5.394961   4.251824
    29  O   10.152506   8.154437   6.988985   6.433381   5.438643
    30  H    3.988049   3.055346   4.164608   4.884933   6.051534
    31  H   10.904924   8.993588   7.788646   7.267569   6.189295
    32  H    9.733946   7.708784   6.364247   5.915972   4.629020
    33  H    7.705067   5.983687   4.958728   4.740826   4.029887
    34  H    7.035227   5.111748   3.741359   3.729204   2.520878
    35  H    7.009765   4.340502   3.290298   2.483350   2.056297
    36  H    8.868074   6.236612   4.846058   4.067620   2.705048
    37  H   10.426034   7.406005   6.200317   4.997402   4.051522
    38  H    9.416974   6.339835   5.318209   4.018796   3.471278
    39  H    5.838344   2.704010   2.067118   1.070000   2.067496
    40  H    6.442685   3.336571   2.703699   2.125737   2.635060
    41  H    5.678774   2.638012   3.129237   2.697260   4.088413
    42  H    4.344455   2.086724   2.551247   3.187775   4.163191
    43  H    3.641331   1.070000   2.054954   2.645561   3.895631
    44  H    2.090239   2.085487   2.559811   3.867888   4.544452
    45  H    2.434873   2.085487   2.443052   3.848567   4.459342
                   16         17         18         19         20
    16  C    0.000000
    17  C    1.520703   0.000000
    18  O    2.500091   1.434844   0.000000
    19  H    2.627181   1.988194   0.999893   0.000000
    20  C    2.504416   1.520387   2.346148   3.227251   0.000000
    21  O    3.837801   2.546058   2.931504   3.881694   1.434988
    22  H    4.495042   3.363889   3.720999   4.707651   1.991216
    23  C    2.589964   3.881740   5.073686   5.175281   4.300639
    24  O    3.195013   4.564745   5.614633   5.463404   5.335746
    25  H    4.102584   5.501945   6.557174   6.417153   6.166062
    26  C    1.519571   2.470604   3.785587   4.054102   2.842713
    27  O    2.416206   2.845951   4.123524   4.679360   2.396800
    28  C    2.946181   2.569631   3.750032   4.515126   1.519332
    29  O    4.037574   3.777689   4.748503   5.590557   2.468400
    30  H    7.237273   7.622237   6.938654   5.963445   9.027480
    31  H    4.832002   4.456596   5.446619   6.314377   3.105959
    32  H    3.513032   3.015447   4.259310   4.975723   2.181264
    33  H    2.750304   2.083580   2.485567   3.377965   1.070000
    34  H    2.116700   1.070000   2.042636   2.376571   2.118144
    35  H    1.070000   2.131194   2.703719   2.857838   2.790476
    36  H    2.096156   2.620909   4.012595   4.249858   3.077309
    37  H    3.465702   4.568967   5.869723   6.061897   4.753056
    38  H    2.836473   4.209195   5.247070   5.370601   4.509426
    39  H    2.507721   3.510898   3.485890   3.011281   4.614208
    40  H    4.011440   4.912387   5.118481   4.350586   6.339403
    41  H    4.983603   5.948832   5.701797   4.957652   7.164881
    42  H    5.458896   5.888599   5.438646   4.454560   7.363233
    43  H    4.547633   4.929960   4.153835   3.392482   6.083728
    44  H    5.067596   4.719812   3.489450   2.750610   5.806476
    45  H    5.376364   5.125420   4.167555   3.236289   6.451832
                   21         22         23         24         25
    21  O    0.000000
    22  H    1.000504   0.000000
    23  C    5.628965   6.069760   0.000000
    24  O    6.645229   7.213075   1.434975   0.000000
    25  H    7.490519   7.992432   1.952585   1.000372   0.000000
    26  C    4.140819   4.656164   1.519458   2.565526   3.354082
    27  O    3.591943   3.822372   2.407408   3.755143   4.352788
    28  C    2.316538   2.497455   3.725036   4.960562   5.654694
    29  O    2.962484   2.617572   4.470140   5.848004   6.392848
    30  H    9.841990  10.654931   8.682127   7.973315   8.574670
    31  H    3.245934   2.773358   5.116777   6.484258   6.998880
    32  H    2.536848   2.802941   4.076932   5.203452   5.899255
    33  H    2.015095   2.203230   4.547459   5.637092   6.407171
    34  H    2.756342   3.692564   4.132325   4.657579   5.626890
    35  H    4.173454   4.677093   2.870907   3.555275   4.332936
    36  H    4.141670   4.759556   2.096264   2.812262   3.636058
    37  H    5.973677   6.326906   1.070000   2.026170   2.184828
    38  H    5.904434   6.240381   1.070000   2.026170   2.272898
    39  H    5.861319   6.479733   3.922554   3.862113   4.567611
    40  H    7.440563   8.271629   4.652659   3.715129   4.369622
    41  H    8.348380   9.005967   5.847155   5.243220   5.682690
    42  H    8.229491   9.090572   6.868397   6.157271   6.847470
    43  H    7.007543   7.660774   6.374646   6.196191   6.897139
    44  H    6.278553   6.994575   7.430697   7.435995   8.303294
    45  H    6.941019   7.793817   7.538034   7.270156   8.145274
                   26         27         28         29         30
    26  C    0.000000
    27  O    1.435133   0.000000
    28  C    2.429729   1.434546   0.000000
    29  O    3.469153   2.098062   1.434920   0.000000
    30  H    8.491747   9.631470  10.048934  11.114642   0.000000
    31  H    4.141743   2.799300   1.974574   0.960000  11.938939
    32  H    2.815467   2.095140   1.070000   2.099312  10.490721
    33  H    3.256627   2.665363   2.090184   2.496800   9.019724
    34  H    2.728819   3.274038   2.878779   4.249292   7.768063
    35  H    2.130190   2.659000   3.307482   4.087527   7.197968
    36  H    1.070000   2.026014   2.589293   3.828518   8.712654
    37  H    2.099530   2.563793   3.852047   4.449580   9.697367
    38  H    2.099530   2.613416   4.015670   4.500806   8.719014
    39  H    3.701422   4.615412   5.312220   6.154910   5.307361
    40  H    4.745776   6.117842   6.826964   7.999938   4.435523
    41  H    6.024446   7.078450   7.867701   8.713230   3.625867
    42  H    6.629908   7.845516   8.272081   9.428313   2.049777
    43  H    5.965917   6.791250   7.172018   8.009449   3.579781
    44  H    6.576697   7.257097   7.175729   8.099387   4.291177
    45  H    6.779863   7.709606   7.694143   8.817796   3.414708
                   31         32         33         34         35
    31  H    0.000000
    32  H    2.181154   0.000000
    33  H    3.288561   3.002243   0.000000
    34  H    4.765950   2.937372   2.963885   0.000000
    35  H    4.986988   4.101401   2.608287   2.997803   0.000000
    36  H    4.315666   2.551872   3.774055   2.437777   2.984170
    37  H    4.939409   4.032775   5.072960   4.710436   3.800082
    38  H    5.243972   4.587381   4.502773   4.690867   2.702439
    39  H    7.052389   5.997699   4.432232   4.145542   2.068060
    40  H    8.744245   7.107761   6.608971   4.884457   4.345343
    41  H    9.613679   8.495125   6.977068   6.408761   4.633537
    42  H   10.210398   8.628674   7.501658   5.925876   5.607170
    43  H    8.896324   7.843003   5.813216   5.482924   4.162306
    44  H    8.868137   7.704386   5.680920   5.076624   4.960233
    45  H    9.538740   8.044622   6.575562   5.166701   5.542388
                   36         37         38         39         40
    36  H    0.000000
    37  H    2.381865   0.000000
    38  H    2.962829   1.725350   0.000000
    39  H    4.361692   4.990418   3.709703   0.000000
    40  H    4.824927   5.551798   4.977123   3.011199   0.000000
    41  H    6.568942   6.876535   5.598123   2.583817   2.980479
    42  H    6.752900   7.850708   7.050854   3.892758   2.564608
    43  H    6.483578   7.440818   6.180269   2.478774   3.927672
    44  H    6.861015   8.427953   7.445409   4.029456   5.099903
    45  H    6.856778   8.510641   7.740444   4.410597   4.348607
                   41         42         43         44         45
    41  H    0.000000
    42  H    2.952373   0.000000
    43  H    2.414873   2.975258   0.000000
    44  H    4.630105   3.708171   2.356454   0.000000
    45  H    4.600119   2.604089   2.966952   1.717558   0.000000
 Stoichiometry    C12H22O11
 Framework group  C1[X(C12H22O11)]
 Deg. of freedom   129
 Full point group                 C1      NOp   1
 Largest Abelian subgroup         C1      NOp   1
 Largest concise Abelian subgroup C1      NOp   1
                         Standard orientation:                         
 ---------------------------------------------------------------------
 Center     Atomic      Atomic             Coordinates (Angstroms)
 Number     Number       Type             X           Y           Z
 ---------------------------------------------------------------------
      1          8           0       -5.115626   -0.401894    0.346279
      2          6           0       -3.779376   -0.080057   -0.066509
      3          6           0       -3.245480    1.282480    0.344635
      4          8           0       -4.181943    2.325755    0.037436
      5          1           0       -5.135692    2.042445    0.134173
      6          6           0       -1.876007    1.606511   -0.228950
      7          8           0       -1.185856    2.752538    0.289511
      8          1           0       -0.334523    2.869033   -0.223693
      9          6           0       -3.051513   -2.529162   -0.111821
     10          8           0       -4.274254   -3.227439    0.161258
     11          1           0       -4.066072   -4.204909    0.193583
     12          6           0       -2.735589   -1.110015    0.332152
     13          8           0       -1.491688   -0.774017   -0.301244
     14          6           0       -0.914802    0.476728    0.101621
     15          8           0        0.298083    0.486545   -0.664315
     16          6           0        1.528203    0.203976    0.018942
     17          6           0        1.949959   -1.168474   -0.482098
     18          8           0        1.081092   -2.251812   -0.121234
     19          1           0        0.146122   -1.996660   -0.367234
     20          6           0        3.312266   -1.552815    0.072862
     21          8           0        3.956610   -2.734511   -0.424737
     22          1           0        4.722748   -2.954240    0.180045
     23          6           0        2.386025    2.646881    0.084317
     24          8           0        1.278112    3.346521   -0.500648
     25          1           0        1.385620    4.297685   -0.210004
     26          6           0        2.648824    1.191006   -0.262266
     27          8           0        3.848881    0.760589    0.396681
     28          6           0        4.390661   -0.489817   -0.051515
     29          8           0        5.372907   -0.552437    0.992644
     30          1           0       -5.650699   -0.598070   -0.426257
     31          1           0        6.243256   -0.674364    0.606345
     32          1           0        4.821299   -0.427408   -1.029040
     33          1           0        3.165303   -1.711784    1.120731
     34          1           0        2.017264   -1.130865   -1.549316
     35          1           0        1.348597    0.159163    1.072808
     36          1           0        2.837883    1.152621   -1.314731
     37          1           0        3.270700    3.194032   -0.166431
     38          1           0        2.265760    2.700148    1.146202
     39          1           0       -0.695257    0.465363    1.148794
     40          1           0       -1.956023    1.698391   -1.291990
     41          1           0       -3.138665    1.264170    1.409132
     42          1           0       -3.799614   -0.077602   -1.136315
     43          1           0       -2.608263   -1.091688    1.394391
     44          1           0       -2.268541   -3.141951    0.283585
     45          1           0       -2.940761   -2.535664   -1.176053
 ---------------------------------------------------------------------
 Rotational constants (GHZ):      0.4036365      0.1443136      0.1092824
 Standard basis: 6-31+G(2df,p) (6D, 7F)
 There are   846 symmetry adapted basis functions of A   symmetry.
 Integral buffers will be    131072 words long.
 Raffenetti 2 integral format.
 Two-electron integral symmetry is turned on.
   846 basis functions,  1258 primitive gaussians,   915 cartesian basis functions
    91 alpha electrons       91 beta electrons
       nuclear repulsion energy      2279.5767959939 Hartrees.
 NAtoms=   45 NActive=   45 NUniq=   45 SFac= 1.00D+00 NAtFMM=   50 NAOKFM=F Big=F
 One-electron integrals computed using PRISM.
 NBasis=   846 RedAO= T  NBF=   846
 NBsUse=   846 1.00D-06 NBFU=   846
 Harris functional with IExCor=  402 diagonalized for initial guess.
 ExpMin= 4.38D-02 ExpMax= 5.48D+03 ExpMxC= 8.25D+02 IAcc=2 IRadAn=         0 AccDes= 0.00D+00
 HarFok:  IExCor=  402 AccDes= 0.00D+00 IRadAn=         0 IDoV= 1
 ScaDFX=  1.000000  1.000000  1.000000  1.000000
 FoFCou: FMM=F IPFlag=           0 FMFlag=      100000 FMFlg1=           0
         NFxFlg=           0 DoJE=T BraDBF=F KetDBF=T FulRan=T
         Omega=  0.000000  0.000000  1.000000  0.000000  0.000000 ICntrl=     500 IOpCl=  0
         NMat0=    1 NMatS0=    1 NMatT0=    0 NMatD0=    1 NMtDS0=    0 NMtDT0=    0
         I1Cent=           4 NGrid=           0.
 Petite list used in FoFCou.
 Initial guess orbital symmetries:
       Occupied  (A) (A) (A) (A) (A) (A) (A) (A) (A) (A) (A) (A)
                 (A) (A) (A) (A) (A) (A) (A) (A) (A) (A) (A) (A)
                 (A) (A) (A) (A) (A) (A) (A) (A) (A) (A) (A) (A)
                 (A) (A) (A) (A) (A) (A) (A) (A) (A) (A) (A) (A)
                 (A) (A) (A) (A) (A) (A) (A) (A) (A) (A) (A) (A)
                 (A) (A) (A) (A) (A) (A) (A) (A) (A) (A) (A) (A)
                 (A) (A) (A) (A) (A) (A) (A) (A) (A) (A) (A) (A)
                 (A) (A) (A) (A) (A) (A) (A)
       Virtual   (A) (A) (A) (A) (A) (A) (A) (A) (A) (A) (A) (A)
                 (A) (A) (A) (A) (A) (A) (A) (A) (A) (A) (A) (A)
                 (A) (A) (A) (A) (A) (A) (A) (A) (A) (A) (A) (A)
                 (A) (A) (A) (A) (A) (A) (A) (A) (A) (A) (A) (A)
                 (A) (A) (A) (A) (A) (A) (A) (A) (A) (A) (A) (A)
                 (A) (A) (A) (A) (A) (A) (A) (A) (A) (A) (A) (A)
                 (A) (A) (A) (A) (A) (A) (A) (A) (A) (A) (A) (A)
                 (A) (A) (A) (A) (A) (A) (A) (A) (A) (A) (A) (A)
                 (A) (A) (A) (A) (A) (A) (A) (A) (A) (A) (A) (A)
                 (A) (A) (A) (A) (A) (A) (A) (A) (A) (A) (A) (A)
                 (A) (A) (A) (A) (A) (A) (A) (A) (A) (A) (A) (A)
                 (A) (A) (A) (A) (A) (A) (A) (A) (A) (A) (A) (A)
                 (A) (A) (A) (A) (A) (A) (A) (A) (A) (A) (A) (A)
                 (A) (A) (A) (A) (A) (A) (A) (A) (A) (A) (A) (A)
                 (A) (A) (A) (A) (A) (A) (A) (A) (A) (A) (A) (A)
                 (A) (A) (A) (A) (A) (A) (A) (A) (A) (A) (A) (A)
                 (A) (A) (A) (A) (A) (A) (A) (A) (A) (A) (A) (A)
                 (A) (A) (A) (A) (A) (A) (A) (A) (A) (A) (A) (A)
                 (A) (A) (A) (A) (A) (A) (A) (A) (A) (A) (A) (A)
                 (A) (A) (A) (A) (A) (A) (A) (A) (A) (A) (A) (A)
                 (A) (A) (A) (A) (A) (A) (A) (A) (A) (A) (A) (A)
                 (A) (A) (A) (A) (A) (A) (A) (A) (A) (A) (A) (A)
                 (A) (A) (A) (A) (A) (A) (A) (A) (A) (A) (A) (A)
                 (A) (A) (A) (A) (A) (A) (A) (A) (A) (A) (A) (A)
                 (A) (A) (A) (A) (A) (A) (A) (A) (A) (A) (A) (A)
                 (A) (A) (A) (A) (A) (A) (A) (A) (A) (A) (A) (A)
                 (A) (A) (A) (A) (A) (A) (A) (A) (A) (A) (A) (A)
                 (A) (A) (A) (A) (A) (A) (A) (A) (A) (A) (A) (A)
                 (A) (A) (A) (A) (A) (A) (A) (A) (A) (A) (A) (A)
                 (A) (A) (A) (A) (A) (A) (A) (A) (A) (A) (A) (A)
                 (A) (A) (A) (A) (A) (A) (A) (A) (A) (A) (A) (A)
                 (A) (A) (A) (A) (A) (A) (A) (A) (A) (A) (A) (A)
                 (A) (A) (A) (A) (A) (A) (A) (A) (A) (A) (A) (A)
                 (A) (A) (A) (A) (A) (A) (A) (A) (A) (A) (A) (A)
                 (A) (A) (A) (A) (A) (A) (A) (A) (A) (A) (A) (A)
                 (A) (A) (A) (A) (A) (A) (A) (A) (A) (A) (A) (A)
                 (A) (A) (A) (A) (A) (A) (A) (A) (A) (A) (A) (A)
                 (A) (A) (A) (A) (A) (A) (A) (A) (A) (A) (A) (A)
                 (A) (A) (A) (A) (A) (A) (A) (A) (A) (A) (A) (A)
                 (A) (A) (A) (A) (A) (A) (A) (A) (A) (A) (A) (A)
                 (A) (A) (A) (A) (A) (A) (A) (A) (A) (A) (A) (A)
                 (A) (A) (A) (A) (A) (A) (A) (A) (A) (A) (A) (A)
                 (A) (A) (A) (A) (A) (A) (A) (A) (A) (A) (A) (A)
                 (A) (A) (A) (A) (A) (A) (A) (A) (A) (A) (A) (A)
                 (A) (A) (A) (A) (A) (A) (A) (A) (A) (A) (A) (A)
                 (A) (A) (A) (A) (A) (A) (A) (A) (A) (A) (A) (A)
                 (A) (A) (A) (A) (A) (A) (A) (A) (A) (A) (A) (A)
                 (A) (A) (A) (A) (A) (A) (A) (A) (A) (A) (A) (A)
                 (A) (A) (A) (A) (A) (A) (A) (A) (A) (A) (A) (A)
                 (A) (A) (A) (A) (A) (A) (A) (A) (A) (A) (A) (A)
                 (A) (A) (A) (A) (A) (A) (A) (A) (A) (A) (A) (A)
                 (A) (A) (A) (A) (A) (A) (A) (A) (A) (A) (A) (A)
                 (A) (A) (A) (A) (A) (A) (A) (A) (A) (A) (A) (A)
                 (A) (A) (A) (A) (A) (A) (A) (A) (A) (A) (A) (A)
                 (A) (A) (A) (A) (A) (A) (A) (A) (A) (A) (A) (A)
                 (A) (A) (A) (A) (A) (A) (A) (A) (A) (A) (A) (A)
                 (A) (A) (A) (A) (A) (A) (A) (A) (A) (A) (A) (A)
                 (A) (A) (A) (A) (A) (A) (A) (A) (A) (A) (A) (A)
                 (A) (A) (A) (A) (A) (A) (A) (A) (A) (A) (A) (A)
                 (A) (A) (A) (A) (A) (A) (A) (A) (A) (A) (A) (A)
                 (A) (A) (A) (A) (A) (A) (A) (A) (A) (A) (A) (A)
                 (A) (A) (A) (A) (A) (A) (A) (A) (A) (A) (A) (A)
                 (A) (A) (A) (A) (A) (A) (A) (A) (A) (A) (A)
 The electronic state of the initial guess is 1-A.
 Requested convergence on RMS density matrix=1.00D-08 within 128 cycles.
 Requested convergence on MAX density matrix=1.00D-06.
 Requested convergence on             energy=1.00D-06.
 No special actions if energy rises.
 SCF Done:  E(RB3LYP) =  -1298.00334554     A.U. after   13 cycles
             Convg  =    0.3110D-08             -V/T =  2.0066
 Range of M.O.s used for correlation:     1   846
 NBasis=   846 NAE=    91 NBE=    91 NFC=     0 NFV=     0
 NROrb=    846 NOA=    91 NOB=    91 NVA=   755 NVB=   755

 **** Warning!!: The largest alpha MO coefficient is  0.64953844D+02

          Differentiating once with respect to electric field.
                with respect to dipole field.
          Electric field/nuclear overlap derivatives assumed to be zero.
          There are     3 degrees of freedom in the 1st order CPHF.  IDoFFX=0.
      3 vectors produced by pass  0 Test12= 2.29D-12 3.33D-08 XBig12= 1.25D+02 1.37D+00.
 AX will form     3 AO Fock derivatives at one time.
      3 vectors produced by pass  1 Test12= 2.29D-12 3.33D-08 XBig12= 2.52D+01 3.66D-01.
      3 vectors produced by pass  2 Test12= 2.29D-12 3.33D-08 XBig12= 1.08D+01 2.39D-01.
      3 vectors produced by pass  3 Test12= 2.29D-12 3.33D-08 XBig12= 1.08D+00 9.16D-02.
      3 vectors produced by pass  4 Test12= 2.29D-12 3.33D-08 XBig12= 3.01D-01 4.64D-02.
      3 vectors produced by pass  5 Test12= 2.29D-12 3.33D-08 XBig12= 6.26D-02 2.63D-02.
      3 vectors produced by pass  6 Test12= 2.29D-12 3.33D-08 XBig12= 2.01D-02 1.70D-02.
      3 vectors produced by pass  7 Test12= 2.29D-12 3.33D-08 XBig12= 3.33D-03 9.42D-03.
      3 vectors produced by pass  8 Test12= 2.29D-12 3.33D-08 XBig12= 5.69D-04 2.59D-03.
      3 vectors produced by pass  9 Test12= 2.29D-12 3.33D-08 XBig12= 1.74D-04 1.64D-03.
      3 vectors produced by pass 10 Test12= 2.29D-12 3.33D-08 XBig12= 4.16D-05 6.09D-04.
      3 vectors produced by pass 11 Test12= 2.29D-12 3.33D-08 XBig12= 1.28D-05 4.01D-04.
      3 vectors produced by pass 12 Test12= 2.29D-12 3.33D-08 XBig12= 1.56D-06 1.40D-04.
      3 vectors produced by pass 13 Test12= 2.29D-12 3.33D-08 XBig12= 5.51D-07 5.70D-05.
      3 vectors produced by pass 14 Test12= 2.29D-12 3.33D-08 XBig12= 6.06D-08 2.23D-05.
      3 vectors produced by pass 15 Test12= 2.29D-12 3.33D-08 XBig12= 1.11D-08 8.36D-06.
      3 vectors produced by pass 16 Test12= 2.29D-12 3.33D-08 XBig12= 2.21D-09 3.59D-06.
      3 vectors produced by pass 17 Test12= 2.29D-12 3.33D-08 XBig12= 1.74D-10 1.24D-06.
      3 vectors produced by pass 18 Test12= 2.29D-12 3.33D-08 XBig12= 2.44D-11 4.45D-07.
      3 vectors produced by pass 19 Test12= 2.29D-12 3.33D-08 XBig12= 6.99D-12 2.14D-07.
      3 vectors produced by pass 20 Test12= 2.29D-12 3.33D-08 XBig12= 1.79D-12 9.24D-08.
      2 vectors produced by pass 21 Test12= 2.29D-12 3.33D-08 XBig12= 4.23D-13 4.12D-08.
 Inverted reduced A of dimension    65 with in-core refinement.
 End of Minotr Frequency-dependent properties file   721 does not exist.
 End of Minotr Frequency-dependent properties file   722 does not exist.
 Symmetrizing basis deriv contribution to polar:
 IMax=3 JMax=2 DiffMx= 0.00D+00
 G2DrvN: will do     8 centers at a time, making    6 passes doing MaxLOS=3.
 Calling FoFCou, ICntrl=  3107 FMM=F I1Cent=   0 AccDes= 0.00D+00.
 Calling FoFCou, ICntrl=  3107 FMM=F I1Cent=   0 AccDes= 0.00D+00.
 Calling FoFCou, ICntrl=  3107 FMM=F I1Cent=   0 AccDes= 0.00D+00.
 Calling FoFCou, ICntrl=  3107 FMM=F I1Cent=   0 AccDes= 0.00D+00.
 Calling FoFCou, ICntrl=  3107 FMM=F I1Cent=   0 AccDes= 0.00D+00.
 Calling FoFCou, ICntrl=  3107 FMM=F I1Cent=   0 AccDes= 0.00D+00.
 FoFDir/FoFCou used for L=0 through L=3.
 End of G2Drv Frequency-dependent properties file   721 does not exist.
 End of G2Drv Frequency-dependent properties file   722 does not exist.
          IDoAtm=111111111111111111111111111111111111111111111
          Differentiating once with respect to electric field.
                with respect to dipole field.
          Differentiating once with respect to nuclear coordinates.
          There are   138 degrees of freedom in the 1st order CPHF.  IDoFFX=5.
 Will reuse    3 saved solutions.
    135 vectors produced by pass  0 Test12= 6.87D-14 1.00D-09 XBig12= 1.51D-01 9.15D-02.
 AX will form    27 AO Fock derivatives at one time.
    135 vectors produced by pass  1 Test12= 6.87D-14 1.00D-09 XBig12= 2.32D-02 1.35D-02.
    132 vectors produced by pass  2 Test12= 6.87D-14 1.00D-09 XBig12= 1.34D-04 1.46D-03.
    132 vectors produced by pass  3 Test12= 6.87D-14 1.00D-09 XBig12= 7.75D-07 6.26D-05.
    132 vectors produced by pass  4 Test12= 6.87D-14 1.00D-09 XBig12= 1.93D-09 2.48D-06.
    132 vectors produced by pass  5 Test12= 6.87D-14 1.00D-09 XBig12= 4.88D-12 1.22D-07.
     94 vectors produced by pass  6 Test12= 6.87D-14 1.00D-09 XBig12= 2.03D-13 3.20D-08.
      1 vectors produced by pass  7 Test12= 6.87D-14 1.00D-09 XBig12= 8.78D-16 1.79D-09.
 Inverted reduced A of dimension   893 with in-core refinement.
 Isotropic polarizability for W=    0.000000      192.83 Bohr**3.
 End of Minotr Frequency-dependent properties file   721 does not exist.
 End of Minotr Frequency-dependent properties file   722 does not exist.

 **********************************************************************

            Population analysis using the SCF density.

 **********************************************************************

 Orbital symmetries:
       Occupied  (A) (A) (A) (A) (A) (A) (A) (A) (A) (A) (A) (A)
                 (A) (A) (A) (A) (A) (A) (A) (A) (A) (A) (A) (A)
                 (A) (A) (A) (A) (A) (A) (A) (A) (A) (A) (A) (A)
                 (A) (A) (A) (A) (A) (A) (A) (A) (A) (A) (A) (A)
                 (A) (A) (A) (A) (A) (A) (A) (A) (A) (A) (A) (A)
                 (A) (A) (A) (A) (A) (A) (A) (A) (A) (A) (A) (A)
                 (A) (A) (A) (A) (A) (A) (A) (A) (A) (A) (A) (A)
                 (A) (A) (A) (A) (A) (A) (A)
       Virtual   (A) (A) (A) (A) (A) (A) (A) (A) (A) (A) (A) (A)
                 (A) (A) (A) (A) (A) (A) (A) (A) (A) (A) (A) (A)
                 (A) (A) (A) (A) (A) (A) (A) (A) (A) (A) (A) (A)
                 (A) (A) (A) (A) (A) (A) (A) (A) (A) (A) (A) (A)
                 (A) (A) (A) (A) (A) (A) (A) (A) (A) (A) (A) (A)
                 (A) (A) (A) (A) (A) (A) (A) (A) (A) (A) (A) (A)
                 (A) (A) (A) (A) (A) (A) (A) (A) (A) (A) (A) (A)
                 (A) (A) (A) (A) (A) (A) (A) (A) (A) (A) (A) (A)
                 (A) (A) (A) (A) (A) (A) (A) (A) (A) (A) (A) (A)
                 (A) (A) (A) (A) (A) (A) (A) (A) (A) (A) (A) (A)
                 (A) (A) (A) (A) (A) (A) (A) (A) (A) (A) (A) (A)
                 (A) (A) (A) (A) (A) (A) (A) (A) (A) (A) (A) (A)
                 (A) (A) (A) (A) (A) (A) (A) (A) (A) (A) (A) (A)
                 (A) (A) (A) (A) (A) (A) (A) (A) (A) (A) (A) (A)
                 (A) (A) (A) (A) (A) (A) (A) (A) (A) (A) (A) (A)
                 (A) (A) (A) (A) (A) (A) (A) (A) (A) (A) (A) (A)
                 (A) (A) (A) (A) (A) (A) (A) (A) (A) (A) (A) (A)
                 (A) (A) (A) (A) (A) (A) (A) (A) (A) (A) (A) (A)
                 (A) (A) (A) (A) (A) (A) (A) (A) (A) (A) (A) (A)
                 (A) (A) (A) (A) (A) (A) (A) (A) (A) (A) (A) (A)
                 (A) (A) (A) (A) (A) (A) (A) (A) (A) (A) (A) (A)
                 (A) (A) (A) (A) (A) (A) (A) (A) (A) (A) (A) (A)
                 (A) (A) (A) (A) (A) (A) (A) (A) (A) (A) (A) (A)
                 (A) (A) (A) (A) (A) (A) (A) (A) (A) (A) (A) (A)
                 (A) (A) (A) (A) (A) (A) (A) (A) (A) (A) (A) (A)
                 (A) (A) (A) (A) (A) (A) (A) (A) (A) (A) (A) (A)
                 (A) (A) (A) (A) (A) (A) (A) (A) (A) (A) (A) (A)
                 (A) (A) (A) (A) (A) (A) (A) (A) (A) (A) (A) (A)
                 (A) (A) (A) (A) (A) (A) (A) (A) (A) (A) (A) (A)
                 (A) (A) (A) (A) (A) (A) (A) (A) (A) (A) (A) (A)
                 (A) (A) (A) (A) (A) (A) (A) (A) (A) (A) (A) (A)
                 (A) (A) (A) (A) (A) (A) (A) (A) (A) (A) (A) (A)
                 (A) (A) (A) (A) (A) (A) (A) (A) (A) (A) (A) (A)
                 (A) (A) (A) (A) (A) (A) (A) (A) (A) (A) (A) (A)
                 (A) (A) (A) (A) (A) (A) (A) (A) (A) (A) (A) (A)
                 (A) (A) (A) (A) (A) (A) (A) (A) (A) (A) (A) (A)
                 (A) (A) (A) (A) (A) (A) (A) (A) (A) (A) (A) (A)
                 (A) (A) (A) (A) (A) (A) (A) (A) (A) (A) (A) (A)
                 (A) (A) (A) (A) (A) (A) (A) (A) (A) (A) (A) (A)
                 (A) (A) (A) (A) (A) (A) (A) (A) (A) (A) (A) (A)
                 (A) (A) (A) (A) (A) (A) (A) (A) (A) (A) (A) (A)
                 (A) (A) (A) (A) (A) (A) (A) (A) (A) (A) (A) (A)
                 (A) (A) (A) (A) (A) (A) (A) (A) (A) (A) (A) (A)
                 (A) (A) (A) (A) (A) (A) (A) (A) (A) (A) (A) (A)
                 (A) (A) (A) (A) (A) (A) (A) (A) (A) (A) (A) (A)
                 (A) (A) (A) (A) (A) (A) (A) (A) (A) (A) (A) (A)
                 (A) (A) (A) (A) (A) (A) (A) (A) (A) (A) (A) (A)
                 (A) (A) (A) (A) (A) (A) (A) (A) (A) (A) (A) (A)
                 (A) (A) (A) (A) (A) (A) (A) (A) (A) (A) (A) (A)
                 (A) (A) (A) (A) (A) (A) (A) (A) (A) (A) (A) (A)
                 (A) (A) (A) (A) (A) (A) (A) (A) (A) (A) (A) (A)
                 (A) (A) (A) (A) (A) (A) (A) (A) (A) (A) (A) (A)
                 (A) (A) (A) (A) (A) (A) (A) (A) (A) (A) (A) (A)
                 (A) (A) (A) (A) (A) (A) (A) (A) (A) (A) (A) (A)
                 (A) (A) (A) (A) (A) (A) (A) (A) (A) (A) (A) (A)
                 (A) (A) (A) (A) (A) (A) (A) (A) (A) (A) (A) (A)
                 (A) (A) (A) (A) (A) (A) (A) (A) (A) (A) (A) (A)
                 (A) (A) (A) (A) (A) (A) (A) (A) (A) (A) (A) (A)
                 (A) (A) (A) (A) (A) (A) (A) (A) (A) (A) (A) (A)
                 (A) (A) (A) (A) (A) (A) (A) (A) (A) (A) (A) (A)
                 (A) (A) (A) (A) (A) (A) (A) (A) (A) (A) (A) (A)
                 (A) (A) (A) (A) (A) (A) (A) (A) (A) (A) (A) (A)
                 (A) (A) (A) (A) (A) (A) (A) (A) (A) (A) (A)
 The electronic state is 1-A.
 Alpha  occ. eigenvalues --  -19.19088 -19.17960 -19.17879 -19.17699 -19.17139
 Alpha  occ. eigenvalues --  -19.17032 -19.16243 -19.15979 -19.14915 -19.14780
 Alpha  occ. eigenvalues --  -19.13363 -10.30321 -10.30168 -10.25977 -10.25723
 Alpha  occ. eigenvalues --  -10.25526 -10.25367 -10.25085 -10.24751 -10.24632
 Alpha  occ. eigenvalues --  -10.24512 -10.24387 -10.23952  -1.09743  -1.09205
 Alpha  occ. eigenvalues --   -1.05760  -1.04992  -1.03719  -1.03121  -1.02558
 Alpha  occ. eigenvalues --   -1.02035  -1.01665  -1.00989  -1.00116  -0.82132
 Alpha  occ. eigenvalues --   -0.80292  -0.79108  -0.78325  -0.71855  -0.69918
 Alpha  occ. eigenvalues --   -0.67348  -0.64886  -0.63174  -0.62196  -0.61324
 Alpha  occ. eigenvalues --   -0.60245  -0.56711  -0.55530  -0.54648  -0.54488
 Alpha  occ. eigenvalues --   -0.53755  -0.53244  -0.53132  -0.52097  -0.51546
 Alpha  occ. eigenvalues --   -0.50689  -0.49989  -0.49144  -0.48629  -0.46391
 Alpha  occ. eigenvalues --   -0.45980  -0.45106  -0.44517  -0.43751  -0.43268
 Alpha  occ. eigenvalues --   -0.42942  -0.42203  -0.41504  -0.40158  -0.38847
 Alpha  occ. eigenvalues --   -0.38411  -0.38181  -0.37506  -0.35836  -0.35347
 Alpha  occ. eigenvalues --   -0.34786  -0.34705  -0.34072  -0.33932  -0.33635
 Alpha  occ. eigenvalues --   -0.32697  -0.31344  -0.30919  -0.30497  -0.29797
 Alpha  occ. eigenvalues --   -0.29234  -0.28643  -0.28307  -0.27630  -0.26894
 Alpha  occ. eigenvalues --   -0.26293
 Alpha virt. eigenvalues --   -0.01992  -0.01926  -0.01632  -0.00388   0.00284
 Alpha virt. eigenvalues --    0.00999   0.01904   0.02316   0.02645   0.03474
 Alpha virt. eigenvalues --    0.03708   0.04304   0.04747   0.05336   0.05748
 Alpha virt. eigenvalues --    0.05827   0.06408   0.07117   0.07680   0.08254
 Alpha virt. eigenvalues --    0.08516   0.08750   0.08926   0.09557   0.10038
 Alpha virt. eigenvalues --    0.10440   0.11089   0.11453   0.11756   0.12086
 Alpha virt. eigenvalues --    0.12422   0.12630   0.13036   0.13229   0.13593
 Alpha virt. eigenvalues --    0.13669   0.13819   0.14046   0.14684   0.15045
 Alpha virt. eigenvalues --    0.15527   0.15972   0.16724   0.16980   0.17190
 Alpha virt. eigenvalues --    0.17575   0.17598   0.17726   0.17946   0.18498
 Alpha virt. eigenvalues --    0.18735   0.19148   0.19284   0.19767   0.19885
 Alpha virt. eigenvalues --    0.20679   0.21039   0.21076   0.21468   0.21497
 Alpha virt. eigenvalues --    0.22066   0.22287   0.22410   0.22913   0.23101
 Alpha virt. eigenvalues --    0.23524   0.23595   0.23864   0.24088   0.24519
 Alpha virt. eigenvalues --    0.24914   0.25393   0.25613   0.25800   0.25903
 Alpha virt. eigenvalues --    0.26101   0.26394   0.26799   0.27100   0.27370
 Alpha virt. eigenvalues --    0.27916   0.28051   0.28115   0.28203   0.28359
 Alpha virt. eigenvalues --    0.28719   0.29084   0.29472   0.30098   0.30547
 Alpha virt. eigenvalues --    0.31006   0.31568   0.31773   0.31930   0.32020
 Alpha virt. eigenvalues --    0.32544   0.32813   0.33164   0.33403   0.33775
 Alpha virt. eigenvalues --    0.34000   0.34357   0.34585   0.35030   0.35476
 Alpha virt. eigenvalues --    0.35727   0.36266   0.36735   0.36911   0.37407
 Alpha virt. eigenvalues --    0.37862   0.37990   0.38221   0.38767   0.39196
 Alpha virt. eigenvalues --    0.39342   0.39592   0.40687   0.40943   0.41148
 Alpha virt. eigenvalues --    0.42077   0.42414   0.42522   0.43215   0.43619
 Alpha virt. eigenvalues --    0.44177   0.44610   0.45051   0.45992   0.46842
 Alpha virt. eigenvalues --    0.47237   0.47695   0.48236   0.49221   0.49851
 Alpha virt. eigenvalues --    0.50740   0.51152   0.53738   0.56853   0.58960
 Alpha virt. eigenvalues --    0.59100   0.59828   0.60128   0.60853   0.61451
 Alpha virt. eigenvalues --    0.62195   0.62977   0.63521   0.64879   0.66014
 Alpha virt. eigenvalues --    0.66564   0.66613   0.67704   0.68357   0.69648
 Alpha virt. eigenvalues --    0.70278   0.70762   0.71108   0.72248   0.72869
 Alpha virt. eigenvalues --    0.73901   0.74056   0.74960   0.75607   0.75994
 Alpha virt. eigenvalues --    0.77085   0.78132   0.79183   0.81103   0.81401
 Alpha virt. eigenvalues --    0.81544   0.82374   0.82465   0.83857   0.84765
 Alpha virt. eigenvalues --    0.85238   0.86842   0.87343   0.88152   0.88719
 Alpha virt. eigenvalues --    0.89454   0.89685   0.90324   0.90862   0.91081
 Alpha virt. eigenvalues --    0.91735   0.92316   0.92520   0.92827   0.93443
 Alpha virt. eigenvalues --    0.94007   0.94594   0.94775   0.95277   0.96065
 Alpha virt. eigenvalues --    0.96455   0.96814   0.97207   0.97622   0.98180
 Alpha virt. eigenvalues --    0.98748   0.99109   1.00108   1.01105   1.01611
 Alpha virt. eigenvalues --    1.02290   1.03917   1.04330   1.04767   1.05278
 Alpha virt. eigenvalues --    1.05580   1.06273   1.07106   1.07604   1.08381
 Alpha virt. eigenvalues --    1.08765   1.08929   1.09588   1.10036   1.10600
 Alpha virt. eigenvalues --    1.10875   1.11674   1.12843   1.13096   1.14233
 Alpha virt. eigenvalues --    1.14554   1.14945   1.15295   1.15763   1.15942
 Alpha virt. eigenvalues --    1.16779   1.16947   1.17189   1.18259   1.18628
 Alpha virt. eigenvalues --    1.19282   1.19753   1.20294   1.20610   1.21190
 Alpha virt. eigenvalues --    1.22421   1.22586   1.23571   1.24225   1.24733
 Alpha virt. eigenvalues --    1.24863   1.25326   1.26079   1.26912   1.27304
 Alpha virt. eigenvalues --    1.28353   1.28571   1.28698   1.29341   1.29952
 Alpha virt. eigenvalues --    1.30717   1.31544   1.32821   1.33458   1.34379
 Alpha virt. eigenvalues --    1.34817   1.35022   1.35451   1.35873   1.36550
 Alpha virt. eigenvalues --    1.37589   1.37986   1.38744   1.39852   1.40363
 Alpha virt. eigenvalues --    1.40866   1.41543   1.42493   1.43360   1.43862
 Alpha virt. eigenvalues --    1.44103   1.44487   1.45165   1.45529   1.46233
 Alpha virt. eigenvalues --    1.47677   1.48216   1.48676   1.49555   1.50822
 Alpha virt. eigenvalues --    1.51544   1.52754   1.53304   1.54256   1.54530
 Alpha virt. eigenvalues --    1.55084   1.56071   1.57483   1.57892   1.58970
 Alpha virt. eigenvalues --    1.59977   1.60304   1.61129   1.61693   1.62914
 Alpha virt. eigenvalues --    1.63735   1.65193   1.65779   1.66089   1.67040
 Alpha virt. eigenvalues --    1.67378   1.68436   1.69156   1.70815   1.71342
 Alpha virt. eigenvalues --    1.72098   1.73022   1.74436   1.75161   1.76655
 Alpha virt. eigenvalues --    1.77960   1.78071   1.79171   1.79890   1.80545
 Alpha virt. eigenvalues --    1.81178   1.81448   1.84200   1.84779   1.85467
 Alpha virt. eigenvalues --    1.86937   1.88227   1.88668   1.89419   1.90221
 Alpha virt. eigenvalues --    1.90665   1.92453   1.93398   1.94495   1.95190
 Alpha virt. eigenvalues --    1.96799   1.96972   1.97865   1.98922   2.00444
 Alpha virt. eigenvalues --    2.02305   2.02502   2.03309   2.04029   2.05414
 Alpha virt. eigenvalues --    2.06704   2.08102   2.08747   2.11765   2.13224
 Alpha virt. eigenvalues --    2.15415   2.16434   2.17933   2.17961   2.18478
 Alpha virt. eigenvalues --    2.20240   2.21314   2.22873   2.23895   2.25712
 Alpha virt. eigenvalues --    2.27160   2.27753   2.29870   2.30443   2.31559
 Alpha virt. eigenvalues --    2.32344   2.34159   2.35321   2.37555   2.41358
 Alpha virt. eigenvalues --    2.44140   2.45011   2.46107   2.48690   2.50970
 Alpha virt. eigenvalues --    2.51289   2.51832   2.52924   2.54307   2.54728
 Alpha virt. eigenvalues --    2.55262   2.56266   2.56777   2.59330   2.59913
 Alpha virt. eigenvalues --    2.61434   2.61779   2.62759   2.63004   2.64604
 Alpha virt. eigenvalues --    2.65867   2.66586   2.67569   2.69658   2.71539
 Alpha virt. eigenvalues --    2.74660   2.75530   2.76908   2.77160   2.78540
 Alpha virt. eigenvalues --    2.79045   2.79749   2.80300   2.82371   2.83583
 Alpha virt. eigenvalues --    2.84140   2.85967   2.86288   2.87463   2.88016
 Alpha virt. eigenvalues --    2.88908   2.89997   2.91492   2.91849   2.92709
 Alpha virt. eigenvalues --    2.93183   2.94636   2.95359   2.96330   2.98144
 Alpha virt. eigenvalues --    2.99466   3.00449   3.01116   3.02573   3.03426
 Alpha virt. eigenvalues --    3.04017   3.04388   3.05131   3.06472   3.06839
 Alpha virt. eigenvalues --    3.07219   3.07542   3.09201   3.10295   3.11825
 Alpha virt. eigenvalues --    3.13340   3.13995   3.15559   3.15789   3.16208
 Alpha virt. eigenvalues --    3.18364   3.19985   3.21087   3.22011   3.23382
 Alpha virt. eigenvalues --    3.24165   3.25350   3.26787   3.26863   3.28372
 Alpha virt. eigenvalues --    3.28802   3.29316   3.29990   3.32152   3.32734
 Alpha virt. eigenvalues --    3.34815   3.35709   3.36519   3.37706   3.39306
 Alpha virt. eigenvalues --    3.39932   3.40600   3.42277   3.43644   3.44788
 Alpha virt. eigenvalues --    3.45385   3.45945   3.46988   3.49813   3.52260
 Alpha virt. eigenvalues --    3.53156   3.55946   3.57702   3.59036   3.60769
 Alpha virt. eigenvalues --    3.61453   3.63196   3.64043   3.66144   3.67752
 Alpha virt. eigenvalues --    3.68186   3.68573   3.71158   3.73671   3.73980
 Alpha virt. eigenvalues --    3.76206   3.76999   3.77791   3.78928   3.79421
 Alpha virt. eigenvalues --    3.79583   3.79915   3.81429   3.84397   3.84779
 Alpha virt. eigenvalues --    3.86109   3.87937   3.88883   3.90082   3.90195
 Alpha virt. eigenvalues --    3.92141   3.94275   3.97243   4.00370   4.01459
 Alpha virt. eigenvalues --    4.03932   4.06267   4.08308   4.09631   4.14698
 Alpha virt. eigenvalues --    4.15040   4.16152   4.17883   4.18697   4.20154
 Alpha virt. eigenvalues --    4.21323   4.22942   4.23100   4.23960   4.24770
 Alpha virt. eigenvalues --    4.25712   4.26452   4.27827   4.28075   4.29593
 Alpha virt. eigenvalues --    4.29840   4.30810   4.31955   4.33209   4.34133
 Alpha virt. eigenvalues --    4.34881   4.36041   4.37961   4.38981   4.39214
 Alpha virt. eigenvalues --    4.39697   4.41220   4.41748   4.41837   4.42495
 Alpha virt. eigenvalues --    4.43990   4.45482   4.45957   4.46566   4.48334
 Alpha virt. eigenvalues --    4.49520   4.49903   4.50190   4.51028   4.51388
 Alpha virt. eigenvalues --    4.51722   4.52589   4.52885   4.54235   4.55563
 Alpha virt. eigenvalues --    4.55817   4.56700   4.56718   4.57688   4.58926
 Alpha virt. eigenvalues --    4.59809   4.60295   4.60679   4.61363   4.61529
 Alpha virt. eigenvalues --    4.61984   4.62476   4.63432   4.63938   4.64504
 Alpha virt. eigenvalues --    4.65454   4.66427   4.67288   4.67807   4.68726
 Alpha virt. eigenvalues --    4.69697   4.70171   4.70356   4.71169   4.72169
 Alpha virt. eigenvalues --    4.72908   4.73204   4.73918   4.74740   4.75170
 Alpha virt. eigenvalues --    4.76398   4.76951   4.77570   4.78050   4.79048
 Alpha virt. eigenvalues --    4.79603   4.79723   4.81020   4.81507   4.82337
 Alpha virt. eigenvalues --    4.82893   4.83061   4.84143   4.85741   4.85822
 Alpha virt. eigenvalues --    4.86839   4.87421   4.87737   4.88680   4.90197
 Alpha virt. eigenvalues --    4.91081   4.91460   4.93419   4.94965   4.95834
 Alpha virt. eigenvalues --    4.96602   4.97741   4.98964   5.00297   5.01685
 Alpha virt. eigenvalues --    5.03233   5.05714   5.06516   5.07382   5.10465
 Alpha virt. eigenvalues --    5.11351   5.13624   5.16352   5.17152   5.18662
 Alpha virt. eigenvalues --    5.19949   5.20430   5.21441   5.21568   5.23369
 Alpha virt. eigenvalues --    5.23976   5.25396   5.26622   5.27665   5.29023
 Alpha virt. eigenvalues --    5.29306   5.31220   5.33150   5.33768   5.35060
 Alpha virt. eigenvalues --    5.36006   5.36484   5.36963   5.37236   5.38588
 Alpha virt. eigenvalues --    5.39831   5.41080   5.42422   5.42944   5.43141
 Alpha virt. eigenvalues --    5.43701   5.45163   5.45864   5.45991   5.46789
 Alpha virt. eigenvalues --    5.47761   5.48197   5.48488   5.50160   5.50888
 Alpha virt. eigenvalues --    5.51395   5.53492   5.54498   5.55859   5.57265
 Alpha virt. eigenvalues --    5.58163   5.59076   5.61272   5.62940   5.64109
 Alpha virt. eigenvalues --    5.66961   5.67981   5.68723   5.72597   5.74786
 Alpha virt. eigenvalues --    5.76059   5.77399   5.78097   5.81185   5.82721
 Alpha virt. eigenvalues --    5.83709   5.85750   5.87338   5.88519   5.89370
 Alpha virt. eigenvalues --    5.90658   5.91011   5.92471   5.92708   5.95268
 Alpha virt. eigenvalues --    5.95745   5.96223   5.96356   5.99107   6.00418
 Alpha virt. eigenvalues --    6.00705   6.03423   6.04271   6.05982   6.07677
 Alpha virt. eigenvalues --    6.08188   6.09273   6.09567   6.10923   6.12494
 Alpha virt. eigenvalues --    6.13572   6.15861   6.16383   6.19123   6.19993
 Alpha virt. eigenvalues --    6.23298   6.27296   6.29878   6.33306   6.35278
 Alpha virt. eigenvalues --    6.52812   6.62333   6.97530   7.03326   7.07713
 Alpha virt. eigenvalues --    7.13996   7.19489   7.21982   7.24637   7.32042
 Alpha virt. eigenvalues --    7.33522   7.35266   7.46494   7.53375   7.70477
 Alpha virt. eigenvalues --    7.74937   8.10227  12.02161  12.11791  12.25638
 Alpha virt. eigenvalues --   12.26153  12.43857  12.52155  12.80068  12.89408
 Alpha virt. eigenvalues --   12.96044  13.07395  13.21586  13.36668  13.44934
 Alpha virt. eigenvalues --   13.47289  13.50092  13.53964  13.58293  13.59309
 Alpha virt. eigenvalues --   13.73018  13.75083  14.01562  14.08846  14.24139
          Condensed to atoms (all electrons):
              1          2          3          4          5          6
     1  O    8.039416   0.359585  -0.103489  -0.012964   0.017438   0.007582
     2  C    0.359585   7.184813  -0.401138   0.040710  -0.055899  -1.486383
     3  C   -0.103489  -0.401138   6.626579   0.226992   0.007978   0.310281
     4  O   -0.012964   0.040710   0.226992   8.095639   0.243469  -0.117436
     5  H    0.017438  -0.055899   0.007978   0.243469   0.410454   0.007366
     6  C    0.007582  -1.486383   0.310281  -0.117436   0.007366   8.829397
     7  O   -0.000138   0.027984  -0.131554   0.009046  -0.000494   0.272630
     8  H    0.000004  -0.004785   0.022394  -0.000265   0.000010   0.024231
     9  C   -0.014507  -0.248984  -0.357507   0.009674  -0.001524   0.374111
    10  O   -0.007417   0.015819   0.019661  -0.000127  -0.000012  -0.004071
    11  H    0.001622  -0.008359  -0.001451   0.000001   0.000000   0.000778
    12  C   -0.119445  -0.491874  -0.024083   0.004049   0.010125   0.324145
    13  O    0.001195  -0.072377  -0.040154  -0.001284  -0.000092   0.015569
    14  C    0.010108   0.776240  -0.149591  -0.004800   0.010022  -2.076287
    15  O   -0.000060  -0.006827   0.001819   0.000215   0.000016  -0.042729
    16  C    0.001930   0.070031  -0.015655  -0.002704   0.000597  -0.451569
    17  C   -0.000059  -0.031052   0.019042   0.000292   0.000011   0.068054
    18  O    0.000026   0.005655  -0.001491  -0.000005   0.000000  -0.010730
    19  H   -0.000026  -0.002408   0.003160   0.000000   0.000000   0.004340
    20  C    0.000073   0.005840  -0.009641  -0.000050   0.000001   0.047991
    21  O    0.000000   0.000019  -0.000007   0.000000   0.000000  -0.000256
    22  H    0.000000  -0.000001   0.000001   0.000000   0.000000  -0.000025
    23  C    0.000004   0.011341  -0.001140  -0.000032  -0.000003  -0.128266
    24  O    0.000000   0.000711  -0.008028  -0.000089  -0.000002   0.013172
    25  H    0.000000   0.000052   0.001107   0.000002   0.000000  -0.000283
    26  C   -0.000008  -0.019188  -0.023332   0.000253   0.000015   0.069969
    27  O    0.000000  -0.000120   0.000455   0.000000   0.000000   0.003487
    28  C    0.000001  -0.001369   0.001499   0.000002   0.000000  -0.008879
    29  O    0.000000   0.000005   0.000014   0.000000   0.000000  -0.000204
    30  H    0.278289  -0.005405  -0.004145   0.000278  -0.001705   0.002432
    31  H    0.000000   0.000000   0.000000   0.000000   0.000000   0.000004
    32  H    0.000000   0.000002   0.000005   0.000000   0.000000  -0.000029
    33  H    0.000000   0.000098   0.000006   0.000000   0.000000   0.000050
    34  H    0.000000   0.000365   0.000389   0.000000   0.000000   0.003243
    35  H    0.000000  -0.002973   0.002955   0.000005   0.000000   0.007846
    36  H    0.000000  -0.000034   0.000550   0.000000   0.000000  -0.002993
    37  H    0.000000   0.000005  -0.000016   0.000000   0.000000   0.000166
    38  H    0.000000   0.000027   0.000390   0.000000   0.000000  -0.004118
    39  H    0.000100  -0.028120  -0.025439   0.000113   0.000002   0.052363
    40  H   -0.000348   0.032280  -0.127942   0.004068  -0.000180   0.353996
    41  H   -0.002684   0.081328   0.226266  -0.020233  -0.000622  -0.197326
    42  H   -0.017548   0.387223  -0.104177   0.003301  -0.000198  -0.008246
    43  H    0.004114   0.097973  -0.065942   0.000735   0.000001  -0.023188
    44  H   -0.000013  -0.005970   0.007187   0.000006   0.000000  -0.005113
    45  H    0.000813  -0.005711  -0.016921   0.000007   0.000000   0.019073
              7          8          9         10         11         12
     1  O   -0.000138   0.000004  -0.014507  -0.007417   0.001622  -0.119445
     2  C    0.027984  -0.004785  -0.248984   0.015819  -0.008359  -0.491874
     3  C   -0.131554   0.022394  -0.357507   0.019661  -0.001451  -0.024083
     4  O    0.009046  -0.000265   0.009674  -0.000127   0.000001   0.004049
     5  H   -0.000494   0.000010  -0.001524  -0.000012   0.000000   0.010125
     6  C    0.272630   0.024231   0.374111  -0.004071   0.000778   0.324145
     7  O    8.104603   0.255417   0.000423  -0.000008   0.000000   0.000418
     8  H    0.255417   0.339224  -0.000001   0.000000   0.000000  -0.001302
     9  C    0.000423  -0.000001   7.597894   0.153816  -0.017797  -1.557876
    10  O   -0.000008   0.000000   0.153816   8.132211   0.239402  -0.027055
    11  H    0.000000   0.000000  -0.017797   0.239402   0.429900   0.024306
    12  C    0.000418  -0.001302  -1.557876  -0.027055   0.024306   8.691280
    13  O    0.004499  -0.000587  -0.016715   0.000337  -0.000493   0.056323
    14  C   -0.044980  -0.076389  -0.546487   0.008387  -0.003025  -0.753242
    15  O    0.006847   0.011547  -0.006464   0.000061  -0.000001  -0.004820
    16  C    0.019940   0.022733  -0.140808  -0.000082  -0.000194  -0.013205
    17  C   -0.000650   0.002658   0.039292   0.000079  -0.000019  -0.093603
    18  O   -0.000013  -0.000018  -0.007213  -0.000066   0.000001   0.003774
    19  H   -0.000093  -0.000001   0.006179   0.000008  -0.000003  -0.011648
    20  C    0.002867   0.000937   0.000008  -0.000004   0.000008  -0.005803
    21  O   -0.000004   0.000000   0.000042   0.000000   0.000000  -0.000068
    22  H    0.000000   0.000000   0.000000   0.000000   0.000000   0.000011
    23  C    0.009058   0.005231  -0.001337   0.000003   0.000000   0.003385
    24  O   -0.041636  -0.006468  -0.000019   0.000000   0.000000  -0.000041
    25  H    0.001445  -0.002053  -0.000010   0.000000   0.000000  -0.000227
    26  C   -0.002123  -0.020866   0.005934   0.000025  -0.000001   0.019540
    27  O   -0.000134  -0.000068   0.000054   0.000000   0.000000  -0.000169
    28  C   -0.000247  -0.000081  -0.000161  -0.000005   0.000000   0.000752
    29  O   -0.000006   0.000000  -0.000005   0.000000   0.000000   0.000063
    30  H   -0.000011   0.000000   0.007610  -0.001214  -0.000043  -0.010765
    31  H    0.000000   0.000000   0.000000   0.000000   0.000000  -0.000001
    32  H    0.000000   0.000000   0.000000   0.000000   0.000000   0.000014
    33  H    0.000003   0.000000  -0.000119   0.000000   0.000000   0.000493
    34  H   -0.000023  -0.000002  -0.000839   0.000000   0.000000   0.000161
    35  H   -0.002578  -0.000045  -0.000133   0.000001   0.000000   0.005575
    36  H   -0.000272  -0.000006   0.000048   0.000000   0.000000   0.000559
    37  H   -0.000524   0.000200  -0.000002   0.000000   0.000000   0.000004
    38  H    0.000332   0.000367  -0.000001   0.000000   0.000000   0.000192
    39  H   -0.003952   0.000014   0.016324   0.000032   0.000000   0.069862
    40  H   -0.022463  -0.006059   0.013958   0.000012   0.000000   0.057581
    41  H    0.007760  -0.000093   0.015408  -0.000126   0.000000   0.038414
    42  H    0.001190   0.000000  -0.019648  -0.001637  -0.000009  -0.066663
    43  H    0.000479   0.000001   0.065903   0.000933  -0.000166   0.053142
    44  H   -0.000013   0.000000   0.394212  -0.015640  -0.013911  -0.045797
    45  H    0.000016   0.000000   0.658484  -0.059013   0.001195  -0.279845
             13         14         15         16         17         18
     1  O    0.001195   0.010108  -0.000060   0.001930  -0.000059   0.000026
     2  C   -0.072377   0.776240  -0.006827   0.070031  -0.031052   0.005655
     3  C   -0.040154  -0.149591   0.001819  -0.015655   0.019042  -0.001491
     4  O   -0.001284  -0.004800   0.000215  -0.002704   0.000292  -0.000005
     5  H   -0.000092   0.010022   0.000016   0.000597   0.000011   0.000000
     6  C    0.015569  -2.076287  -0.042729  -0.451569   0.068054  -0.010730
     7  O    0.004499  -0.044980   0.006847   0.019940  -0.000650  -0.000013
     8  H   -0.000587  -0.076389   0.011547   0.022733   0.002658  -0.000018
     9  C   -0.016715  -0.546487  -0.006464  -0.140808   0.039292  -0.007213
    10  O    0.000337   0.008387   0.000061  -0.000082   0.000079  -0.000066
    11  H   -0.000493  -0.003025  -0.000001  -0.000194  -0.000019   0.000001
    12  C    0.056323  -0.753242  -0.004820  -0.013205  -0.093603   0.003774
    13  O    7.943902   0.227656  -0.003356   0.005625   0.028890  -0.026172
    14  C    0.227656   9.054894   0.273218  -0.749707   0.047142  -0.005548
    15  O   -0.003356   0.273218   7.756461   0.244512  -0.054544  -0.006942
    16  C    0.005625  -0.749707   0.244512  10.241140  -1.456772  -0.000611
    17  C    0.028890   0.047142  -0.054544  -1.456772   7.829684   0.234914
    18  O   -0.026172  -0.005548  -0.006942  -0.000611   0.234914   8.092533
    19  H    0.026068   0.000528   0.010884  -0.058867   0.042655   0.239171
    20  C   -0.019544  -0.261829   0.012876  -0.766004  -0.656537  -0.074834
    21  O   -0.000059   0.003305   0.000182   0.054828  -0.112336   0.005165
    22  H    0.000001  -0.000129  -0.000015  -0.010503   0.044215  -0.000666
    23  C    0.004270   0.029536  -0.011117  -0.008362  -0.296336   0.011740
    24  O   -0.000275   0.074589  -0.012981  -0.041019  -0.001210   0.000012
    25  H   -0.000019  -0.008627   0.001232  -0.006287  -0.001546  -0.000001
    26  C   -0.016324  -0.515361  -0.085874  -1.961487  -0.139088   0.018313
    27  O    0.000059   0.019561   0.002714   0.108953   0.004279  -0.001715
    28  C    0.000910   0.046681  -0.000444   0.693740   0.332333   0.001756
    29  O    0.000017   0.002180  -0.000100   0.004591  -0.006139   0.000374
    30  H   -0.000532  -0.002437  -0.000005   0.000091  -0.000030   0.000000
    31  H    0.000000  -0.000097   0.000001  -0.004169   0.004255  -0.000022
    32  H    0.000005   0.000975   0.000311   0.043093  -0.018517   0.000216
    33  H    0.000055  -0.013850   0.001268   0.049022  -0.182879   0.005983
    34  H   -0.000730  -0.019068  -0.003413  -0.086856   0.255046  -0.022754
    35  H   -0.002336  -0.014628  -0.023626   0.119305   0.020399  -0.002603
    36  H   -0.000201   0.042695   0.000003  -0.007810  -0.021565   0.000619
    37  H    0.000012   0.007138   0.000414   0.018108   0.004483   0.000010
    38  H    0.000067  -0.001882   0.001007   0.032432   0.003280   0.000054
    39  H   -0.032086   0.232387  -0.028809  -0.037374   0.019415  -0.001701
    40  H    0.008303  -0.026352  -0.008121  -0.033662   0.003288   0.000076
    41  H    0.004092   0.076151   0.000668  -0.009822   0.001565   0.000034
    42  H    0.001535   0.076098  -0.000207  -0.004856   0.001455   0.000017
    43  H   -0.031636   0.135715  -0.001147   0.002248   0.005802  -0.000312
    44  H    0.001429   0.000835  -0.000134   0.005523  -0.000299  -0.000216
    45  H   -0.005821  -0.007132  -0.000458  -0.006641   0.003590  -0.000326
             19         20         21         22         23         24
     1  O   -0.000026   0.000073   0.000000   0.000000   0.000004   0.000000
     2  C   -0.002408   0.005840   0.000019  -0.000001   0.011341   0.000711
     3  C    0.003160  -0.009641  -0.000007   0.000001  -0.001140  -0.008028
     4  O    0.000000  -0.000050   0.000000   0.000000  -0.000032  -0.000089
     5  H    0.000000   0.000001   0.000000   0.000000  -0.000003  -0.000002
     6  C    0.004340   0.047991  -0.000256  -0.000025  -0.128266   0.013172
     7  O   -0.000093   0.002867  -0.000004   0.000000   0.009058  -0.041636
     8  H   -0.000001   0.000937   0.000000   0.000000   0.005231  -0.006468
     9  C    0.006179   0.000008   0.000042   0.000000  -0.001337  -0.000019
    10  O    0.000008  -0.000004   0.000000   0.000000   0.000003   0.000000
    11  H   -0.000003   0.000008   0.000000   0.000000   0.000000   0.000000
    12  C   -0.011648  -0.005803  -0.000068   0.000011   0.003385  -0.000041
    13  O    0.026068  -0.019544  -0.000059   0.000001   0.004270  -0.000275
    14  C    0.000528  -0.261829   0.003305  -0.000129   0.029536   0.074589
    15  O    0.010884   0.012876   0.000182  -0.000015  -0.011117  -0.012981
    16  C   -0.058867  -0.766004   0.054828  -0.010503  -0.008362  -0.041019
    17  C    0.042655  -0.656537  -0.112336   0.044215  -0.296336  -0.001210
    18  O    0.239171  -0.074834   0.005165  -0.000666   0.011740   0.000012
    19  H    0.366273  -0.005200  -0.000437   0.000016  -0.003329   0.000003
    20  C   -0.005200   7.836413   0.172046  -0.054641   0.112436  -0.004981
    21  O   -0.000437   0.172046   8.101704   0.252441  -0.001778   0.000006
    22  H    0.000016  -0.054641   0.252441   0.418540   0.000006   0.000000
    23  C   -0.003329   0.112436  -0.001778   0.000006   6.188196   0.067732
    24  O    0.000003  -0.004981   0.000006   0.000000   0.067732   8.177946
    25  H    0.000000   0.000921   0.000000   0.000000  -0.029066   0.261988
    26  C   -0.001297   0.849287  -0.039855   0.006335  -0.356024   0.052406
    27  O    0.000125  -0.197389   0.004289  -0.000455  -0.113768   0.002657
    28  C    0.003411  -1.204878   0.044139  -0.001080  -0.131644   0.004958
    29  O    0.000006  -0.011478   0.000009   0.010386   0.012139  -0.000021
    30  H    0.000000   0.000000   0.000000   0.000000   0.000002   0.000000
    31  H    0.000000  -0.025922  -0.001908  -0.001069  -0.000244  -0.000001
    32  H    0.000004  -0.095184   0.002772  -0.000110  -0.000160   0.000013
    33  H   -0.000136   0.366904  -0.019155  -0.007583   0.009854  -0.000003
    34  H   -0.003644   0.041208  -0.001715  -0.000141   0.019241  -0.000058
    35  H    0.000222   0.029096  -0.000348   0.000008  -0.010203   0.000377
    36  H    0.000012  -0.055053   0.000298   0.000003   0.070488  -0.000024
    37  H    0.000000  -0.005118   0.000001   0.000000   0.386150  -0.028687
    38  H    0.000000  -0.003521   0.000000   0.000000   0.548242  -0.049100
    39  H   -0.000073   0.010668   0.000001   0.000000   0.000353  -0.000340
    40  H   -0.000013   0.000102   0.000000   0.000000   0.001014   0.000430
    41  H   -0.000001  -0.000101   0.000000   0.000000   0.000171   0.000048
    42  H   -0.000007  -0.000030   0.000000   0.000000   0.000023   0.000009
    43  H    0.000002   0.000567  -0.000001   0.000000   0.000140   0.000002
    44  H    0.000599  -0.000685   0.000001   0.000000  -0.000007   0.000000
    45  H    0.000028   0.000164   0.000000   0.000000  -0.000025   0.000000
             25         26         27         28         29         30
     1  O    0.000000  -0.000008   0.000000   0.000001   0.000000   0.278289
     2  C    0.000052  -0.019188  -0.000120  -0.001369   0.000005  -0.005405
     3  C    0.001107  -0.023332   0.000455   0.001499   0.000014  -0.004145
     4  O    0.000002   0.000253   0.000000   0.000002   0.000000   0.000278
     5  H    0.000000   0.000015   0.000000   0.000000   0.000000  -0.001705
     6  C   -0.000283   0.069969   0.003487  -0.008879  -0.000204   0.002432
     7  O    0.001445  -0.002123  -0.000134  -0.000247  -0.000006  -0.000011
     8  H   -0.002053  -0.020866  -0.000068  -0.000081   0.000000   0.000000
     9  C   -0.000010   0.005934   0.000054  -0.000161  -0.000005   0.007610
    10  O    0.000000   0.000025   0.000000  -0.000005   0.000000  -0.001214
    11  H    0.000000  -0.000001   0.000000   0.000000   0.000000  -0.000043
    12  C   -0.000227   0.019540  -0.000169   0.000752   0.000063  -0.010765
    13  O   -0.000019  -0.016324   0.000059   0.000910   0.000017  -0.000532
    14  C   -0.008627  -0.515361   0.019561   0.046681   0.002180  -0.002437
    15  O    0.001232  -0.085874   0.002714  -0.000444  -0.000100  -0.000005
    16  C   -0.006287  -1.961487   0.108953   0.693740   0.004591   0.000091
    17  C   -0.001546  -0.139088   0.004279   0.332333  -0.006139  -0.000030
    18  O   -0.000001   0.018313  -0.001715   0.001756   0.000374   0.000000
    19  H    0.000000  -0.001297   0.000125   0.003411   0.000006   0.000000
    20  C    0.000921   0.849287  -0.197389  -1.204878  -0.011478   0.000000
    21  O    0.000000  -0.039855   0.004289   0.044139   0.000009   0.000000
    22  H    0.000000   0.006335  -0.000455  -0.001080   0.010386   0.000000
    23  C   -0.029066  -0.356024  -0.113768  -0.131644   0.012139   0.000002
    24  O    0.261988   0.052406   0.002657   0.004958  -0.000021   0.000000
    25  H    0.404170   0.030569  -0.000658  -0.001370  -0.000003   0.000000
    26  C    0.030569   9.169355   0.076271  -1.004760  -0.033780  -0.000002
    27  O   -0.000658   0.076271   7.958658   0.303026  -0.091004   0.000000
    28  C   -0.001370  -1.004760   0.303026   6.226016   0.294313   0.000000
    29  O   -0.000003  -0.033780  -0.091004   0.294313   8.036927   0.000000
    30  H    0.000000  -0.000002   0.000000   0.000000   0.000000   0.393810
    31  H    0.000000  -0.002327   0.003139   0.018964   0.263356   0.000000
    32  H    0.000000  -0.006442  -0.034875   0.410555  -0.024283   0.000000
    33  H    0.000000   0.033457   0.002359   0.007138  -0.003817   0.000000
    34  H    0.000000   0.096060   0.001780  -0.035661  -0.000048   0.000000
    35  H   -0.000012   0.117104   0.002980   0.005218  -0.000640   0.000000
    36  H   -0.000186   0.172006  -0.028998   0.068469  -0.001477   0.000000
    37  H   -0.007135  -0.047679  -0.003610   0.005274  -0.000150   0.000000
    38  H   -0.003605  -0.225065   0.000105   0.006081  -0.000251   0.000000
    39  H    0.000008   0.015794   0.000219  -0.001336  -0.000003   0.000002
    40  H   -0.000007  -0.003260  -0.000001  -0.000016   0.000000   0.000020
    41  H    0.000000  -0.000630   0.000000  -0.000001   0.000000  -0.000136
    42  H    0.000000  -0.000378   0.000000   0.000001   0.000000  -0.013804
    43  H    0.000000  -0.001196   0.000000  -0.000003   0.000000  -0.000227
    44  H    0.000000   0.000269   0.000000   0.000057   0.000000   0.000007
    45  H    0.000000  -0.000105   0.000000  -0.000010   0.000000  -0.000108
             31         32         33         34         35         36
     1  O    0.000000   0.000000   0.000000   0.000000   0.000000   0.000000
     2  C    0.000000   0.000002   0.000098   0.000365  -0.002973  -0.000034
     3  C    0.000000   0.000005   0.000006   0.000389   0.002955   0.000550
     4  O    0.000000   0.000000   0.000000   0.000000   0.000005   0.000000
     5  H    0.000000   0.000000   0.000000   0.000000   0.000000   0.000000
     6  C    0.000004  -0.000029   0.000050   0.003243   0.007846  -0.002993
     7  O    0.000000   0.000000   0.000003  -0.000023  -0.002578  -0.000272
     8  H    0.000000   0.000000   0.000000  -0.000002  -0.000045  -0.000006
     9  C    0.000000   0.000000  -0.000119  -0.000839  -0.000133   0.000048
    10  O    0.000000   0.000000   0.000000   0.000000   0.000001   0.000000
    11  H    0.000000   0.000000   0.000000   0.000000   0.000000   0.000000
    12  C   -0.000001   0.000014   0.000493   0.000161   0.005575   0.000559
    13  O    0.000000   0.000005   0.000055  -0.000730  -0.002336  -0.000201
    14  C   -0.000097   0.000975  -0.013850  -0.019068  -0.014628   0.042695
    15  O    0.000001   0.000311   0.001268  -0.003413  -0.023626   0.000003
    16  C   -0.004169   0.043093   0.049022  -0.086856   0.119305  -0.007810
    17  C    0.004255  -0.018517  -0.182879   0.255046   0.020399  -0.021565
    18  O   -0.000022   0.000216   0.005983  -0.022754  -0.002603   0.000619
    19  H    0.000000   0.000004  -0.000136  -0.003644   0.000222   0.000012
    20  C   -0.025922  -0.095184   0.366904   0.041208   0.029096  -0.055053
    21  O   -0.001908   0.002772  -0.019155  -0.001715  -0.000348   0.000298
    22  H   -0.001069  -0.000110  -0.007583  -0.000141   0.000008   0.000003
    23  C   -0.000244  -0.000160   0.009854   0.019241  -0.010203   0.070488
    24  O   -0.000001   0.000013  -0.000003  -0.000058   0.000377  -0.000024
    25  H    0.000000   0.000000   0.000000   0.000000  -0.000012  -0.000186
    26  C   -0.002327  -0.006442   0.033457   0.096060   0.117104   0.172006
    27  O    0.003139  -0.034875   0.002359   0.001780   0.002980  -0.028998
    28  C    0.018964   0.410555   0.007138  -0.035661   0.005218   0.068469
    29  O    0.263356  -0.024283  -0.003817  -0.000048  -0.000640  -0.001477
    30  H    0.000000   0.000000   0.000000   0.000000   0.000000   0.000000
    31  H    0.414130  -0.007434   0.000028   0.000006   0.000004   0.000037
    32  H   -0.007434   0.577402   0.005082   0.001250  -0.000030   0.003033
    33  H    0.000028   0.005082   0.594555   0.006635   0.001594  -0.000013
    34  H    0.000006   0.001250   0.006635   0.611402   0.005654   0.002489
    35  H    0.000004  -0.000030   0.001594   0.005654   0.601729   0.006453
    36  H    0.000037   0.003033  -0.000013   0.002489   0.006453   0.627930
    37  H   -0.000001  -0.000016   0.000001   0.000004  -0.000060  -0.006322
    38  H    0.000001  -0.000009  -0.000009  -0.000006   0.002293   0.006494
    39  H    0.000000   0.000000  -0.000006  -0.000027   0.008681  -0.000006
    40  H    0.000000   0.000000   0.000000  -0.000004  -0.000003   0.000000
    41  H    0.000000   0.000000   0.000000   0.000000  -0.000002   0.000000
    42  H    0.000000   0.000000   0.000000   0.000000   0.000000   0.000000
    43  H    0.000000   0.000000   0.000000  -0.000001  -0.000009   0.000000
    44  H    0.000000   0.000000   0.000000   0.000000  -0.000001   0.000000
    45  H    0.000000   0.000000   0.000000   0.000000   0.000000   0.000000
             37         38         39         40         41         42
     1  O    0.000000   0.000000   0.000100  -0.000348  -0.002684  -0.017548
[...]
 655,-0.00119414,0.00221566,0.00254185,0.00107694,-0.00060257,-0.000080
 61,0.00009520,0.00011406,0.00007756,-0.00001399,0.00014585,0.00000001,
 0.00000962,-0.00000060,-0.00002138,0.00002056,0.00001577,0.00002890,-0
 .00001573,-0.00002623,-0.00002182,-0.00000100,0.00003310,-0.00000693,-
 0.00000362,-0.00000017,0.00000864,-0.00000242,0.00000085,-0.00000216,-
 0.00000116,-0.00000122,-0.00001308,0.00000177,0.00000356,0.00002493,0.
 00001045,0.00003049,-0.00001296,-0.00000355,-0.00000237,-0.00001559,-0
 .00000763,0.00000089,0.00001347,-0.00000261,0.00000317,-0.00001262,0.0
 0000916,0.00000036,0.00000828,-0.00000170,-0.00000533,0.00193416,0.000
 05493,-0.00077760,-0.00000164,0.00000010,0.00000082,0.00000257,0.00000
 009,0.00000142,0.00000401,0.00000180,-0.00000292,0.00000704,-0.0000003
 2,0.00000841,0.00001039,0.00000148,-0.00000735,0.00000796,-0.00000009,
 0.00000585,0.00000014,-0.00000135,0.00000247,0.00000593,0.00000006,-0.
 00000258,0.00002828,-0.00004654,-0.00020344,0.00087076,0.00026060,0.00
 070956,0.00026978,0.00234521,0.00101563,0.37542020,-0.01046394,0.00028
 101,-0.00704844,-0.01287573,-0.04397799,0.00377160,0.03565514,-0.00285
 607,-0.00695159,-0.00233269,0.00327358,-0.00023888,0.00034761,-0.00019
 101,0.00037909,0.00114865,0.00138954,0.00092109,-0.00044760,-0.0001448
 4,0.00016430,-0.00007220,0.00002095,0.00002201,-0.00142203,0.00142321,
 -0.00085381,0.00020278,-0.00010890,0.00008808,-0.00000342,-0.00004593,
 -0.00003117,-0.02883794,-0.00374172,0.00728913,0.00123814,0.00120082,-
 0.00267371,0.00015048,-0.00028390,-0.00011926,0.00000867,0.00005703,-0
 .00001864,-0.00003126,0.00002262,-0.00000227,0.00000962,0.00001539,-0.
 00000113,0.00002442,-0.00000405,-0.00005056,-0.00003188,-0.00001362,0.
 00006045,-0.00000698,0.00000050,-0.00000071,0.00000376,-0.00000009,-0.
 00000264,-0.00000119,-0.00000046,-0.00000054,0.00000600,0.00000133,-0.
 00000336,-0.00000649,-0.00000889,-0.00001209,0.00000705,0.00000295,-0.
 00000171,0.00000068,-0.00000026,0.00000463,-0.00000081,-0.00000238,-0.
 00000181,-0.00000103,0.00000334,0.00000338,0.00000279,-0.00000119,-0.0
 0000453,-0.00114270,0.00132465,-0.00013920,-0.00000015,0.00000009,0.00
 000074,0.00000010,0.00000011,-0.00000021,0.00000095,-0.00000033,-0.000
 00108,0.00000174,0.00000130,0.00000191,0.00000342,-0.00000587,0.000003
 86,-0.00000057,0.00000151,0.00000008,-0.00000056,-0.00000004,-0.000001
 55,-0.00000212,-0.00000121,0.00000258,-0.00008289,-0.00017085,-0.00000
 728,-0.00064569,-0.00012037,-0.00025543,0.00188449,-0.00532809,-0.0021
 0568,0.01732587,0.05061148,-0.04260264,-0.00969397,-0.02114926,0.03645
 113,0.00337276,-0.04128978,0.01221953,-0.00046508,-0.00126185,-0.00108
 066,0.00001652,0.00086810,-0.00030046,-0.00031013,-0.00011041,0.001323
 24,-0.00008654,0.00018034,-0.00038352,0.00006707,0.00000034,0.00003024
 ,0.00002076,-0.00000902,0.00010615,-0.00116360,0.00077036,-0.00005380,
 0.00009514,0.00007258,0.00000341,-0.00001638,0.00006377,0.02448919,0.0
 0370578,-0.00471719,-0.00030068,-0.00009904,0.00266601,0.00044700,-0.0
 0031874,-0.00045848,-0.00007458,0.00002247,-0.00011039,0.00001379,-0.0
 0002584,-0.00001247,0.00001584,0.00000410,0.00000997,-0.00005393,-0.00
 001098,0.00000981,0.00006575,0.00002559,-0.00004160,0.00000735,-0.0000
 0413,0.00000451,-0.00000855,0.00000586,-0.00000715,0.00000233,-0.00000
 021,0.00000261,0.00001018,0.00000282,-0.00000423,-0.00001412,-0.000009
 14,-0.00001263,0.00000583,0.00000280,0.00000244,0.00000890,0.00000948,
 0.00000538,-0.00000877,0.00000191,-0.00000910,0.00000564,-0.00000471,0
 .00000990,-0.00000060,0.00000010,-0.00000540,-0.00388247,0.00057704,0.
 00272890,0.00000024,0.00000005,0.00000120,-0.00000166,-0.00000074,-0.0
 0000229,-0.00000412,-0.00000094,0.00000416,-0.00000858,-0.00000332,-0.
 00001134,-0.00001243,0.00000086,0.00001276,-0.00000599,-0.00000138,-0.
 00000563,-0.00000142,-0.00000136,-0.00000113,-0.00000392,0.00000111,0.
 00000275,-0.00020162,0.00002591,0.00015830,-0.00029464,-0.00035522,-0.
 00009271,0.00048760,-0.00218510,-0.00049020,-0.02608225,0.00407170,0.0
 6550611,0.00085098,0.00005010,0.00163315,-0.00815565,-0.00060344,0.002
 37984,-0.00046006,0.00088546,-0.00003282,0.00061176,0.00024911,-0.0001
 9710,-0.00010075,0.00007415,0.00005094,0.00017004,0.00001562,-0.000220
 22,0.00012786,-0.00034787,0.00002627,0.00000606,0.00005111,0.00002274,
 -0.01119311,0.00055387,0.00271370,0.00086681,0.00086852,0.00095568,-0.
 00016518,0.00001888,0.00017450,-0.33604623,-0.00886632,0.06304476,-0.0
 1874010,-0.00534245,-0.01118242,-0.00035818,0.00280052,0.00164325,0.00
 061421,-0.00008374,-0.00055962,-0.00022151,-0.00013477,0.00019867,0.00
 001029,0.00008473,0.00005671,0.00017018,0.00006086,-0.00027727,-0.0002
 1091,-0.00032762,0.00050344,-0.00004042,-0.00003763,0.00002044,0.00001
 825,0.00003049,-0.00002942,-0.00000978,-0.00000741,-0.00000385,-0.0000
 3605,0.00000889,0.00001623,0.00001540,-0.00002104,-0.00002422,-0.00000
 670,0.00000393,-0.00000547,0.00004515,0.00004046,0.00002095,0.00000980
 ,0.00000103,-0.00007874,-0.00000761,-0.00000727,0.00004888,0.00003268,
 0.00000358,-0.00004906,0.00018126,-0.00003029,0.00002963,-0.00000199,-
 0.00000030,0.00000607,0.00000183,0.00000146,-0.00000234,0.00000947,0.0
 0000373,-0.00001165,0.00002102,0.00000410,0.00002444,0.00004219,-0.000
 00477,-0.00003764,0.00000926,0.00000293,0.00000965,0.00000252,-0.00000
 837,-0.00000458,0.00000989,-0.00000079,0.00000138,0.00047554,-0.001328
 12,-0.00091555,0.00009360,0.00018615,0.00011198,0.00100656,-0.00052840
 ,-0.00041806,0.00062566,-0.00077173,0.00043093,0.36842904,0.00125546,0
 .00051249,-0.00000465,-0.02429019,-0.00242224,0.00689811,-0.00218438,0
 .00115112,0.00079327,0.00075527,0.00005466,-0.00035840,-0.00008638,0.0
 0011309,-0.00002297,-0.00005243,-0.00028974,-0.00010809,0.00015479,-0.
 00012946,-0.00003035,-0.00000206,0.00000417,-0.00000998,0.03489714,-0.
 00187738,-0.00541330,-0.00212418,0.00079293,-0.00007888,0.00012679,0.0
 0007910,0.00002664,-0.00793640,-0.04427858,0.00342070,-0.01197425,-0.0
 0094846,-0.00480517,-0.00282457,0.00155305,0.00084868,0.00036310,-0.00
 011969,-0.00015869,0.00003329,-0.00004081,-0.00001142,0.00001091,0.000
 07699,0.00006865,-0.00010401,0.00000391,-0.00013542,0.00014997,-0.0001
 3231,0.00011857,0.00000789,-0.00001449,0.00000283,-0.00001014,0.000001
 89,-0.00001020,0.00000286,0.00000096,0.00000402,-0.00000827,0.00000762
 ,-0.00001049,0.00000421,-0.00000619,0.00001164,-0.00000304,-0.00000116
 ,-0.00000148,0.00001718,0.00001272,0.00000084,-0.00000141,-0.00001329,
 -0.00000721,-0.00000100,0.00001720,0.00000478,0.00000129,-0.00000523,-
 0.00000807,0.00016267,-0.00005871,-0.00017971,0.00000078,0.00000031,0.
 00000159,-0.00000101,-0.00000309,-0.00000247,-0.00000447,0.00000280,0.
 00000438,-0.00000943,-0.00002216,-0.00000950,0.00000888,0.00001913,-0.
 00002900,-0.00000038,0.00000029,0.00000235,0.00000244,-0.00000251,0.00
 000087,0.00000285,-0.00000151,-0.00000212,0.00055950,0.00019970,-0.000
 07674,0.00017895,0.00009225,0.00000067,0.00068732,-0.00047889,-0.00004
 403,-0.00088464,-0.00281289,0.00268336,0.01062002,0.05300832,-0.002031
 48,-0.00077860,0.00131526,0.02785019,0.00347611,-0.00359878,0.00099119
 ,-0.00186565,-0.00004185,-0.00076677,0.00013409,0.00012590,0.00020142,
 -0.00010115,0.00004261,0.00021264,-0.00009895,-0.00049295,0.00008771,-
 0.00033835,0.00025133,-0.00000889,0.00008102,-0.00000892,0.00886220,0.
 00159740,0.00046327,-0.00091700,0.00048182,0.00024338,0.00002631,0.000
 01412,0.00002567,0.06756396,0.00221047,-0.05611195,-0.04032354,-0.0075
 3741,-0.00734364,-0.00341913,0.00354575,0.00300975,0.00051506,-0.00008
 279,-0.00073910,-0.00005346,-0.00017534,0.00022109,-0.00000527,-0.0000
 0773,0.00001476,0.00014964,0.00010933,-0.00010476,-0.00019516,-0.00035
 249,0.00038952,-0.00001544,-0.00002936,0.00002888,0.00000258,0.0000399
 1,-0.00002937,-0.00000514,-0.00000575,-0.00000198,-0.00000623,0.000023
 91,0.00000273,-0.00000119,-0.00002930,0.00000843,0.00000428,0.00000519
 ,-0.00000579,0.00004602,0.00005397,0.00002400,-0.00000887,0.00000799,-
 0.00008305,0.00000936,-0.00002606,0.00004599,0.00001798,0.00000676,-0.
 00003619,-0.00006966,-0.00017025,0.00055073,-0.00000007,-0.00000050,0.
 00000436,-0.00000211,0.00000186,-0.00000372,0.00000329,0.00000150,-0.0
 0000917,0.00001776,0.00000613,0.00002076,0.00002737,-0.00000066,-0.000
 07125,-0.00000070,0.00000058,0.00000218,-0.00000036,-0.00000903,-0.000
 00200,0.00000085,-0.00000026,0.00000370,0.00109918,0.00003237,-0.00004
 110,-0.00003838,-0.00000146,-0.00012950,-0.00073416,0.00035471,0.00041
 548,0.00090757,0.00378378,-0.00339374,-0.05921837,-0.00246803,0.064155
 54,0.00003176,-0.00029687,0.00009650,-0.00055253,0.00250166,0.00160110
 ,0.00070751,0.00019025,-0.00064313,-0.00012805,0.00046332,-0.00005557,
 -0.00000238,-0.00000053,0.00004979,-0.00003752,-0.00000209,-0.00001133
 ,0.00000719,-0.00001978,-0.00001561,0.00000437,0.00000900,0.00003091,-
 0.07831705,-0.05937215,0.07585560,0.00625957,0.00501623,-0.01394280,0.
 00190072,0.00135025,0.00079497,0.00416516,0.01413449,-0.01139754,0.000
 11588,-0.00141622,-0.00083566,-0.00008684,0.00019511,0.00008558,-0.000
 08448,0.00000408,-0.00022327,0.00002019,-0.00004300,0.00015019,-0.0001
 2148,-0.00026109,-0.00014974,-0.00006986,0.00045232,0.00025370,0.00014
 094,-0.00063732,-0.00034287,0.00004224,0.00005069,0.00002637,-0.000008
 42,0.00002431,0.00002249,0.00000135,-0.00000005,-0.00000738,0.00000367
 ,-0.00001520,0.00003783,-0.00000017,0.00001386,-0.00003076,0.00000254,
 -0.00000274,0.00000187,-0.00001096,0.00002102,-0.00002160,-0.00001531,
 0.00004285,-0.00002520,0.00001954,-0.00008532,-0.00001103,-0.00001982,
 0.00002247,0.00003420,-0.00012505,0.00007342,-0.00013884,0.00000032,-0
 .00000147,-0.00000662,-0.00000164,0.00000671,0.00000306,-0.00000182,-0
 .00000280,-0.00000540,0.00002418,0.00001907,0.00001227,-0.00000190,0.0
 0000225,-0.00000387,-0.00000279,-0.00000395,-0.00000212,-0.00000209,0.
 00000806,-0.00000297,-0.00000214,0.00000313,-0.00000117,-0.00001739,-0
 .00000055,-0.00000471,0.00001064,0.00001227,0.00001096,-0.00002972,-0.
 00010263,-0.00002664,0.00030428,0.00037732,-0.00014674,0.00098227,-0.0
 0066602,-0.00103299,0.07480293,-0.00006156,0.00056141,0.00008286,0.002
 91679,-0.00499220,-0.00449804,-0.00078957,0.00008093,0.00193378,0.0002
 9139,-0.00138569,0.00014627,-0.00009972,0.00013166,-0.00019745,0.00002
 527,0.00025850,0.00055646,-0.00005721,0.00003437,-0.00039452,0.0000607
 3,-0.00000967,0.00016092,-0.05651506,-0.15102175,0.14273652,0.00292030
 ,0.00493360,-0.02652143,0.00043384,0.00388940,-0.00233740,-0.00937370,
 -0.02415175,0.02515236,0.00045682,0.00265054,0.00027162,0.00022010,-0.
 00023941,-0.00017239,-0.00000108,0.00007447,-0.00034131,-0.00006980,-0
 .00004374,0.00016900,-0.00009889,-0.00041252,-0.00026260,0.00023403,0.
 00054944,0.00038395,-0.00043248,-0.00065175,-0.00048834,0.00000925,0.0
 0009100,0.00001038,0.00001859,0.00000761,0.00004751,-0.00000584,0.0000
 0065,-0.00001647,-0.00001804,-0.00006342,0.00009452,-0.00000702,0.0000
 3709,-0.00014421,0.00000570,-0.00000409,0.00001518,-0.00000457,-0.0000
 0449,-0.00003770,-0.00001185,0.00007445,-0.00002830,0.00002481,-0.0001
 2629,-0.00002417,-0.00002167,0.00003505,0.00005167,0.00006379,-0.00014
 512,-0.00014133,-0.00000059,-0.00000156,-0.00001002,0.00000074,0.00001
 323,0.00000883,0.00001022,-0.00000789,-0.00001800,0.00005251,0.0000666
 2,0.00004654,0.00001887,-0.00001628,-0.00001197,0.00000189,0.00000067,
 0.00000450,0.00000061,0.00001929,-0.00001321,0.00000306,0.00000498,-0.
 00000369,0.00000300,-0.00002569,-0.00000268,-0.00000208,-0.00001802,-0
 .00003491,0.00013597,-0.00005366,-0.00008131,0.00005535,0.00037532,-0.
 00025472,0.00023419,0.00148279,0.00004866,0.05914279,0.16757945,0.0000
 4906,0.00043144,0.00020390,-0.00053978,-0.00108948,-0.00025926,0.00007
 641,-0.00007580,0.00007641,0.00002341,-0.00006341,0.00008063,0.0000026
 7,-0.00005061,-0.00001966,-0.00000040,-0.00003995,-0.00008061,0.000008
 02,-0.00001555,0.00005034,-0.00000450,0.00000829,-0.00001915,0.0713404
 9,0.13685029,-0.20905872,0.00450040,0.00174336,-0.04364891,-0.00048355
 ,0.00093722,0.00022182,0.00079801,-0.00161692,0.00166639,0.00039306,-0
 .00053138,0.00134260,-0.00007614,-0.00001131,0.00026521,0.00001305,0.0
 0001081,0.00010219,0.00002423,0.00003011,-0.00003812,0.00003306,0.0000
 8104,0.00002180,-0.00003253,-0.00017534,-0.00014824,-0.00004494,0.0001
 1842,0.00002446,-0.00000329,-0.00001170,-0.00001071,-0.00000621,-0.000
 01755,-0.00001362,0.00000433,0.00000424,0.00000833,0.00000470,0.000014
 18,-0.00001946,-0.00000278,-0.00001433,0.00002215,0.00000028,0.0000037
 7,-0.00000239,0.00000122,0.00000146,0.00000710,0.00000194,-0.00002468,
 0.00000864,-0.00000744,0.00003714,0.00000919,0.00000687,-0.00001351,-0
 .00001624,-0.00002568,-0.00027386,0.00001930,-0.00000030,0.00000256,0.
 00000440,-0.00000039,-0.00000342,-0.00000243,-0.00000294,0.00000212,0.
 00000471,-0.00000992,-0.00000627,-0.00000513,-0.00000538,0.00000261,0.
 00000129,-0.00000115,0.00000002,-0.00000149,-0.00000057,-0.00000430,0.
 00000141,-0.00000082,-0.00000054,0.00000135,-0.00000705,0.00001948,-0.
 00001145,-0.00001069,-0.00000223,0.00000932,-0.00000593,-0.00000995,-0
 .00000261,-0.00001771,-0.00006715,0.00001594,-0.00043141,-0.00004234,0
 .00068892,-0.07623478,-0.13712032,0.24640383,0.00029232,0.00010549,-0.
 00005250,0.00025205,-0.00099234,0.00039650,0.00031970,-0.00000847,-0.0
 0015152,0.00008558,0.00021531,-0.00001631,-0.00003733,-0.00002165,0.00
 002186,-0.00008971,-0.00002108,-0.00010648,0.00005520,-0.00007799,0.00
 004623,-0.00001339,0.00001009,-0.00000517,-0.35050446,-0.01022119,0.00
 033328,-0.00269603,-0.00946455,-0.01252242,-0.00071066,0.00041399,-0.0
 0082526,-0.01956439,0.00130342,0.00165393,0.00215188,-0.00130556,-0.00
 042319,0.00057374,0.00003570,0.00013787,0.00007795,0.00011107,0.000154
 93,-0.00003802,0.00002932,0.00000123,0.00000690,0.00009374,0.00005471,
 0.00018181,-0.00013604,-0.00006089,-0.00035468,0.00014174,0.00015979,-
 0.00002388,-0.00002298,0.00000130,0.00001692,0.00000338,-0.00001618,-0
 .00000447,-0.00000549,0.00000005,-0.00001259,0.00000628,-0.00000676,0.
 00001319,-0.00000578,0.00000763,-0.00000597,0.00000268,-0.00000256,-0.
 00001241,-0.00000834,0.00001830,0.00001647,-0.00001105,-0.00000396,-0.
 00002053,0.00002765,0.00002025,0.00002245,-0.00000637,-0.00002866,-0.0
 0018136,0.00005117,-0.00018671,-0.00000283,0.00000019,0.00000523,0.000
 00314,-0.00000056,0.00000014,0.00000702,0.00000146,-0.00000550,0.00000
 840,0.00001059,0.00002364,0.00001515,-0.00000654,-0.00000369,0.0000086
 8,0.00000222,0.00000569,0.00000027,-0.00000438,0.00000012,0.00000538,-
 0.00000142,0.00000042,0.00006887,-0.00030557,-0.00020529,0.00004271,0.
 00004220,0.00001672,0.00015327,-0.00026077,-0.00006841,0.00059787,0.00
 078193,-0.00059612,0.00031463,0.00316508,0.00025781,-0.00990784,0.0002
 3012,0.00067507,0.37888902,-0.00021113,0.00015404,0.00041521,0.0011866
 4,0.00244149,-0.00104355,0.00016018,0.00000047,-0.00019132,-0.00020662
 ,-0.00011164,0.00015194,0.00002460,-0.00004486,-0.00002188,0.00005376,
 0.00007265,0.00002057,-0.00004581,0.00004123,0.00001322,0.00000367,0.0
 0000430,0.00000184,-0.01140546,-0.04360902,0.00813371,-0.01971950,-0.0
 0586937,-0.01631186,-0.00148956,-0.00020730,-0.00035666,0.03707110,-0.
 00483683,-0.00217085,-0.00058477,0.00225130,0.00197284,0.00025910,0.00
 000576,-0.00002970,-0.00013014,-0.00003642,-0.00006554,0.00000018,-0.0
 0000632,0.00001747,0.00002522,0.00000218,-0.00000083,0.00005959,-0.000
 02456,0.00000642,-0.00011018,0.00006102,-0.00001616,-0.00001069,-0.000
 00247,-0.00000158,0.00000546,0.00000144,-0.00000604,-0.00000166,-0.000
 00188,-0.00000013,0.00000404,0.00000423,-0.00000303,-0.00000436,-0.000
 00604,0.00000079,0.00000170,0.00000244,-0.00000038,-0.00000003,0.00000
 329,0.00000777,-0.00000027,-0.00000163,-0.00000675,-0.00000264,0.00000
 166,0.00000966,0.00000631,-0.00000066,-0.00000917,0.00004041,-0.000192
 54,0.00013736,-0.00000103,0.00000028,0.00000189,0.00000025,0.00000078,
 -0.00000057,0.00000134,-0.00000229,-0.00000041,-0.00000115,0.00001069,
 0.00000359,0.00000026,-0.00000533,0.00000851,-0.00000103,0.00000012,-0
 .00000222,-0.00000130,-0.00000204,-0.00000042,-0.00000102,0.00000070,0
 .00000221,-0.00023566,0.00004914,0.00008822,-0.00003983,-0.00004555,-0
 .00001653,-0.00033727,0.00004072,0.00012871,-0.00085736,-0.00018580,0.
 00029808,0.00159847,-0.00552874,-0.00193832,-0.02120715,0.00042243,0.0
 0098334,0.01610335,0.05514894,0.00018417,0.00008032,0.00010638,-0.0007
 8070,-0.00034029,0.00010838,0.00005529,0.00008237,0.00005503,0.0000266
 9,-0.00007501,0.00000012,-0.00002395,0.00002395,-0.00001730,0.00001141
 ,0.00004097,0.00007472,-0.00002289,-0.00000101,-0.00006002,0.00001518,
 0.00000242,0.00003427,0.00115020,0.00854996,-0.03888706,-0.03774577,-0
 .01791945,-0.01731654,-0.00178047,0.00018672,-0.00065042,0.00084283,-0
 .00024928,0.00199527,0.00079062,-0.00066472,0.00028442,0.00025925,0.00
 012467,-0.00007505,-0.00011377,0.00005157,-0.00012234,0.00001878,-0.00
 002409,0.00002601,-0.00002155,-0.00007072,-0.00004339,-0.00015077,0.00
 009213,0.00004263,0.00033382,-0.00008396,-0.00015706,0.00001362,0.0000
 1402,0.00000662,-0.00001095,0.00000553,0.00000203,0.00000202,0.0000024
 0,0.00000092,0.00000061,-0.00001084,0.00001535,-0.00000535,0.00000554,
 -0.00002779,0.00000224,0.00000036,0.00000348,0.00000208,0.00000407,-0.
 00000182,-0.00000958,0.00001682,-0.00000891,0.00000981,-0.00002759,0.0
 0000017,-0.00000722,0.00000702,0.00000846,-0.00014242,0.00002979,-0.00
 013000,0.00000042,-0.00000040,-0.00000170,-0.00000172,0.00000126,-0.00
 000050,-0.00000464,0.00000020,0.00000439,-0.00000510,-0.00001335,-0.00
 002063,-0.00000943,0.00000292,0.00000346,-0.00000441,-0.00000276,-0.00
 000352,-0.00000054,0.00000279,-0.00000271,-0.00000130,0.00000232,-0.00
 000001,-0.00009470,-0.00004697,-0.00002001,-0.00000334,-0.00001007,0.0
 0000441,0.00001730,0.00002211,-0.00003729,0.00008088,0.00002606,0.0000
 9976,-0.00042445,-0.00086323,0.00019455,0.02625294,0.00123490,0.002096
 60,0.01129488,0.00979055,0.05241664\\0.01627864,-0.01499906,-0.0130400
 6,-0.02175682,0.00523887,-0.00216755,0.01831688,-0.02252567,0.03298485
 ,-0.00675595,0.00091637,0.01707916,-0.00013592,0.00020188,-0.03448921,
 -0.00060992,-0.00637163,-0.03480800,-0.00335177,-0.00316763,0.01410979
 ,0.01250836,0.00397429,0.01628025,-0.01365293,0.02414404,-0.00748825,0
 .01219265,0.01270987,0.00129830,0.00142033,-0.03504047,0.00579301,0.00
 341517,0.00326299,0.01944732,0.00447563,0.01565575,0.00894854,-0.03743
 410,0.02926334,-0.00435718,0.01407928,-0.02440787,0.01339000,-0.005957
 32,0.01417147,0.01164625,-0.00003173,0.03498146,-0.01205077,-0.0020366
 4,-0.01899534,0.02249356,0.00392611,0.00352157,-0.02380865,0.00823433,
 0.00823941,-0.03800487,0.00081000,0.01471373,-0.00643158,-0.01448150,-
 0.00967762,0.02912052,0.01644424,-0.00589586,-0.00528042,-0.00279439,-
 0.01920389,-0.00646992,-0.01220691,0.03049884,0.00580533,-0.01741838,0
 .00128755,0.00832588,-0.01023959,-0.02574449,0.02760022,0.05921187,-0.
 03821277,0.01196095,-0.02022554,0.03035418,-0.00243863,-0.00057763,0.0
 0196657,-0.00253825,-0.00122529,0.00000302,-0.00339143,-0.01693118,-0.
 00166780,-0.00687129,0.02049132,-0.00010770,0.00325639,-0.02133984,-0.
 00508832,0.00302503,0.01910496,0.00120798,0.00147654,-0.02372394,-0.00
 121263,0.00000301,-0.00414126,-0.00648506,-0.01707086,0.02126219,0.000
 73650,-0.00128068,0.01826444,0.00012674,-0.00495632,-0.01951602,-0.001
 12209,0.00408168,0.02407673,0.00033514,-0.00342363,-0.02161835,-0.0006
 8294,-0.00139823,0.02122830,0.00015673,-0.00363469,0.00382437,0.006874
 75,-0.01869984,-0.02140287,-0.00393423,-0.00402627\\\@


 IF IT HAPPENS, IT MUST BE POSSIBLE.

 -- THE UNNAMED LAW FROM PAUL DICKSON'S 
    "THE OFFICIAL RULES"
 Job cpu time:  3 days 22 hours 43 minutes 39.7 seconds.
 File lengths (MBytes):  RWF=   2340 Int=      0 D2E=      0 Chk=     43 Scr=      1
 Normal termination of Gaussian 09 at Fri Feb 12 12:39:30 2016.
Gaussian '09 finished on node023 at Fri Feb 12 12:39:30 EST 2016.
