Gaussian '09 started on node023 at Fri Mar 25 23:38:41 EDT 2016.
 Entering Gaussian System, Link 0=/usr/local/gaussian/g09/g09
 Initial command:
 /usr/local/gaussian/g09/l1.exe /home/srmcgrat/thesis/gaussian/cellobiose/423K/7836ps/1/2dp/gaussian6511/Gau-6547.inp -scrdir=/home/srmcgrat/thesis/gaussian/cellobiose/423K/7836ps/1/2dp/gaussian6511/
 Entering Link 1 = /usr/local/gaussian/g09/l1.exe PID=      6549.
  
 Copyright (c) 1988,1990,1992,1993,1995,1998,2003,2009,2010,
            Gaussian, Inc.  All Rights Reserved.
  
 This is part of the Gaussian(R) 09 program.  It is based on
 the Gaussian(R) 03 system (copyright 2003, Gaussian, Inc.),
 the Gaussian(R) 98 system (copyright 1998, Gaussian, Inc.),
 the Gaussian(R) 94 system (copyright 1995, Gaussian, Inc.),
 the Gaussian 92(TM) system (copyright 1992, Gaussian, Inc.),
 the Gaussian 90(TM) system (copyright 1990, Gaussian, Inc.),
 the Gaussian 88(TM) system (copyright 1988, Gaussian, Inc.),
 the Gaussian 86(TM) system (copyright 1986, Carnegie Mellon
 University), and the Gaussian 82(TM) system (copyright 1983,
 Carnegie Mellon University). Gaussian is a federally registered
 trademark of Gaussian, Inc.
  
 This software contains proprietary and confidential information,
 including trade secrets, belonging to Gaussian, Inc.
  
 This software is provided under written license and may be
 used, copied, transmitted, or stored only in accord with that
 written license.
  
 The following legend is applicable only to US Government
 contracts under FAR:
  
                    RESTRICTED RIGHTS LEGEND
  
 Use, reproduction and disclosure by the US Government is
 subject to restrictions as set forth in subparagraphs (a)
 and (c) of the Commercial Computer Software - Restricted
 Rights clause in FAR 52.227-19.
  
 Gaussian, Inc.
 340 Quinnipiac St., Bldg. 40, Wallingford CT 06492
  
  
 ---------------------------------------------------------------
 Warning -- This program may not be used in any manner that
 competes with the business of Gaussian, Inc. or will provide
 assistance to any competitor of Gaussian, Inc.  The licensee
 of this program is prohibited from giving any competitor of
 Gaussian, Inc. access to this program.  By using this program,
 the user acknowledges that Gaussian, Inc. is engaged in the
 business of creating and licensing software in the field of
 computational chemistry and represents and warrants to the
 licensee that it is not a competitor of Gaussian, Inc. and that
 it will not use this program in any manner prohibited above.
 ---------------------------------------------------------------
  

 Cite this work as:
 Gaussian 09, Revision B.01,
 M. J. Frisch, G. W. Trucks, H. B. Schlegel, G. E. Scuseria, 
 M. A. Robb, J. R. Cheeseman, G. Scalmani, V. Barone, B. Mennucci, 
 G. A. Petersson, H. Nakatsuji, M. Caricato, X. Li, H. P. Hratchian, 
 A. F. Izmaylov, J. Bloino, G. Zheng, J. L. Sonnenberg, M. Hada, 
 M. Ehara, K. Toyota, R. Fukuda, J. Hasegawa, M. Ishida, T. Nakajima, 
 Y. Honda, O. Kitao, H. Nakai, T. Vreven, J. A. Montgomery, Jr., 
 J. E. Peralta, F. Ogliaro, M. Bearpark, J. J. Heyd, E. Brothers, 
 K. N. Kudin, V. N. Staroverov, T. Keith, R. Kobayashi, J. Normand, 
 K. Raghavachari, A. Rendell, J. C. Burant, S. S. Iyengar, J. Tomasi, 
 M. Cossi, N. Rega, J. M. Millam, M. Klene, J. E. Knox, J. B. Cross, 
 V. Bakken, C. Adamo, J. Jaramillo, R. Gomperts, R. E. Stratmann, 
 O. Yazyev, A. J. Austin, R. Cammi, C. Pomelli, J. W. Ochterski, 
 R. L. Martin, K. Morokuma, V. G. Zakrzewski, G. A. Voth, 
 P. Salvador, J. J. Dannenberg, S. Dapprich, A. D. Daniels, 
 O. Farkas, J. B. Foresman, J. V. Ortiz, J. Cioslowski, 
 and D. J. Fox, Gaussian, Inc., Wallingford CT, 2010.
 
 ******************************************
 Gaussian 09:  EM64L-G09RevB.01 12-Aug-2010
                25-Mar-2016 
 ******************************************
 -------------------------------------------------
 # freq=raman b3lyp/6-31+g(2d,p) geom=connectivity
 -------------------------------------------------
 1/10=4,30=1,38=1,57=2/1,3;
 2/12=2,17=6,18=5,40=1/2;
 3/5=1,6=6,7=112,11=2,16=1,25=1,30=1,71=2,74=-5/1,2,3;
 4//1;
 5/5=2,38=5,98=1/2;
 8/6=4,10=90,11=11/1;
 10/13=10,15=4/2;
 11/6=3,8=1,9=11,15=111,16=1/1,2,10;
 10/6=1/2;
 6/7=2,8=2,9=2,10=2,18=1,28=1/1;
 7/8=1,10=1,25=1/1,2,3,16;
 1/10=4,30=1/3;
 99//99;
 -----------------
 423 7836/7836.com
 -----------------
 Symbolic Z-matrix:
 Charge =  0 Multiplicity = 1
 O                     7.658     7.689     12.34 
 C                     8.34      8.077     13.541 
 C                     7.708     9.346     14.091 
 O                     7.864     10.425    13.158 
 H                     7.824     10.115    12.208 
 C                     8.126     9.707     15.507 
 O                     7.191     10.603    16.124 
 H                     7.673     10.788    16.98 
 C                     8.725     5.729     14.307 
 O                     7.937     5.107     13.281 
 H                     8.066     4.128     13.437 
 C                     8.107     7.072     14.658 
 O                     8.784     7.412     15.877 
 C                     8.073     8.518     16.452 
 O                     8.792     8.799     17.662 
 C                     8.099     8.546     18.893 
 C                     8.568     7.192     19.399 
 O                     8.37      6.088     18.503 
 H                     8.418     6.429     17.564 
 C                     8.052     6.838     20.785 
 O                     8.752     5.698     21.306 
 H                     8.388     5.458     22.206 
 C                     7.874     10.953    19.601 
 O                     8.248     11.626    18.391 
 H                     7.923     12.558    18.551 
 C                     8.369     9.567     19.985 
 O                     7.728     9.165     21.205 
 C                     8.312     7.976     21.758 
 O                     7.597     7.783     22.987 
 H                     8.22227   7.66999   23.70663 
 H                     8.30215   7.47018   11.66266 
 H                     9.72384   5.87571   13.95245 
 H                     8.74098   5.10386   15.17524 
 H                     7.05859   6.95798   14.83894 
 H                     9.38576   8.21652   13.36265 
 H                     6.65709   9.15091   14.14019 
 H                     9.10587   10.13682   15.50735 
 H                     7.0604    8.24705   16.66676 
 H                     8.15065   11.60366   20.40412 
 H                     6.80535   10.89948   19.59664 
 H                     9.42455   9.61577   20.15333 
 H                     7.04694   8.5053    18.70219 
 H                     9.62874   7.28441   19.5048 
 H                     7.00319   6.63087   20.7404 
 H                     9.3593    8.10589   21.93459 
 

 GradGradGradGradGradGradGradGradGradGradGradGradGradGradGradGradGradGrad
 Berny optimization.
 Initialization pass.
 Trust Radius=3.00D-01 FncErr=1.00D-07 GrdErr=1.00D-07
 Number of steps in this run=      2 maximum allowed number of steps=      2.
 GradGradGradGradGradGradGradGradGradGradGradGradGradGradGradGradGradGrad

                          Input orientation:                          
 ---------------------------------------------------------------------
 Center     Atomic      Atomic             Coordinates (Angstroms)
 Number     Number       Type             X           Y           Z
 ---------------------------------------------------------------------
      1          8           0        7.658000    7.689000   12.340000
      2          6           0        8.340000    8.077000   13.541000
      3          6           0        7.708000    9.346000   14.091000
      4          8           0        7.864000   10.425000   13.158000
      5          1           0        7.824000   10.115000   12.208000
      6          6           0        8.126000    9.707000   15.507000
      7          8           0        7.191000   10.603000   16.124000
      8          1           0        7.673000   10.788000   16.980000
      9          6           0        8.725000    5.729000   14.307000
     10          8           0        7.937000    5.107000   13.281000
     11          1           0        8.066000    4.128000   13.437000
     12          6           0        8.107000    7.072000   14.658000
     13          8           0        8.784000    7.412000   15.877000
     14          6           0        8.073000    8.518000   16.452000
     15          8           0        8.792000    8.799000   17.662000
     16          6           0        8.099000    8.546000   18.893000
     17          6           0        8.568000    7.192000   19.399000
     18          8           0        8.370000    6.088000   18.503000
     19          1           0        8.418000    6.429000   17.564000
     20          6           0        8.052000    6.838000   20.785000
     21          8           0        8.752000    5.698000   21.306000
     22          1           0        8.388000    5.458000   22.206000
     23          6           0        7.874000   10.953000   19.601000
     24          8           0        8.248000   11.626000   18.391000
     25          1           0        7.923000   12.558000   18.551000
     26          6           0        8.369000    9.567000   19.985000
     27          8           0        7.728000    9.165000   21.205000
     28          6           0        8.312000    7.976000   21.758000
     29          8           0        7.597000    7.783000   22.987000
     30          1           0        8.222271    7.669991   23.706628
     31          1           0        8.302153    7.470177   11.662664
     32          1           0        9.723835    5.875713   13.952453
     33          1           0        8.740984    5.103858   15.175241
     34          1           0        7.058591    6.957981   14.838939
     35          1           0        9.385764    8.216523   13.362645
     36          1           0        6.657086    9.150910   14.140188
     37          1           0        9.105873   10.136823   15.507352
     38          1           0        7.060397    8.247050   16.666759
     39          1           0        8.150646   11.603660   20.404124
     40          1           0        6.805348   10.899478   19.596640
     41          1           0        9.424551    9.615766   20.153325
     42          1           0        7.046937    8.505299   18.702195
     43          1           0        9.628739    7.284406   19.504798
     44          1           0        7.003187    6.630872   20.740401
     45          1           0        9.359303    8.105892   21.934593
 ---------------------------------------------------------------------
                    Distance matrix (angstroms):
                    1          2          3          4          5
     1  O    0.000000
     2  C    1.434597   0.000000
     3  C    2.411255   1.520620   0.000000
     4  O    2.863085   2.426184   1.434945   0.000000
     5  H    2.435253   2.489295   2.037279   1.000100   0.000000
     6  C    3.784341   2.562782   1.519902   2.470216   3.337824
     7  O    4.798765   3.791143   2.445491   3.046600   3.996735
     8  H    5.579751   4.429575   3.229073   3.843948   4.821588
     9  C    2.974757   2.499617   3.763460   4.910594   4.945159
    10  O    2.762254   3.008473   4.321766   5.319923   5.122906
    11  H    3.748412   3.959860   5.270996   6.306414   6.116631
    12  C    2.440372   1.520527   2.377344   3.681258   3.916942
    13  O    3.722227   2.469060   2.843928   4.161434   4.657185
    14  C    4.215212   2.956297   2.528464   3.811924   4.541359
    15  O    5.553534   4.208115   3.771778   4.877610   5.693417
    16  C    6.623499   5.377913   4.883860   6.039544   6.872162
    17  C    7.134745   5.928859   5.792597   7.063851   7.797945
    18  O    6.407239   5.345883   5.524360   6.901785   7.492788
    19  H    5.427281   4.348162   4.590721   5.973924   6.528872
    20  C    8.496909   7.354835   7.156678   8.430483   9.184533
    21  O    9.249328   8.131704   8.151936   9.461658  10.156017
    22  H   10.141411   9.052275   9.023977  10.334988  11.043810
    23  C    7.963823   6.723997   5.741960   6.464606   7.440510
    24  O    7.243112   6.010521   4.896938   5.382764   6.379058
    25  H    7.896449   6.734490   5.500434   5.799795   6.797919
    26  C    7.904330   6.614082   5.935065   6.899211   7.815309
    27  O    8.987308   7.764997   7.116330   8.146183   9.047526
    28  C    9.445042   8.217668   7.811825   8.953117   9.798774
    29  O   10.647590   9.479736   9.032946  10.181390  11.030711
    30  H   11.380642  10.174454   9.774139  10.908345  11.762446
    31  H    0.960000   1.974288   3.125467   3.340507   2.742464
    32  H    3.186799   2.632481   4.015679   4.978570   4.962262
    33  H    3.986779   3.416300   4.498711   5.757857   5.895500
    34  H    2.671774   2.139827   2.585300   3.936300   4.180246
    35  H    2.075874   1.070000   2.149677   2.689799   2.715977
    36  H    2.525805   2.084349   1.070000   2.011129   2.454488
    37  H    4.256794   2.948894   2.141379   2.672966   3.539689
    38  H    4.403339   3.381814   2.874302   4.207212   4.894166
    39  H    8.977603   7.718527   6.719263   7.346953   8.336621
    40  H    7.980790   6.855094   5.791385   6.542320   7.499670
    41  H    8.239004   6.875093   6.306434   7.212819   8.120295
    42  H    6.443389   5.337919   4.733593   5.923761   6.735691
    43  H    7.441897   6.152718   6.103165   7.297909   8.031974
    44  H    8.492064   7.463895   7.216870   8.522277   9.252824
    45  H    9.753176   8.455307   8.110895   9.200151  10.049889
                    6          7          8          9         10
     6  C    0.000000
     7  O    1.434479   0.000000
     8  H    1.882418   0.999642   0.000000
     9  C    4.198010   5.423147   5.817655   0.000000
    10  O    5.113785   6.232590   6.784251   1.435446   0.000000
    11  H    5.950945   7.064787   7.553999   1.937623   0.999709
    12  C    2.768463   3.931434   4.403260   1.519465   2.405463
    13  O    2.415965   3.575072   3.721331   2.302362   3.573465
    14  C    1.519722   2.287517   2.364674   3.578359   4.659255
    15  O    2.431470   2.860605   2.381891   4.548122   5.792672
    16  C    3.579615   3.566942   2.977853   5.418373   6.583883
    17  C    4.654917   4.925107   4.425359   5.300328   6.494252
    18  O    4.704542   5.237834   4.989523   4.226266   5.330960
    19  H    3.880953   4.582729   4.460601   3.345489   4.508119
    20  C    6.007822   6.053220   5.497651   6.606610   7.701922
    21  O    7.077595   7.304031   6.766581   6.999121   8.087900
    22  H    7.937206   8.055716   7.498747   7.910829   8.943278
    23  C    4.286824   3.560691   2.633869   7.486041   8.609418
    24  O    3.466252   2.702419   1.738905   7.188963   8.288919
    25  H    4.175565   3.201278   2.379799   8.080222   9.126363
    26  C    4.486773   4.167529   3.317421   6.862701   8.063612
    27  O    5.737541   5.307803   4.526343   7.770618   8.905101
    28  C    6.488910   6.316623   5.580766   7.793393   8.957193
    29  O    7.741577   7.430882   6.717131   8.990756  10.073878
    30  H    8.449413   8.195262   7.434461   9.611098  10.739834
    31  H    4.451216   5.563520   6.299035   3.194215   2.887378
    32  H    4.432658   5.786028   6.123931   1.070000   2.057802
    33  H    4.655876   5.791645   6.058648   1.070000   2.057802
    34  H    3.023701   3.867179   4.430653   2.137820   2.573890
    35  H    2.899446   4.258796   4.757238   2.741566   3.431431
    36  H    2.082095   2.515778   3.431716   4.001695   4.327770
    37  H    1.070000   2.065022   2.155423   4.584192   5.623347
    38  H    2.147558   2.421187   2.632457   3.831441   4.700182
    39  H    5.251643   4.499078   3.552193   8.486250   9.643191
    40  H    4.459964   3.506544   2.758994   7.641937   8.644116
    41  H    4.825236   4.711565   3.809470   7.055200   8.352882
    42  H    3.580186   3.326889   2.927223   5.462734   6.459876
    43  H    4.910150   5.327798   4.740748   5.500285   6.807256
    44  H    6.173472   6.092966   5.645439   6.720615   7.670519
    45  H    6.737843   6.685811   5.880928   8.014495   9.268277
                   11         12         13         14         15
    11  H    0.000000
    12  C    3.187422   0.000000
    13  O    4.153767   1.435232   0.000000
    14  C    5.325634   2.304454   1.435055   0.000000
    15  O    6.340027   3.532106   2.260544   1.435278   0.000000
    16  C    7.020523   4.484191   3.294152   2.441299   1.435137
    17  C    6.722019   4.764872   3.535469   3.269268   2.376930
    18  O    5.440439   3.977619   2.969890   3.193698   2.869649
    19  H    4.738210   2.992492   1.986508   2.391546   2.401329
    20  C    7.831820   6.131713   4.995374   4.647336   3.761150
    21  O    8.053363   6.819077   5.693229   5.654623   4.785033
    22  H    8.875131   7.723747   6.635599   6.524672   5.654506
    23  C    9.198499   6.288855   5.218712   3.985602   3.040092
    24  O    8.988617   5.890169   4.936121   3.667426   2.969732
    25  H    9.860951   6.729450   5.862842   4.555206   3.959238
    26  C    8.517678   5.888174   4.657458   3.697311   2.482958
    27  O    9.264310   6.883858   5.707515   4.809225   3.717378
    28  C    9.170968   7.160254   5.926807   5.338963   4.205347
    29  O   10.236283   8.374835   7.217944   6.593408   5.551208
    30  H   10.864409   9.069099   7.853991   7.305548   6.175499
    31  H    3.791330   3.027980   4.242191   4.907971   6.164231
    32  H    2.463455   2.131445   2.635783   3.994330   4.814007
    33  H    2.104610   2.131445   2.412848   3.705763   4.454284
    34  H    3.314981   1.070000   2.064156   2.462651   3.789951
    35  H    4.296897   2.150143   2.707648   3.370215   4.379074
    36  H    5.263947   2.586938   3.250244   2.783857   4.133383
    37  H    6.440004   3.333510   2.768557   2.140041   2.555543
    38  H    5.330024   2.551712   2.071674   1.070000   2.072101
    39  H   10.219270   7.318182   6.202097   5.014640   3.974506
    40  H    9.240309   6.382323   5.469304   4.143324   3.478739
    41  H    8.778967   6.197200   4.853231   4.090427   2.697022
    42  H    6.922536   4.419682   3.492050   2.473124   2.052684
    43  H    7.015926   5.084511   3.727034   3.641655   2.527851
    44  H    7.793177   6.197467   5.237760   4.805844   4.168595
    45  H    9.471290   7.455602   6.124287   5.646524   4.365464
                   16         17         18         19         20
    16  C    0.000000
    17  C    1.519642   0.000000
    18  O    2.503459   1.435561   0.000000
    19  H    2.519859   1.992961   1.000153   0.000000
    20  C    2.549341   1.520713   2.423045   3.267427   0.000000
    21  O    3.789470   2.429515   2.855667   3.827333   1.435633
    22  H    4.538197   3.304301   3.756253   4.742563   2.009113
    23  C    2.519035   3.829825   5.011970   4.991180   4.285646
    24  O    3.124197   4.558379   5.540476   5.265134   5.356734
    25  H    4.030395   5.470748   6.485600   6.227667   6.142133
    26  C    1.519146   2.454307   3.781503   3.963671   2.861456
    27  O    2.422013   2.803563   4.144985   4.606374   2.386693
    28  C    2.928907   2.499014   3.763367   4.471474   1.519662
    29  O    4.194641   3.763757   4.855596   5.649450   2.439027
    30  H    4.894242   4.347835   5.440797   6.269789   3.042551
    31  H    7.312757   7.745899   6.978912   5.993599   9.147635
    32  H    5.846326   5.721315   4.752412   3.880026   7.099629
    33  H    5.107075   4.714913   3.490006   2.750725   5.911966
    34  H    4.476568   4.809078   3.987731   3.090917   6.029668
    35  H    5.687631   6.177051   5.655584   4.667246   7.666199
    36  H    5.003424   5.928239   5.599073   4.715093   7.172786
    37  H    3.873903   4.909809   5.090029   4.295454   6.312405
    38  H    2.474716   3.294107   3.122233   2.439966   4.464147
    39  H    3.411077   4.543920   5.838227   5.908882   4.781874
    40  H    2.776239   4.109914   5.176341   5.168892   4.411570
    41  H    2.118940   2.679054   4.034945   4.227674   3.162103
    42  H    1.070000   2.126952   2.762880   2.736114   2.850985
    43  H    2.075095   1.070000   2.004847   2.442193   2.079496
    44  H    2.877744   2.136086   2.677471   3.483098   1.070000
    45  H    3.321648   2.809019   4.102004   4.774945   2.153637
                   21         22         23         24         25
    21  O    0.000000
    22  H    1.000048   0.000000
    23  C    5.594009   6.102888   0.000000
    24  O    6.625136   7.253830   1.434191   0.000000
    25  H    7.438875   7.999078   1.918574   0.999924   0.000000
    26  C    4.106202   4.670876   1.521012   2.606714   3.346842
    27  O    3.616471   3.896081   2.406465   3.774323   4.312098
    28  C    2.363723   2.558672   3.702300   4.966214   5.606326
    29  O    2.916678   2.577066   4.646571   6.026248   6.525718
    30  H    3.151568   2.678107   5.268361   6.626204   7.110746
    31  H    9.815136  10.733972   8.679317   7.908495   8.571981
    32  H    7.419616   8.371379   7.817085   7.412462   8.309188
    33  H    6.159491   7.048517   7.385896   7.288517   8.223690
    34  H    6.802798   7.634845   6.269154   5.985167   6.773980
    35  H    8.357123   9.317183   6.977880   6.180889   6.921497
    36  H    8.225577   9.038306   5.877829   5.169766   5.715423
    37  H    7.311136   8.202355   4.352196   3.356936   4.065105
    38  H    5.557134   6.342281   4.073559   3.975011   4.783172
    39  H    6.004318   6.408762   1.070000   2.015600   2.096820
    40  H    5.810916   6.238849   1.070000   2.015600   2.256812
    41  H    4.138825   4.751308   2.120723   2.920805   3.671355
    42  H    4.191416   4.833335   2.735530   3.358299   4.149064
    43  H    2.555325   3.488794   4.067794   4.690035   5.624062
    44  H    2.061189   2.332663   4.553827   5.658670   6.385169
    45  H    2.561618   2.833447   3.969610   5.116953   5.773468
                   26         27         28         29         30
    26  C    0.000000
    27  O    1.435578   0.000000
    28  C    2.382868   1.435474   0.000000
    29  O    3.576401   2.258896   1.434892   0.000000
    30  H    4.179796   2.955926   1.974550   0.960000   0.000000
    31  H    8.582681   9.708669  10.108005  11.350580  12.045886
    32  H    7.200889   8.209885   8.205550   9.475453  10.030856
    33  H    6.572046   7.340096   7.194855   8.337271   8.924050
    34  H    5.916594   6.770950   7.104984   8.207401   8.972013
    35  H    6.834704   8.071575   8.467160   9.798766  10.423550
    36  H    6.104556   7.145531   7.883540   9.001150   9.806105
    37  H    4.573512   5.941900   6.661081   7.985131   8.607796
    38  H    3.803345   4.678029   5.249830   6.359932   7.158402
    39  H    2.090772   2.601364   3.875427   4.644913   5.136674
    40  H    2.090772   2.539001   3.935505   4.672654   5.415650
    41  H    1.070000   2.046337   2.549820   3.837797   4.225811
    42  H    2.126182   2.676394   3.349401   4.379936   5.208023
    43  H    2.650995   3.168617   2.699820   4.062302   4.447720
    44  H    3.325196   2.676381   2.134917   2.593689   3.371119
    45  H    2.629914   2.077297   1.070000   2.077867   2.150108
                   31         32         33         34         35
    31  H    0.000000
    32  H    3.131554   0.000000
    33  H    4.257961   1.748418   0.000000
    34  H    3.449277   3.010098   2.526127   0.000000
    35  H    2.149693   2.437531   3.659225   3.029704   0.000000
    36  H    3.416026   4.490781   4.668254   2.336321   2.987196
    37  H    4.747482   4.577844   5.057092   3.839684   2.892345
    38  H    5.214063   4.481585   3.863761   2.236655   4.040474
    39  H    9.670665   8.769742   8.362843   7.331180   7.910792
    40  H    8.772029   8.100162   7.542192   6.183465   7.260818
    41  H    8.829193   7.247647   6.753214   6.395646   6.933449
    42  H    7.225097   6.053144   5.184496   4.161619   5.836463
    43  H    7.955715   5.729048   4.928282   5.336895   6.217227
    44  H    9.208531   7.351764   6.026833   5.910780   7.913422
    45  H   10.345734   8.295851   7.421817   7.547136   8.572702
                   36         37         38         39         40
    36  H    0.000000
    37  H    2.972830   0.000000
    38  H    2.713518   3.016528   0.000000
    39  H    6.890834   5.200235   5.140367   0.000000
    40  H    5.731695   4.753560   3.960382   1.719805   0.000000
    41  H    6.635719   4.685950   4.429306   2.374333   2.969519
    42  H    4.623927   4.136196   2.051798   3.703320   2.567195
    43  H    6.410429   4.938548   3.946838   4.652903   4.587889
    44  H    7.073414   6.640617   4.382906   5.114526   4.423611
    45  H    8.315454   6.745245   5.749345   4.004693   4.448914
                   41         42         43         44         45
    41  H    0.000000
    42  H    2.998661   0.000000
    43  H    2.428481   2.966556   0.000000
    44  H    3.888092   2.769418   2.974449   0.000000
    45  H    2.335999   3.994366   2.579019   3.025402   0.000000
 Stoichiometry    C12H22O11
 Framework group  C1[X(C12H22O11)]
 Deg. of freedom   129
 Full point group                 C1      NOp   1
 Largest Abelian subgroup         C1      NOp   1
 Largest concise Abelian subgroup C1      NOp   1
                         Standard orientation:                         
 ---------------------------------------------------------------------
 Center     Atomic      Atomic             Coordinates (Angstroms)
 Number     Number       Type             X           Y           Z
 ---------------------------------------------------------------------
      1          8           0        5.051468   -0.368748   -0.450918
      2          6           0        3.830184   -0.086388    0.246798
      3          6           0        3.252620    1.225626   -0.260473
      4          8           0        4.151635    2.307850    0.021715
      5          1           0        5.110696    2.029779   -0.033763
      6          6           0        1.820969    1.502554    0.168233
      7          8           0        1.191548    2.473208   -0.679936
      8          1           0        0.323803    2.583862   -0.196138
      9          6           0        3.127221   -2.481703    0.374838
     10          8           0        4.181883   -2.990550   -0.455383
     11          1           0        4.052528   -3.981544   -0.430560
     12          6           0        2.746209   -1.092112   -0.107491
     13          8           0        1.508398   -0.857453    0.580002
     14          6           0        0.911692    0.299982   -0.023049
     15          8           0       -0.316008    0.471883    0.700293
     16          6           0       -1.529216    0.258291   -0.035997
     17          6           0       -2.002329   -1.150295    0.282378
     18          8           0       -1.071977   -2.202949   -0.012918
     19          1           0       -0.144034   -1.843158    0.085970
     20          6           0       -3.370034   -1.486856   -0.290927
     21          8           0       -3.867617   -2.706969    0.278965
     22          1           0       -4.755033   -2.932594   -0.123130
     23          6           0       -2.303463    2.655359   -0.024009
     24          8           0       -1.118906    3.318954    0.437912
     25          1           0       -1.301247    4.274834    0.207924
     26          6           0       -2.654079    1.215609    0.319012
     27          8           0       -3.852709    0.848796   -0.380717
     28          6           0       -4.379211   -0.408916    0.068216
     29          8           0       -5.591849   -0.560522   -0.683741
     30          1           0       -6.316679   -0.757249   -0.085812
     31          1           0        5.725674   -0.634381    0.178753
     32          1           0        3.463185   -2.429415    1.389380
     33          1           0        2.277335   -3.128685    0.311535
     34          1           0        2.583517   -1.102013   -1.165004
     35          1           0        3.989591   -0.050927    1.304263
     36          1           0        3.223997    1.138987   -1.326575
     37          1           0        1.794278    1.828571    1.187007
     38          1           0        0.719242    0.129421   -1.061689
     39          1           0       -3.128954    3.251686    0.304409
     40          1           0       -2.282419    2.712776   -1.092260
     41          1           0       -2.838679    1.150329    1.370944
     42          1           0       -1.322432    0.331844   -1.083246
     43          1           0       -2.125773   -1.171010    1.345031
     44          1           0       -3.304600   -1.583114   -1.354577
     45          1           0       -4.574309   -0.392909    1.120158
 ---------------------------------------------------------------------
 Rotational constants (GHZ):      0.4267915      0.1437729      0.1107200
 Standard basis: 6-31+G(2d,p) (6D, 7F)
 There are   685 symmetry adapted basis functions of A   symmetry.
 Integral buffers will be    131072 words long.
 Raffenetti 2 integral format.
 Two-electron integral symmetry is turned on.
   685 basis functions,  1028 primitive gaussians,   685 cartesian basis functions
    91 alpha electrons       91 beta electrons
       nuclear repulsion energy      2293.7090881183 Hartrees.
 NAtoms=   45 NActive=   45 NUniq=   45 SFac= 1.00D+00 NAtFMM=   50 NAOKFM=F Big=F
 One-electron integrals computed using PRISM.
 NBasis=   685 RedAO= T  NBF=   685
 NBsUse=   685 1.00D-06 NBFU=   685
 Harris functional with IExCor=  402 diagonalized for initial guess.
 ExpMin= 4.38D-02 ExpMax= 5.48D+03 ExpMxC= 8.25D+02 IAcc=2 IRadAn=         0 AccDes= 0.00D+00
 HarFok:  IExCor=  402 AccDes= 0.00D+00 IRadAn=         0 IDoV= 1
 ScaDFX=  1.000000  1.000000  1.000000  1.000000
 FoFCou: FMM=F IPFlag=           0 FMFlag=      100000 FMFlg1=           0
         NFxFlg=           0 DoJE=T BraDBF=F KetDBF=T FulRan=T
         Omega=  0.000000  0.000000  1.000000  0.000000  0.000000 ICntrl=     500 IOpCl=  0
         NMat0=    1 NMatS0=    1 NMatT0=    0 NMatD0=    1 NMtDS0=    0 NMtDT0=    0
         I1Cent=           4 NGrid=           0.
 Petite list used in FoFCou.
 Initial guess orbital symmetries:
       Occupied  (A) (A) (A) (A) (A) (A) (A) (A) (A) (A) (A) (A)
                 (A) (A) (A) (A) (A) (A) (A) (A) (A) (A) (A) (A)
                 (A) (A) (A) (A) (A) (A) (A) (A) (A) (A) (A) (A)
                 (A) (A) (A) (A) (A) (A) (A) (A) (A) (A) (A) (A)
                 (A) (A) (A) (A) (A) (A) (A) (A) (A) (A) (A) (A)
                 (A) (A) (A) (A) (A) (A) (A) (A) (A) (A) (A) (A)
                 (A) (A) (A) (A) (A) (A) (A) (A) (A) (A) (A) (A)
                 (A) (A) (A) (A) (A) (A) (A)
       Virtual   (A) (A) (A) (A) (A) (A) (A) (A) (A) (A) (A) (A)
                 (A) (A) (A) (A) (A) (A) (A) (A) (A) (A) (A) (A)
                 (A) (A) (A) (A) (A) (A) (A) (A) (A) (A) (A) (A)
                 (A) (A) (A) (A) (A) (A) (A) (A) (A) (A) (A) (A)
                 (A) (A) (A) (A) (A) (A) (A) (A) (A) (A) (A) (A)
                 (A) (A) (A) (A) (A) (A) (A) (A) (A) (A) (A) (A)
                 (A) (A) (A) (A) (A) (A) (A) (A) (A) (A) (A) (A)
                 (A) (A) (A) (A) (A) (A) (A) (A) (A) (A) (A) (A)
                 (A) (A) (A) (A) (A) (A) (A) (A) (A) (A) (A) (A)
                 (A) (A) (A) (A) (A) (A) (A) (A) (A) (A) (A) (A)
                 (A) (A) (A) (A) (A) (A) (A) (A) (A) (A) (A) (A)
                 (A) (A) (A) (A) (A) (A) (A) (A) (A) (A) (A) (A)
                 (A) (A) (A) (A) (A) (A) (A) (A) (A) (A) (A) (A)
                 (A) (A) (A) (A) (A) (A) (A) (A) (A) (A) (A) (A)
                 (A) (A) (A) (A) (A) (A) (A) (A) (A) (A) (A) (A)
                 (A) (A) (A) (A) (A) (A) (A) (A) (A) (A) (A) (A)
                 (A) (A) (A) (A) (A) (A) (A) (A) (A) (A) (A) (A)
                 (A) (A) (A) (A) (A) (A) (A) (A) (A) (A) (A) (A)
                 (A) (A) (A) (A) (A) (A) (A) (A) (A) (A) (A) (A)
                 (A) (A) (A) (A) (A) (A) (A) (A) (A) (A) (A) (A)
                 (A) (A) (A) (A) (A) (A) (A) (A) (A) (A) (A) (A)
                 (A) (A) (A) (A) (A) (A) (A) (A) (A) (A) (A) (A)
                 (A) (A) (A) (A) (A) (A) (A) (A) (A) (A) (A) (A)
                 (A) (A) (A) (A) (A) (A) (A) (A) (A) (A) (A) (A)
                 (A) (A) (A) (A) (A) (A) (A) (A) (A) (A) (A) (A)
                 (A) (A) (A) (A) (A) (A) (A) (A) (A) (A) (A) (A)
                 (A) (A) (A) (A) (A) (A) (A) (A) (A) (A) (A) (A)
                 (A) (A) (A) (A) (A) (A) (A) (A) (A) (A) (A) (A)
                 (A) (A) (A) (A) (A) (A) (A) (A) (A) (A) (A) (A)
                 (A) (A) (A) (A) (A) (A) (A) (A) (A) (A) (A) (A)
                 (A) (A) (A) (A) (A) (A) (A) (A) (A) (A) (A) (A)
                 (A) (A) (A) (A) (A) (A) (A) (A) (A) (A) (A) (A)
                 (A) (A) (A) (A) (A) (A) (A) (A) (A) (A) (A) (A)
                 (A) (A) (A) (A) (A) (A) (A) (A) (A) (A) (A) (A)
                 (A) (A) (A) (A) (A) (A) (A) (A) (A) (A) (A) (A)
                 (A) (A) (A) (A) (A) (A) (A) (A) (A) (A) (A) (A)
                 (A) (A) (A) (A) (A) (A) (A) (A) (A) (A) (A) (A)
                 (A) (A) (A) (A) (A) (A) (A) (A) (A) (A) (A) (A)
                 (A) (A) (A) (A) (A) (A) (A) (A) (A) (A) (A) (A)
                 (A) (A) (A) (A) (A) (A) (A) (A) (A) (A) (A) (A)
                 (A) (A) (A) (A) (A) (A) (A) (A) (A) (A) (A) (A)
                 (A) (A) (A) (A) (A) (A) (A) (A) (A) (A) (A) (A)
                 (A) (A) (A) (A) (A) (A) (A) (A) (A) (A) (A) (A)
                 (A) (A) (A) (A) (A) (A) (A) (A) (A) (A) (A) (A)
                 (A) (A) (A) (A) (A) (A) (A) (A) (A) (A) (A) (A)
                 (A) (A) (A) (A) (A) (A) (A) (A) (A) (A) (A) (A)
                 (A) (A) (A) (A) (A) (A) (A) (A) (A) (A) (A) (A)
                 (A) (A) (A) (A) (A) (A) (A) (A) (A) (A) (A) (A)
                 (A) (A) (A) (A) (A) (A) (A) (A) (A) (A) (A) (A)
                 (A) (A) (A) (A) (A) (A)
 The electronic state of the initial guess is 1-A.
 Requested convergence on RMS density matrix=1.00D-08 within 128 cycles.
 Requested convergence on MAX density matrix=1.00D-06.
 Requested convergence on             energy=1.00D-06.
 No special actions if energy rises.
 SCF Done:  E(RB3LYP) =  -1297.99092681     A.U. after   13 cycles
             Convg  =    0.5004D-08             -V/T =  2.0063
 Range of M.O.s used for correlation:     1   685
 NBasis=   685 NAE=    91 NBE=    91 NFC=     0 NFV=     0
 NROrb=    685 NOA=    91 NOB=    91 NVA=   594 NVB=   594

 **** Warning!!: The largest alpha MO coefficient is  0.78630061D+02

          Differentiating once with respect to electric field.
                with respect to dipole field.
          Electric field/nuclear overlap derivatives assumed to be zero.
          There are     3 degrees of freedom in the 1st order CPHF.  IDoFFX=0.
      3 vectors produced by pass  0 Test12= 1.80D-12 3.33D-08 XBig12= 1.23D+02 1.33D+00.
 AX will form     3 AO Fock derivatives at one time.
      3 vectors produced by pass  1 Test12= 1.80D-12 3.33D-08 XBig12= 2.75D+01 4.14D-01.
      3 vectors produced by pass  2 Test12= 1.80D-12 3.33D-08 XBig12= 1.10D+01 2.18D-01.
      3 vectors produced by pass  3 Test12= 1.80D-12 3.33D-08 XBig12= 1.16D+00 8.01D-02.
      3 vectors produced by pass  4 Test12= 1.80D-12 3.33D-08 XBig12= 3.44D-01 4.64D-02.
      3 vectors produced by pass  5 Test12= 1.80D-12 3.33D-08 XBig12= 6.73D-02 1.94D-02.
      3 vectors produced by pass  6 Test12= 1.80D-12 3.33D-08 XBig12= 2.20D-02 1.38D-02.
      3 vectors produced by pass  7 Test12= 1.80D-12 3.33D-08 XBig12= 3.01D-03 5.71D-03.
      3 vectors produced by pass  8 Test12= 1.80D-12 3.33D-08 XBig12= 6.04D-04 1.82D-03.
      3 vectors produced by pass  9 Test12= 1.80D-12 3.33D-08 XBig12= 1.86D-04 1.21D-03.
      3 vectors produced by pass 10 Test12= 1.80D-12 3.33D-08 XBig12= 4.47D-05 5.79D-04.
      3 vectors produced by pass 11 Test12= 1.80D-12 3.33D-08 XBig12= 9.85D-06 2.65D-04.
      3 vectors produced by pass 12 Test12= 1.80D-12 3.33D-08 XBig12= 1.02D-06 1.15D-04.
      3 vectors produced by pass 13 Test12= 1.80D-12 3.33D-08 XBig12= 3.97D-07 6.57D-05.
      3 vectors produced by pass 14 Test12= 1.80D-12 3.33D-08 XBig12= 6.94D-08 3.04D-05.
      3 vectors produced by pass 15 Test12= 1.80D-12 3.33D-08 XBig12= 2.45D-08 1.47D-05.
      3 vectors produced by pass 16 Test12= 1.80D-12 3.33D-08 XBig12= 2.94D-09 4.50D-06.
      3 vectors produced by pass 17 Test12= 1.80D-12 3.33D-08 XBig12= 4.13D-10 1.70D-06.
      3 vectors produced by pass 18 Test12= 1.80D-12 3.33D-08 XBig12= 7.59D-11 6.33D-07.
      3 vectors produced by pass 19 Test12= 1.80D-12 3.33D-08 XBig12= 2.00D-11 4.91D-07.
      2 vectors produced by pass 20 Test12= 1.80D-12 3.33D-08 XBig12= 4.81D-12 1.83D-07.
      2 vectors produced by pass 21 Test12= 1.80D-12 3.33D-08 XBig12= 1.47D-12 9.52D-08.
 Inverted reduced A of dimension    64 with in-core refinement.
 End of Minotr Frequency-dependent properties file   721 does not exist.
 End of Minotr Frequency-dependent properties file   722 does not exist.
 Symmetrizing basis deriv contribution to polar:
 IMax=3 JMax=2 DiffMx= 0.00D+00
 G2DrvN: will do    16 centers at a time, making    3 passes doing MaxLOS=2.
 Calling FoFCou, ICntrl=  3107 FMM=F I1Cent=   0 AccDes= 0.00D+00.
 Calling FoFCou, ICntrl=  3107 FMM=F I1Cent=   0 AccDes= 0.00D+00.
 Calling FoFCou, ICntrl=  3107 FMM=F I1Cent=   0 AccDes= 0.00D+00.
 FoFDir/FoFCou used for L=0 through L=2.
 End of G2Drv Frequency-dependent properties file   721 does not exist.
 End of G2Drv Frequency-dependent properties file   722 does not exist.
          IDoAtm=111111111111111111111111111111111111111111111
          Differentiating once with respect to electric field.
                with respect to dipole field.
          Differentiating once with respect to nuclear coordinates.
          There are   138 degrees of freedom in the 1st order CPHF.  IDoFFX=5.
 Will reuse    3 saved solutions.
    135 vectors produced by pass  0 Test12= 5.41D-14 1.00D-09 XBig12= 1.71D-01 8.03D-02.
 AX will form    45 AO Fock derivatives at one time.
    135 vectors produced by pass  1 Test12= 5.41D-14 1.00D-09 XBig12= 1.72D-02 1.03D-02.
    132 vectors produced by pass  2 Test12= 5.41D-14 1.00D-09 XBig12= 1.41D-04 1.25D-03.
    132 vectors produced by pass  3 Test12= 5.41D-14 1.00D-09 XBig12= 7.02D-07 6.07D-05.
    132 vectors produced by pass  4 Test12= 5.41D-14 1.00D-09 XBig12= 1.87D-09 2.66D-06.
    132 vectors produced by pass  5 Test12= 5.41D-14 1.00D-09 XBig12= 3.51D-12 1.59D-07.
     80 vectors produced by pass  6 Test12= 5.41D-14 1.00D-09 XBig12= 1.37D-13 2.06D-08.
 Inverted reduced A of dimension   878 with in-core refinement.
 Isotropic polarizability for W=    0.000000      190.58 Bohr**3.
 End of Minotr Frequency-dependent properties file   721 does not exist.
 End of Minotr Frequency-dependent properties file   722 does not exist.

 **********************************************************************

            Population analysis using the SCF density.

 **********************************************************************

 Orbital symmetries:
       Occupied  (A) (A) (A) (A) (A) (A) (A) (A) (A) (A) (A) (A)
                 (A) (A) (A) (A) (A) (A) (A) (A) (A) (A) (A) (A)
                 (A) (A) (A) (A) (A) (A) (A) (A) (A) (A) (A) (A)
                 (A) (A) (A) (A) (A) (A) (A) (A) (A) (A) (A) (A)
                 (A) (A) (A) (A) (A) (A) (A) (A) (A) (A) (A) (A)
                 (A) (A) (A) (A) (A) (A) (A) (A) (A) (A) (A) (A)
                 (A) (A) (A) (A) (A) (A) (A) (A) (A) (A) (A) (A)
                 (A) (A) (A) (A) (A) (A) (A)
       Virtual   (A) (A) (A) (A) (A) (A) (A) (A) (A) (A) (A) (A)
                 (A) (A) (A) (A) (A) (A) (A) (A) (A) (A) (A) (A)
                 (A) (A) (A) (A) (A) (A) (A) (A) (A) (A) (A) (A)
                 (A) (A) (A) (A) (A) (A) (A) (A) (A) (A) (A) (A)
                 (A) (A) (A) (A) (A) (A) (A) (A) (A) (A) (A) (A)
                 (A) (A) (A) (A) (A) (A) (A) (A) (A) (A) (A) (A)
                 (A) (A) (A) (A) (A) (A) (A) (A) (A) (A) (A) (A)
                 (A) (A) (A) (A) (A) (A) (A) (A) (A) (A) (A) (A)
                 (A) (A) (A) (A) (A) (A) (A) (A) (A) (A) (A) (A)
                 (A) (A) (A) (A) (A) (A) (A) (A) (A) (A) (A) (A)
                 (A) (A) (A) (A) (A) (A) (A) (A) (A) (A) (A) (A)
                 (A) (A) (A) (A) (A) (A) (A) (A) (A) (A) (A) (A)
                 (A) (A) (A) (A) (A) (A) (A) (A) (A) (A) (A) (A)
                 (A) (A) (A) (A) (A) (A) (A) (A) (A) (A) (A) (A)
                 (A) (A) (A) (A) (A) (A) (A) (A) (A) (A) (A) (A)
                 (A) (A) (A) (A) (A) (A) (A) (A) (A) (A) (A) (A)
                 (A) (A) (A) (A) (A) (A) (A) (A) (A) (A) (A) (A)
                 (A) (A) (A) (A) (A) (A) (A) (A) (A) (A) (A) (A)
                 (A) (A) (A) (A) (A) (A) (A) (A) (A) (A) (A) (A)
                 (A) (A) (A) (A) (A) (A) (A) (A) (A) (A) (A) (A)
                 (A) (A) (A) (A) (A) (A) (A) (A) (A) (A) (A) (A)
                 (A) (A) (A) (A) (A) (A) (A) (A) (A) (A) (A) (A)
                 (A) (A) (A) (A) (A) (A) (A) (A) (A) (A) (A) (A)
                 (A) (A) (A) (A) (A) (A) (A) (A) (A) (A) (A) (A)
                 (A) (A) (A) (A) (A) (A) (A) (A) (A) (A) (A) (A)
                 (A) (A) (A) (A) (A) (A) (A) (A) (A) (A) (A) (A)
                 (A) (A) (A) (A) (A) (A) (A) (A) (A) (A) (A) (A)
                 (A) (A) (A) (A) (A) (A) (A) (A) (A) (A) (A) (A)
                 (A) (A) (A) (A) (A) (A) (A) (A) (A) (A) (A) (A)
                 (A) (A) (A) (A) (A) (A) (A) (A) (A) (A) (A) (A)
                 (A) (A) (A) (A) (A) (A) (A) (A) (A) (A) (A) (A)
                 (A) (A) (A) (A) (A) (A) (A) (A) (A) (A) (A) (A)
                 (A) (A) (A) (A) (A) (A) (A) (A) (A) (A) (A) (A)
                 (A) (A) (A) (A) (A) (A) (A) (A) (A) (A) (A) (A)
                 (A) (A) (A) (A) (A) (A) (A) (A) (A) (A) (A) (A)
                 (A) (A) (A) (A) (A) (A) (A) (A) (A) (A) (A) (A)
                 (A) (A) (A) (A) (A) (A) (A) (A) (A) (A) (A) (A)
                 (A) (A) (A) (A) (A) (A) (A) (A) (A) (A) (A) (A)
                 (A) (A) (A) (A) (A) (A) (A) (A) (A) (A) (A) (A)
                 (A) (A) (A) (A) (A) (A) (A) (A) (A) (A) (A) (A)
                 (A) (A) (A) (A) (A) (A) (A) (A) (A) (A) (A) (A)
                 (A) (A) (A) (A) (A) (A) (A) (A) (A) (A) (A) (A)
                 (A) (A) (A) (A) (A) (A) (A) (A) (A) (A) (A) (A)
                 (A) (A) (A) (A) (A) (A) (A) (A) (A) (A) (A) (A)
                 (A) (A) (A) (A) (A) (A) (A) (A) (A) (A) (A) (A)
                 (A) (A) (A) (A) (A) (A) (A) (A) (A) (A) (A) (A)
                 (A) (A) (A) (A) (A) (A) (A) (A) (A) (A) (A) (A)
                 (A) (A) (A) (A) (A) (A) (A) (A) (A) (A) (A) (A)
                 (A) (A) (A) (A) (A) (A) (A) (A) (A) (A) (A) (A)
                 (A) (A) (A) (A) (A) (A)
 The electronic state is 1-A.
 Alpha  occ. eigenvalues --  -19.19154 -19.18363 -19.18201 -19.18164 -19.18160
 Alpha  occ. eigenvalues --  -19.16855 -19.15953 -19.15925 -19.14509 -19.14441
 Alpha  occ. eigenvalues --  -19.13499 -10.30712 -10.30152 -10.26689 -10.25749
 Alpha  occ. eigenvalues --  -10.25395 -10.25000 -10.24712 -10.24602 -10.24105
 Alpha  occ. eigenvalues --  -10.24010 -10.23845 -10.23583  -1.10119  -1.09342
 Alpha  occ. eigenvalues --   -1.06035  -1.05240  -1.04184  -1.03628  -1.02835
 Alpha  occ. eigenvalues --   -1.02522  -1.01847  -1.00705  -1.00271  -0.82253
 Alpha  occ. eigenvalues --   -0.80275  -0.79337  -0.77635  -0.71692  -0.69534
 Alpha  occ. eigenvalues --   -0.67301  -0.65185  -0.63293  -0.62025  -0.61502
 Alpha  occ. eigenvalues --   -0.60488  -0.56669  -0.55707  -0.55238  -0.54539
 Alpha  occ. eigenvalues --   -0.54093  -0.53515  -0.52621  -0.51754  -0.51093
 Alpha  occ. eigenvalues --   -0.50788  -0.49917  -0.49086  -0.48599  -0.46522
 Alpha  occ. eigenvalues --   -0.46298  -0.45385  -0.44194  -0.43486  -0.43014
 Alpha  occ. eigenvalues --   -0.42469  -0.41775  -0.41039  -0.40277  -0.39493
 Alpha  occ. eigenvalues --   -0.39120  -0.37996  -0.37681  -0.36664  -0.36180
 Alpha  occ. eigenvalues --   -0.35613  -0.35089  -0.34746  -0.34502  -0.33633
 Alpha  occ. eigenvalues --   -0.33196  -0.31619  -0.30998  -0.30690  -0.29948
 Alpha  occ. eigenvalues --   -0.28839  -0.28696  -0.28163  -0.27466  -0.26827
 Alpha  occ. eigenvalues --   -0.25830
 Alpha virt. eigenvalues --   -0.02174  -0.01958  -0.01678  -0.00161   0.00359
 Alpha virt. eigenvalues --    0.01185   0.01917   0.02264   0.03090   0.03531
 Alpha virt. eigenvalues --    0.03764   0.04280   0.04943   0.05344   0.05693
 Alpha virt. eigenvalues --    0.06224   0.06597   0.07609   0.07759   0.08024
 Alpha virt. eigenvalues --    0.08407   0.09038   0.09069   0.09720   0.10009
 Alpha virt. eigenvalues --    0.10544   0.11133   0.11537   0.11736   0.12107
 Alpha virt. eigenvalues --    0.12624   0.13009   0.13154   0.13806   0.13960
 Alpha virt. eigenvalues --    0.14161   0.14446   0.14598   0.15066   0.15386
 Alpha virt. eigenvalues --    0.15507   0.16406   0.16795   0.16958   0.17294
 Alpha virt. eigenvalues --    0.17374   0.17607   0.17746   0.17890   0.18483
 Alpha virt. eigenvalues --    0.18919   0.19208   0.19317   0.19777   0.20146
 Alpha virt. eigenvalues --    0.20578   0.21015   0.21150   0.21378   0.21713
 Alpha virt. eigenvalues --    0.22109   0.22366   0.22696   0.23066   0.23253
 Alpha virt. eigenvalues --    0.23471   0.23658   0.24132   0.24404   0.24799
 Alpha virt. eigenvalues --    0.24972   0.25113   0.25278   0.25921   0.26238
 Alpha virt. eigenvalues --    0.26413   0.26549   0.26855   0.27102   0.27345
 Alpha virt. eigenvalues --    0.27518   0.27831   0.28056   0.28360   0.28555
 Alpha virt. eigenvalues --    0.28954   0.29219   0.29722   0.30094   0.30599
 Alpha virt. eigenvalues --    0.30883   0.31396   0.31492   0.31879   0.32194
 Alpha virt. eigenvalues --    0.32515   0.32799   0.33195   0.33718   0.34186
 Alpha virt. eigenvalues --    0.34378   0.34726   0.34847   0.35349   0.35674
 Alpha virt. eigenvalues --    0.35835   0.36258   0.36656   0.37204   0.37694
 Alpha virt. eigenvalues --    0.38104   0.38563   0.39180   0.39417   0.39584
 Alpha virt. eigenvalues --    0.39771   0.40837   0.41072   0.41293   0.41459
 Alpha virt. eigenvalues --    0.42124   0.42610   0.42794   0.43515   0.43936
 Alpha virt. eigenvalues --    0.44511   0.44703   0.45327   0.46287   0.46685
 Alpha virt. eigenvalues --    0.47160   0.48029   0.48993   0.49054   0.49576
 Alpha virt. eigenvalues --    0.50800   0.51798   0.53285   0.57474   0.58510
 Alpha virt. eigenvalues --    0.59205   0.60810   0.61352   0.61922   0.62249
 Alpha virt. eigenvalues --    0.62580   0.63798   0.65048   0.66297   0.66541
 Alpha virt. eigenvalues --    0.67761   0.68611   0.69394   0.69625   0.70598
 Alpha virt. eigenvalues --    0.71710   0.72262   0.72415   0.73490   0.74063
 Alpha virt. eigenvalues --    0.75007   0.75063   0.76020   0.76250   0.77093
 Alpha virt. eigenvalues --    0.77744   0.78854   0.79786   0.80587   0.81410
 Alpha virt. eigenvalues --    0.82548   0.83130   0.83875   0.84419   0.85144
 Alpha virt. eigenvalues --    0.86299   0.87550   0.87920   0.88475   0.89509
 Alpha virt. eigenvalues --    0.89963   0.90342   0.90853   0.91554   0.92014
 Alpha virt. eigenvalues --    0.92529   0.92727   0.93241   0.93682   0.94545
 Alpha virt. eigenvalues --    0.94765   0.94907   0.95778   0.96175   0.97009
 Alpha virt. eigenvalues --    0.97211   0.97532   0.97814   0.98506   0.98887
 Alpha virt. eigenvalues --    0.99990   1.01019   1.01430   1.02407   1.03668
 Alpha virt. eigenvalues --    1.04101   1.04414   1.05334   1.06055   1.06572
 Alpha virt. eigenvalues --    1.07263   1.07421   1.07757   1.08037   1.08776
 Alpha virt. eigenvalues --    1.09610   1.09818   1.10752   1.11634   1.12298
 Alpha virt. eigenvalues --    1.13074   1.13393   1.13496   1.14357   1.14624
 Alpha virt. eigenvalues --    1.14740   1.15414   1.15927   1.17103   1.17663
 Alpha virt. eigenvalues --    1.17734   1.18117   1.18726   1.19597   1.19924
 Alpha virt. eigenvalues --    1.20321   1.20500   1.20998   1.21717   1.22098
 Alpha virt. eigenvalues --    1.22954   1.23938   1.24569   1.25150   1.25553
 Alpha virt. eigenvalues --    1.26100   1.26777   1.27483   1.27816   1.28095
 Alpha virt. eigenvalues --    1.28890   1.30502   1.30789   1.31218   1.32099
 Alpha virt. eigenvalues --    1.32702   1.33087   1.34351   1.34777   1.34880
 Alpha virt. eigenvalues --    1.35421   1.35840   1.36389   1.37231   1.38408
 Alpha virt. eigenvalues --    1.38548   1.39485   1.39939   1.41130   1.41875
 Alpha virt. eigenvalues --    1.42116   1.42694   1.43052   1.44157   1.44659
 Alpha virt. eigenvalues --    1.46613   1.47211   1.47944   1.48142   1.48895
 Alpha virt. eigenvalues --    1.49361   1.50258   1.51050   1.51988   1.52999
 Alpha virt. eigenvalues --    1.54125   1.54434   1.55465   1.56986   1.57537
 Alpha virt. eigenvalues --    1.58035   1.58934   1.59859   1.61290   1.61555
 Alpha virt. eigenvalues --    1.61873   1.63188   1.64569   1.65694   1.66080
 Alpha virt. eigenvalues --    1.66317   1.66793   1.67751   1.68237   1.69695
 Alpha virt. eigenvalues --    1.70495   1.71330   1.71860   1.73175   1.73951
 Alpha virt. eigenvalues --    1.75736   1.75833   1.77075   1.77653   1.79478
 Alpha virt. eigenvalues --    1.80019   1.81351   1.82065   1.83268   1.83827
 Alpha virt. eigenvalues --    1.84635   1.85299   1.85918   1.87496   1.89115
 Alpha virt. eigenvalues --    1.89920   1.91143   1.92136   1.93149   1.94401
 Alpha virt. eigenvalues --    1.95240   1.96047   1.97023   1.97463   1.99712
 Alpha virt. eigenvalues --    2.00135   2.01564   2.02988   2.03114   2.05013
 Alpha virt. eigenvalues --    2.05960   2.06186   2.08953   2.10441   2.10624
 Alpha virt. eigenvalues --    2.10951   2.11473   2.14088   2.16005   2.16861
 Alpha virt. eigenvalues --    2.19167   2.21893   2.22282   2.24520   2.25327
 Alpha virt. eigenvalues --    2.25704   2.27860   2.28863   2.29902   2.31441
 Alpha virt. eigenvalues --    2.33291   2.34538   2.35848   2.36641   2.37659
 Alpha virt. eigenvalues --    2.42502   2.44334   2.45847   2.46963   2.51738
 Alpha virt. eigenvalues --    2.52853   2.54430   2.55782   2.56420   2.57425
 Alpha virt. eigenvalues --    2.59015   2.60963   2.63817   2.65658   2.66388
 Alpha virt. eigenvalues --    2.67932   2.68491   2.70325   2.70438   2.73150
 Alpha virt. eigenvalues --    2.75275   2.75807   2.77241   2.79433   2.79627
 Alpha virt. eigenvalues --    2.80624   2.82659   2.83050   2.85965   2.86820
 Alpha virt. eigenvalues --    2.87539   2.90086   2.90702   2.91788   2.92602
 Alpha virt. eigenvalues --    2.93342   2.94442   2.94913   2.96895   2.97775
 Alpha virt. eigenvalues --    2.98473   2.99257   2.99918   3.00361   3.01270
 Alpha virt. eigenvalues --    3.01478   3.02979   3.03593   3.03934   3.05227
 Alpha virt. eigenvalues --    3.06028   3.06351   3.06957   3.07842   3.09063
 Alpha virt. eigenvalues --    3.09664   3.11013   3.11918   3.13602   3.13811
 Alpha virt. eigenvalues --    3.14709   3.19520   3.21396   3.24487   3.24761
 Alpha virt. eigenvalues --    3.25840   3.30143   3.33325   3.78783   3.81950
 Alpha virt. eigenvalues --    3.94428   4.04144   4.08239   4.09757   4.10812
 Alpha virt. eigenvalues --    4.12189   4.13707   4.16014   4.16097   4.17236
 Alpha virt. eigenvalues --    4.17481   4.19550   4.22079   4.22359   4.22715
 Alpha virt. eigenvalues --    4.23254   4.24646   4.25559   4.26362   4.26964
 Alpha virt. eigenvalues --    4.27432   4.28034   4.28881   4.29703   4.30390
 Alpha virt. eigenvalues --    4.30807   4.31540   4.32143   4.32742   4.32815
 Alpha virt. eigenvalues --    4.33893   4.34387   4.34862   4.35325   4.35946
 Alpha virt. eigenvalues --    4.36196   4.37245   4.37526   4.38313   4.38637
 Alpha virt. eigenvalues --    4.39487   4.40280   4.41160   4.42221   4.43043
 Alpha virt. eigenvalues --    4.44627   4.45693   4.46575   4.49762   4.50022
 Alpha virt. eigenvalues --    4.51350   4.52638   4.53155   4.53597   4.54392
 Alpha virt. eigenvalues --    4.56067   4.57069   4.57509   4.59136   4.59684
 Alpha virt. eigenvalues --    4.61408   4.62287   4.62940   4.64011   4.64804
 Alpha virt. eigenvalues --    4.64834   4.65534   4.65850   4.66347   4.66966
 Alpha virt. eigenvalues --    4.68027   4.68670   4.69358   4.70741   4.71402
 Alpha virt. eigenvalues --    4.72215   4.72280   4.73473   4.73499   4.74946
 Alpha virt. eigenvalues --    4.75860   4.76062   4.76698   4.77530   4.78167
 Alpha virt. eigenvalues --    4.78446   4.78799   4.79821   4.80534   4.80848
 Alpha virt. eigenvalues --    4.81709   4.83155   4.85242   4.85429   4.86536
 Alpha virt. eigenvalues --    4.87162   4.88891   4.89924   4.91733   4.92446
 Alpha virt. eigenvalues --    4.92956   4.94975   4.95482   4.95944   4.97012
 Alpha virt. eigenvalues --    4.97672   4.99851   5.02624   5.04487   5.05589
 Alpha virt. eigenvalues --    5.06777   5.08314   5.09955   5.14064   5.16124
 Alpha virt. eigenvalues --    5.22603   5.24767   5.30104   5.32857   5.41295
 Alpha virt. eigenvalues --    5.45572   6.00729   6.07291   6.27083   6.57067
 Alpha virt. eigenvalues --    6.74690   6.75514   6.78757   6.80919   6.86737
 Alpha virt. eigenvalues --    6.87324   6.93347   6.95213   6.98829   7.03345
 Alpha virt. eigenvalues --    7.14362  11.90493  11.95220  12.03760  12.17324
 Alpha virt. eigenvalues --   12.28305  12.36361  12.63684  12.80381  12.87844
 Alpha virt. eigenvalues --   12.95847  13.14202  13.15520  13.26402  13.27966
 Alpha virt. eigenvalues --   13.29752  13.38857  13.41752  13.44675  13.47328
 Alpha virt. eigenvalues --   13.60017  13.64336  13.69017  13.86848
          Condensed to atoms (all electrons):
              1          2          3          4          5          6
     1  O    8.200501   0.188406  -0.096481  -0.011363   0.016216   0.047075
     2  C    0.188406   6.982752  -0.095524   0.059874  -0.061536  -1.423981
     3  C   -0.096481  -0.095524   6.486538   0.112531   0.030004  -0.388889
     4  O   -0.011363   0.059874   0.112531   8.257022   0.232273  -0.060440
     5  H    0.016216  -0.061536   0.030004   0.232273   0.430366  -0.005586
     6  C    0.047075  -1.423981  -0.388889  -0.060440  -0.005586  10.420881
     7  O    0.000241   0.019593  -0.046816   0.007300  -0.000361   0.151535
     8  H   -0.000001  -0.005903   0.007410  -0.000489   0.000011   0.058819
     9  C    0.026254   0.100193  -0.434465   0.003600  -0.000526   0.498040
    10  O   -0.027696   0.040736   0.015777  -0.000207  -0.000006   0.002707
    11  H    0.002782  -0.016892  -0.001173   0.000003   0.000000   0.000578
    12  C   -0.053583  -0.892828  -0.400381  -0.000679   0.015347   0.710929
    13  O    0.004150  -0.029965  -0.070054  -0.003544  -0.000023   0.028812
    14  C   -0.019454   0.632845   0.417805   0.019548   0.004485  -3.415352
    15  O    0.000133   0.004261  -0.009327   0.000713   0.000005  -0.039830
    16  C    0.001559   0.116622   0.138676  -0.003815   0.000419  -0.360091
    17  C   -0.000431  -0.024767   0.005142   0.001231   0.000012  -0.152643
    18  O    0.000035   0.002664  -0.001010  -0.000014   0.000000   0.002694
    19  H   -0.000047  -0.004741   0.006321   0.000002   0.000000   0.009404
    20  C    0.000041   0.010372  -0.008223   0.000017   0.000000  -0.051065
    21  O    0.000000   0.000010  -0.000019   0.000000   0.000000  -0.000110
    22  H    0.000000   0.000000   0.000001   0.000000   0.000000  -0.000051
    23  C   -0.000023   0.000649  -0.004723   0.000078  -0.000026  -0.047395
    24  O    0.000002   0.002440  -0.005984   0.000121  -0.000004  -0.001980
    25  H    0.000000  -0.000014   0.001213  -0.000001   0.000000   0.001250
    26  C    0.000055   0.000266  -0.027297  -0.000125   0.000026  -0.018619
    27  O    0.000000   0.000166   0.000126   0.000001   0.000000   0.001556
    28  C    0.000000   0.000714   0.001499   0.000005   0.000000  -0.000513
    29  O    0.000000  -0.000002   0.000014   0.000000   0.000000  -0.000140
    30  H    0.000000   0.000000   0.000000   0.000000   0.000000   0.000006
    31  H    0.263902   0.056200  -0.020719   0.000454  -0.001837  -0.001995
    32  H    0.003773   0.036643  -0.009511  -0.000018  -0.000001   0.011243
    33  H   -0.000983  -0.026324   0.003386   0.000013   0.000000  -0.002001
    34  H    0.005304   0.083009  -0.033769   0.000600   0.000005  -0.052338
    35  H   -0.018308   0.325368  -0.023572   0.001566   0.000091  -0.035707
    36  H   -0.003208   0.010866   0.351876  -0.028862  -0.000662  -0.268569
    37  H   -0.000210   0.033030  -0.135065   0.003792  -0.000169   0.372335
    38  H    0.000007  -0.002839  -0.048684  -0.000114   0.000001   0.039838
    39  H    0.000000   0.000018   0.000006   0.000000   0.000000  -0.000603
    40  H    0.000000   0.000020   0.000320   0.000000   0.000000  -0.004716
    41  H    0.000000  -0.000031  -0.000064   0.000000   0.000000  -0.005890
    42  H   -0.000001  -0.002539   0.002089   0.000008   0.000000   0.010144
    43  H    0.000000  -0.000661   0.000659   0.000000   0.000000   0.016507
    44  H    0.000000   0.000063   0.000098   0.000000   0.000000   0.001824
    45  H    0.000000   0.000003   0.000016   0.000000   0.000000   0.000091
              7          8          9         10         11         12
     1  O    0.000241  -0.000001   0.026254  -0.027696   0.002782  -0.053583
     2  C    0.019593  -0.005903   0.100193   0.040736  -0.016892  -0.892828
     3  C   -0.046816   0.007410  -0.434465   0.015777  -0.001173  -0.400381
     4  O    0.007300  -0.000489   0.003600  -0.000207   0.000003  -0.000679
     5  H   -0.000361   0.000011  -0.000526  -0.000006   0.000000   0.015347
     6  C    0.151535   0.058819   0.498040   0.002707   0.000578   0.710929
     7  O    8.238645   0.239385  -0.001238  -0.000010   0.000001  -0.009968
     8  H    0.239385   0.353937   0.000548   0.000000   0.000000   0.004153
     9  C   -0.001238   0.000548   7.866036  -0.024039   0.001485  -1.640122
    10  O   -0.000010   0.000000  -0.024039   8.298633   0.219735   0.047888
    11  H    0.000001   0.000000   0.001485   0.219735   0.448785   0.026895
    12  C   -0.009968   0.004153  -1.640122   0.047888   0.026895   9.870031
    13  O   -0.000860  -0.000015  -0.042416  -0.000262  -0.000766  -0.048220
    14  C   -0.015378  -0.087754  -1.043131   0.006121  -0.003627  -1.172027
    15  O    0.003348   0.012853   0.000584   0.000187  -0.000003  -0.050365
    16  C    0.041432   0.022413  -0.172706  -0.000002  -0.000371  -0.389570
    17  C    0.011910   0.000308   0.002705  -0.000649   0.000074  -0.063017
    18  O   -0.000167  -0.000072  -0.002475  -0.000230  -0.000010   0.008258
    19  H   -0.000050  -0.000012  -0.001892   0.000038  -0.000003  -0.004282
    20  C    0.001218   0.000336  -0.009860  -0.000132   0.000011  -0.005347
    21  O   -0.000006   0.000000   0.000092  -0.000001   0.000000  -0.000029
    22  H    0.000000   0.000000  -0.000004   0.000000   0.000000   0.000029
    23  C    0.011162   0.004753  -0.001083  -0.000015   0.000000   0.009178
    24  O   -0.049249  -0.000620  -0.000207   0.000000   0.000000  -0.002930
    25  H    0.002197  -0.002922  -0.000010   0.000000   0.000000  -0.000287
    26  C   -0.023600  -0.022396  -0.002106   0.000003  -0.000007   0.001142
    27  O   -0.000057  -0.000025  -0.000008   0.000000   0.000000   0.000518
    28  C   -0.000286  -0.000005  -0.000468   0.000008   0.000000  -0.001435
    29  O   -0.000003   0.000000  -0.000005   0.000000   0.000000   0.000045
    30  H    0.000000   0.000000   0.000000   0.000000   0.000000  -0.000001
    31  H   -0.000015   0.000000  -0.011223  -0.000185  -0.000077  -0.029245
    32  H    0.000010   0.000000   0.614303  -0.050421   0.000488  -0.296917
    33  H   -0.000014   0.000000   0.392586  -0.017039  -0.013951   0.012403
    34  H    0.000004  -0.000002   0.023177   0.001740  -0.000364   0.014710
    35  H    0.000399   0.000001  -0.048664  -0.001172  -0.000014  -0.046906
    36  H    0.005840  -0.000178   0.012037  -0.000503   0.000001   0.018370
    37  H   -0.028049  -0.006391   0.016846   0.000006   0.000000   0.049907
    38  H   -0.008536  -0.000248   0.026605   0.000094   0.000000   0.068333
    39  H   -0.000555   0.000291  -0.000001   0.000000   0.000000   0.000083
    40  H    0.001122   0.000018   0.000013   0.000000   0.000000   0.000413
    41  H   -0.000151   0.000011   0.000131   0.000000   0.000000   0.001734
    42  H   -0.003232  -0.000497   0.001129   0.000001   0.000000   0.006348
    43  H    0.000027  -0.000003   0.000919   0.000000   0.000000  -0.003678
    44  H    0.000011   0.000000  -0.000078   0.000000   0.000000  -0.000269
    45  H    0.000002   0.000000  -0.000010   0.000000   0.000000   0.000024
             13         14         15         16         17         18
     1  O    0.004150  -0.019454   0.000133   0.001559  -0.000431   0.000035
     2  C   -0.029965   0.632845   0.004261   0.116622  -0.024767   0.002664
     3  C   -0.070054   0.417805  -0.009327   0.138676   0.005142  -0.001010
     4  O   -0.003544   0.019548   0.000713  -0.003815   0.001231  -0.000014
     5  H   -0.000023   0.004485   0.000005   0.000419   0.000012   0.000000
     6  C    0.028812  -3.415352  -0.039830  -0.360091  -0.152643   0.002694
     7  O   -0.000860  -0.015378   0.003348   0.041432   0.011910  -0.000167
     8  H   -0.000015  -0.087754   0.012853   0.022413   0.000308  -0.000072
     9  C   -0.042416  -1.043131   0.000584  -0.172706   0.002705  -0.002475
    10  O   -0.000262   0.006121   0.000187  -0.000002  -0.000649  -0.000230
    11  H   -0.000766  -0.003627  -0.000003  -0.000371   0.000074  -0.000010
    12  C   -0.048220  -1.172027  -0.050365  -0.389570  -0.063017   0.008258
    13  O    8.215944   0.248638   0.002142  -0.034697   0.048540  -0.023868
    14  C    0.248638  11.017105   0.218660  -0.909016   0.347267   0.022351
    15  O    0.002142   0.218660   8.051983   0.208996  -0.020432  -0.000616
    16  C   -0.034697  -0.909016   0.208996  10.931770  -1.723282   0.014153
    17  C    0.048540   0.347267  -0.020432  -1.723282   7.513455   0.140119
    18  O   -0.023868   0.022351  -0.000616   0.014153   0.140119   8.253269
    19  H    0.022257   0.027805   0.010424  -0.061345   0.037459   0.220506
    20  C    0.000851  -0.395258   0.016922  -1.298407   0.098557  -0.046939
    21  O    0.000075   0.000192   0.000115   0.067951  -0.016661   0.006390
    22  H    0.000002  -0.000352  -0.000015  -0.009817  -0.004336  -0.000291
    23  C    0.004222   0.136826  -0.031381   0.182519  -0.201623   0.012450
    24  O   -0.000235   0.035668  -0.020401   0.030026   0.001701  -0.000003
    25  H   -0.000009  -0.009419   0.001829  -0.015467  -0.002362  -0.000001
    26  C   -0.014026  -0.794522  -0.019208  -2.147234  -0.096036   0.009592
    27  O    0.000250   0.013048   0.001562   0.095799  -0.064256  -0.001450
    28  C    0.001456   0.008374   0.003203   0.904544  -0.148519  -0.007700
    29  O    0.000017   0.000569  -0.000097  -0.012778  -0.028287   0.000579
    30  H    0.000000   0.000047   0.000001  -0.001619   0.009871  -0.000023
    31  H   -0.000717   0.003493   0.000003   0.000186  -0.000041   0.000000
    32  H   -0.002241   0.004036  -0.000122  -0.001901   0.000521  -0.000058
    33  H   -0.008059  -0.012024  -0.000278   0.001536   0.002355   0.000161
    34  H   -0.019887   0.213816   0.002158   0.019660   0.002514   0.000397
    35  H    0.006125   0.109836  -0.000150  -0.001598   0.001252   0.000029
    36  H    0.003717   0.139184   0.000276  -0.006466   0.003713   0.000041
    37  H    0.008656  -0.018556  -0.009140  -0.025586   0.005349   0.000052
    38  H   -0.035485   0.244121  -0.033419   0.002466  -0.017455   0.000232
    39  H    0.000017   0.011781   0.000642   0.020916   0.004572   0.000010
    40  H    0.000077   0.008975   0.001266   0.044567  -0.003329   0.000057
    41  H   -0.000023   0.055565  -0.002085   0.022760  -0.036193   0.000156
    42  H   -0.000162  -0.005543  -0.038097   0.151844   0.017124  -0.001863
    43  H   -0.002533   0.027216  -0.009391  -0.064519   0.361255  -0.034079
    44  H    0.000060  -0.012871  -0.000152   0.112067  -0.171952   0.009095
    45  H    0.000023  -0.001298   0.000428   0.048825  -0.020217   0.000427
             19         20         21         22         23         24
     1  O   -0.000047   0.000041   0.000000   0.000000  -0.000023   0.000002
     2  C   -0.004741   0.010372   0.000010   0.000000   0.000649   0.002440
     3  C    0.006321  -0.008223  -0.000019   0.000001  -0.004723  -0.005984
     4  O    0.000002   0.000017   0.000000   0.000000   0.000078   0.000121
     5  H    0.000000   0.000000   0.000000   0.000000  -0.000026  -0.000004
     6  C    0.009404  -0.051065  -0.000110  -0.000051  -0.047395  -0.001980
     7  O   -0.000050   0.001218  -0.000006   0.000000   0.011162  -0.049249
     8  H   -0.000012   0.000336   0.000000   0.000000   0.004753  -0.000620
     9  C   -0.001892  -0.009860   0.000092  -0.000004  -0.001083  -0.000207
    10  O    0.000038  -0.000132  -0.000001   0.000000  -0.000015   0.000000
    11  H   -0.000003   0.000011   0.000000   0.000000   0.000000   0.000000
    12  C   -0.004282  -0.005347  -0.000029   0.000029   0.009178  -0.002930
    13  O    0.022257   0.000851   0.000075   0.000002   0.004222  -0.000235
    14  C    0.027805  -0.395258   0.000192  -0.000352   0.136826   0.035668
    15  O    0.010424   0.016922   0.000115  -0.000015  -0.031381  -0.020401
    16  C   -0.061345  -1.298407   0.067951  -0.009817   0.182519   0.030026
    17  C    0.037459   0.098557  -0.016661  -0.004336  -0.201623   0.001701
    18  O    0.220506  -0.046939   0.006390  -0.000291   0.012450  -0.000003
    19  H    0.381581  -0.012126  -0.000367   0.000015  -0.002560  -0.000010
    20  C   -0.012126   7.106732   0.001634   0.020946   0.000375  -0.005599
    21  O   -0.000367   0.001634   8.233325   0.232042  -0.002013   0.000007
    22  H    0.000015   0.020946   0.232042   0.435998   0.000174   0.000000
    23  C   -0.002560   0.000375  -0.002013   0.000174   6.033686  -0.000437
    24  O   -0.000010  -0.005599   0.000007   0.000000  -0.000437   8.316987
    25  H    0.000000   0.001020   0.000000   0.000000  -0.020651   0.253001
    26  C   -0.010113   1.108118  -0.037135   0.005915  -0.677580   0.068282
    27  O   -0.000128  -0.124915   0.003787  -0.000895  -0.075675   0.000792
    28  C    0.003734  -0.673173   0.072431  -0.018305  -0.102930   0.006062
    29  O    0.000004  -0.024494   0.002866   0.011145   0.011028  -0.000018
    30  H    0.000000  -0.024980  -0.001887  -0.001367  -0.000708  -0.000001
    31  H    0.000000   0.000000   0.000000   0.000000   0.000001   0.000000
    32  H    0.000024  -0.000013   0.000000   0.000000  -0.000012   0.000000
    33  H    0.000800   0.000074   0.000003   0.000000  -0.000010   0.000000
    34  H   -0.000689   0.000518  -0.000001   0.000000  -0.000094   0.000001
    35  H   -0.000013   0.000023   0.000000   0.000000   0.000048   0.000005
    36  H   -0.000003   0.000079   0.000000   0.000000   0.000218   0.000057
    37  H    0.000001   0.000383   0.000000   0.000000   0.001380   0.001094
    38  H   -0.002474   0.011149   0.000013   0.000000  -0.001328  -0.000147
    39  H    0.000000  -0.003915  -0.000003   0.000000   0.420135  -0.032387
    40  H    0.000000  -0.001310   0.000002   0.000000   0.577349  -0.060233
    41  H    0.000007  -0.031008   0.000024   0.000003   0.073618   0.000601
    42  H    0.000009   0.034355  -0.000337   0.000007   0.001118   0.000095
    43  H    0.000025  -0.066268  -0.001789  -0.000233   0.017217  -0.000034
    44  H   -0.000130   0.294580  -0.017996  -0.005990   0.006281   0.000013
    45  H   -0.000001  -0.129596   0.002925  -0.000201  -0.002178   0.000041
             25         26         27         28         29         30
     1  O    0.000000   0.000055   0.000000   0.000000   0.000000   0.000000
     2  C   -0.000014   0.000266   0.000166   0.000714  -0.000002   0.000000
     3  C    0.001213  -0.027297   0.000126   0.001499   0.000014   0.000000
     4  O   -0.000001  -0.000125   0.000001   0.000005   0.000000   0.000000
     5  H    0.000000   0.000026   0.000000   0.000000   0.000000   0.000000
     6  C    0.001250  -0.018619   0.001556  -0.000513  -0.000140   0.000006
     7  O    0.002197  -0.023600  -0.000057  -0.000286  -0.000003   0.000000
     8  H   -0.002922  -0.022396  -0.000025  -0.000005   0.000000   0.000000
     9  C   -0.000010  -0.002106  -0.000008  -0.000468  -0.000005   0.000000
    10  O    0.000000   0.000003   0.000000   0.000008   0.000000   0.000000
    11  H    0.000000  -0.000007   0.000000   0.000000   0.000000   0.000000
    12  C   -0.000287   0.001142   0.000518  -0.001435   0.000045  -0.000001
    13  O   -0.000009  -0.014026   0.000250   0.001456   0.000017   0.000000
    14  C   -0.009419  -0.794522   0.013048   0.008374   0.000569   0.000047
    15  O    0.001829  -0.019208   0.001562   0.003203  -0.000097   0.000001
    16  C   -0.015467  -2.147234   0.095799   0.904544  -0.012778  -0.001619
    17  C   -0.002362  -0.096036  -0.064256  -0.148519  -0.028287   0.009871
    18  O   -0.000001   0.009592  -0.001450  -0.007700   0.000579  -0.000023
    19  H    0.000000  -0.010113  -0.000128   0.003734   0.000004   0.000000
    20  C    0.001020   1.108118  -0.124915  -0.673173  -0.024494  -0.024980
    21  O    0.000000  -0.037135   0.003787   0.072431   0.002866  -0.001887
    22  H    0.000000   0.005915  -0.000895  -0.018305   0.011145  -0.001367
    23  C   -0.020651  -0.677580  -0.075675  -0.102930   0.011028  -0.000708
    24  O    0.253001   0.068282   0.000792   0.006062  -0.000018  -0.000001
    25  H    0.413141   0.036083  -0.000483  -0.001435  -0.000001   0.000000
    26  C    0.036083   9.501233   0.123370  -0.926218  -0.023037   0.000905
    27  O   -0.000483   0.123370   8.137954   0.229243  -0.034900   0.003425
    28  C   -0.001435  -0.926218   0.229243   5.770235   0.269669   0.005029
    29  O   -0.000001  -0.023037  -0.034900   0.269669   8.134766   0.261721
    30  H    0.000000   0.000905   0.003425   0.005029   0.261721   0.421992
    31  H    0.000000  -0.000001   0.000000   0.000000   0.000000   0.000000
    32  H    0.000000  -0.000154   0.000000   0.000006   0.000000   0.000000
    33  H    0.000000   0.000342   0.000000   0.000003   0.000000   0.000000
    34  H    0.000000   0.000201   0.000001   0.000049   0.000000   0.000000
    35  H    0.000000  -0.000286   0.000000  -0.000001   0.000000   0.000000
    36  H    0.000000  -0.001156   0.000000  -0.000003   0.000000   0.000000
    37  H   -0.000019  -0.008622   0.000001  -0.000040   0.000000   0.000000
    38  H    0.000005   0.022409   0.000257  -0.000482  -0.000002   0.000000
    39  H   -0.009854  -0.091189   0.000934   0.004654   0.000005  -0.000001
    40  H   -0.003432  -0.263936   0.000839   0.004870  -0.000111   0.000000
    41  H   -0.000208   0.149758  -0.032012   0.052092  -0.000394   0.000011
    42  H   -0.000029   0.080606   0.001555  -0.004334  -0.000243   0.000001
    43  H    0.000000   0.028357  -0.000177  -0.034818   0.000476   0.000015
    44  H    0.000000  -0.000229   0.002767   0.041656   0.000550  -0.000035
    45  H    0.000000  -0.014569  -0.036997   0.451615  -0.023638  -0.008711
             31         32         33         34         35         36
     1  O    0.263902   0.003773  -0.000983   0.005304  -0.018308  -0.003208
     2  C    0.056200   0.036643  -0.026324   0.083009   0.325368   0.010866
     3  C   -0.020719  -0.009511   0.003386  -0.033769  -0.023572   0.351876
     4  O    0.000454  -0.000018   0.000013   0.000600   0.001566  -0.028862
     5  H   -0.001837  -0.000001   0.000000   0.000005   0.000091  -0.000662
     6  C   -0.001995   0.011243  -0.002001  -0.052338  -0.035707  -0.268569
     7  O   -0.000015   0.000010  -0.000014   0.000004   0.000399   0.005840
     8  H    0.000000   0.000000   0.000000  -0.000002   0.000001  -0.000178
     9  C   -0.011223   0.614303   0.392586   0.023177  -0.048664   0.012037
    10  O   -0.000185  -0.050421  -0.017039   0.001740  -0.001172  -0.000503
    11  H   -0.000077   0.000488  -0.013951  -0.000364  -0.000014   0.000001
    12  C   -0.029245  -0.296917   0.012403   0.014710  -0.046906   0.018370
    13  O   -0.000717  -0.002241  -0.008059  -0.019887   0.006125   0.003717
    14  C    0.003493   0.004036  -0.012024   0.213816   0.109836   0.139184
    15  O    0.000003  -0.000122  -0.000278   0.002158  -0.000150   0.000276
    16  C    0.000186  -0.001901   0.001536   0.019660  -0.001598  -0.006466
    17  C   -0.000041   0.000521   0.002355   0.002514   0.001252   0.003713
    18  O    0.000000  -0.000058   0.000161   0.000397   0.000029   0.000041
    19  H    0.000000   0.000024   0.000800  -0.000689  -0.000013  -0.000003
    20  C    0.000000  -0.000013   0.000074   0.000518   0.000023   0.000079
    21  O    0.000000   0.000000   0.000003  -0.000001   0.000000   0.000000
    22  H    0.000000   0.000000   0.000000   0.000000   0.000000   0.000000
    23  C    0.000001  -0.000012  -0.000010  -0.000094   0.000048   0.000218
    24  O    0.000000   0.000000   0.000000   0.000001   0.000005   0.000057
    25  H    0.000000   0.000000   0.000000   0.000000   0.000000   0.000000
    26  C   -0.000001  -0.000154   0.000342   0.000201  -0.000286  -0.001156
    27  O    0.000000   0.000000   0.000000   0.000001   0.000000   0.000000
    28  C    0.000000   0.000006   0.000003   0.000049  -0.000001  -0.000003
    29  O    0.000000   0.000000   0.000000   0.000000   0.000000   0.000000
    30  H    0.000000   0.000000   0.000000   0.000000   0.000000   0.000000
    31  H    0.414104  -0.000379   0.000021  -0.000233  -0.012166  -0.000044
    32  H   -0.000379   0.591110  -0.047644   0.005485   0.003012  -0.000006
    33  H    0.000021  -0.047644   0.575948  -0.003365   0.000055   0.000009
    34  H   -0.000233   0.005485  -0.003365   0.604326   0.005655   0.002381
    35  H   -0.012166   0.003012   0.000055   0.005655   0.602204   0.006009
    36  H   -0.000044  -0.000006   0.000009   0.002381   0.006009   0.622959
    37  H    0.000009  -0.000008   0.000001  -0.000098   0.001311   0.006775
    38  H    0.000002  -0.000022  -0.000027   0.002980  -0.000048   0.001544
    39  H    0.000000   0.000000   0.000000   0.000000   0.000000   0.000000
    40  H    0.000000   0.000000   0.000000   0.000000   0.000000   0.000000
    41  H    0.000000   0.000000   0.000000   0.000000   0.000000   0.000000
    42  H    0.000000   0.000000   0.000000  -0.000027   0.000000   0.000001
    43  H    0.000000   0.000000  -0.000001  -0.000001   0.000000   0.000000
    44  H    0.000000   0.000000   0.000000   0.000000   0.000000   0.000000
    45  H    0.000000   0.000000   0.000000   0.000000   0.000000   0.000000
             37         38         39         40         41         42
     1  O   -0.000210   0.000007   0.000000   0.000000   0.000000  -0.000001
     2  C    0.033030  -0.002839   0.000018   0.000020  -0.000031  -0.002539
     3  C   -0.135065  -0.048684   0.000006   0.000320  -0.000064   0.002089
     4  O    0.003792  -0.000114   0.000000   0.000000   0.000000   0.000008
     5  H   -0.000169   0.000001   0.000000   0.000000   0.000000   0.000000
     6  C    0.372335   0.039838  -0.000603  -0.004716  -0.005890   0.010144
     7  O   -0.028049  -0.008536  -0.000555   0.001122  -0.000151  -0.003232
     8  H   -0.006391  -0.000248   0.000291   0.000018   0.000011  -0.000497
     9  C    0.016846   0.026605  -0.000001   0.000013   0.000131   0.001129
    10  O    0.000006   0.000094   0.000000   0.000000   0.000000   0.000001
    11  H    0.000000   0.000000   0.000000   0.000000   0.000000   0.000000
    12  C    0.049907   0.068333   0.000083   0.000413   0.001734   0.006348
    13  O    0.008656  -0.035485   0.000017   0.000077  -0.000023  -0.000162
    14  C   -0.018556   0.244121   0.011781   0.008975   0.055565  -0.005543
    15  O   -0.009140  -0.033419   0.000642   0.001266  -0.002085  -0.038097
    16  C   -0.025586   0.002466   0.020916   0.044567   0.022760   0.151844
    17  C    0.005349  -0.017455   0.004572  -0.003329  -0.036193   0.017124
    18  O    0.000052   0.000232   0.000010   0.000057   0.000156  -0.001863
    19  H    0.000001  -0.002474   0.000000   0.000000   0.000007   0.000009
    20  C    0.000383   0.011149  -0.003915  -0.001310  -0.031008   0.034355
    21  O    0.000000   0.000013  -0.000003   0.000002   0.000024  -0.000337
    22  H    0.000000   0.000000   0.000000   0.000000   0.000003   0.000007
    23  C    0.001380  -0.001328   0.420135   0.577349   0.073618   0.001118
    24  O    0.001094  -0.000147  -0.032387  -0.060233   0.000601   0.000095
    25  H   -0.000019   0.000005  -0.009854  -0.003432  -0.000208  -0.000029
    26  C   -0.008622   0.022409  -0.091189  -0.263936   0.149758   0.080606
    27  O    0.000001   0.000257   0.000934   0.000839  -0.032012   0.001555
    28  C   -0.000040  -0.000482   0.004654   0.004870   0.052092  -0.004334
    29  O    0.000000  -0.000002   0.000005  -0.000111  -0.000394  -0.000243
    30  H    0.000000   0.000000  -0.000001   0.000000   0.000011   0.000001
    31  H    0.000009   0.000002   0.000000   0.000000   0.000000   0.000000
    32  H   -0.000008  -0.000022   0.000000   0.000000   0.000000   0.000000
    33  H    0.000001  -0.000027   0.000000   0.000000   0.000000   0.000000
    34  H   -0.000098   0.002980   0.000000   0.000000   0.000000  -0.000027
    35  H    0.001311  -0.000048   0.000000   0.000000   0.000000   0.000000
    36  H    0.006775   0.001544   0.000000   0.000000   0.000000   0.000001
    37  H    0.588789   0.004401   0.000001  -0.000001   0.000000  -0.000016
    38  H    0.004401   0.576945  -0.000001   0.000014  -0.000004   0.006094
    39  H    0.000001  -0.000001   0.579762  -0.043926  -0.006267   0.000029
    40  H   -0.000001   0.000014  -0.043926   0.571960   0.006278   0.002661
    41  H    0.000000  -0.000004  -0.006267   0.006278   0.618393   0.006072
    42  H   -0.000016   0.006094   0.000029   0.002661   0.006072   0.605178
    43  H   -0.000003  -0.000060   0.000004  -0.000010   0.002380   0.006440
    44  H    0.000000  -0.000006   0.000001  -0.000014  -0.000061   0.001159
    45  H    0.000000   0.000000  -0.000015  -0.000007   0.003780  -0.000036
             43         44         45
     1  O    0.000000   0.000000   0.000000
     2  C   -0.000661   0.000063   0.000003
     3  C    0.000659   0.000098   0.000016
     4  O    0.000000   0.000000   0.000000
     5  H    0.000000   0.000000   0.000000
     6  C    0.016507   0.001824   0.000091
     7  O    0.000027   0.000011   0.000002
     8  H   -0.000003   0.000000   0.000000
     9  C    0.000919  -0.000078  -0.000010
    10  O    0.000000   0.000000   0.000000
    11  H    0.000000   0.000000   0.000000
    12  C   -0.003678  -0.000269   0.000024
    13  O   -0.002533   0.000060   0.000023
    14  C    0.027216  -0.012871  -0.001298
    15  O   -0.009391  -0.000152   0.000428
    16  C   -0.064519   0.112067   0.048825
    17  C    0.361255  -0.171952  -0.020217
    18  O   -0.034079   0.009095   0.000427
    19  H    0.000025  -0.000130  -0.000001
    20  C   -0.066268   0.294580  -0.129596
    21  O   -0.001789  -0.017996   0.002925
    22  H   -0.000233  -0.005990  -0.000201
    23  C    0.017217   0.006281  -0.002178
    24  O   -0.000034   0.000013   0.000041
    25  H    0.000000   0.000000   0.000000
    26  C    0.028357  -0.000229  -0.014569
[...]
 70,0.00004737,0.00049609,-0.00002029,0.00006537,-0.00046173,-0.0007226
 5,-0.00537104,-0.02006852,-0.00277118,0.00999568,-0.33947553,-0.009158
 88,-0.05950551,-0.01149376,0.00029683,-0.00501760,0.00193048,-0.000265
 67,0.00103730,-0.00051108,0.00013639,0.00026996,-0.00058870,0.00008970
 ,0.00063373,0.00035825,0.00001230,-0.00009251,-0.00001922,0.00006494,-
 0.00008020,0.00041367,0.00055788,0.00036657,0.00016152,-0.00004826,0.0
 0000355,0.00001588,-0.00004352,0.00000735,-0.00713823,-0.00003799,-0.0
 0167811,0.00170828,0.00057448,-0.00049093,0.00000181,-0.00000702,0.000
 01264,0.00006190,-0.00000397,-0.00007659,-0.00000320,-0.00000616,0.000
 00228,-0.00000137,-0.00000364,-0.00000290,0.00000600,0.00000383,-0.000
 01224,-0.00000779,0.00000236,0.00000055,0.00002383,0.00002502,0.000050
 23,0.00000779,-0.00000038,-0.00001230,0.00002106,0.00001316,0.00002917
 ,0.00002834,0.00020583,-0.00027405,0.00173479,0.00084150,0.00095313,0.
 00031053,0.00008831,0.00001942,0.00046677,-0.00070234,0.00000110,0.000
 56693,-0.00040429,-0.00031183,0.37017575,0.00001121,-0.00002651,0.0000
 3054,-0.00001536,0.00004860,-0.00003926,0.00003752,0.00002499,-0.00002
 645,0.00000877,-0.00004097,0.00000370,-0.00000535,0.00000693,-0.000004
 66,-0.00027816,0.00024255,0.00003549,0.00029460,-0.00009495,-0.0004270
 7,-0.00025551,-0.00010723,0.00017403,0.00000717,-0.00003107,-0.0000011
 6,-0.00000362,0.00002637,0.00003063,0.00000529,-0.00000349,-0.00000368
 ,-0.00002374,0.00002534,-0.00009919,0.00003777,0.00000691,0.00027743,0
 .00026022,0.00108614,-0.00173218,-0.00995151,0.00026512,0.00240893,-0.
 00706210,-0.04443690,-0.00274857,0.03396668,-0.00061020,0.00908779,-0.
 00258865,0.00340381,-0.00027708,0.00027057,-0.00016629,-0.00058268,0.0
 0090964,0.00119044,-0.00127415,-0.00038495,-0.00030587,0.00010945,-0.0
 0012835,-0.00008445,0.00006514,-0.00154769,0.00152314,0.00066171,0.000
 23260,-0.00009271,-0.00008023,-0.00001389,-0.00007453,0.00003573,-0.02
 691516,-0.00212669,-0.00763123,0.00130979,0.00088108,0.00174281,0.0003
 0685,-0.00054200,0.00011202,-0.00000605,0.00011942,0.00006995,-0.00001
 813,0.00000333,0.00000244,0.00000073,0.00000004,-0.00000598,-0.0000066
 8,0.00000270,0.00000805,0.00001017,-0.00001010,-0.00000119,-0.00001066
 ,0.00001031,0.00000441,0.00000080,-0.00000685,0.00000312,-0.00000361,0
 .00000891,0.00001031,0.00007174,-0.00002840,-0.00003774,0.00025534,0.0
 0039729,-0.00008315,0.00035416,0.00040309,0.00005993,0.00075316,-0.000
 36915,-0.00005679,-0.00078022,-0.00288088,-0.00360780,0.00950717,0.047
 89191,-0.00000877,-0.00000531,-0.00003890,-0.00000270,-0.00001213,0.00
 002876,0.00000681,0.00005478,0.00003714,-0.00002270,0.00000996,-0.0000
 3168,-0.00000264,0.00000172,-0.00000175,0.00030580,0.00003729,-0.00038
 687,-0.00026645,-0.00010130,0.00014076,0.00016250,-0.00006967,0.000019
 50,-0.00005072,0.00003085,-0.00002199,-0.00000266,-0.00004318,-0.00002
 085,0.00000091,-0.00000126,-0.00000684,0.00001773,-0.00005740,-0.00002
 495,-0.00087801,-0.00055653,-0.00038858,0.00765303,0.00193889,0.002766
 30,0.03628650,0.00334064,-0.01293010,-0.06741332,-0.00347565,-0.053792
 82,-0.01335850,-0.00142674,-0.00139675,0.00142012,0.00004723,0.0009903
 6,0.00014461,0.00029942,-0.00004554,-0.00082922,-0.00050762,0.00042930
 ,0.00031781,0.00006997,0.00001739,0.00002495,-0.00001444,-0.00002447,-
 0.00025177,0.00134915,0.00083442,0.00014681,-0.00012680,0.00000235,-0.
 00004353,-0.00000805,0.00007559,-0.02370925,-0.00192562,-0.00496617,0.
 00088765,0.00062892,0.00210100,-0.00040801,0.00029116,-0.00019708,0.00
 007925,-0.00000118,-0.00016530,0.00001164,-0.00000894,0.00001559,-0.00
 000199,0.00000450,0.00000307,-0.00000110,0.00000833,0.00000556,-0.0000
 0079,-0.00000527,-0.00000202,-0.00004311,-0.00003915,-0.00008525,-0.00
 000561,0.00000458,0.00001159,-0.00003187,-0.00001211,-0.00004705,-0.00
 019931,-0.00012046,0.00000862,-0.00084553,-0.00035966,-0.00092089,0.00
 017674,0.00026469,-0.00002728,0.00064336,-0.00037767,0.00008522,-0.000
 44767,-0.00276896,-0.00315037,0.06045702,0.00102272,0.07180802,-0.0000
 0198,0.00002580,-0.00003905,-0.00000907,-0.00002862,0.00002907,-0.0000
 0711,-0.00007288,0.00001333,0.00001054,0.00005278,-0.00000766,-0.00000
 296,-0.00001446,0.00000770,0.00010695,0.00002808,0.00009501,0.00005939
 ,0.00010111,0.00003962,-0.00009048,-0.00006533,-0.00007676,-0.00000586
 ,-0.00003902,0.00009420,0.00001037,-0.00000415,-0.00006687,-0.00001320
 ,0.00001002,0.00002731,0.00001241,0.00002273,0.00006752,-0.00001302,0.
 00036422,-0.00026205,0.00013433,-0.00064777,-0.00028406,0.00234235,-0.
 00081608,0.00099737,-0.01691154,0.00201716,-0.00067842,-0.34580585,-0.
 01646344,-0.02169992,-0.00031944,-0.00997991,-0.00968532,-0.00055801,-
 0.00085323,0.00077854,-0.01748523,-0.00015270,0.00216470,0.00195408,0.
 00028320,-0.00073614,0.00033493,0.00014151,-0.00017829,0.00062253,0.00
 032063,0.00016133,0.00003337,-0.00005906,0.00008112,-0.00001034,0.0000
 0372,0.00000130,-0.00080470,-0.00134261,-0.00081216,0.00042885,0.00053
 549,0.00031089,-0.00138593,-0.00116550,-0.00101781,0.00066518,0.000145
 73,0.00018486,-0.00004501,0.00002855,0.00016439,-0.00000482,-0.0000061
 3,0.00000998,0.00001126,0.00001239,-0.00002662,-0.00001401,0.00004290,
 0.00000055,0.00001894,-0.00001424,0.00001901,0.00000428,0.00000238,-0.
 00000901,0.00001223,0.00000434,0.00000290,0.00000167,0.00002763,-0.000
 03795,0.00011598,0.00002754,0.00026012,-0.00002189,0.00014567,-0.00000
 846,0.00015506,-0.00033379,0.00002055,0.00095507,0.00071759,0.00071862
 ,0.00022763,0.00201638,-0.00050581,0.37436872,-0.00001089,0.00002504,-
 0.00005121,-0.00000256,-0.00004006,0.00003773,0.00000644,0.00001395,0.
 00001122,-0.00001029,0.00004276,-0.00003678,0.00000222,-0.00000665,0.0
 0000238,-0.00002425,-0.00015828,-0.00018709,-0.00012216,0.00005988,0.0
 0017658,0.00010048,0.00003430,-0.00010558,-0.00000294,-0.00002524,0.00
 009512,0.00001203,-0.00001614,-0.00007043,-0.00001615,0.00001139,0.000
 02621,0.00003882,0.00006668,0.00009149,-0.00000784,0.00038661,-0.00021
 049,0.00030990,0.00008740,-0.00001608,-0.00108050,0.00203136,-0.002316
 35,0.03412942,-0.00458572,0.00472791,-0.01759505,-0.03678024,0.0046314
 8,-0.03031185,-0.01759733,-0.02028504,-0.00134515,-0.00082625,0.000910
 99,-0.01082407,0.00105287,0.00185446,-0.00009391,0.00059416,-0.0010177
 2,0.00016523,0.00006076,-0.00022896,0.00007717,0.00005063,0.00008774,-
 0.00003718,0.00000044,0.00003544,0.00000265,0.00002048,-0.00001182,0.0
 0172700,0.00204946,0.00091245,-0.00029812,-0.00032441,-0.00040182,0.00
 047257,-0.00026451,-0.00041521,0.00013199,-0.00004111,0.00023631,-0.00
 000107,0.00008306,0.00006476,-0.00000447,-0.00000217,0.00000999,0.0000
 1063,0.00001838,-0.00003389,-0.00003518,0.00004515,0.00000456,0.000016
 86,-0.00002917,0.00001192,0.00000008,0.00000511,-0.00000583,0.00000056
 ,-0.00000408,-0.00000585,-0.00002348,-0.00000752,0.00002397,-0.0001588
 9,-0.00013023,-0.00005877,-0.00010744,-0.00004447,0.00001150,-0.000231
 48,0.00003064,-0.00003263,-0.00030278,-0.00064645,-0.00037169,0.001435
 80,-0.00513357,0.00240476,0.02452810,0.05973069,0.00000377,0.00001312,
 -0.00001627,-0.00000707,-0.00000993,0.00001613,0.00000081,-0.00004623,
 0.00000715,0.00000960,0.00002450,-0.00000196,-0.00000211,-0.00000711,0
 .00000550,-0.00000013,0.00003139,0.00010180,0.00006468,0.00003411,-0.0
 0004147,-0.00007224,-0.00001848,0.00001290,-0.00001678,-0.00004260,0.0
 0006175,0.00003133,0.00000949,-0.00003422,-0.00001569,0.00000485,0.000
 02308,-0.00001361,-0.00000282,0.00003573,0.00020833,0.00030697,-0.0002
 3522,-0.00039874,-0.00039655,-0.00047847,-0.00008583,-0.00125032,0.001
 52872,-0.01517524,0.00366705,-0.00039713,-0.02101612,0.00490382,-0.041
 64629,-0.02601035,-0.01926613,-0.01190818,-0.00170367,-0.00068045,0.00
 035178,0.03583072,0.00350887,-0.00222246,-0.00142038,-0.00137335,0.002
 45306,-0.00005491,-0.00041079,0.00040751,0.00014499,0.00011979,0.00004
 334,0.00001875,-0.00002719,0.00001287,0.00000087,-0.00001365,0.0000018
 2,0.00063223,-0.00095950,-0.00025975,-0.00017269,-0.00040518,-0.000253
 36,0.00146671,0.00080312,0.00126343,-0.00050849,-0.00001004,-0.0000627
 7,-0.00005220,-0.00010800,-0.00007248,-0.00000394,-0.00000416,0.000004
 54,0.00001520,0.00001483,-0.00003763,-0.00003379,0.00002832,0.00000345
 ,0.00003310,-0.00001312,0.00003487,0.00000558,0.00000374,-0.00001327,0
 .00000983,0.00000271,0.00000636,0.00001235,0.00003521,-0.00002907,0.00
 020986,0.00002840,0.00002894,0.00003371,0.00009031,-0.00000872,0.00006
 662,-0.00010937,-0.00002446,0.00042180,-0.00006961,0.00027295,-0.00077
 960,0.00222837,-0.00060437,0.02708159,0.00799221,0.05757069,0.00000326
 ,-0.00000130,-0.00000652,-0.00000015,0.00000067,0.00000465,-0.00000884
 ,-0.00001962,0.00000842,0.00000857,0.00000604,-0.00000505,-0.00000286,
 -0.00000151,0.00000243,0.00001332,0.00002321,0.00003917,0.00002733,-0.
 00000448,-0.00001680,-0.00001553,0.00000491,0.00000849,-0.00001215,-0.
 00000024,-0.00000055,0.00001795,0.00000130,-0.00000295,-0.00000867,0.0
 0000071,0.00000387,-0.00001961,-0.00000038,0.00000358,0.00003480,0.000
 00682,-0.00003495,-0.00012729,-0.00008036,-0.00000661,0.00040270,-0.00
 011355,0.00024270,-0.00060377,0.00078280,-0.00008745,-0.01192123,-0.00
 507034,-0.00004914,0.00167362,0.00074338,-0.00044094,0.00013968,0.0000
 5827,-0.00001730,-0.34105277,-0.06986383,-0.00876246,-0.01674047,0.009
 26060,-0.00702946,0.00026177,0.00042803,0.00041790,-0.00001256,-0.0000
 2414,-0.00000612,0.00003314,0.00003455,-0.00002982,-0.00000918,-0.0000
 0890,-0.00000406,-0.00004017,-0.00001385,0.00002120,0.00174104,-0.0006
 9738,0.00049562,-0.00685215,-0.00054744,0.00087778,0.00136225,0.000194
 72,0.00008794,0.00022898,0.00029611,0.00028589,-0.00000165,0.00000037,
 0.00000143,0.00000598,0.00000208,-0.00000683,-0.00000809,0.00000051,0.
 00000144,0.00000905,-0.00000241,0.00000485,0.00000303,0.00000133,-0.00
 000413,0.00000550,0.00000195,0.00000169,0.00000489,0.00000799,-0.00000
 774,0.00002751,0.00000008,0.00002894,0.00000657,-0.00000845,0.00001287
 ,0.00003094,-0.00003231,0.00000883,0.00007158,0.00014040,-0.00002311,0
 .00047457,-0.00054866,0.00034945,0.00017109,-0.00067678,0.00167663,0.3
 7023723,0.00000466,-0.00000236,0.00001665,0.00000028,0.00000436,-0.000
 01030,-0.00000652,0.00000276,-0.00000919,0.00000366,-0.00001015,0.0000
 1146,-0.00000123,0.00000200,-0.00000180,-0.00000514,0.00002008,0.00000
 591,0.00002401,-0.00001297,-0.00000014,-0.00001835,-0.00000096,-0.0000
 0872,-0.00000107,-0.00000044,-0.00001552,0.00000090,0.00000726,0.00001
 715,0.00000349,-0.00000261,-0.00000562,-0.00001695,-0.00001233,-0.0000
 2665,0.00002139,-0.00003077,0.00005829,-0.00004048,0.00003750,-0.00004
 868,0.00022998,-0.00000873,0.00005393,-0.00071507,0.00034164,-0.000465
 73,-0.00880051,-0.00049839,-0.00076770,0.00108818,0.00063295,0.0002851
 2,0.00002338,-0.00001262,-0.00007276,-0.07165306,-0.05601805,-0.004380
 15,0.03892653,-0.00605090,0.00806852,0.00031981,0.00141061,-0.00097970
 ,-0.00006082,0.00004045,-0.00005748,0.00002808,-0.00001387,-0.00000504
 ,-0.00000885,0.00000328,0.00000241,-0.00022659,-0.00017594,0.00015742,
 0.00115459,0.00210550,0.00032188,-0.02782876,-0.00629020,-0.00115712,0
 .00166236,0.00159137,0.00182276,0.00008534,0.00008536,0.00039571,0.000
 00087,0.00000020,-0.00000311,-0.00000071,-0.00000260,0.00000326,0.0000
 0425,-0.00000639,-0.00000004,0.00000134,0.00000417,0.00000134,0.000000
 76,-0.00000068,0.00000005,0.00000045,0.00000073,0.00000125,0.00000303,
 0.00000104,-0.00000408,0.00000903,0.00001083,0.00002230,0.00000963,-0.
 00002445,0.00000220,0.00003976,-0.00005251,0.00002073,0.00019403,0.000
 11967,-0.00003700,0.00018132,-0.00024646,0.00023638,-0.00017294,-0.000
 06775,0.00176280,0.06584221,0.06638171,-0.00000380,-0.00000975,-0.0000
 0988,-0.00000257,0.00000864,0.00000539,0.00001191,0.00002787,0.0000159
 4,-0.00000436,-0.00000484,-0.00002099,0.00000023,0.00000441,-0.0000019
 1,-0.00003011,-0.00003848,-0.00005095,-0.00002035,0.00000426,-0.000015
 95,0.00001742,-0.00002394,0.00000797,0.00000553,0.00002260,-0.00001195
 ,-0.00001486,-0.00001614,0.00000242,0.00000632,-0.00000040,-0.00000841
 ,0.00002951,0.00000640,0.00002067,-0.00001908,-0.00013758,0.00001832,0
 .00010226,0.00025045,0.00021025,-0.00064469,0.00001448,-0.00060763,0.0
 0084968,-0.00126161,0.00123990,0.03337812,0.00834806,-0.00016205,-0.00
 211263,0.00001271,0.00322328,-0.00014118,0.00021177,0.00012519,-0.0062
 5252,-0.00461034,-0.04445237,-0.01517009,0.00603539,-0.00103333,-0.001
 15268,-0.00029125,0.00046462,0.00006623,0.00001151,0.00007978,-0.00001
 163,-0.00000062,0.00000674,-0.00000443,-0.00000338,0.00000350,0.000320
 25,0.00025776,-0.00043058,0.00130865,0.00098605,0.00041399,-0.02385400
 ,-0.00841286,-0.00215149,0.00055525,0.00132284,0.00244804,-0.00005843,
 0.00022405,0.00039038,-0.00000004,0.00000272,-0.00000028,-0.00000403,-
 0.00000380,0.00000712,0.00000598,-0.00000668,0.00000040,-0.00001018,0.
 00000460,-0.00001072,-0.00000160,-0.00000175,0.00000316,-0.00000455,-0
 .00000122,-0.00000293,-0.00000125,-0.00001024,0.00000940,-0.00003607,-
 0.00000366,-0.00005536,-0.00001390,0.00003825,0.00000523,-0.00001333,0
 .00001626,-0.00000069,-0.00008314,-0.00001541,-0.00014199,-0.00048970,
 0.00048867,-0.00021611,0.00214261,0.00151423,-0.00553253,0.01211991,-0
 .00220970,0.04875936,0.00000178,-0.00000675,-0.00001544,-0.00000587,0.
 00000656,0.00000886,-0.00000095,-0.00000486,0.00001739,0.00000750,0.00
 000444,-0.00001938,-0.00000332,0.00000052,0.00000207,-0.00002858,0.000
 01051,0.00000817,0.00001622,-0.00002088,-0.00005301,0.00000361,0.00001
 434,0.00005180,-0.00000941,0.00000943,-0.00000147,0.00000684,-0.000008
 40,-0.00000463,-0.00000365,0.00000093,0.00000035,0.00000607,-0.0000008
 8,0.00001494,0.00002338,-0.00004790,-0.00005329,0.00002324,0.00005983,
 0.00008899,0.00004379,-0.00006871,-0.00028875,0.00008965,0.00035302,0.
 00005162,-0.00056866,-0.00035167,0.00039686,0.00033496,0.00011718,0.00
 010079,0.00000885,-0.00000457,-0.00006004,-0.00684630,0.00116587,-0.00
 177336,0.00235647,0.00015959,0.00158619,-0.00032861,-0.00015124,-0.000
 03953,0.00066384,-0.00015461,-0.00006624,0.00000254,0.00020001,-0.0001
 0984,-0.00000886,-0.00001218,-0.00002690,0.00001604,-0.00074488,0.0015
 9821,-0.01162379,0.00941661,-0.00710117,-0.34071841,-0.04869336,-0.053
 80888,-0.01353098,-0.00426269,0.00593680,0.00055687,0.00025937,0.00059
 914,-0.00000252,0.00000115,0.00000217,0.00000354,0.00000027,-0.0000036
 0,-0.00000323,-0.00000160,0.00000135,0.00000292,0.00000071,-0.00000056
 ,0.00000273,0.00000002,-0.00000276,0.00000277,0.00000117,0.00000029,0.
 00000476,-0.00000057,-0.00000101,0.00000283,0.00000050,0.00000105,-0.0
 0003022,0.00000193,0.00001006,0.00010362,-0.00026929,0.00012681,0.0008
 2454,0.00049612,-0.00121817,0.00002644,-0.00008027,0.00023838,0.000753
 25,0.00015656,-0.00043547,0.00044078,-0.00030625,-0.00076465,0.3673834
 9,0.00000136,0.00001151,0.00000639,0.00000003,-0.00001320,-0.00000234,
 -0.00000516,-0.00000019,-0.00000947,-0.00000108,0.00000690,0.00000959,
 0.00000036,-0.00000217,-0.00000084,0.00002514,-0.00003340,-0.00001804,
 -0.00000469,0.00005362,0.00007210,-0.00001817,-0.00004749,-0.00009502,
 -0.00000102,-0.00001494,0.00001269,0.00000684,0.00000939,-0.00000452,-
 0.00000447,0.00000042,0.00000529,-0.00000945,0.00001089,0.00000512,0.0
 0000695,0.00010603,0.00000095,-0.00007935,-0.00007207,-0.00009317,0.00
 002025,0.00032942,0.00024293,-0.00030555,-0.00063615,0.00015828,-0.001
 19390,-0.00018205,0.00139443,0.00051031,0.00001791,-0.00047294,0.00013
 391,-0.00009551,0.00004004,-0.02458022,-0.00259176,-0.00668566,0.00055
 574,0.00318230,0.00072422,-0.00037894,-0.00019289,0.00001550,0.0002495
 6,0.00006000,-0.00007723,-0.00018448,-0.00017330,0.00018066,0.00000378
 ,0.00004360,0.00000728,0.00432261,0.00201058,-0.00386605,0.03431502,-0
 .00771509,0.01499236,-0.04964070,-0.05074598,-0.01044286,-0.00487748,0
 .00279952,0.00200193,-0.00048670,0.00054159,-0.00029448,-0.00000002,-0
 .00000196,-0.00000022,0.00000185,0.00000305,-0.00000348,-0.00000258,0.
 00000730,0.00000001,0.00000249,-0.00000430,0.00000241,0.00000012,0.000
 00081,-0.00000046,0.00000155,-0.00000061,0.00000093,-0.00000290,0.0000
 0438,-0.00000344,0.00001086,-0.00000449,0.00000657,0.00001212,-0.00002
 665,-0.00001051,-0.00024866,0.00002729,0.00001391,-0.00137622,0.000165
 02,-0.00008712,-0.00003718,-0.00014914,-0.00002084,0.00062622,0.000230
 14,-0.00038940,-0.00012308,-0.00326136,-0.00275035,0.04275494,0.056343
 07,-0.00000267,-0.00000399,-0.00002344,-0.00000443,0.00000334,0.000014
 63,0.00000394,-0.00000591,0.00002162,0.00000217,0.00001158,-0.00002424
 ,-0.00000122,-0.00000083,0.00000265,-0.00001721,-0.00000817,-0.0000012
 0,0.00000578,0.00000040,-0.00003621,0.00000174,-0.00000067,0.00003364,
 -0.00000475,0.00000924,0.00001180,0.00000066,-0.00001232,-0.00001536,-
 0.00000213,0.00000222,0.00000365,0.00001457,0.00000928,0.00002856,0.00
 000942,-0.00001997,-0.00007960,0.00004164,0.00003637,0.00009826,0.0000
 8032,0.00001770,-0.00031638,0.00009874,-0.00020163,-0.00016252,-0.0016
 0709,0.00019138,0.00133883,0.00058403,0.00000401,-0.00007299,0.0000451
 3,0.00002752,0.00004644,-0.02316886,-0.00401480,-0.00142419,0.00180557
 ,0.00161339,0.00131085,0.00016682,-0.00023597,-0.00009674,0.00005757,0
 .00006877,-0.00000498,0.00006440,0.00012446,-0.00011460,-0.00000709,-0
 .00002032,-0.00000969,-0.00324479,-0.00037323,0.00276102,-0.01284095,0
 .00697458,-0.00399930,-0.05905667,-0.01306592,-0.05741662,0.03825041,0
 .00634298,-0.00917767,0.00197695,0.00005252,0.00346039,-0.00000180,0.0
 0000061,0.00000369,0.00000230,0.00000043,-0.00000414,-0.00000299,0.000
 00270,0.00000023,0.00000148,-0.00000062,-0.00000022,0.00000129,0.00000
 008,-0.00000244,0.00000217,0.00000020,0.00000037,0.00000215,0.00000093
 ,-0.00000189,0.00000461,-0.00000299,0.00000805,0.00000875,-0.00001207,
 -0.00000912,0.00016772,-0.00007210,-0.00000668,0.00090901,0.00008863,-
 0.00008896,0.00015291,0.00004685,0.00011343,0.00065817,-0.00001220,-0.
 00036830,-0.00016363,-0.00300129,-0.00254295,0.05500585,0.00543487,0.0
 6674232\\-0.00177358,-0.01285449,-0.00727254,0.02108581,-0.00718199,-0
 .01899792,0.00377003,-0.01158516,0.03299357,-0.00946732,-0.00598626,0.
 01288166,0.00277907,-0.00000492,-0.03482178,0.02148691,-0.00568633,-0.
 00813034,-0.01992177,-0.00378576,-0.00416602,0.01877772,-0.01241815,0.
 01430703,0.02497410,0.00142921,0.01320752,-0.00846307,0.03953156,-0.00
 956612,0.00759060,-0.02980148,0.01108873,-0.03541798,0.03658545,0.0084
 5366,0.01841199,-0.01149144,0.00221682,-0.05298239,0.00640417,-0.00393
 956,0.01554701,-0.01318431,0.00731274,-0.00330386,0.02592075,0.0017685
 4,-0.00915477,0.02463193,0.00287328,0.01354860,-0.01795002,0.01696328,
 -0.00565378,0.00985519,-0.02416681,-0.01366773,0.00987494,-0.01568263,
 0.00636668,0.00980159,-0.01599610,-0.00636497,-0.01069533,0.03017848,0
 .01643685,-0.01215321,-0.01889333,-0.00496199,-0.01511163,-0.00859672,
 -0.01173561,0.02885733,0.01257274,-0.00548256,-0.00323032,0.02255037,-
 0.00539647,-0.01230328,0.00855350,0.04347028,-0.01292696,-0.00161661,-
 0.00983171,0.00515437,0.01828775,-0.00264006,-0.00299471,-0.00193233,-
 0.00097428,0.00445626,-0.00040436,-0.01919612,-0.00248847,0.00369639,-
 0.00180558,0.00778621,-0.01528432,0.01821450,0.00323416,-0.00150785,-0
 .01743287,-0.00107519,0.00225735,0.02164256,0.00591187,-0.00178987,-0.
 01814850,-0.00553716,-0.00007409,0.01687047,0.00433577,-0.00300609,-0.
 00362196,-0.00878625,-0.01703094,0.02087751,0.00302779,-0.00316147,-0.
 02126767,-0.00012188,-0.00242536,0.01928759,-0.00244871,0.00265337,-0.
 02329978,-0.00382174,-0.00234865,0.01894314,0.00160560,-0.00055151,-0.
 01811501,-0.00277901,-0.00345345\\\@


 EVERYTHING'S GOT A MORAL, IF ONLY YOU CAN FIND IT.

                                    -- LEWIS CARROL, ALICE IN WONDERLAND
 Job cpu time:  1 days  8 hours 25 minutes 45.7 seconds.
 File lengths (MBytes):  RWF=   1769 Int=      0 D2E=      0 Chk=     28 Scr=      1
 Normal termination of Gaussian 09 at Sun Mar 27 08:05:22 2016.
Gaussian '09 finished on node023 at Sun Mar 27 08:05:22 EDT 2016.
