Gaussian '09 started on node016 at Tue Mar  1 03:13:47 EST 2016.
 Entering Gaussian System, Link 0=/usr/local/gaussian/g09/g09
 Initial command:
 /usr/local/gaussian/g09/l1.exe /home/srmcgrat/thesis/gaussian/cellobiose/350/7000/2/gdp/gaussian28068/Gau-28104.inp -scrdir=/home/srmcgrat/thesis/gaussian/cellobiose/350/7000/2/gdp/gaussian28068/
 Entering Link 1 = /usr/local/gaussian/g09/l1.exe PID=     28106.
  
 Copyright (c) 1988,1990,1992,1993,1995,1998,2003,2009,2010,
            Gaussian, Inc.  All Rights Reserved.
  
 This is part of the Gaussian(R) 09 program.  It is based on
 the Gaussian(R) 03 system (copyright 2003, Gaussian, Inc.),
 the Gaussian(R) 98 system (copyright 1998, Gaussian, Inc.),
 the Gaussian(R) 94 system (copyright 1995, Gaussian, Inc.),
 the Gaussian 92(TM) system (copyright 1992, Gaussian, Inc.),
 the Gaussian 90(TM) system (copyright 1990, Gaussian, Inc.),
 the Gaussian 88(TM) system (copyright 1988, Gaussian, Inc.),
 the Gaussian 86(TM) system (copyright 1986, Carnegie Mellon
 University), and the Gaussian 82(TM) system (copyright 1983,
 Carnegie Mellon University). Gaussian is a federally registered
 trademark of Gaussian, Inc.
  
 This software contains proprietary and confidential information,
 including trade secrets, belonging to Gaussian, Inc.
  
 This software is provided under written license and may be
 used, copied, transmitted, or stored only in accord with that
 written license.
  
 The following legend is applicable only to US Government
 contracts under FAR:
  
                    RESTRICTED RIGHTS LEGEND
  
 Use, reproduction and disclosure by the US Government is
 subject to restrictions as set forth in subparagraphs (a)
 and (c) of the Commercial Computer Software - Restricted
 Rights clause in FAR 52.227-19.
  
 Gaussian, Inc.
 340 Quinnipiac St., Bldg. 40, Wallingford CT 06492
  
  
 ---------------------------------------------------------------
 Warning -- This program may not be used in any manner that
 competes with the business of Gaussian, Inc. or will provide
 assistance to any competitor of Gaussian, Inc.  The licensee
 of this program is prohibited from giving any competitor of
 Gaussian, Inc. access to this program.  By using this program,
 the user acknowledges that Gaussian, Inc. is engaged in the
 business of creating and licensing software in the field of
 computational chemistry and represents and warrants to the
 licensee that it is not a competitor of Gaussian, Inc. and that
 it will not use this program in any manner prohibited above.
 ---------------------------------------------------------------
  

 Cite this work as:
 Gaussian 09, Revision B.01,
 M. J. Frisch, G. W. Trucks, H. B. Schlegel, G. E. Scuseria, 
 M. A. Robb, J. R. Cheeseman, G. Scalmani, V. Barone, B. Mennucci, 
 G. A. Petersson, H. Nakatsuji, M. Caricato, X. Li, H. P. Hratchian, 
 A. F. Izmaylov, J. Bloino, G. Zheng, J. L. Sonnenberg, M. Hada, 
 M. Ehara, K. Toyota, R. Fukuda, J. Hasegawa, M. Ishida, T. Nakajima, 
 Y. Honda, O. Kitao, H. Nakai, T. Vreven, J. A. Montgomery, Jr., 
 J. E. Peralta, F. Ogliaro, M. Bearpark, J. J. Heyd, E. Brothers, 
 K. N. Kudin, V. N. Staroverov, T. Keith, R. Kobayashi, J. Normand, 
 K. Raghavachari, A. Rendell, J. C. Burant, S. S. Iyengar, J. Tomasi, 
 M. Cossi, N. Rega, J. M. Millam, M. Klene, J. E. Knox, J. B. Cross, 
 V. Bakken, C. Adamo, J. Jaramillo, R. Gomperts, R. E. Stratmann, 
 O. Yazyev, A. J. Austin, R. Cammi, C. Pomelli, J. W. Ochterski, 
 R. L. Martin, K. Morokuma, V. G. Zakrzewski, G. A. Voth, 
 P. Salvador, J. J. Dannenberg, S. Dapprich, A. D. Daniels, 
 O. Farkas, J. B. Foresman, J. V. Ortiz, J. Cioslowski, 
 and D. J. Fox, Gaussian, Inc., Wallingford CT, 2010.
 
 ******************************************
 Gaussian 09:  EM64L-G09RevB.01 12-Aug-2010
                 1-Mar-2016 
 ******************************************
 ------------------------------------------------
 # freq=raman b3lyp/6-31+g(d,p) geom=connectivity
 ------------------------------------------------
 1/10=4,30=1,38=1,57=2/1,3;
 2/12=2,17=6,18=5,40=1/2;
 3/5=1,6=6,7=111,11=2,16=1,25=1,30=1,71=2,74=-5/1,2,3;
 4//1;
 5/5=2,38=5,98=1/2;
 8/6=4,10=90,11=11/1;
 10/13=10,15=4/2;
 11/6=3,8=1,9=11,15=111,16=1/1,2,10;
 10/6=1/2;
 6/7=2,8=2,9=2,10=2,18=1,28=1/1;
 7/8=1,10=1,25=1/1,2,3,16;
 1/10=4,30=1/3;
 99//99;
 ------------
 350 7000.com
 ------------
 Symbolic Z-matrix:
 Charge =  0 Multiplicity = 1
 O                     7.753     7.547     22.76 
 C                     8.455     7.77      23.992 
 C                     8.025     9.161     24.431 
 O                     7.919     10.282    23.542 
 H                     7.578     9.981     22.652 
 C                     8.485     9.545     25.828 
 O                     8.009     10.823    26.275 
 H                     8.307     10.855    27.23 
 C                     8.404     5.352     24.643 
 O                     7.706     4.644     23.609 
 H                     7.878     3.712     23.928 
 C                     8.057     6.771     25.065 
 O                     8.573     7.17      26.344 
 C                     8.133     8.449     26.821 
 O                     8.936     8.554     28.005 
 C                     8.253     8.25      29.23 
 C                     8.959     7.011     29.757 
 O                     8.703     5.894     28.894 
 H                     9.165     6.167     28.05 
 C                     8.451     6.561     31.117 
 O                     9.149     5.483     31.756 
 H                     8.707     5.159     32.592 
 C                     8.266     10.796    29.985 
 O                     8.755     11.434    28.796 
 H                     8.812     12.411    28.999 
 C                     8.522     9.325     30.27 
 O                     7.859     8.972     31.493 
 C                     8.488     7.79      32.01 
 O                     7.771     7.567     33.233 
 H                     8.39516   7.43616   33.95057 
 H                     9.50771   8.01544   32.24295 
 H                     7.42877   6.26598   31.00337 
 H                     10.0124   7.19159   29.80834 
 H                     7.20677   8.08307   29.08023 
 H                     9.56971   9.25812   30.47672 
 H                     8.66217   11.34414   30.81415 
 H                     7.20464   10.93144   29.99327 
 H                     8.38597   7.41844   22.04977 
 H                     8.33159   4.74879   25.52379 
 H                     9.43487   5.3657    24.35662 
 H                     6.99055   6.81252   25.14154 
 H                     9.51212   7.74162   23.82896 
 H                     6.98629   8.97646   24.60967 
 H                     9.5528    9.60607   25.79684 
 H                     7.08864   8.4434    27.05378 
 

 GradGradGradGradGradGradGradGradGradGradGradGradGradGradGradGradGradGrad
 Berny optimization.
 Initialization pass.
 Trust Radius=3.00D-01 FncErr=1.00D-07 GrdErr=1.00D-07
 Number of steps in this run=      2 maximum allowed number of steps=      2.
 GradGradGradGradGradGradGradGradGradGradGradGradGradGradGradGradGradGrad

                          Input orientation:                          
 ---------------------------------------------------------------------
 Center     Atomic      Atomic             Coordinates (Angstroms)
 Number     Number       Type             X           Y           Z
 ---------------------------------------------------------------------
      1          8           0        7.753000    7.547000   22.760000
      2          6           0        8.455000    7.770000   23.992000
      3          6           0        8.025000    9.161000   24.431000
      4          8           0        7.919000   10.282000   23.542000
      5          1           0        7.578000    9.981000   22.652000
      6          6           0        8.485000    9.545000   25.828000
      7          8           0        8.009000   10.823000   26.275000
      8          1           0        8.307000   10.855000   27.230000
      9          6           0        8.404000    5.352000   24.643000
     10          8           0        7.706000    4.644000   23.609000
     11          1           0        7.878000    3.712000   23.928000
     12          6           0        8.057000    6.771000   25.065000
     13          8           0        8.573000    7.170000   26.344000
     14          6           0        8.133000    8.449000   26.821000
     15          8           0        8.936000    8.554000   28.005000
     16          6           0        8.253000    8.250000   29.230000
     17          6           0        8.959000    7.011000   29.757000
     18          8           0        8.703000    5.894000   28.894000
     19          1           0        9.165000    6.167000   28.050000
     20          6           0        8.451000    6.561000   31.117000
     21          8           0        9.149000    5.483000   31.756000
     22          1           0        8.707000    5.159000   32.592000
     23          6           0        8.266000   10.796000   29.985000
     24          8           0        8.755000   11.434000   28.796000
     25          1           0        8.812000   12.411000   28.999000
     26          6           0        8.522000    9.325000   30.270000
     27          8           0        7.859000    8.972000   31.493000
     28          6           0        8.488000    7.790000   32.010000
     29          8           0        7.771000    7.567000   33.233000
     30          1           0        8.395163    7.436160   33.950566
     31          1           0        9.507711    8.015438   32.242953
     32          1           0        7.428772    6.265976   31.003373
     33          1           0       10.012400    7.191591   29.808335
     34          1           0        7.206767    8.083073   29.080226
     35          1           0        9.569709    9.258123   30.476721
     36          1           0        8.662170   11.344135   30.814154
     37          1           0        7.204638   10.931436   29.993266
     38          1           0        8.385968    7.418444   22.049771
     39          1           0        8.331591    4.748794   25.523795
     40          1           0        9.434873    5.365698   24.356620
     41          1           0        6.990549    6.812518   25.141543
     42          1           0        9.512124    7.741617   23.828959
     43          1           0        6.986289    8.976457   24.609670
     44          1           0        9.552801    9.606069   25.796835
     45          1           0        7.088642    8.443402   27.053777
 ---------------------------------------------------------------------
                    Distance matrix (angstroms):
                    1          2          3          4          5
     1  O    0.000000
     2  C    1.435394   0.000000
     3  C    2.339064   1.520691   0.000000
     4  O    2.849439   2.607669   1.434642   0.000000
     5  H    2.442672   2.730064   2.009241   0.999491   0.000000
     6  C    3.733691   2.553903   1.520087   2.467655   3.331624
     7  O    4.811750   3.838205   2.482506   2.787485   3.744443
     8  H    5.588442   4.474793   3.283833   3.752362   4.717351
     9  C    2.964374   2.504621   3.833675   5.074675   5.106270
    10  O    3.024966   3.237216   4.602253   5.642420   5.423634
    11  H    4.010869   4.099316   5.474141   6.581457   6.404572
    12  C    2.451044   1.519123   2.472869   3.829581   4.044269
    13  O    3.695888   2.430191   2.814952   4.238333   4.745799
    14  C    4.177287   2.927109   2.496139   3.762649   4.476116
    15  O    5.470243   4.117060   3.737893   4.892713   5.703955
    16  C    6.527259   5.263824   4.890021   6.049291   6.835354
    17  C    7.120375   5.836551   5.819032   7.099807   7.823624
    18  O    6.423462   5.254568   5.572373   6.965135   7.545314
    19  H    5.646436   4.420529   4.833301   6.229591   6.797321
    20  C    8.443865   7.226847   7.186381   8.456328   9.171410
    21  O    9.334716   8.123528   8.273251   9.592346  10.275352
    22  H   10.162720   8.991153   9.114990  10.429217  11.105401
    23  C    7.938501   6.716282   5.794672   6.472778   7.410159
    24  O    7.248867   6.049241   4.975204   5.443392   6.422248
    25  H    7.981547   6.836401   5.661139   5.925280   6.907392
    26  C    7.755820   6.468060   5.862408   6.822422   7.704245
    27  O    8.849133   7.620041   7.066479   8.058418   8.902827
    28  C    9.282337   8.018093   7.715909   8.845386   9.654053
    29  O   10.473035   9.268503   8.948774  10.065218  10.854594
    30  H   11.209524   9.964340   9.681644  10.801101  11.610408
    31  H    9.655301   8.321458   8.033514   9.130602   9.978657
    32  H    8.348614   7.243934   7.206437   8.487689   9.141614
    33  H    7.410144   6.048951   6.061688   7.293826   8.057309
    34  H    6.366397   5.248442   4.842183   6.001209   6.712826
    35  H    8.110250   6.746013   6.240697   7.201633   8.106523
    36  H    8.950655   7.704489   6.776188   7.386790   8.345917
    37  H    8.004702   6.897338   5.894594   6.523106   7.411944
    38  H    0.960000   1.974996   2.972718   3.262631   2.753577
    39  H    3.975335   3.389589   4.555849   5.891868   6.015903
    40  H    3.183704   2.621787   4.049394   5.208791   5.258776
    41  H    2.606250   2.093522   2.662767   3.931649   4.072125
    42  H    2.067624   1.070000   2.142111   3.012297   3.184479
    43  H    2.460178   1.998541   1.070000   1.927255   2.278530
    44  H    4.086737   2.798883   2.097086   2.865392   3.732345
    45  H    4.436376   3.419778   2.875878   4.050002   4.688211
                    6          7          8          9         10
     6  C    0.000000
     7  O    1.435155   0.000000
     8  H    1.927015   1.000926   0.000000
     9  C    4.357985   5.722874   6.081528   0.000000
    10  O    5.436047   6.736424   7.214524   1.434442   0.000000
    11  H    6.164604   7.489452   7.880970   1.864806   0.999984
    12  C    2.908682   4.229079   4.629123   1.520544   2.601397
    13  O    2.432000   3.696927   3.799339   2.495413   3.822642
    14  C    1.520253   2.439133   2.446711   3.795857   4.997729
    15  O    2.434093   3.000098   2.508160   4.673208   6.010476
    16  C    3.647527   3.925798   3.284652   5.427870   6.700603
    17  C    4.699242   5.249587   4.646199   5.404933   6.706012
    18  O    4.772597   5.624574   5.247593   4.295831   5.521570
    19  H    4.100069   5.115203   4.835898   3.584828   4.916370
    20  C    6.072803   6.465676   5.793785   6.586089   7.784599
    21  O    7.216781   7.736702   7.074746   7.153108   8.316236
    22  H    8.064613   8.513083   7.832973   7.957114   9.053260
    23  C    4.346678   3.718989   2.755937   7.628443   8.877729
    24  O    3.528490   2.699125   1.728670   7.373014   8.608686
    25  H    4.286738   3.253725   2.409465   8.304859   9.518489
    26  C    4.447599   4.297348   3.410092   6.889251   8.182086
    27  O    5.728214   5.538612   4.681833   7.766848   8.995135
    28  C    6.426286   6.505287   5.681143   7.760386   9.004757
    29  O    7.697812   7.685827   6.865439   8.893538  10.058307
    30  H    8.392339   8.398460   7.540706   9.538060  10.734016
    31  H    6.673614   6.763505   5.885110   8.128430   9.442346
    32  H    6.217082   6.592469   6.005728   6.499290   7.575250
    33  H    4.869759   5.448412   4.793408   5.714170   7.088121
    34  H    3.787887   4.002508   3.509619   5.346130   6.481572
    35  H    4.782206   4.747537   3.832186   7.116809   8.481104
    36  H    5.303773   4.615424   3.634771   8.605549   9.885359
    37  H    4.572852   3.805819   2.976018   7.822654   8.974523
    38  H    4.336711   5.439271   6.216987   3.315924   3.254396
    39  H    4.808292   6.128977   6.340150   1.070000   2.017123
    40  H    4.531422   5.957805   6.297686   1.070000   2.017123
    41  H    3.189210   4.290213   4.736703   2.092726   2.750096
    42  H    2.881551   4.211581   4.765769   2.756968   3.592451
    43  H    2.013381   2.688677   3.484154   3.892005   4.504388
    44  H    1.070000   2.023088   2.272842   4.555018   5.728824
    45  H    2.160061   2.667591   2.707629   4.135067   5.165566
                   11         12         13         14         15
    11  H    0.000000
    12  C    3.268377   0.000000
    13  O    4.275260   1.435722   0.000000
    14  C    5.556406   2.430020   1.434214   0.000000
    15  O    6.417652   3.548990   2.192292   1.434465   0.000000
    16  C    6.988939   4.424148   3.098031   2.420182   1.435106
    17  C    6.784483   4.783939   3.438437   3.371975   2.334712
    18  O    5.486611   3.980915   2.854396   3.339200   2.814287
    19  H    4.967321   3.240788   2.065650   2.789801   2.398382
    20  C    7.754151   6.068446   4.813242   4.703327   3.727173
    21  O    8.125852   6.900789   5.698025   5.846677   4.852464
    22  H    8.823035   7.725074   6.565027   6.667685   5.711308
    23  C    9.328497   6.360087   5.147719   3.941699   3.065267
    24  O    9.170378   6.012581   4.922106   3.632869   2.992130
    25  H   10.112369   6.917802   5.879985   4.571889   3.984954
    26  C    8.493613   5.816456   4.478851   3.579706   2.428181
    27  O    9.213967   6.797263   5.501745   4.709160   3.674343
    28  C    9.073087   7.032578   5.700454   5.242712   4.101759
    29  O   10.072512   8.211677   6.946879   6.482493   5.446410
    30  H   10.704609   8.916842   7.613299   7.205920   6.073864
    31  H    9.503367   7.428068   6.032089   5.610292   4.310122
    32  H    7.535616   5.992829   4.882241   4.770092   4.061654
    33  H    7.158321   5.147787   3.751527   3.746651   2.503360
    34  H    6.789865   4.308883   3.191744   2.468990   2.090007
    35  H    8.746834   6.144981   4.736356   4.010375   2.647032
    36  H   10.309390   7.371063   6.116669   4.960555   3.968776
    37  H    9.453101   6.505655   5.416452   4.133717   3.550073
    38  H    4.186108   3.101453   4.305474   4.887807   6.087427
    39  H    1.956335   2.091700   2.567733   3.926029   4.582716
    40  H    2.311338   2.091700   2.819222   4.156296   4.870814
    41  H    3.445790   1.070000   2.019368   2.608418   3.875168
    42  H    4.349481   2.141794   2.744837   3.369671   4.293157
    43  H    5.382781   2.493550   2.964598   2.546201   3.938034
    44  H    6.406056   3.287951   2.682132   2.098466   2.522555
    45  H    5.725359   2.773063   2.080542   1.070000   2.080814
                   16         17         18         19         20
    16  C    0.000000
    17  C    1.520291   0.000000
    18  O    2.422010   1.434571   0.000000
    19  H    2.561842   1.915364   1.000154   0.000000
    20  C    2.540215   1.519922   2.334550   3.173566   0.000000
    21  O    3.852244   2.523269   2.925557   3.768627   1.434437
    22  H    4.589492   3.395679   3.770338   4.674996   2.051040
    23  C    2.655619   3.854667   5.040918   5.097065   4.387582
    24  O    3.252417   4.530791   5.541111   5.335345   5.406069
    25  H    4.204731   5.454922   6.518757   6.325563   6.232074
    26  C    1.519732   2.410132   3.701067   3.913414   2.891738
    27  O    2.407839   2.840637   4.115971   4.629029   2.510928
    28  C    2.827583   2.429957   3.653833   4.332904   1.519625
    29  O    4.089355   3.715246   4.742834   5.546776   2.439650
    30  H    4.792316   4.252608   5.295459   6.084414   2.966163
    31  H    3.272187   2.736776   4.045188   4.595109   2.121273
    32  H    2.785777   2.109527   2.492284   3.427345   1.070000
    33  H    2.133117   1.070000   2.057737   2.204454   2.132655
    34  H    1.070000   2.162795   2.658088   2.927008   2.830772
    35  H    2.074692   2.437319   3.817527   3.950671   2.989304
    36  H    3.500091   4.470094   5.778636   5.890341   4.797363
    37  H    2.978546   4.301560   5.369286   5.506283   4.681549
    38  H    7.229443   7.739234   7.019110   6.178653   9.107913
    39  H    5.099076   4.840583   3.578788   3.014564   5.880671
    40  H    5.784968   5.665473   4.626290   3.788928   6.935380
    41  H    4.513936   5.021617   4.225766   3.688367   6.156482
    42  H    5.569119   5.998451   5.451881   4.518528   7.458913
    43  H    4.845590   5.852317   5.550146   4.947292   7.094022
    44  H    3.913442   4.771781   4.908569   4.129690   6.228207
    45  H    2.475698   3.585725   3.534405   3.238167   4.680730
                   21         22         23         24         25
    21  O    0.000000
    22  H    0.999618   0.000000
    23  C    5.669577   6.226291   0.000000
    24  O    6.658171   7.333999   1.435230   0.000000
    25  H    7.464034   8.093959   1.969400   0.999493   0.000000
    26  C    4.166808   4.772993   1.520066   2.583572   3.350065
    27  O    3.729127   4.057816   2.401393   3.760062   4.353730
    28  C    2.413231   2.703488   3.631246   4.866192   5.524920
    29  O    2.902321   2.661849   4.606622   5.967321   6.517267
    30  H    3.033022   2.669907   5.199127   6.533128   7.031415
    31  H    2.603659   2.987007   3.791005   4.912700   5.507105
    32  H    2.034375   2.320129   4.717960   5.774067   6.610004
    33  H    2.730960   3.685687   4.009100   4.539153   5.416476
    34  H    4.206235   4.809725   3.049682   3.702232   4.616744
    35  H    4.008130   4.692705   2.075214   2.867580   3.563484
    36  H    5.956256   6.435732   1.070000   2.022286   2.110790
    37  H    6.047580   6.506268   1.070000   2.022286   2.400268
    38  H    9.926683  10.786414   8.624971   7.859547   8.567316
    39  H    6.328317   7.090044   7.515009   7.455105   8.427173
    40  H    7.405829   8.270067   7.907788   7.549478   8.460257
    41  H    7.083613   7.822381   6.399530   6.150320   7.038512
    42  H    8.250526   9.171097   6.984190   6.235256   7.001616
    43  H    8.243276   9.013957   5.817436   5.166547   5.864770
    44  H    7.257713   8.164929   4.540101   3.601778   4.320912
    45  H    5.926209   6.639148   3.938649   3.841324   4.742962
                   26         27         28         29         30
    26  C    0.000000
    27  O    1.435238   0.000000
    28  C    2.320556   1.435289   0.000000
    29  O    3.526178   2.238162   1.435112   0.000000
    30  H    4.138885   2.947186   1.974745   0.960000   0.000000
    31  H    2.564980   2.048338   1.070000   2.048769   2.118790
    32  H    3.330257   2.783414   2.111376   2.604039   3.314995
    33  H    2.643077   3.262680   2.743942   4.110126   4.453465
    34  H    2.165128   2.652749   3.211078   4.222584   5.054799
    35  H    1.070000   2.010277   2.382525   3.700314   4.094717
    36  H    2.095867   2.594791   3.753966   4.572937   5.018032
    37  H    2.095867   2.552798   3.947512   4.704898   5.412442
    38  H    8.439527   9.584665   9.967679  11.201110  11.900812
    39  H    6.595785   7.327362   7.165491   8.227296   8.845138
    40  H    7.174781   8.149645   8.083813   9.295393   9.869733
    41  H    5.912612   6.764509   7.097431   8.163947   8.942078
    42  H    6.706299   7.936257   8.245035   9.565458  10.187631
    43  H    5.875306   6.938435   7.643801   8.772922   9.571300
    44  H    4.598995   5.976395   6.560132   7.913859   8.516570
    45  H    3.629851   4.536471   5.191270   6.278255   7.091349
                   31         32         33         34         35
    31  H    0.000000
    32  H    2.986497   0.000000
    33  H    2.619313   2.993328   0.000000
    34  H    3.911746   2.655112   3.032566   0.000000
    35  H    2.160483   3.716707   2.216589   2.985705   0.000000
    36  H    3.719762   5.229223   4.480894   3.969790   2.299769
    37  H    4.343763   4.778814   4.680188   2.991123   2.937220
    38  H   10.272082   9.078072   7.930451   7.159577   8.706270
    39  H    7.563155   5.756970   5.210534   5.003085   6.811642
    40  H    8.319897   7.001019   5.778289   5.887363   7.254294
    41  H    7.629754   5.903542   5.572632   4.144187   6.410707
    42  H    8.418449   7.615122   6.025424   5.745178   6.818785
    43  H    8.096180   6.958587   6.274489   4.564276   6.416828
    44  H    6.639622   6.540318   4.704579   4.313241   4.692833
    45  H    5.741306   4.522851   4.207491   2.061622   4.305346
                   36         37         38         39         40
    36  H    0.000000
    37  H    1.722956   0.000000
    38  H    9.607380   8.765601   0.000000
    39  H    8.461425   7.711761   4.381647   0.000000
    40  H    8.833942   8.229409   3.261214   1.720494   0.000000
    41  H    7.450395   6.367930   3.445779   2.490676   2.946882
    42  H    7.905283   7.314240   2.130300   3.636361   2.435033
    43  H    6.849095   5.731730   3.307505   4.529746   4.370032
    44  H    5.384012   4.988036   4.493072   5.015878   4.479830
    45  H    5.003067   3.852838   5.270073   4.187588   4.717173
                   41         42         43         44         45
    41  H    0.000000
    42  H    2.990726   0.000000
    43  H    2.228349   2.917908   0.000000
    44  H    3.846878   2.711157   2.897026   0.000000
    45  H    2.515163   4.094535   2.503654   3.000630   0.000000
 Stoichiometry    C12H22O11
 Framework group  C1[X(C12H22O11)]
 Deg. of freedom   129
 Full point group                 C1      NOp   1
 Largest Abelian subgroup         C1      NOp   1
 Largest concise Abelian subgroup C1      NOp   1
                         Standard orientation:                         
 ---------------------------------------------------------------------
 Center     Atomic      Atomic             Coordinates (Angstroms)
 Number     Number       Type             X           Y           Z
 ---------------------------------------------------------------------
      1          8           0       -4.998846   -0.336256    0.346177
      2          6           0       -3.727817   -0.168782   -0.299419
      3          6           0       -3.269129    1.221038    0.113508
      4          8           0       -4.128425    2.369456    0.144202
      5          1           0       -5.042650    2.103876    0.448572
      6          6           0       -1.840431    1.551692   -0.286685
      7          8           0       -1.379380    2.829709    0.175673
      8          1           0       -0.410393    2.825908   -0.075130
      9          6           0       -3.152507   -2.601823   -0.149559
     10          8           0       -4.240132   -3.259642    0.515250
     11          1           0       -3.941025   -4.204922    0.385058
     12          6           0       -2.705888   -1.185945    0.178885
     13          8           0       -1.391803   -0.838569   -0.283510
     14          6           0       -0.899008    0.438552    0.144374
     15          8           0        0.325531    0.486564   -0.601205
     16          6           0        1.505970    0.167757    0.150098
     17          6           0        2.029752   -1.105639   -0.494419
     18          8           0        1.122310   -2.189776   -0.251124
     19          1           0        0.310488   -1.906378   -0.761945
     20          6           0        3.349191   -1.579230    0.092911
     21          8           0        3.989198   -2.694710   -0.542465
     22          1           0        4.792493   -3.029418   -0.050607
     23          6           0        2.336299    2.689820    0.104727
     24          8           0        1.192254    3.346944   -0.460282
     25          1           0        1.426853    4.315719   -0.533942
     26          6           0        2.589504    1.204519   -0.096200
     27          8           0        3.767465    0.836230    0.636383
     28          6           0        4.279189   -0.377700    0.066676
     29          8           0        5.458380   -0.614533    0.849596
     30          1           0        6.201454   -0.783730    0.265805
     31          1           0        4.568462   -0.188583   -0.945972
     32          1           0        3.176848   -1.841194    1.115932
     33          1           0        2.138019   -0.957144   -1.548519
     34          1           0        1.300184    0.035506    1.191761
     35          1           0        2.845242    1.101497   -1.130069
     36          1           0        3.199854    3.202466   -0.264554
     37          1           0        2.296570    2.855628    1.161055
     38          1           0       -5.680715   -0.462835   -0.317624
     39          1           0       -2.294704   -3.227477   -0.016782
     40          1           0       -3.387480   -2.609831   -1.193409
     41          1           0       -2.680504   -1.115771    1.246280
     42          1           0       -3.839622   -0.223102   -1.362174
     43          1           0       -3.147168    1.061630    1.164515
     44          1           0       -1.817386    1.582692   -1.355988
     45          1           0       -0.717969    0.456567    1.198793
 ---------------------------------------------------------------------
 Rotational constants (GHZ):      0.3981590      0.1455050      0.1096877
 Standard basis: 6-31+G(d,p) (6D, 7F)
 There are   547 symmetry adapted basis functions of A   symmetry.
 Integral buffers will be    131072 words long.
 Raffenetti 2 integral format.
 Two-electron integral symmetry is turned on.
   547 basis functions,   890 primitive gaussians,   547 cartesian basis functions
    91 alpha electrons       91 beta electrons
       nuclear repulsion energy      2281.1731366268 Hartrees.
 NAtoms=   45 NActive=   45 NUniq=   45 SFac= 1.00D+00 NAtFMM=   50 NAOKFM=F Big=F
 One-electron integrals computed using PRISM.
 NBasis=   547 RedAO= T  NBF=   547
 NBsUse=   547 1.00D-06 NBFU=   547
 Harris functional with IExCor=  402 diagonalized for initial guess.
 ExpMin= 4.38D-02 ExpMax= 5.48D+03 ExpMxC= 8.25D+02 IAcc=2 IRadAn=         0 AccDes= 0.00D+00
 HarFok:  IExCor=  402 AccDes= 0.00D+00 IRadAn=         0 IDoV= 1
 ScaDFX=  1.000000  1.000000  1.000000  1.000000
 FoFCou: FMM=F IPFlag=           0 FMFlag=      100000 FMFlg1=           0
         NFxFlg=           0 DoJE=T BraDBF=F KetDBF=T FulRan=T
         Omega=  0.000000  0.000000  1.000000  0.000000  0.000000 ICntrl=     500 IOpCl=  0
         NMat0=    1 NMatS0=    1 NMatT0=    0 NMatD0=    1 NMtDS0=    0 NMtDT0=    0
         I1Cent=           4 NGrid=           0.
 Petite list used in FoFCou.
 Initial guess orbital symmetries:
       Occupied  (A) (A) (A) (A) (A) (A) (A) (A) (A) (A) (A) (A)
                 (A) (A) (A) (A) (A) (A) (A) (A) (A) (A) (A) (A)
                 (A) (A) (A) (A) (A) (A) (A) (A) (A) (A) (A) (A)
                 (A) (A) (A) (A) (A) (A) (A) (A) (A) (A) (A) (A)
                 (A) (A) (A) (A) (A) (A) (A) (A) (A) (A) (A) (A)
                 (A) (A) (A) (A) (A) (A) (A) (A) (A) (A) (A) (A)
                 (A) (A) (A) (A) (A) (A) (A) (A) (A) (A) (A) (A)
                 (A) (A) (A) (A) (A) (A) (A)
       Virtual   (A) (A) (A) (A) (A) (A) (A) (A) (A) (A) (A) (A)
                 (A) (A) (A) (A) (A) (A) (A) (A) (A) (A) (A) (A)
                 (A) (A) (A) (A) (A) (A) (A) (A) (A) (A) (A) (A)
                 (A) (A) (A) (A) (A) (A) (A) (A) (A) (A) (A) (A)
                 (A) (A) (A) (A) (A) (A) (A) (A) (A) (A) (A) (A)
                 (A) (A) (A) (A) (A) (A) (A) (A) (A) (A) (A) (A)
                 (A) (A) (A) (A) (A) (A) (A) (A) (A) (A) (A) (A)
                 (A) (A) (A) (A) (A) (A) (A) (A) (A) (A) (A) (A)
                 (A) (A) (A) (A) (A) (A) (A) (A) (A) (A) (A) (A)
                 (A) (A) (A) (A) (A) (A) (A) (A) (A) (A) (A) (A)
                 (A) (A) (A) (A) (A) (A) (A) (A) (A) (A) (A) (A)
                 (A) (A) (A) (A) (A) (A) (A) (A) (A) (A) (A) (A)
                 (A) (A) (A) (A) (A) (A) (A) (A) (A) (A) (A) (A)
                 (A) (A) (A) (A) (A) (A) (A) (A) (A) (A) (A) (A)
                 (A) (A) (A) (A) (A) (A) (A) (A) (A) (A) (A) (A)
                 (A) (A) (A) (A) (A) (A) (A) (A) (A) (A) (A) (A)
                 (A) (A) (A) (A) (A) (A) (A) (A) (A) (A) (A) (A)
                 (A) (A) (A) (A) (A) (A) (A) (A) (A) (A) (A) (A)
                 (A) (A) (A) (A) (A) (A) (A) (A) (A) (A) (A) (A)
                 (A) (A) (A) (A) (A) (A) (A) (A) (A) (A) (A) (A)
                 (A) (A) (A) (A) (A) (A) (A) (A) (A) (A) (A) (A)
                 (A) (A) (A) (A) (A) (A) (A) (A) (A) (A) (A) (A)
                 (A) (A) (A) (A) (A) (A) (A) (A) (A) (A) (A) (A)
                 (A) (A) (A) (A) (A) (A) (A) (A) (A) (A) (A) (A)
                 (A) (A) (A) (A) (A) (A) (A) (A) (A) (A) (A) (A)
                 (A) (A) (A) (A) (A) (A) (A) (A) (A) (A) (A) (A)
                 (A) (A) (A) (A) (A) (A) (A) (A) (A) (A) (A) (A)
                 (A) (A) (A) (A) (A) (A) (A) (A) (A) (A) (A) (A)
                 (A) (A) (A) (A) (A) (A) (A) (A) (A) (A) (A) (A)
                 (A) (A) (A) (A) (A) (A) (A) (A) (A) (A) (A) (A)
                 (A) (A) (A) (A) (A) (A) (A) (A) (A) (A) (A) (A)
                 (A) (A) (A) (A) (A) (A) (A) (A) (A) (A) (A) (A)
                 (A) (A) (A) (A) (A) (A) (A) (A) (A) (A) (A) (A)
                 (A) (A) (A) (A) (A) (A) (A) (A) (A) (A) (A) (A)
                 (A) (A) (A) (A) (A) (A) (A) (A) (A) (A) (A) (A)
                 (A) (A) (A) (A) (A) (A) (A) (A) (A) (A) (A) (A)
                 (A) (A) (A) (A) (A) (A) (A) (A) (A) (A) (A) (A)
                 (A) (A) (A) (A) (A) (A) (A) (A) (A) (A) (A) (A)
 The electronic state of the initial guess is 1-A.
 Requested convergence on RMS density matrix=1.00D-08 within 128 cycles.
 Requested convergence on MAX density matrix=1.00D-06.
 Requested convergence on             energy=1.00D-06.
 No special actions if energy rises.
 SCF Done:  E(RB3LYP) =  -1297.91201451     A.U. after   13 cycles
             Convg  =    0.6534D-08             -V/T =  2.0086
 Range of M.O.s used for correlation:     1   547
 NBasis=   547 NAE=    91 NBE=    91 NFC=     0 NFV=     0
 NROrb=    547 NOA=    91 NOB=    91 NVA=   456 NVB=   456

 **** Warning!!: The largest alpha MO coefficient is  0.75717771D+02

          Differentiating once with respect to electric field.
                with respect to dipole field.
          Electric field/nuclear overlap derivatives assumed to be zero.
          There are     3 degrees of freedom in the 1st order CPHF.  IDoFFX=0.
      3 vectors produced by pass  0 Test12= 1.38D-12 3.33D-08 XBig12= 1.19D+02 1.18D+00.
 AX will form     3 AO Fock derivatives at one time.
      3 vectors produced by pass  1 Test12= 1.38D-12 3.33D-08 XBig12= 2.33D+01 3.80D-01.
      3 vectors produced by pass  2 Test12= 1.38D-12 3.33D-08 XBig12= 1.00D+01 2.00D-01.
      3 vectors produced by pass  3 Test12= 1.38D-12 3.33D-08 XBig12= 1.00D+00 9.39D-02.
      3 vectors produced by pass  4 Test12= 1.38D-12 3.33D-08 XBig12= 3.24D-01 3.89D-02.
      3 vectors produced by pass  5 Test12= 1.38D-12 3.33D-08 XBig12= 5.24D-02 1.63D-02.
      3 vectors produced by pass  6 Test12= 1.38D-12 3.33D-08 XBig12= 1.86D-02 1.21D-02.
      3 vectors produced by pass  7 Test12= 1.38D-12 3.33D-08 XBig12= 2.23D-03 5.15D-03.
      3 vectors produced by pass  8 Test12= 1.38D-12 3.33D-08 XBig12= 4.54D-04 2.24D-03.
      3 vectors produced by pass  9 Test12= 1.38D-12 3.33D-08 XBig12= 1.31D-04 9.88D-04.
      3 vectors produced by pass 10 Test12= 1.38D-12 3.33D-08 XBig12= 2.38D-05 3.77D-04.
      3 vectors produced by pass 11 Test12= 1.38D-12 3.33D-08 XBig12= 4.87D-06 2.38D-04.
      3 vectors produced by pass 12 Test12= 1.38D-12 3.33D-08 XBig12= 8.55D-07 8.58D-05.
      3 vectors produced by pass 13 Test12= 1.38D-12 3.33D-08 XBig12= 2.46D-07 3.82D-05.
      3 vectors produced by pass 14 Test12= 1.38D-12 3.33D-08 XBig12= 3.18D-08 1.34D-05.
      3 vectors produced by pass 15 Test12= 1.38D-12 3.33D-08 XBig12= 7.42D-09 1.02D-05.
      3 vectors produced by pass 16 Test12= 1.38D-12 3.33D-08 XBig12= 8.70D-10 2.43D-06.
      3 vectors produced by pass 17 Test12= 1.38D-12 3.33D-08 XBig12= 6.64D-11 9.12D-07.
      3 vectors produced by pass 18 Test12= 1.38D-12 3.33D-08 XBig12= 2.00D-11 3.28D-07.
      3 vectors produced by pass 19 Test12= 1.38D-12 3.33D-08 XBig12= 7.27D-12 2.24D-07.
      3 vectors produced by pass 20 Test12= 1.38D-12 3.33D-08 XBig12= 6.10D-12 2.49D-07.
      2 vectors produced by pass 21 Test12= 1.38D-12 3.33D-08 XBig12= 1.30D-12 7.36D-08.
      1 vectors produced by pass 22 Test12= 1.38D-12 3.33D-08 XBig12= 5.62D-13 5.52D-08.
 Inverted reduced A of dimension    66 with in-core refinement.
 End of Minotr Frequency-dependent properties file   721 does not exist.
 End of Minotr Frequency-dependent properties file   722 does not exist.
 Symmetrizing basis deriv contribution to polar:
 IMax=3 JMax=2 DiffMx= 0.00D+00
 G2DrvN: will do    23 centers at a time, making    2 passes doing MaxLOS=2.
 Calling FoFCou, ICntrl=  3107 FMM=F I1Cent=   0 AccDes= 0.00D+00.
 Calling FoFCou, ICntrl=  3107 FMM=F I1Cent=   0 AccDes= 0.00D+00.
 FoFDir/FoFCou used for L=0 through L=2.
 End of G2Drv Frequency-dependent properties file   721 does not exist.
 End of G2Drv Frequency-dependent properties file   722 does not exist.
          IDoAtm=111111111111111111111111111111111111111111111
          Differentiating once with respect to electric field.
                with respect to dipole field.
          Differentiating once with respect to nuclear coordinates.
          There are   138 degrees of freedom in the 1st order CPHF.  IDoFFX=5.
 Will reuse    3 saved solutions.
    135 vectors produced by pass  0 Test12= 4.15D-14 1.00D-09 XBig12= 1.98D-01 9.52D-02.
 AX will form    68 AO Fock derivatives at one time.
    135 vectors produced by pass  1 Test12= 4.15D-14 1.00D-09 XBig12= 3.83D-02 1.49D-02.
    132 vectors produced by pass  2 Test12= 4.15D-14 1.00D-09 XBig12= 2.77D-04 2.03D-03.
    132 vectors produced by pass  3 Test12= 4.15D-14 1.00D-09 XBig12= 8.60D-07 8.03D-05.
    132 vectors produced by pass  4 Test12= 4.15D-14 1.00D-09 XBig12= 1.37D-09 2.83D-06.
    132 vectors produced by pass  5 Test12= 4.15D-14 1.00D-09 XBig12= 3.13D-12 1.26D-07.
     79 vectors produced by pass  6 Test12= 4.15D-14 1.00D-09 XBig12= 1.48D-13 2.44D-08.
 Inverted reduced A of dimension   877 with in-core refinement.
 Isotropic polarizability for W=    0.000000      187.89 Bohr**3.
 End of Minotr Frequency-dependent properties file   721 does not exist.
 End of Minotr Frequency-dependent properties file   722 does not exist.

 **********************************************************************

            Population analysis using the SCF density.

 **********************************************************************

 Orbital symmetries:
       Occupied  (A) (A) (A) (A) (A) (A) (A) (A) (A) (A) (A) (A)
                 (A) (A) (A) (A) (A) (A) (A) (A) (A) (A) (A) (A)
                 (A) (A) (A) (A) (A) (A) (A) (A) (A) (A) (A) (A)
                 (A) (A) (A) (A) (A) (A) (A) (A) (A) (A) (A) (A)
                 (A) (A) (A) (A) (A) (A) (A) (A) (A) (A) (A) (A)
                 (A) (A) (A) (A) (A) (A) (A) (A) (A) (A) (A) (A)
                 (A) (A) (A) (A) (A) (A) (A) (A) (A) (A) (A) (A)
                 (A) (A) (A) (A) (A) (A) (A)
       Virtual   (A) (A) (A) (A) (A) (A) (A) (A) (A) (A) (A) (A)
                 (A) (A) (A) (A) (A) (A) (A) (A) (A) (A) (A) (A)
                 (A) (A) (A) (A) (A) (A) (A) (A) (A) (A) (A) (A)
                 (A) (A) (A) (A) (A) (A) (A) (A) (A) (A) (A) (A)
                 (A) (A) (A) (A) (A) (A) (A) (A) (A) (A) (A) (A)
                 (A) (A) (A) (A) (A) (A) (A) (A) (A) (A) (A) (A)
                 (A) (A) (A) (A) (A) (A) (A) (A) (A) (A) (A) (A)
                 (A) (A) (A) (A) (A) (A) (A) (A) (A) (A) (A) (A)
                 (A) (A) (A) (A) (A) (A) (A) (A) (A) (A) (A) (A)
                 (A) (A) (A) (A) (A) (A) (A) (A) (A) (A) (A) (A)
                 (A) (A) (A) (A) (A) (A) (A) (A) (A) (A) (A) (A)
                 (A) (A) (A) (A) (A) (A) (A) (A) (A) (A) (A) (A)
                 (A) (A) (A) (A) (A) (A) (A) (A) (A) (A) (A) (A)
                 (A) (A) (A) (A) (A) (A) (A) (A) (A) (A) (A) (A)
                 (A) (A) (A) (A) (A) (A) (A) (A) (A) (A) (A) (A)
                 (A) (A) (A) (A) (A) (A) (A) (A) (A) (A) (A) (A)
                 (A) (A) (A) (A) (A) (A) (A) (A) (A) (A) (A) (A)
                 (A) (A) (A) (A) (A) (A) (A) (A) (A) (A) (A) (A)
                 (A) (A) (A) (A) (A) (A) (A) (A) (A) (A) (A) (A)
                 (A) (A) (A) (A) (A) (A) (A) (A) (A) (A) (A) (A)
                 (A) (A) (A) (A) (A) (A) (A) (A) (A) (A) (A) (A)
                 (A) (A) (A) (A) (A) (A) (A) (A) (A) (A) (A) (A)
                 (A) (A) (A) (A) (A) (A) (A) (A) (A) (A) (A) (A)
                 (A) (A) (A) (A) (A) (A) (A) (A) (A) (A) (A) (A)
                 (A) (A) (A) (A) (A) (A) (A) (A) (A) (A) (A) (A)
                 (A) (A) (A) (A) (A) (A) (A) (A) (A) (A) (A) (A)
                 (A) (A) (A) (A) (A) (A) (A) (A) (A) (A) (A) (A)
                 (A) (A) (A) (A) (A) (A) (A) (A) (A) (A) (A) (A)
                 (A) (A) (A) (A) (A) (A) (A) (A) (A) (A) (A) (A)
                 (A) (A) (A) (A) (A) (A) (A) (A) (A) (A) (A) (A)
                 (A) (A) (A) (A) (A) (A) (A) (A) (A) (A) (A) (A)
                 (A) (A) (A) (A) (A) (A) (A) (A) (A) (A) (A) (A)
                 (A) (A) (A) (A) (A) (A) (A) (A) (A) (A) (A) (A)
                 (A) (A) (A) (A) (A) (A) (A) (A) (A) (A) (A) (A)
                 (A) (A) (A) (A) (A) (A) (A) (A) (A) (A) (A) (A)
                 (A) (A) (A) (A) (A) (A) (A) (A) (A) (A) (A) (A)
                 (A) (A) (A) (A) (A) (A) (A) (A) (A) (A) (A) (A)
                 (A) (A) (A) (A) (A) (A) (A) (A) (A) (A) (A) (A)
 The electronic state is 1-A.
 Alpha  occ. eigenvalues --  -19.19849 -19.19286 -19.19210 -19.19023 -19.18279
 Alpha  occ. eigenvalues --  -19.17723 -19.17623 -19.17591 -19.15661 -19.15393
 Alpha  occ. eigenvalues --  -19.13990 -10.31195 -10.30740 -10.26566 -10.26361
 Alpha  occ. eigenvalues --  -10.26028 -10.25907 -10.25651 -10.25455 -10.25129
 Alpha  occ. eigenvalues --  -10.24757 -10.24166 -10.23862  -1.10339  -1.09331
 Alpha  occ. eigenvalues --   -1.05698  -1.05338  -1.04057  -1.03796  -1.03533
 Alpha  occ. eigenvalues --   -1.02668  -1.01645  -1.01283  -0.99817  -0.82546
 Alpha  occ. eigenvalues --   -0.80586  -0.79547  -0.78394  -0.72546  -0.70041
 Alpha  occ. eigenvalues --   -0.66965  -0.65023  -0.63328  -0.62466  -0.62071
 Alpha  occ. eigenvalues --   -0.60233  -0.56495  -0.55924  -0.55181  -0.54722
 Alpha  occ. eigenvalues --   -0.54042  -0.53277  -0.53173  -0.52527  -0.51034
 Alpha  occ. eigenvalues --   -0.50770  -0.49942  -0.49289  -0.48695  -0.46671
 Alpha  occ. eigenvalues --   -0.46453  -0.45324  -0.44383  -0.43836  -0.43353
 Alpha  occ. eigenvalues --   -0.42780  -0.41643  -0.41212  -0.40351  -0.39348
 Alpha  occ. eigenvalues --   -0.38401  -0.38020  -0.37540  -0.36596  -0.36306
 Alpha  occ. eigenvalues --   -0.35839  -0.35220  -0.34466  -0.34192  -0.33634
 Alpha  occ. eigenvalues --   -0.32615  -0.31547  -0.30855  -0.30685  -0.29967
 Alpha  occ. eigenvalues --   -0.29204  -0.28937  -0.28490  -0.26995  -0.26894
 Alpha  occ. eigenvalues --   -0.25829
 Alpha virt. eigenvalues --   -0.02237  -0.01976  -0.01941  -0.00380   0.00021
 Alpha virt. eigenvalues --    0.00633   0.01631   0.01972   0.02919   0.03504
 Alpha virt. eigenvalues --    0.03640   0.04198   0.04926   0.05001   0.05346
 Alpha virt. eigenvalues --    0.06168   0.06426   0.07280   0.07482   0.07909
 Alpha virt. eigenvalues --    0.08520   0.08853   0.09171   0.09479   0.10182
 Alpha virt. eigenvalues --    0.10795   0.10919   0.11297   0.11585   0.11678
 Alpha virt. eigenvalues --    0.12532   0.12918   0.13083   0.13427   0.13598
 Alpha virt. eigenvalues --    0.13754   0.13895   0.14477   0.14633   0.15221
 Alpha virt. eigenvalues --    0.15718   0.16305   0.16515   0.16942   0.17282
 Alpha virt. eigenvalues --    0.17401   0.17601   0.17659   0.18105   0.18660
 Alpha virt. eigenvalues --    0.18866   0.19065   0.19510   0.19785   0.19932
 Alpha virt. eigenvalues --    0.20713   0.20812   0.21087   0.21437   0.21988
 Alpha virt. eigenvalues --    0.22424   0.22476   0.22760   0.23080   0.23450
 Alpha virt. eigenvalues --    0.23656   0.23777   0.24347   0.24628   0.24813
 Alpha virt. eigenvalues --    0.25061   0.25123   0.25499   0.25706   0.25813
 Alpha virt. eigenvalues --    0.26054   0.26439   0.26703   0.27041   0.27228
 Alpha virt. eigenvalues --    0.27690   0.27786   0.28335   0.28639   0.28914
 Alpha virt. eigenvalues --    0.29180   0.29470   0.29975   0.30242   0.30901
 Alpha virt. eigenvalues --    0.31118   0.31570   0.32010   0.32216   0.32263
 Alpha virt. eigenvalues --    0.32797   0.33026   0.33124   0.33660   0.34001
 Alpha virt. eigenvalues --    0.34264   0.34685   0.34978   0.35521   0.35818
 Alpha virt. eigenvalues --    0.36518   0.36535   0.36702   0.37550   0.37782
 Alpha virt. eigenvalues --    0.37980   0.38408   0.38598   0.39172   0.39927
 Alpha virt. eigenvalues --    0.40250   0.40307   0.41020   0.41258   0.41595
 Alpha virt. eigenvalues --    0.42109   0.42351   0.42966   0.43739   0.43903
 Alpha virt. eigenvalues --    0.44966   0.45140   0.45954   0.45983   0.46473
 Alpha virt. eigenvalues --    0.47701   0.48577   0.49079   0.49246   0.49855
 Alpha virt. eigenvalues --    0.50478   0.52331   0.54783   0.62995   0.63478
 Alpha virt. eigenvalues --    0.64906   0.66697   0.67422   0.69402   0.70489
 Alpha virt. eigenvalues --    0.71354   0.71933   0.72830   0.74326   0.74640
 Alpha virt. eigenvalues --    0.74950   0.76169   0.76778   0.77639   0.77749
 Alpha virt. eigenvalues --    0.79167   0.80458   0.80823   0.82026   0.83508
 Alpha virt. eigenvalues --    0.84909   0.86322   0.87409   0.88070   0.89364
 Alpha virt. eigenvalues --    0.91125   0.92203   0.92830   0.93574   0.95186
 Alpha virt. eigenvalues --    0.96393   0.96953   0.97155   0.98552   0.99667
 Alpha virt. eigenvalues --    1.01478   1.01657   1.03123   1.03287   1.03511
 Alpha virt. eigenvalues --    1.04760   1.05375   1.06494   1.07003   1.07028
 Alpha virt. eigenvalues --    1.07529   1.07987   1.08928   1.09249   1.09843
 Alpha virt. eigenvalues --    1.10475   1.11607   1.13071   1.13460   1.14607
 Alpha virt. eigenvalues --    1.15201   1.17975   1.19684   1.20067   1.21736
 Alpha virt. eigenvalues --    1.22220   1.22617   1.23595   1.24787   1.25336
 Alpha virt. eigenvalues --    1.26004   1.26228   1.27037   1.28020   1.28782
 Alpha virt. eigenvalues --    1.29090   1.29483   1.29849   1.30845   1.31265
 Alpha virt. eigenvalues --    1.31747   1.32590   1.33294   1.34711   1.35159
 Alpha virt. eigenvalues --    1.36121   1.36605   1.36839   1.37493   1.37864
 Alpha virt. eigenvalues --    1.39127   1.39985   1.40998   1.42299   1.42564
 Alpha virt. eigenvalues --    1.43526   1.45368   1.45643   1.46093   1.47969
 Alpha virt. eigenvalues --    1.48670   1.49273   1.50211   1.51069   1.52160
 Alpha virt. eigenvalues --    1.53239   1.55204   1.55716   1.56163   1.57110
 Alpha virt. eigenvalues --    1.57620   1.58445   1.58898   1.60097   1.60747
 Alpha virt. eigenvalues --    1.61466   1.62680   1.63639   1.64584   1.65482
 Alpha virt. eigenvalues --    1.66591   1.67301   1.68412   1.69427   1.70257
 Alpha virt. eigenvalues --    1.70750   1.71546   1.72276   1.73154   1.74270
 Alpha virt. eigenvalues --    1.74526   1.74987   1.75729   1.76643   1.76781
 Alpha virt. eigenvalues --    1.77375   1.78083   1.80312   1.80872   1.81350
 Alpha virt. eigenvalues --    1.82408   1.83597   1.83937   1.86017   1.86310
 Alpha virt. eigenvalues --    1.86674   1.88403   1.89292   1.90054   1.90555
 Alpha virt. eigenvalues --    1.91547   1.92223   1.93543   1.94402   1.95485
 Alpha virt. eigenvalues --    1.96361   1.96848   1.97263   1.98052   1.98813
 Alpha virt. eigenvalues --    1.98885   1.99271   2.00473   2.01649   2.03371
 Alpha virt. eigenvalues --    2.03614   2.04664   2.05050   2.06582   2.07333
 Alpha virt. eigenvalues --    2.08036   2.09266   2.09442   2.10081   2.11001
 Alpha virt. eigenvalues --    2.12739   2.13746   2.14716   2.15884   2.16933
 Alpha virt. eigenvalues --    2.17929   2.18258   2.18859   2.20592   2.21091
 Alpha virt. eigenvalues --    2.23225   2.24218   2.25135   2.26242   2.29103
 Alpha virt. eigenvalues --    2.29998   2.31042   2.31469   2.33007   2.35278
 Alpha virt. eigenvalues --    2.35530   2.37216   2.37750   2.39536   2.39714
 Alpha virt. eigenvalues --    2.40334   2.41416   2.42837   2.43358   2.43918
 Alpha virt. eigenvalues --    2.45381   2.46493   2.47669   2.47890   2.48930
 Alpha virt. eigenvalues --    2.50530   2.52569   2.54030   2.55097   2.55938
 Alpha virt. eigenvalues --    2.57027   2.57555   2.58922   2.59669   2.60733
 Alpha virt. eigenvalues --    2.61352   2.62403   2.63356   2.64070   2.64462
 Alpha virt. eigenvalues --    2.65286   2.65754   2.67271   2.68012   2.68299
 Alpha virt. eigenvalues --    2.70011   2.70929   2.72157   2.73740   2.74859
 Alpha virt. eigenvalues --    2.75533   2.76451   2.77416   2.78457   2.79702
 Alpha virt. eigenvalues --    2.80874   2.81790   2.83277   2.83655   2.84920
 Alpha virt. eigenvalues --    2.85767   2.86638   2.87568   2.88919   2.89437
 Alpha virt. eigenvalues --    2.89995   2.91249   2.91730   2.93263   2.94480
 Alpha virt. eigenvalues --    2.94925   2.96583   2.99553   3.00614   3.00691
 Alpha virt. eigenvalues --    3.01141   3.02726   3.03392   3.04650   3.05346
 Alpha virt. eigenvalues --    3.07709   3.09075   3.11727   3.12675   3.14032
 Alpha virt. eigenvalues --    3.15601   3.19789   3.22280   3.24727   3.29603
 Alpha virt. eigenvalues --    3.32773   3.36934   3.37370   3.38561   3.41510
 Alpha virt. eigenvalues --    3.43149   3.45385   3.46311   3.46680   3.47698
 Alpha virt. eigenvalues --    3.49323   3.50446   3.52622   3.53149   3.54184
 Alpha virt. eigenvalues --    3.56383   3.56977   3.58754   3.61446   3.63491
 Alpha virt. eigenvalues --    3.64705   3.67630   3.73248   4.28807   4.32888
 Alpha virt. eigenvalues --    4.33603   4.36983   4.39963   4.41705   4.44749
 Alpha virt. eigenvalues --    4.46362   4.50407   4.51033   4.53078   4.54539
 Alpha virt. eigenvalues --    4.57324   4.59313   4.62352   4.67492   4.71617
 Alpha virt. eigenvalues --    4.76127   4.80801   4.86322   4.87289   4.90710
 Alpha virt. eigenvalues --    4.91470
          Condensed to atoms (all electrons):
              1          2          3          4          5          6
     1  O    8.314961   0.186237  -0.090367  -0.009358   0.024383   0.067273
     2  C    0.186237   8.599444  -1.097222  -0.070347  -0.100806  -1.978380
     3  C   -0.090367  -1.097222   9.697120   0.311108   0.026346  -0.280245
     4  O   -0.009358  -0.070347   0.311108   8.254629   0.200760  -0.130965
     5  H    0.024383  -0.100806   0.026346   0.200760   0.419626   0.066913
     6  C    0.067273  -1.978380  -0.280245  -0.130965   0.066913  11.173980
     7  O   -0.001689   0.045852  -0.211965   0.015328  -0.001275   0.357907
     8  H    0.000025  -0.015837   0.041117  -0.001036   0.000007   0.013543
     9  C    0.014434  -0.254273  -0.118554   0.001917  -0.002401   0.262484
    10  O   -0.005090   0.009886  -0.004824   0.000021   0.000010  -0.000222
    11  H    0.000430  -0.010246   0.001765   0.000000   0.000000  -0.000055
    12  C   -0.184248  -1.051941  -0.850112   0.032236   0.001836   0.312998
    13  O    0.007615  -0.077417   0.051018  -0.002033  -0.000186  -0.117443
    14  C    0.025793   1.118704  -0.606520  -0.027394   0.008148  -3.161440
    15  O    0.000256  -0.053988   0.030433  -0.000287   0.000052   0.184120
    16  C    0.002764   0.178072  -0.578694   0.002625   0.001275  -0.345647
    17  C    0.000597  -0.033510   0.018846  -0.000015   0.000054   0.193988
    18  O    0.000006   0.009123   0.000014  -0.000018   0.000000  -0.005864
    19  H   -0.000008  -0.003384   0.001927  -0.000001   0.000000   0.010028
    20  C    0.000076  -0.000408  -0.011876  -0.000023   0.000003   0.042844
    21  O    0.000000  -0.000063  -0.000033   0.000000   0.000000  -0.000564
    22  H    0.000000   0.000001   0.000000   0.000000   0.000000  -0.000034
    23  C    0.000125   0.012756  -0.016075  -0.000076   0.000009  -0.331428
    24  O    0.000001   0.004968  -0.004737  -0.000351  -0.000004  -0.010813
    25  H    0.000000  -0.000082   0.001007  -0.000001   0.000000  -0.001134
    26  C   -0.000173   0.032881  -0.127537   0.000844  -0.000004  -0.235663
    27  O    0.000000  -0.000152   0.000288   0.000001   0.000000   0.005883
    28  C    0.000005  -0.001939  -0.003736   0.000022   0.000000   0.041137
    29  O    0.000000   0.000003   0.000070   0.000000   0.000000  -0.000449
    30  H    0.000000   0.000000   0.000001   0.000000   0.000000   0.000001
    31  H    0.000000  -0.000010   0.000017   0.000000   0.000000   0.000059
    32  H    0.000000   0.000056   0.000016   0.000000   0.000000  -0.000628
    33  H    0.000000   0.000771  -0.000093   0.000000   0.000000  -0.002754
    34  H   -0.000003  -0.000834   0.001503   0.000003   0.000000   0.004971
    35  H    0.000000  -0.000153   0.001013   0.000000   0.000000   0.006090
    36  H    0.000000   0.000017  -0.000009   0.000000   0.000000  -0.000099
    37  H    0.000000  -0.000057   0.000256   0.000002   0.000000   0.001804
    38  H    0.224741   0.116935  -0.073160   0.002520  -0.002180   0.003243
    39  H    0.000260  -0.024158  -0.011708   0.000026   0.000000   0.006485
    40  H    0.001601  -0.032420   0.001625   0.000010   0.000000   0.009587
    41  H    0.007355  -0.041694  -0.036540  -0.000529   0.000029  -0.004447
    42  H   -0.042836   0.340984  -0.016707  -0.000009   0.000079  -0.034757
    43  H   -0.006639   0.017969   0.270182  -0.071773  -0.005186  -0.259777
    44  H   -0.000731   0.075780  -0.203015   0.002645  -0.000157   0.260258
    45  H   -0.000035   0.021630  -0.034270  -0.000735   0.000006  -0.076180
              7          8          9         10         11         12
     1  O   -0.001689   0.000025   0.014434  -0.005090   0.000430  -0.184248
     2  C    0.045852  -0.015837  -0.254273   0.009886  -0.010246  -1.051941
     3  C   -0.211965   0.041117  -0.118554  -0.004824   0.001765  -0.850112
     4  O    0.015328  -0.001036   0.001917   0.000021   0.000000   0.032236
     5  H   -0.001275   0.000007  -0.002401   0.000010   0.000000   0.001836
     6  C    0.357907   0.013543   0.262484  -0.000222  -0.000055   0.312998
     7  O    8.239925   0.190836   0.002162   0.000007   0.000000   0.026042
     8  H    0.190836   0.366493   0.000174   0.000000   0.000000   0.003066
     9  C    0.002162   0.000174   8.392574   0.079876   0.010795  -2.290241
    10  O    0.000007   0.000000   0.079876   8.269069   0.195758   0.041426
    11  H    0.000000   0.000000   0.010795   0.195758   0.456808   0.023561
    12  C    0.026042   0.003066  -2.290241   0.041426   0.023561  10.958733
    13  O    0.008211   0.001153   0.022266   0.001214  -0.000860  -0.096204
    14  C   -0.084288  -0.023741  -0.843929   0.007187  -0.005340  -1.040528
    15  O   -0.013582   0.019995  -0.016633   0.000013   0.000008   0.044590
    16  C   -0.020262  -0.013627  -0.184851  -0.002858   0.000079  -0.022056
    17  C    0.002359   0.002330  -0.016733  -0.000194  -0.000122  -0.143226
    18  O   -0.000079  -0.000031   0.006364  -0.000033  -0.000007  -0.012450
    19  H   -0.000001  -0.000003  -0.000019  -0.000025  -0.000001   0.000516
    20  C    0.001756   0.000730  -0.008131   0.000030   0.000017  -0.018228
    21  O   -0.000004   0.000000   0.000268   0.000000   0.000000   0.000018
    22  H    0.000000   0.000000   0.000006   0.000000   0.000000   0.000036
    23  C    0.016893   0.035984  -0.006181  -0.000019  -0.000001  -0.012980
    24  O   -0.023909  -0.011846   0.000058   0.000000   0.000000   0.002760
    25  H    0.001714  -0.000317  -0.000012   0.000000   0.000000  -0.000247
    26  C    0.000908  -0.043325   0.021569  -0.000068   0.000007   0.137627
    27  O    0.000067   0.000032   0.000080   0.000000   0.000000   0.000110
    28  C    0.000225  -0.000444  -0.000300  -0.000001   0.000000  -0.003936
    29  O   -0.000005   0.000000   0.000005   0.000000   0.000000   0.000198
    30  H    0.000000   0.000000   0.000000   0.000000   0.000000   0.000000
    31  H    0.000000   0.000000   0.000001   0.000000   0.000000   0.000029
    32  H    0.000000   0.000000  -0.000095   0.000000   0.000000   0.000703
    33  H   -0.000032   0.000006   0.000135   0.000000   0.000000   0.001862
    34  H   -0.000292   0.000009   0.000860   0.000002   0.000000   0.007179
    35  H   -0.000018   0.000026   0.000087   0.000000   0.000000   0.000896
    36  H   -0.000455   0.000182  -0.000004   0.000000   0.000000  -0.000055
    37  H    0.001066   0.000572   0.000007   0.000000   0.000000   0.000269
    38  H   -0.000009   0.000000  -0.000285  -0.000457  -0.000001  -0.025207
    39  H   -0.000010   0.000000   0.479856  -0.044534  -0.016553  -0.070491
    40  H    0.000001   0.000000   0.629759  -0.073735  -0.000235  -0.247093
    41  H   -0.000044   0.000001   0.035270   0.001657  -0.000111   0.239797
    42  H   -0.000105   0.000002  -0.027300  -0.000426  -0.000002  -0.054040
    43  H    0.008555  -0.000210   0.029089  -0.000127   0.000001   0.048412
    44  H   -0.045637  -0.006711   0.013271   0.000008   0.000000   0.041135
    45  H    0.004539  -0.001426   0.008824   0.000029   0.000000   0.010345
             13         14         15         16         17         18
     1  O    0.007615   0.025793   0.000256   0.002764   0.000597   0.000006
     2  C   -0.077417   1.118704  -0.053988   0.178072  -0.033510   0.009123
     3  C    0.051018  -0.606520   0.030433  -0.578694   0.018846   0.000014
     4  O   -0.002033  -0.027394  -0.000287   0.002625  -0.000015  -0.000018
     5  H   -0.000186   0.008148   0.000052   0.001275   0.000054   0.000000
     6  C   -0.117443  -3.161440   0.184120  -0.345647   0.193988  -0.005864
     7  O    0.008211  -0.084288  -0.013582  -0.020262   0.002359  -0.000079
     8  H    0.001153  -0.023741   0.019995  -0.013627   0.002330  -0.000031
     9  C    0.022266  -0.843929  -0.016633  -0.184851  -0.016733   0.006364
    10  O    0.001214   0.007187   0.000013  -0.002858  -0.000194  -0.000033
    11  H   -0.000860  -0.005340   0.000008   0.000079  -0.000122  -0.000007
    12  C   -0.096204  -1.040528   0.044590  -0.022056  -0.143226  -0.012450
    13  O    8.479909   0.243649  -0.033045   0.029627  -0.101121   0.011315
    14  C    0.243649  12.011184   0.058779  -1.247888   0.061144  -0.071970
    15  O   -0.033045   0.058779   8.283034  -0.011946   0.021577   0.004615
    16  C    0.029627  -1.247888  -0.011946  13.179696  -1.634698  -0.172752
    17  C   -0.101121   0.061144   0.021577  -1.634698   8.315834   0.406016
    18  O    0.011315  -0.071970   0.004615  -0.172752   0.406016   8.155435
    19  H    0.005244  -0.001877   0.018249  -0.094992   0.077974   0.203866
    20  C   -0.011076  -0.458204   0.005798  -1.283721  -0.906428  -0.100536
    21  O   -0.000096   0.003184   0.000190   0.007509  -0.129326   0.002992
    22  H   -0.000001  -0.000037   0.000031  -0.007117   0.035055  -0.000708
    23  C    0.022789  -0.121671  -0.073903  -0.398003  -0.419058   0.003453
    24  O   -0.000617   0.050854  -0.011711   0.003962  -0.007886   0.000183
    25  H    0.000028  -0.003665   0.001702  -0.004039  -0.000121  -0.000002
    26  C    0.012362  -0.801455  -0.023809  -2.673458  -0.639536   0.062257
    27  O    0.000118  -0.003767   0.006000  -0.076158  -0.024246   0.000534
    28  C   -0.002190   0.001039   0.023584   0.843854   0.606537   0.009964
    29  O    0.000041   0.002473   0.000117   0.004799   0.023344  -0.000251
    30  H    0.000000   0.000147   0.000000  -0.003645   0.004821  -0.000060
    31  H    0.000013   0.008744  -0.000011   0.116277   0.026806  -0.001020
    32  H    0.000407   0.002998  -0.001287   0.075526  -0.127841   0.001100
    33  H    0.003152   0.019599  -0.008795  -0.052163   0.355342  -0.040827
    34  H    0.000000   0.032620  -0.057533   0.279825   0.026980  -0.002899
    35  H   -0.000207   0.061117   0.003712   0.026023   0.093961  -0.000262
    36  H   -0.000005  -0.000888  -0.000295   0.001497  -0.009873   0.000033
    37  H    0.000057  -0.003849   0.001465   0.019838   0.015006   0.000024
    38  H   -0.000762   0.002185  -0.000006   0.000368  -0.000060   0.000000
    39  H   -0.001315  -0.005729  -0.000297   0.003486   0.000245  -0.000018
    40  H    0.003100  -0.008879  -0.000339  -0.003193   0.000256  -0.000040
    41  H   -0.035544   0.078272  -0.001317  -0.006262   0.002588   0.000255
    42  H    0.010579   0.057101  -0.000339  -0.003334   0.000953   0.000054
    43  H    0.006669   0.111735   0.000382   0.006195   0.001014   0.000091
    44  H    0.017257   0.045741  -0.013170   0.005835   0.000632   0.000110
    45  H   -0.050594   0.359051  -0.067962  -0.004279   0.032646  -0.000530
             19         20         21         22         23         24
     1  O   -0.000008   0.000076   0.000000   0.000000   0.000125   0.000001
     2  C   -0.003384  -0.000408  -0.000063   0.000001   0.012756   0.004968
     3  C    0.001927  -0.011876  -0.000033   0.000000  -0.016075  -0.004737
     4  O   -0.000001  -0.000023   0.000000   0.000000  -0.000076  -0.000351
     5  H    0.000000   0.000003   0.000000   0.000000   0.000009  -0.000004
     6  C    0.010028   0.042844  -0.000564  -0.000034  -0.331428  -0.010813
     7  O   -0.000001   0.001756  -0.000004   0.000000   0.016893  -0.023909
     8  H   -0.000003   0.000730   0.000000   0.000000   0.035984  -0.011846
     9  C   -0.000019  -0.008131   0.000268   0.000006  -0.006181   0.000058
    10  O   -0.000025   0.000030   0.000000   0.000000  -0.000019   0.000000
    11  H   -0.000001   0.000017   0.000000   0.000000  -0.000001   0.000000
    12  C    0.000516  -0.018228   0.000018   0.000036  -0.012980   0.002760
    13  O    0.005244  -0.011076  -0.000096  -0.000001   0.022789  -0.000617
    14  C   -0.001877  -0.458204   0.003184  -0.000037  -0.121671   0.050854
    15  O    0.018249   0.005798   0.000190   0.000031  -0.073903  -0.011711
    16  C   -0.094992  -1.283721   0.007509  -0.007117  -0.398003   0.003962
    17  C    0.077974  -0.906428  -0.129326   0.035055  -0.419058  -0.007886
    18  O    0.203866  -0.100536   0.002992  -0.000708   0.003453   0.000183
    19  H    0.393669   0.018008  -0.000771   0.000020  -0.002640   0.000019
    20  C    0.018008   8.595378   0.249948  -0.010508   0.237260  -0.003126
    21  O   -0.000771   0.249948   8.227880   0.220072   0.003645   0.000021
    22  H    0.000020  -0.010508   0.220072   0.414364   0.000103   0.000000
    23  C   -0.002640   0.237260   0.003645   0.000103   7.851558  -0.098839
    24  O    0.000019  -0.003126   0.000021   0.000000  -0.098839   8.487879
    25  H    0.000000   0.000872   0.000000   0.000000   0.006290   0.209329
    26  C    0.003787   1.036864   0.022343   0.005675  -1.195672   0.113945
    27  O    0.000031  -0.139213   0.008234  -0.000109  -0.063785   0.001635
    28  C   -0.002403  -1.312245  -0.061246  -0.022169  -0.419709   0.006925
    29  O    0.000040  -0.183610   0.013559   0.014402  -0.013389   0.000161
    30  H    0.000000  -0.022536  -0.002179  -0.001264   0.000225   0.000000
    31  H    0.000015  -0.173078   0.004281  -0.000310  -0.010060  -0.000094
    32  H    0.000089   0.390672  -0.042735  -0.006899   0.014360  -0.000014
    33  H   -0.009383  -0.040455  -0.000079  -0.000099   0.035290  -0.000101
    34  H   -0.000114   0.011360  -0.000567   0.000004   0.004334   0.000095
    35  H    0.000037  -0.096389  -0.000238   0.000007  -0.058555   0.004807
    36  H    0.000000   0.001395   0.000004   0.000000   0.468073  -0.046824
    37  H    0.000001  -0.006389  -0.000004   0.000000   0.580766  -0.067873
    38  H    0.000000   0.000002   0.000000   0.000000   0.000005   0.000000
    39  H    0.000433  -0.000840   0.000002   0.000000   0.000011   0.000000
    40  H    0.000026   0.000055   0.000000   0.000000  -0.000009   0.000000
    41  H    0.000111   0.000477   0.000000   0.000000   0.000294   0.000009
    42  H   -0.000001   0.000009   0.000000   0.000000   0.000087   0.000009
    43  H   -0.000001   0.000133   0.000000   0.000000   0.001140   0.000191
    44  H   -0.000002   0.000550   0.000000   0.000000   0.007755   0.001582
    45  H    0.000386   0.008445   0.000001   0.000000   0.004099   0.000686
             25         26         27         28         29         30
     1  O    0.000000  -0.000173   0.000000   0.000005   0.000000   0.000000
     2  C   -0.000082   0.032881  -0.000152  -0.001939   0.000003   0.000000
     3  C    0.001007  -0.127537   0.000288  -0.003736   0.000070   0.000001
     4  O   -0.000001   0.000844   0.000001   0.000022   0.000000   0.000000
     5  H    0.000000  -0.000004   0.000000   0.000000   0.000000   0.000000
     6  C   -0.001134  -0.235663   0.005883   0.041137  -0.000449   0.000001
     7  O    0.001714   0.000908   0.000067   0.000225  -0.000005   0.000000
     8  H   -0.000317  -0.043325   0.000032  -0.000444   0.000000   0.000000
     9  C   -0.000012   0.021569   0.000080  -0.000300   0.000005   0.000000
    10  O    0.000000  -0.000068   0.000000  -0.000001   0.000000   0.000000
    11  H    0.000000   0.000007   0.000000   0.000000   0.000000   0.000000
    12  C   -0.000247   0.137627   0.000110  -0.003936   0.000198   0.000000
    13  O    0.000028   0.012362   0.000118  -0.002190   0.000041   0.000000
    14  C   -0.003665  -0.801455  -0.003767   0.001039   0.002473   0.000147
    15  O    0.001702  -0.023809   0.006000   0.023584   0.000117   0.000000
    16  C   -0.004039  -2.673458  -0.076158   0.843854   0.004799  -0.003645
    17  C   -0.000121  -0.639536  -0.024246   0.606537   0.023344   0.004821
    18  O   -0.000002   0.062257   0.000534   0.009964  -0.000251  -0.000060
    19  H    0.000000   0.003787   0.000031  -0.002403   0.000040   0.000000
    20  C    0.000872   1.036864  -0.139213  -1.312245  -0.183610  -0.022536
    21  O    0.000000   0.022343   0.008234  -0.061246   0.013559  -0.002179
    22  H    0.000000   0.005675  -0.000109  -0.022169   0.014402  -0.001264
    23  C    0.006290  -1.195672  -0.063785  -0.419709  -0.013389   0.000225
    24  O    0.209329   0.113945   0.001635   0.006925   0.000161   0.000000
    25  H    0.396319   0.014855  -0.000301  -0.002618   0.000002   0.000000
    26  C    0.014855  11.563352   0.365529  -1.410006  -0.080238   0.014811
    27  O   -0.000301   0.365529   8.326877   0.046923  -0.051752   0.002808
    28  C   -0.002618  -1.410006   0.046923   6.657859   0.428098   0.013180
    29  O    0.000002  -0.080238  -0.051752   0.428098   8.233618   0.231418
    30  H    0.000000   0.014811   0.002808   0.013180   0.231418   0.407425
    31  H    0.000000  -0.114564  -0.059311   0.474898  -0.053436  -0.008210
    32  H    0.000000   0.001894   0.003008  -0.059430  -0.002856   0.000118
    33  H    0.000001   0.013979   0.003498  -0.042978  -0.000404   0.000006
    34  H    0.000005  -0.058443   0.003267   0.001267  -0.000448   0.000000
    35  H   -0.000244   0.156706  -0.048928   0.067385  -0.000143   0.000014
    36  H   -0.009997  -0.073224  -0.000514   0.000625  -0.000142  -0.000002
    37  H   -0.002547  -0.267299   0.007328   0.011493  -0.000091   0.000000
    38  H    0.000000  -0.000013   0.000000   0.000000   0.000000   0.000000
    39  H    0.000000   0.000254   0.000000   0.000058   0.000000   0.000000
    40  H    0.000000  -0.000059   0.000000  -0.000003   0.000000   0.000000
    41  H    0.000000  -0.000985  -0.000001  -0.000061   0.000000   0.000000
    42  H    0.000000  -0.000119   0.000000  -0.000009   0.000000   0.000000
    43  H    0.000000   0.001113   0.000000  -0.000051   0.000000   0.000000
    44  H    0.000003   0.000142  -0.000002  -0.000228   0.000000   0.000000
    45  H    0.000007   0.009541   0.000145  -0.001737  -0.000002   0.000000
             31         32         33         34         35         36
     1  O    0.000000   0.000000   0.000000  -0.000003   0.000000   0.000000
     2  C   -0.000010   0.000056   0.000771  -0.000834  -0.000153   0.000017
     3  C    0.000017   0.000016  -0.000093   0.001503   0.001013  -0.000009
     4  O    0.000000   0.000000   0.000000   0.000003   0.000000   0.000000
     5  H    0.000000   0.000000   0.000000   0.000000   0.000000   0.000000
     6  C    0.000059  -0.000628  -0.002754   0.004971   0.006090  -0.000099
     7  O    0.000000   0.000000  -0.000032  -0.000292  -0.000018  -0.000455
     8  H    0.000000   0.000000   0.000006   0.000009   0.000026   0.000182
     9  C    0.000001  -0.000095   0.000135   0.000860   0.000087  -0.000004
    10  O    0.000000   0.000000   0.000000   0.000002   0.000000   0.000000
    11  H    0.000000   0.000000   0.000000   0.000000   0.000000   0.000000
    12  C    0.000029   0.000703   0.001862   0.007179   0.000896  -0.000055
    13  O    0.000013   0.000407   0.003152   0.000000  -0.000207  -0.000005
    14  C    0.008744   0.002998   0.019599   0.032620   0.061117  -0.000888
    15  O   -0.000011  -0.001287  -0.008795  -0.057533   0.003712  -0.000295
    16  C    0.116277   0.075526  -0.052163   0.279825   0.026023   0.001497
    17  C    0.026806  -0.127841   0.355342   0.026980   0.093961  -0.009873
    18  O   -0.001020   0.001100  -0.040827  -0.002899  -0.000262   0.000033
    19  H    0.000015   0.000089  -0.009383  -0.000114   0.000037   0.000000
    20  C   -0.173078   0.390672  -0.040455   0.011360  -0.096389   0.001395
    21  O    0.004281  -0.042735  -0.000079  -0.000567  -0.000238   0.000004
    22  H   -0.000310  -0.006899  -0.000099   0.000004   0.000007   0.000000
    23  C   -0.010060   0.014360   0.035290   0.004334  -0.058555   0.468073
    24  O   -0.000094  -0.000014  -0.000101   0.000095   0.004807  -0.046824
    25  H    0.000000   0.000000   0.000001   0.000005  -0.000244  -0.009997
    26  C   -0.114564   0.001894   0.013979  -0.058443   0.156706  -0.073224
    27  O   -0.059311   0.003008   0.003498   0.003267  -0.048928  -0.000514
    28  C    0.474898  -0.059430  -0.042978   0.001267   0.067385   0.000625
    29  O   -0.053436  -0.002856  -0.000404  -0.000448  -0.000143  -0.000142
    30  H   -0.008210   0.000118   0.000006   0.000000   0.000014  -0.000002
    31  H    0.645821   0.006034   0.002372   0.000002   0.010278   0.000015
    32  H    0.006034   0.585640   0.005991   0.001811   0.000176   0.000002
    33  H    0.002372   0.005991   0.595570   0.004642   0.003047   0.000013
    34  H    0.000002   0.001811   0.004642   0.581970   0.006279  -0.000111
    35  H    0.010278   0.000176   0.003047   0.006279   0.646674  -0.012399
    36  H    0.000015   0.000002   0.000013  -0.000111  -0.012399   0.592737
    37  H   -0.000004  -0.000002  -0.000007   0.002031   0.007530  -0.045689
    38  H    0.000000   0.000000   0.000000   0.000000   0.000000   0.000000
    39  H    0.000000   0.000000   0.000000   0.000000   0.000000   0.000000
    40  H    0.000000   0.000000   0.000000   0.000000   0.000000   0.000000
    41  H    0.000000   0.000000   0.000000  -0.000025   0.000000   0.000000
    42  H    0.000000   0.000000   0.000000   0.000000   0.000000   0.000000
    43  H    0.000000   0.000000   0.000000  -0.000007   0.000000   0.000000
    44  H    0.000000   0.000000  -0.000006   0.000009  -0.000007   0.000001
    45  H    0.000000  -0.000013  -0.000024   0.010984  -0.000017   0.000002
             37         38         39         40         41         42
     1  O    0.000000   0.224741   0.000260   0.001601   0.007355  -0.042836
     2  C   -0.000057   0.116935  -0.024158  -0.032420  -0.041694   0.340984
     3  C    0.000256  -0.073160  -0.011708   0.001625  -0.036540  -0.016707
     4  O    0.000002   0.002520   0.000026   0.000010  -0.000529  -0.000009
     5  H    0.000000  -0.002180   0.000000   0.000000   0.000029   0.000079
     6  C    0.001804   0.003243   0.006485   0.009587  -0.004447  -0.034757
     7  O    0.001066  -0.000009  -0.000010   0.000001  -0.000044  -0.000105
     8  H    0.000572   0.000000   0.000000   0.000000   0.000001   0.000002
     9  C    0.000007  -0.000285   0.479856   0.629759   0.035270  -0.027300
    10  O    0.000000  -0.000457  -0.044534  -0.073735   0.001657  -0.000426
    11  H    0.000000  -0.000001  -0.016553  -0.000235  -0.000111  -0.000002
    12  C    0.000269  -0.025207  -0.070491  -0.247093   0.239797  -0.054040
    13  O    0.000057  -0.000762  -0.001315   0.003100  -0.035544   0.010579
    14  C   -0.003849   0.002185  -0.005729  -0.008879   0.078272   0.057101
    15  O    0.001465  -0.000006  -0.000297  -0.000339  -0.001317  -0.000339
    16  C    0.019838   0.000368   0.003486  -0.003193  -0.006262  -0.003334
    17  C    0.015006  -0.000060   0.000245   0.000256   0.002588   0.000953
    18  O    0.000024   0.000000  -0.000018  -0.000040   0.000255   0.000054
    19  H    0.000001   0.000000   0.000433   0.000026   0.000111  -0.000001
    20  C   -0.006389   0.000002  -0.000840   0.000055   0.000477   0.000009
    21  O   -0.000004   0.000000   0.000002   0.000000   0.000000   0.000000
    22  H    0.000000   0.000000   0.000000   0.000000   0.000000   0.000000
    23  C    0.580766   0.000005   0.000011  -0.000009   0.000294   0.000087
    24  O   -0.067873   0.000000   0.000000   0.000000   0.000009   0.000009
    25  H   -0.002547   0.000000   0.000000   0.000000   0.000000   0.000000
    26  C   -0.267299  -0.000013   0.000254  -0.000059  -0.000985  -0.000119
    27  O    0.007328   0.000000   0.000000   0.000000  -0.000001   0.000000
    28  C    0.011493   0.000000   0.000058  -0.000003  -0.000061  -0.000009
    29  O   -0.000091   0.000000   0.000000   0.000000   0.000000   0.000000
    30  H    0.000000   0.000000   0.000000   0.000000   0.000000   0.000000
    31  H   -0.000004   0.000000   0.000000   0.000000   0.000000   0.000000
    32  H   -0.000002   0.000000   0.000000   0.000000   0.000000   0.000000
    33  H   -0.000007   0.000000   0.000000   0.000000   0.000000   0.000000
    34  H    0.002031   0.000000   0.000000   0.000000  -0.000025   0.000000
    35  H    0.007530   0.000000   0.000000   0.000000   0.000000   0.000000
    36  H   -0.045689   0.000000   0.000000   0.000000   0.000000   0.000000
    37  H    0.593586   0.000000   0.000000   0.000000   0.000000   0.000000
    38  H    0.000000   0.399416  -0.000013   0.000007  -0.000104  -0.011313
    39  H    0.000000  -0.000013   0.607456  -0.052178  -0.006019   0.000187
    40  H    0.000000   0.000007  -0.052178   0.631518   0.007098   0.004698
    41  H    0.000000  -0.000104  -0.006019   0.007098   0.605983   0.006352
    42  H    0.000000  -0.011313   0.000187   0.004698   0.006352   0.626961
    43  H    0.000000   0.000393   0.000004   0.000005   0.006930   0.009471
    44  H   -0.000003   0.000024   0.000002  -0.000008   0.000083   0.004275
    45  H    0.000018   0.000002  -0.000029  -0.000004   0.005211   0.000010
             43         44         45
     1  O   -0.006639  -0.000731  -0.000035
     2  C    0.017969   0.075780   0.021630
     3  C    0.270182  -0.203015  -0.034270
     4  O   -0.071773   0.002645  -0.000735
     5  H   -0.005186  -0.000157   0.000006
     6  C   -0.259777   0.260258  -0.076180
     7  O    0.008555  -0.045637   0.004539
     8  H   -0.000210  -0.006711  -0.001426
     9  C    0.029089   0.013271   0.008824
    10  O   -0.000127   0.000008   0.000029
    11  H    0.000001   0.000000   0.000000
    12  C    0.048412   0.041135   0.010345
    13  O    0.006669   0.017257  -0.050594
    14  C    0.111735   0.045741   0.359051
    15  O    0.000382  -0.013170  -0.067962
    16  C    0.006195   0.005835  -0.004279
    17  C    0.001014   0.000632   0.032646
    18  O    0.000091   0.000110  -0.000530
    19  H   -0.000001  -0.000002   0.000386
    20  C    0.000133   0.000550   0.008445
    21  O    0.000000   0.000000   0.000001
    22  H    0.000000   0.000000   0.000000
    23  C    0.001140   0.007755   0.004099
    24  O    0.000191   0.001582   0.000686
    25  H    0.000000   0.000003   0.000007
    26  C    0.001113   0.000142   0.009541
    27  O    0.000000  -0.000002   0.000145
    28  C   -0.000051  -0.000228  -0.001737
    29  O    0.000000   0.000000  -0.000002
    30  H    0.000000   0.000000   0.000000
    31  H    0.000000   0.000000   0.000000
    32  H    0.000000   0.000000  -0.000013
    33  H    0.000000  -0.000006  -0.000024
    34  H   -0.000007   0.000009   0.010984
    35  H    0.000000  -0.000007  -0.000017
    36  H    0.000000   0.000001   0.000002
    37  H    0.000000  -0.000003   0.000018
    38  H    0.000393   0.000024   0.000002
    39  H    0.000004   0.000002  -0.000029
    40  H    0.000005  -0.000008  -0.000004
    41  H    0.006930   0.000083   0.005211
    42  H    0.009471   0.004275   0.000010
    43  H    0.700499   0.010453   0.005584
    44  H    0.010453   0.639569   0.005739
    45  H    0.005584   0.005739   0.624685
 Mulliken atomic charges:
              1
     1  O   -0.537760
     2  C    0.077253
     3  C   -0.077674
     4  O   -0.509745
     5  H    0.362663
     6  C   -0.046605
     7  O   -0.520690
     8  H    0.442270
     9  C   -0.242250
    10  O   -0.473581
    11  H    0.344305
    12  C    0.186902
    13  O   -0.407076
    14  C    0.151612
    15  O   -0.318447
    16  C    0.056511
    17  C   -0.132909
    18  O   -0.467446
    19  H    0.381153
    20  C    0.184341
    21  O   -0.526246
    22  H    0.359482
    23  C   -0.065252
    24  O   -0.601331
    25  H    0.393194
    26  C    0.152405
    27  O   -0.314159
    28  C    0.112363
    29  O   -0.565131
    30  H    0.362922
    31  H    0.124448
    32  H    0.151201
    33  H    0.152924
    34  H    0.139267
    35  H    0.121697
    36  H    0.135992
    37  H    0.150694
    38  H    0.363728
    39  H    0.135126
    40  H    0.128850
    41  H    0.135912
    42  H    0.129486
    43  H    0.107560
    44  H    0.136817
    45  H    0.125222
 Sum of Mulliken atomic charges =   0.00000
 Mulliken charges with hydrogens summed into heavy atoms:
              1
     1  O   -0.174032
     2  C    0.206739
     3  C    0.029886
     4  O   -0.147082
     6  C    0.090212
     7  O   -0.078420
     9  C    0.021727
    10  O   -0.129276
    12  C    0.322814
    13  O   -0.407076
    14  C    0.276834
    15  O   -0.318447
    16  C    0.195778
    17  C    0.020015
    18  O   -0.086292
    20  C    0.335542
    21  O   -0.166764
    23  C    0.221434
    24  O   -0.208136
    26  C    0.274102
    27  O   -0.314159
    28  C    0.236811
    29  O   -0.202209
 Sum of Mulliken charges with hydrogens summed into heavy atoms =   0.00000
 APT atomic charges:
              1
     1  O   -0.627639
     2  C    0.395836
     3  C    0.414860
     4  O   -0.627990
     5  H    0.267845
     6  C    0.364871
     7  O   -0.701971
     8  H    0.447354
     9  C    0.458296
    10  O   -0.576011
    11  H    0.246814
    12  C    0.441140
    13  O   -0.814744
    14  C    0.929674
    15  O   -0.859578
    16  C    0.424803
    17  C    0.385325
    18  O   -0.647919
    19  H    0.322377
    20  C    0.392644
    21  O   -0.638307
    22  H    0.267847
    23  C    0.454980
    24  O   -0.655124
    25  H    0.258462
    26  C    0.425664
    27  O   -0.763590
    28  C    0.895051
    29  O   -0.675429
    30  H    0.261868
    31  H   -0.081199
    32  H   -0.031004
    33  H   -0.038356
    34  H   -0.021276
    35  H   -0.053963
    36  H   -0.047132
    37  H   -0.041067
    38  H    0.261090
    39  H   -0.045941
    40  H   -0.064363
    41  H   -0.051529
    42  H   -0.061703
    43  H   -0.071914
    44  H   -0.058979
    45  H   -0.060074
 Sum of APT charges=   0.00000
 APT Atomic charges with hydrogens summed into heavy atoms:
              1
[...]
 0105982,0.00143642,0.00172842,0.00040317,0.00110312,0.00003182,-0.0001
 4898,-0.00027991,0.00013175,0.00001066,0.00024360,0.00002403,0.0000165
 6,-0.00006287,-0.00003203,0.00001807,0.00001504,0.00004692,-0.00005564
 ,0.00002668,-0.00007928,0.00005617,-0.00001615,-0.00000532,0.00000849,
 -0.00001253,0.00001335,-0.00001920,0.00001488,-0.00000178,0.00000174,-
 0.00000190,-0.00000679,0.00000519,-0.00000944,0.00003756,0.00001461,0.
 00004983,-0.00001571,-0.00000105,0.00000361,-0.00001842,-0.00000912,-0
 .00001381,0.00001767,-0.00001442,0.00002771,-0.00001986,0.00002115,-0.
 00002125,0.00000267,-0.00000522,0.00001143,-0.00000207,0.00000028,-0.0
 0000212,0.00000503,0.00000042,0.00000248,0.00000478,0.00000134,-0.0000
 0219,0.00000540,0.00000297,0.00000966,0.00000824,0.00000030,-0.0000051
 9,0.00000869,0.00000027,0.00000800,0.00000052,0.00000042,0.00000622,0.
 00000419,-0.00000287,-0.00000433,0.00072491,-0.00002471,-0.00033498,0.
 00045897,0.00000880,-0.00009779,0.00087130,-0.00082703,-0.00026899,0.0
 0016291,-0.00077205,0.00097699,0.37556145,-0.00835948,0.00095994,-0.00
 192565,0.01141106,-0.04482923,-0.00040861,0.03403874,-0.00037185,-0.00
 929573,-0.00255074,0.00129772,0.00141921,0.00021377,-0.00010351,0.0001
 4060,0.00126323,0.00131365,0.00206783,-0.00059737,-0.00019241,-0.00009
 857,-0.00004010,-0.00001447,0.00008245,-0.00223202,0.00195954,0.000039
 98,0.00050116,0.00000018,0.00010641,-0.00005398,-0.00006677,-0.0000084
 9,-0.02478040,-0.00044725,0.00568156,0.00151839,0.00082969,-0.00100831
 ,0.00042646,-0.00060282,-0.00012427,-0.00006093,0.00014230,-0.00001983
 ,-0.00003349,0.00002331,0.00001127,0.00000860,-0.00001374,-0.00002032,
 0.00001542,-0.00000301,0.00002196,-0.00002747,0.00002875,-0.00001700,-
 0.00000643,-0.00000029,0.00000131,0.00000288,0.00000460,0.00000022,-0.
 00000162,-0.00000030,-0.00000119,-0.00000040,-0.00001353,0.00001030,-0
 .00002012,-0.00000715,-0.00005035,0.00000918,0.00000181,-0.00000548,0.
 00000485,-0.00000833,0.00001145,-0.00000430,0.00000929,-0.00000662,0.0
 0000451,-0.00000830,0.00000697,0.00000063,0.00000228,-0.00000382,0.000
 00013,0.00000009,0.00000065,-0.00000077,0.00000098,-0.00000008,0.00000
 086,-0.00000037,-0.00000114,0.00000166,0.00000452,0.00000078,0.0000011
 5,-0.00001016,0.00000564,-0.00000199,0.00000139,-0.00000178,-0.0000000
 2,0.00000246,-0.00000652,-0.00000123,0.00000167,0.00000277,-0.00022092
 ,0.00134550,0.00045047,0.00032645,0.00024595,-0.00014275,0.00089412,-0
 .00031422,-0.00030050,-0.00117597,-0.00287673,0.00319767,-0.01229774,0
 .04707945,-0.04087226,-0.00066220,-0.01043905,0.05980105,-0.00027575,-
 0.05446728,0.01214774,0.00054753,-0.00161042,-0.00062172,-0.00118667,0
 .00142025,-0.00007745,-0.00049418,-0.00015260,0.00110415,0.00041280,0.
 00102252,-0.00039278,-0.00004049,-0.00004184,0.00003008,0.00002541,0.0
 0003360,0.00030906,-0.00182288,0.00034232,-0.00019759,0.00001372,0.000
 09413,0.00003825,-0.00002820,0.00007167,0.02475076,-0.00000846,-0.0029
 1008,-0.00149260,-0.00072079,0.00195714,0.00041339,-0.00007311,-0.0000
 8246,-0.00013175,0.00001005,-0.00023456,-0.00000689,-0.00003856,0.0000
 5092,0.00001970,-0.00000662,0.00000299,-0.00004255,0.00002192,-0.00002
 739,0.00006863,-0.00002689,0.00000516,0.00000677,-0.00000829,0.0000157
 4,-0.00001329,0.00001654,-0.00002048,0.00000249,-0.00000160,0.00000354
 ,0.00000878,0.00000555,0.00000168,-0.00001882,-0.00001693,-0.00002123,
 0.00000791,0.00000283,-0.00000255,0.00000553,0.00001549,0.00001669,-0.
 00001050,0.00000731,-0.00003120,0.00001096,-0.00001300,0.00002995,0.00
 000264,0.00000220,-0.00001965,0.00000079,0.00000061,0.00000368,-0.0000
 0347,-0.00000076,-0.00000295,-0.00000462,-0.00000130,0.00000317,-0.000
 00709,-0.00000396,-0.00001161,-0.00000942,0.00000094,0.00001072,-0.000
 00668,-0.00000171,-0.00000729,-0.00000208,-0.00000332,-0.00000330,-0.0
 0000215,0.00000221,0.00000408,-0.00250586,0.00037443,0.00376109,-0.000
 21505,-0.00018462,0.00000765,-0.00076719,0.00031781,0.00035477,0.00113
 755,0.00266335,-0.00335128,-0.05253182,0.00350545,0.06512100,0.0025308
 6,-0.00056360,-0.00100339,-0.02302872,0.00457950,0.00336731,-0.3286557
 6,-0.04204484,0.04267627,0.00669674,-0.00838536,0.00766931,0.00026539,
 -0.00065412,-0.00011118,-0.02073573,-0.00200681,-0.00482810,0.00229748
 ,-0.00046192,-0.00004242,0.00007028,0.00005851,0.00020901,0.00093591,0
 .00027161,-0.00007422,0.00000045,-0.00001102,-0.00003377,0.00000078,0.
 00002529,0.00000021,-0.00055813,-0.00298352,0.00130292,0.00020184,0.00
 101449,-0.00065115,-0.00105451,-0.00148412,0.00138702,0.00091792,-0.00
 008532,0.00013763,-0.00001481,0.00009554,-0.00017329,-0.00000401,-0.00
 001392,-0.00003328,0.00005327,0.00000338,0.00004388,-0.00003467,0.0000
 0899,0.00000105,-0.00002914,0.00000549,-0.00001600,0.00002020,-0.00000
 087,0.00001625,-0.00000584,-0.00000181,-0.00000661,-0.00007830,-0.0000
 6295,0.00008635,0.00005008,0.00004578,-0.00010085,-0.00002286,-0.00000
 429,0.00001781,-0.00001017,-0.00003723,-0.00000796,0.00002222,0.000026
 60,0.00000305,-0.00001003,-0.00001303,-0.00001137,0.00000492,0.0000074
 2,0.00000748,-0.00000155,-0.00000219,-0.00000303,0.00000624,0.00000278
 ,0.00000324,0.00000709,0.00000236,-0.00000280,0.00000865,0.00000212,0.
 00001248,0.00000602,0.00001473,-0.00005988,0.00001359,-0.00000117,0.00
 001380,0.00001148,0.00001093,-0.00001222,0.00002326,0.,-0.00002024,0.0
 0046498,-0.00063774,-0.00042954,0.00003801,0.00009839,-0.00000003,0.00
 020691,-0.00053982,-0.00007488,0.00183424,0.00050697,-0.00087769,0.000
 11338,0.00297297,0.00082534,0.35648088,-0.00103466,0.00174621,0.002030
 04,0.03458291,-0.00686801,-0.00780614,-0.04504877,-0.03686316,-0.00224
 812,-0.02834479,-0.02992855,0.02961234,-0.00081181,-0.00007140,-0.0004
 4727,-0.01443634,-0.00027772,-0.00067508,0.00066110,0.00091481,0.00109
 587,0.00005679,0.00006067,-0.00007424,0.00054771,-0.00004069,-0.000228
 79,-0.00016002,-0.00000650,-0.00005856,0.00001224,0.00001834,0.0000023
 0,0.00347850,-0.00032835,-0.00055844,-0.00048340,-0.00015595,-0.000079
 33,0.00051389,0.00046031,0.00105329,0.00021341,-0.00024371,0.00008956,
 0.00006777,0.00002757,-0.00004755,-0.00000997,0.00000249,0.00001122,-0
 .00001018,-0.00000289,-0.00000848,0.00001409,-0.00000339,0.00001453,-0
 .00000206,-0.00000300,-0.00000668,0.00000379,-0.00000588,0.00000302,-0
 .00000107,0.00000115,-0.00000042,-0.00002446,0.00000683,0.00000179,0.0
 0005799,0.00002873,0.00006833,-0.00001863,-0.00000272,0.00001506,-0.00
 000938,0.00001103,-0.00000241,0.00001208,-0.00000947,0.00000613,-0.000
 00645,0.00000868,-0.00000997,-0.00000057,-0.00000167,0.00000555,-0.000
 00039,-0.00000022,-0.00000150,0.00000184,-0.00000084,0.00000112,0.0000
 0071,0.00000103,0.00000082,-0.00000224,-0.00000002,0.00000145,-0.00000
 495,0.00000961,-0.00001746,0.00000495,-0.00000536,0.00000463,0.0000032
 3,-0.00000292,0.00000594,0.00000820,-0.00000052,-0.00001074,0.00024563
 ,0.00024346,0.00052584,-0.00010347,0.00008426,0.00003698,-0.00034220,-
 0.00011536,0.00013388,-0.00047610,-0.00060385,0.00041288,0.00166685,-0
 .00516094,-0.00244507,0.04980600,0.07694215,0.00015362,0.00087202,0.00
 125630,0.01847707,-0.00373028,-0.00133274,0.04137067,-0.00358976,-0.04
 371733,0.02431888,0.03108305,-0.01805746,0.00164333,0.00052049,0.00001
 709,-0.03847672,-0.00717170,-0.00368768,0.00199664,0.00135095,0.002212
 51,-0.00009788,0.00040075,-0.00005043,-0.00020109,-0.00003708,-0.00021
 199,-0.00001412,-0.00000398,0.00000221,0.00000120,0.00000010,-0.000000
 67,-0.00070574,0.00256663,0.00039034,0.00040660,-0.00012215,-0.0000156
 6,-0.00229708,-0.00013086,-0.00000425,0.00036855,-0.00002347,0.0003734
 3,0.00015532,0.00001288,0.00003070,-0.00001519,-0.00002037,0.00001506,
 0.00001964,0.00000462,0.00002525,-0.00002603,-0.00000040,-0.00002389,0
 .00000211,-0.00000110,0.00000066,-0.00000053,0.00000243,0.00000161,0.0
 0000027,-0.00000100,-0.00000009,-0.00000779,0.00000208,0.00001821,0.00
 006395,0.00001445,0.00010819,-0.00000370,0.00001171,0.00000143,-0.0000
 1361,-0.00000033,0.00000885,0.00000634,0.00000096,-0.00000897,-0.00000
 117,-0.00000753,0.00000306,0.00000176,0.00000023,-0.00000267,-0.000000
 90,0.00000028,0.00000118,0.00000073,0.00000186,0.00000051,-0.00000029,
 0.00000207,-0.00000121,0.00000208,-0.00000184,0.00000881,0.00002514,0.
 00001142,-0.00005437,0.00000639,-0.00000292,0.00000852,-0.00000248,-0.
 00000290,0.00000652,0.00000639,0.00000195,-0.00001052,-0.00002779,0.00
 031217,0.00018379,-0.00008900,0.00000065,0.00002143,-0.00012629,0.0001
 7162,0.00001610,-0.00062460,0.00014007,0.00030582,0.00074773,-0.002899
 65,-0.00090988,-0.04525548,-0.01793308,0.06921933,0.00048295,-0.000063
 35,-0.00010167,-0.00025844,0.00103490,0.00035322,-0.01408497,-0.004671
 55,-0.00257223,0.00112091,0.00107477,-0.00076170,-0.00008759,0.0000685
 6,0.00005283,-0.34883636,-0.03188096,0.00674253,-0.01107414,0.01545892
 ,0.00715320,-0.00042021,0.00029043,-0.00140088,-0.00005050,-0.00002980
 ,0.00003511,0.00005970,0.00001350,0.00001245,-0.00001219,-0.00000053,0
 .00000541,-0.00000807,-0.00009889,0.00001726,0.00209495,-0.00079164,-0
 .00060393,-0.01236263,-0.00065986,0.00011233,0.00152400,0.00041804,-0.
 00112153,0.00032741,0.00018991,0.00020230,0.00000769,0.00002971,-0.000
 02027,0.00006673,-0.00002811,-0.00001191,-0.00008725,-0.00003181,-0.00
 000400,-0.00002310,0.00002151,0.00001979,0.00001893,-0.00000894,-0.000
 02024,-0.00000543,0.00000275,-0.00000145,-0.00000243,0.00017526,-0.000
 12032,0.00031651,-0.00001793,0.00066155,-0.00006950,-0.00000012,-0.000
 01817,-0.00004597,0.00011968,0.00001731,0.00005057,-0.00010428,-0.0000
 2269,-0.00003976,0.00004890,0.00000029,0.00001334,-0.00001563,-0.00000
 733,-0.00000277,0.00000214,0.00000214,0.00000791,-0.00000119,0.0000038
 3,0.00000575,0.00000395,-0.00000394,0.00001083,-0.00001600,0.00003260,
 0.00007173,0.00008424,-0.00032010,0.00002774,-0.00001389,0.00003249,-0
 .00000288,-0.00004016,0.00006406,0.00001711,-0.00001649,-0.00003742,-0
 .00003109,-0.00011096,-0.00009070,0.00000228,-0.00001708,-0.00000952,0
 .00005527,-0.00003976,-0.00003044,0.00009510,0.00021568,-0.00000430,0.
 00053602,-0.00096856,-0.00055134,0.00019081,-0.00085520,-0.00235527,0.
 38018979,0.00017388,-0.00000970,0.00001727,-0.00084524,0.00076344,0.00
 027637,-0.00929781,0.00022942,-0.00200455,0.00038244,0.00085497,-0.000
 80421,-0.00013051,-0.00001694,0.00010006,-0.02993838,-0.03963898,0.005
 28600,0.04290220,-0.01773304,-0.01010946,0.00099795,0.00080956,0.00184
 213,-0.00004811,0.00004689,0.00004304,0.00002381,-0.00001953,-0.000001
 06,-0.00000346,0.00000309,-0.00000248,-0.00020855,-0.00023391,-0.00016
 155,0.00114329,0.00173744,-0.00041965,-0.02778568,-0.00305673,0.002817
 06,0.00105979,0.00088586,-0.00160355,-0.00022760,0.00015608,-0.0000303
 5,0.00009728,0.00001749,-0.00011080,0.00006271,-0.00001055,0.00005822,
 -0.00007846,0.00000670,-0.00001199,-0.00002800,0.00001862,-0.00000615,
 0.00001145,0.00001309,-0.00000019,-0.00000467,-0.00000172,-0.00000413,
 -0.00005802,-0.00012917,0.00017100,-0.00038497,-0.00011898,-0.00049661
 ,0.00010218,0.00000482,-0.00004005,0.00010056,-0.00009879,0.00000911,-
 0.00001747,0.00007301,-0.00002939,0.00001898,-0.00005165,0.00001414,-0
 .00000005,0.00001740,-0.00000409,0.00000108,-0.00000131,0.00000004,-0.
 00000223,0.00000379,-0.00000038,0.00000686,0.00000480,-0.00000699,0.00
 002188,-0.00002142,0.00002718,0.00020881,0.00003162,-0.00007730,-0.000
 00184,0.00003646,0.00002297,0.00000300,0.00002973,-0.00004944,-0.00000
 378,-0.00000191,0.00004036,0.00003233,0.00000902,-0.00000490,0.0000026
 0,-0.00001839,0.00000124,0.00003303,-0.00003925,-0.00002574,0.00017888
 ,0.00011500,0.00001760,0.00031570,-0.00006426,0.00009255,-0.00040443,-
 0.00010114,-0.00198439,0.02202859,0.05856397,0.00055114,0.00019477,-0.
 00014418,-0.00091547,0.00175443,0.00148937,-0.03753064,-0.00704207,-0.
 00232238,0.00219895,0.00056515,0.00184455,0.00016913,-0.00013076,0.000
 19353,0.00298763,0.00464058,-0.04437851,0.01320593,-0.00846778,0.00096
 183,0.00133831,-0.00000306,0.00049135,0.00001267,-0.00001150,0.0000775
 7,0.00000124,0.00000367,0.00000946,0.00000536,0.00000115,0.00000509,-0
 .00036817,-0.00029017,-0.00042234,-0.00145639,-0.00088279,0.00050251,0
 .02742351,0.00635561,-0.00283502,-0.00021175,-0.00091459,0.00220047,0.
 00042674,-0.00010781,-0.00020203,-0.00007604,-0.00000675,0.00014158,-0
 .00007330,0.00000087,-0.00005811,0.00007377,0.00001211,0.00005327,0.00
 003071,-0.00003836,-0.00000938,-0.00001604,-0.00001401,0.00001484,0.00
 000555,-0.00000169,0.00000503,0.00008504,0.00003985,-0.00006626,-0.000
 25199,-0.00007090,-0.00007212,0.00002599,-0.00001596,0.00002777,-0.000
 03987,-0.00001078,-0.00002047,-0.00003626,-0.00000490,0.00006634,0.000
 00797,0.00002408,-0.00001621,-0.00000865,-0.00000677,0.00000833,0.0000
 0129,-0.00000051,-0.00000123,-0.00000308,-0.00000192,-0.00000384,-0.00
 000912,-0.00000594,0.00000953,-0.00003935,0.00003814,-0.00003559,-0.00
 031102,-0.00006935,0.00003182,-0.00003290,-0.00001196,-0.00006126,-0.0
 0001318,-0.00000389,0.00000630,-0.00003864,0.00000025,0.00004553,0.000
 13698,-0.00012424,-0.00008532,0.00000660,-0.00003647,0.00000638,-0.000
 00141,-0.00003122,-0.00000497,0.00020493,0.00002240,-0.00016454,0.0007
 1750,-0.00041486,-0.00009355,-0.00297398,-0.00227696,-0.00603155,-0.00
 601182,0.00439513,0.05166554,0.00004546,-0.00005600,0.00020627,0.00020
 011,0.00037910,-0.00013885,-0.00013590,-0.00035909,-0.00013441,0.00020
 457,0.00023843,-0.00017624,-0.00003937,-0.00000724,0.00008674,-0.00707
 183,0.00136124,0.00217039,0.00201436,-0.00023758,-0.00141548,-0.000622
 48,-0.00028925,0.00002456,0.00036949,-0.00011954,0.00012445,0.00000554
 ,0.00015011,0.00008007,-0.00001207,-0.00000403,0.00002079,0.00002336,-
 0.00029996,-0.00039341,-0.00469896,0.00922825,0.00449528,-0.34377703,-
 0.01198648,0.06950769,-0.02020706,-0.00204660,-0.00650548,-0.00027798,
 -0.00121752,0.00431432,0.00044012,0.00039481,0.00000345,0.00029075,-0.
 00011735,-0.00019160,-0.00017159,-0.00027963,0.00032391,-0.00003060,0.
 00008796,0.00000508,0.00003698,0.00000310,-0.00003281,-0.00001468,0.00
 000325,-0.00001060,-0.00025032,0.00006303,0.00002752,0.00015015,-0.000
 03675,0.00002195,-0.00000152,-0.00002286,-0.00000306,0.00055580,0.0001
 6997,-0.00007976,0.00007284,-0.00014511,-0.00029275,-0.00001820,0.0000
 0354,0.00002919,0.00001489,-0.00000072,-0.00002779,0.00000024,0.000003
 57,0.00000226,0.00000405,0.00000320,0.00000320,0.00002411,0.00002534,-
 0.00004217,0.00015934,-0.00027775,0.00022058,0.00170700,0.00037321,-0.
 00106969,0.00011170,0.00015369,0.00029225,0.00005419,0.00000226,-0.000
 00512,0.00009065,-0.00004517,-0.00003935,0.00000854,-0.00000088,0.0000
 0242,-0.00000400,-0.00003736,-0.00000664,0.00000408,-0.00011784,-0.000
 09394,0.00023469,0.00049393,0.00115442,-0.00001442,-0.00018019,-0.0002
 0659,0.00077037,0.00022743,0.00056835,0.00021124,-0.00044004,0.0008021
 2,0.36954342,-0.00005115,0.00040345,-0.00031678,-0.00030278,-0.0007645
 3,-0.00022431,-0.00138726,-0.00060367,-0.00170218,0.00046536,0.0001836
 0,0.00028398,0.00012256,-0.00012512,0.00003524,-0.02337305,0.00114968,
 0.00801325,0.00150626,0.00334832,-0.00101639,-0.00065341,-0.00025276,-
 0.00014040,-0.00027589,0.00016523,-0.00012089,-0.00009463,-0.00025737,
 -0.00011358,0.00000507,0.00003170,-0.00003112,0.00398765,0.00165366,0.
 00432885,0.03499639,-0.01490487,-0.01620211,-0.01367025,-0.04268810,0.
 00498688,-0.00534853,0.00379747,-0.00037402,0.00082304,-0.00012661,0.0
 0105487,0.00006957,-0.00020652,-0.00005968,-0.00024063,0.00019164,0.00
 025535,0.00000411,0.00005781,-0.00074345,0.00005241,0.00002321,0.00009
 857,-0.00002696,0.00006213,-0.00006625,-0.00000482,-0.00000229,0.00000
 326,-0.00011173,0.00003263,-0.00007687,0.00004403,-0.00005144,0.000040
 91,-0.00001218,-0.00000134,-0.00001740,-0.00007936,0.00016070,0.000085
 86,-0.00000633,-0.00003189,-0.00011927,0.00001702,-0.00004018,0.000101
 11,0.00001190,0.00000821,-0.00005169,-0.00000025,0.00000141,0.00000962
 ,-0.00000395,-0.00000117,-0.00000597,-0.00001037,-0.00000576,-0.000001
 60,0.00001223,-0.00000035,0.00002240,0.00011527,0.00024615,0.00037344,
 -0.00001615,-0.00003891,0.00000854,0.00002639,-0.00002672,0.00000670,0
 .00002882,-0.00002627,-0.00004791,-0.00002739,0.00001608,0.00000826,0.
 00003383,0.00004633,0.00001766,-0.00009624,0.00013674,0.00009266,-0.00
 150390,0.00027179,-0.00012678,-0.00002569,-0.00014543,0.00002667,0.000
 84023,0.00023686,0.00017933,-0.00079874,-0.00306486,0.00294975,0.00495
 950,0.05114139,-0.00012889,-0.00003344,-0.00030680,-0.00001044,0.00022
 203,-0.00009934,0.00218482,0.00023206,0.00197434,-0.00066711,-0.000126
 90,0.00001485,-0.00001364,-0.00000056,-0.00003165,0.02341092,0.0012313
 2,-0.00273857,-0.00233948,-0.00082981,0.00135187,-0.00004092,0.0002335
 5,-0.00018689,-0.00016076,-0.00003322,-0.00001646,-0.00005979,-0.00011
 939,-0.00006142,0.00000670,0.00001346,-0.00001158,0.00229351,0.0006448
 5,0.00307005,0.01192720,-0.00785165,-0.00270674,0.07837164,0.00640662,
 -0.06203589,-0.03363878,-0.00011303,-0.00970706,-0.00696710,-0.0018962
 6,0.00289088,-0.00013090,0.00011500,-0.00043361,0.00012698,0.00014083,
 0.00023858,-0.00013016,-0.00016407,-0.00038434,0.00002476,0.00005525,0
 .00012262,0.00001786,0.00006757,-0.00006328,-0.00001252,-0.00000310,-0
 .00000769,-0.00008527,0.00010750,0.00003807,0.00002816,-0.00014564,0.0
 0010865,0.00003556,-0.00000377,-0.00004525,-0.00015980,0.00001829,-0.0
 0008153,0.00014729,0.00004526,-0.00020892,0.00000274,-0.00007150,0.000
 10585,0.00002311,0.00001909,-0.00006881,0.00000106,0.00000193,0.000010
 03,-0.00000069,0.00000152,0.00000779,0.00003797,0.00002046,-0.00005940
 ,0.00031073,0.00002044,-0.00003601,0.00057341,0.00043748,-0.00106844,0
 .00016739,0.00003715,0.00004391,0.00001100,-0.00002138,0.00000604,0.00
 001859,-0.00005454,-0.00002043,-0.00003016,0.00000161,0.00001567,0.000
 00680,0.00002666,0.00000297,-0.00009768,0.00011243,0.00003482,-0.00091
 940,0.00012220,-0.00017084,-0.00021857,-0.00000341,0.00010616,-0.00097
 708,-0.00019628,-0.00011553,0.00068252,0.00275792,-0.00282912,-0.07362
 156,-0.00142452,0.07335248\\0.00124637,0.00493258,-0.00439991,-0.00289
 443,-0.02910452,0.01608961,0.05626837,-0.01507275,-0.01624667,-0.02517
 960,0.01118179,0.02521544,-0.00889848,-0.00105130,-0.02886602,-0.01633
 788,-0.02322591,0.00268043,0.00062819,0.02337621,-0.01128977,0.0058758
 1,-0.01142368,0.01864808,-0.02221915,0.00766281,-0.01721294,0.00337484
 ,0.01537720,-0.01617640,0.01265048,-0.02411523,0.02051711,0.02478638,-
 0.00830794,0.02142588,-0.00562629,0.02000469,0.01902424,-0.04110144,0.
 01686455,-0.00378632,0.02614006,-0.01955090,0.01088946,-0.02606095,-0.
 00567596,-0.00662559,0.01972503,0.05586775,-0.00000677,-0.02426780,-0.
 01677309,0.02441933,0.01835317,0.01397780,-0.01435114,0.01081460,-0.01
 391682,-0.01947298,-0.00633191,0.00149371,-0.00583841,-0.00417445,-0.0
 1739326,0.02905441,0.02108613,-0.01090985,-0.00346535,-0.01378582,-0.0
 1288734,-0.00716595,0.00216259,0.03048659,0.00949367,-0.01138114,-0.00
 761374,0.00793695,-0.00480223,0.00776420,0.01551544,0.02937657,-0.0093
 1317,-0.03761826,-0.00286012,0.00714731,0.01285471,-0.00344201,-0.0023
 6538,-0.00346960,-0.02091302,-0.00508928,-0.00361002,0.01926213,0.0031
 2227,0.00439156,-0.01931434,-0.00643286,0.00054288,0.01596975,0.002977
 88,0.00293820,-0.02357779,0.00010063,-0.00046526,-0.00516242,-0.004659
 50,-0.01726010,0.02137138,-0.00283103,-0.00258168,-0.00214344,0.004129
 26,0.00252640,-0.00089742,0.00632931,-0.01985360,-0.02261846,0.0000878
 1,0.00275799,0.02326596,-0.00086652,0.00102797,-0.02072068,0.00503196,
 0.00379220,0.02758839,0.00846960,-0.00437882,-0.02405901,0.00133984,-0
 .00362222,0.01882408,0.00085429,-0.00397820\\\@


 THE REAL VOYAGE OF DISCOVERY CONSISTS NOT IN SEEKING NEW LANDSCAPES 
 BUT IN HAVING NEW EYES.
                                                    -- MARCEL PROUST
 Job cpu time:  0 days 12 hours 49 minutes 54.1 seconds.
 File lengths (MBytes):  RWF=   1326 Int=      0 D2E=      0 Chk=     19 Scr=      1
 Normal termination of Gaussian 09 at Tue Mar  1 16:04:17 2016.
Gaussian '09 finished on node016 at Tue Mar  1 16:04:18 EST 2016.
