Gaussian '09 started on node016 at Fri Feb 12 10:58:56 EST 2016.
 Entering Gaussian System, Link 0=/usr/local/gaussian/g09/g09
 Initial command:
 /usr/local/gaussian/g09/l1.exe /home/srmcgrat/thesis/gaussian/cellobiose/450/5000/1/2dfp/gaussian32399/Gau-32435.inp -scrdir=/home/srmcgrat/thesis/gaussian/cellobiose/450/5000/1/2dfp/gaussian32399/
 Entering Link 1 = /usr/local/gaussian/g09/l1.exe PID=     32437.
  
 Copyright (c) 1988,1990,1992,1993,1995,1998,2003,2009,2010,
            Gaussian, Inc.  All Rights Reserved.
  
 This is part of the Gaussian(R) 09 program.  It is based on
 the Gaussian(R) 03 system (copyright 2003, Gaussian, Inc.),
 the Gaussian(R) 98 system (copyright 1998, Gaussian, Inc.),
 the Gaussian(R) 94 system (copyright 1995, Gaussian, Inc.),
 the Gaussian 92(TM) system (copyright 1992, Gaussian, Inc.),
 the Gaussian 90(TM) system (copyright 1990, Gaussian, Inc.),
 the Gaussian 88(TM) system (copyright 1988, Gaussian, Inc.),
 the Gaussian 86(TM) system (copyright 1986, Carnegie Mellon
 University), and the Gaussian 82(TM) system (copyright 1983,
 Carnegie Mellon University). Gaussian is a federally registered
 trademark of Gaussian, Inc.
  
 This software contains proprietary and confidential information,
 including trade secrets, belonging to Gaussian, Inc.
  
 This software is provided under written license and may be
 used, copied, transmitted, or stored only in accord with that
 written license.
  
 The following legend is applicable only to US Government
 contracts under FAR:
  
                    RESTRICTED RIGHTS LEGEND
  
 Use, reproduction and disclosure by the US Government is
 subject to restrictions as set forth in subparagraphs (a)
 and (c) of the Commercial Computer Software - Restricted
 Rights clause in FAR 52.227-19.
  
 Gaussian, Inc.
 340 Quinnipiac St., Bldg. 40, Wallingford CT 06492
  
  
 ---------------------------------------------------------------
 Warning -- This program may not be used in any manner that
 competes with the business of Gaussian, Inc. or will provide
 assistance to any competitor of Gaussian, Inc.  The licensee
 of this program is prohibited from giving any competitor of
 Gaussian, Inc. access to this program.  By using this program,
 the user acknowledges that Gaussian, Inc. is engaged in the
 business of creating and licensing software in the field of
 computational chemistry and represents and warrants to the
 licensee that it is not a competitor of Gaussian, Inc. and that
 it will not use this program in any manner prohibited above.
 ---------------------------------------------------------------
  

 Cite this work as:
 Gaussian 09, Revision B.01,
 M. J. Frisch, G. W. Trucks, H. B. Schlegel, G. E. Scuseria, 
 M. A. Robb, J. R. Cheeseman, G. Scalmani, V. Barone, B. Mennucci, 
 G. A. Petersson, H. Nakatsuji, M. Caricato, X. Li, H. P. Hratchian, 
 A. F. Izmaylov, J. Bloino, G. Zheng, J. L. Sonnenberg, M. Hada, 
 M. Ehara, K. Toyota, R. Fukuda, J. Hasegawa, M. Ishida, T. Nakajima, 
 Y. Honda, O. Kitao, H. Nakai, T. Vreven, J. A. Montgomery, Jr., 
 J. E. Peralta, F. Ogliaro, M. Bearpark, J. J. Heyd, E. Brothers, 
 K. N. Kudin, V. N. Staroverov, T. Keith, R. Kobayashi, J. Normand, 
 K. Raghavachari, A. Rendell, J. C. Burant, S. S. Iyengar, J. Tomasi, 
 M. Cossi, N. Rega, J. M. Millam, M. Klene, J. E. Knox, J. B. Cross, 
 V. Bakken, C. Adamo, J. Jaramillo, R. Gomperts, R. E. Stratmann, 
 O. Yazyev, A. J. Austin, R. Cammi, C. Pomelli, J. W. Ochterski, 
 R. L. Martin, K. Morokuma, V. G. Zakrzewski, G. A. Voth, 
 P. Salvador, J. J. Dannenberg, S. Dapprich, A. D. Daniels, 
 O. Farkas, J. B. Foresman, J. V. Ortiz, J. Cioslowski, 
 and D. J. Fox, Gaussian, Inc., Wallingford CT, 2010.
 
 ******************************************
 Gaussian 09:  EM64L-G09RevB.01 12-Aug-2010
                12-Feb-2016 
 ******************************************
 --------------------------------------------------
 # freq=raman b3lyp/6-31+g(2df,p) geom=connectivity
 --------------------------------------------------
 1/10=4,30=1,38=1,57=2/1,3;
 2/12=2,17=6,18=5,40=1/2;
 3/5=1,6=6,7=114,11=2,16=1,25=1,30=1,71=2,74=-5/1,2,3;
 4//1;
 5/5=2,38=5,98=1/2;
 8/6=4,10=90,11=11/1;
 10/13=10,15=4/2;
 11/6=3,8=1,9=11,15=111,16=1/1,2,10;
 10/6=1/2;
 6/7=2,8=2,9=2,10=2,18=1,28=1/1;
 7/8=1,10=1,25=1/1,2,3,16;
 1/10=4,30=1/3;
 99//99;
 ------------
 450 5000.com
 ------------
 Symbolic Z-matrix:
 Charge =  0 Multiplicity = 1
 O                     10.111    7.42      11.275 
 C                     10.893    7.413     12.479 
 C                     10.898    8.867     12.92 
 O                     11.6      9.828     12.118 
 H                     11.304    10.016    11.182 
 C                     11.368    9.184     14.331 
 O                     11.281    10.528    14.827 
 H                     11.901    10.99     14.193 
 C                     10.264    5.058     13.179 
 O                     9.805     4.079     14.122 
 H                     9.599     3.304     13.526 
 C                     10.262    6.533     13.546 
 O                     10.838    6.913     14.805 
 C                     10.567    8.256     15.23 
 O                     11.309    8.181     16.455 
 C                     10.593    8.25      17.697 
 C                     10.344    6.802     18.085 
 O                     9.826     5.886     17.109 
 H                     10.178    6.194     16.225 
 C                     9.409     6.808     19.283 
 O                     8.837     5.611     19.831 
 H                     8.459     5.158     19.024 
 C                     11.997    10.187    18.415 
 O                     12.668    10.896    19.467 
 H                     13.578    10.485    19.522 
 C                     11.386    8.862     18.84 
 O                     10.457    8.857     19.934 
 C                     10.127    7.541     20.404 
 O                     9.383     7.634     21.627 
 H                     9.99089   7.69034   22.36787 
 H                     11.03958   7.02152   20.60954 
 H                     8.57998   7.42318   19.0016 
 H                     11.28044   6.40437   18.41645 
 H                     9.66471   8.76583   17.56625 
 H                     12.18641   8.19516   19.08406 
 H                     11.21774   10.81095   18.02985 
 H                     10.69575   7.42443   10.51365 
 H                     11.26923   4.79895   12.91958 
 H                     9.66647   4.95149   12.2978 
 H                     9.23188   6.81803   13.59612 
 H                     11.89035   7.08626   12.27057 
 H                     9.87097   9.16544   12.88771 
 H                     12.39458   8.88955   14.39681 
 H                     9.53065   8.49664   15.34393 
 H                     12.70064   9.99923   17.63108 
 

 GradGradGradGradGradGradGradGradGradGradGradGradGradGradGradGradGradGrad
 Berny optimization.
 Initialization pass.
 Trust Radius=3.00D-01 FncErr=1.00D-07 GrdErr=1.00D-07
 Number of steps in this run=      2 maximum allowed number of steps=      2.
 GradGradGradGradGradGradGradGradGradGradGradGradGradGradGradGradGradGrad

                          Input orientation:                          
 ---------------------------------------------------------------------
 Center     Atomic      Atomic             Coordinates (Angstroms)
 Number     Number       Type             X           Y           Z
 ---------------------------------------------------------------------
      1          8           0       10.111000    7.420000   11.275000
      2          6           0       10.893000    7.413000   12.479000
      3          6           0       10.898000    8.867000   12.920000
      4          8           0       11.600000    9.828000   12.118000
      5          1           0       11.304000   10.016000   11.182000
      6          6           0       11.368000    9.184000   14.331000
      7          8           0       11.281000   10.528000   14.827000
      8          1           0       11.901000   10.990000   14.193000
      9          6           0       10.264000    5.058000   13.179000
     10          8           0        9.805000    4.079000   14.122000
     11          1           0        9.599000    3.304000   13.526000
     12          6           0       10.262000    6.533000   13.546000
     13          8           0       10.838000    6.913000   14.805000
     14          6           0       10.567000    8.256000   15.230000
     15          8           0       11.309000    8.181000   16.455000
     16          6           0       10.593000    8.250000   17.697000
     17          6           0       10.344000    6.802000   18.085000
     18          8           0        9.826000    5.886000   17.109000
     19          1           0       10.178000    6.194000   16.225000
     20          6           0        9.409000    6.808000   19.283000
     21          8           0        8.837000    5.611000   19.831000
     22          1           0        8.459000    5.158000   19.024000
     23          6           0       11.997000   10.187000   18.415000
     24          8           0       12.668000   10.896000   19.467000
     25          1           0       13.578000   10.485000   19.522000
     26          6           0       11.386000    8.862000   18.840000
     27          8           0       10.457000    8.857000   19.934000
     28          6           0       10.127000    7.541000   20.404000
     29          8           0        9.383000    7.634000   21.627000
     30          1           0        9.990893    7.690338   22.367872
     31          1           0       11.039576    7.021523   20.609543
     32          1           0        8.579983    7.423177   19.001597
     33          1           0       11.280445    6.404365   18.416448
     34          1           0        9.664711    8.765833   17.566248
     35          1           0       12.186412    8.195159   19.084055
     36          1           0       11.217742   10.810954   18.029852
     37          1           0       10.695749    7.424426   10.513653
     38          1           0       11.269234    4.798951   12.919583
     39          1           0        9.666468    4.951485   12.297802
     40          1           0        9.231880    6.818026   13.596119
     41          1           0       11.890347    7.086261   12.270575
     42          1           0        9.870970    9.165442   12.887708
     43          1           0       12.394582    8.889554   14.396805
     44          1           0        9.530654    8.496641   15.343928
     45          1           0       12.700638    9.999234   17.631075
 ---------------------------------------------------------------------
                    Distance matrix (angstroms):
                    1          2          3          4          5
     1  O    0.000000
     2  C    1.435684   0.000000
     3  C    2.327918   1.519415   0.000000
     4  O    2.954020   2.542124   1.435106   0.000000
     5  H    2.858516   2.937131   2.122659   0.999528   0.000000
     6  C    3.745782   2.606141   1.520628   2.316447   3.257686
     7  O    4.862640   3.920060   2.557784   2.816104   3.680856
     8  H    4.946082   4.092528   2.670893   2.397180   3.220436
     9  C    3.037708   2.536073   3.870080   5.065917   5.445307
    10  O    4.400151   3.872822   5.056125   6.347365   6.792538
    11  H    4.719174   4.433343   5.744702   6.967714   7.311108
    12  C    2.442747   1.520214   2.498785   3.832291   4.336537
    13  O    3.639571   2.379769   2.715684   4.037058   4.792900
    14  C    4.068029   2.895674   2.412257   3.636319   4.475162
    15  O    5.370915   4.070805   3.624326   4.648318   5.583169
    16  C    6.493328   5.293212   4.826328   5.884673   6.787452
    17  C    6.841952   5.665859   5.590024   6.807298   7.674816
    18  O    6.039034   4.990703   5.251977   6.602766   7.373650
    19  H    5.100006   4.003711   4.311189   5.665288   6.427084
    20  C    8.061973   6.990186   6.851596   8.078249   8.916753
    21  O    8.837460   7.843867   7.912723   9.214533  10.014755
    22  H    8.239706   7.338011   7.547464   8.908850   9.653556
    23  C    7.886247   6.644546   5.757189   6.319707   7.268134
    24  O    9.259033   8.007125   7.079050   7.502603   8.442519
    25  H    9.456602   8.139426   7.306622   7.691772   8.657173
    26  C    7.806037   6.542551   5.940082   6.794427   7.744895
    27  O    8.784245   7.606067   7.027857   7.958589   8.868945
    28  C    9.129816   7.962962   7.639566   8.721118   9.620615
    29  O   10.379773   9.274419   8.923417  10.007487  10.884034
    30  H   11.096816   9.933806   9.563978  10.593333  11.500291
    31  H    9.389075   8.141281   7.909165   8.960842   9.895220
    32  H    7.876822   6.920580   6.666607   7.892249   8.676929
    33  H    7.307489   6.034960   6.035045   7.175920   8.085895
    34  H    6.449050   5.405455   4.808207   5.878516   6.708860
    35  H    8.117238   6.775798   6.333005   7.178856   8.156996
    36  H    7.638814   6.516403   5.476475   6.005191   6.894380
    37  H    0.960000   1.975254   2.812904   3.027997   2.744615
    38  H    3.303946   2.677483   4.084953   5.103261   5.498909
    39  H    2.708745   2.756133   4.151513   5.248931   5.438367
    40  H    2.553981   2.088366   2.726057   4.105213   4.510953
    41  H    2.066065   1.070000   2.139518   2.761289   3.179964
    42  H    2.388516   2.069454   1.070000   2.005238   2.384631
    43  H    4.137633   2.848322   2.102670   2.589401   3.576762
    44  H    4.248780   3.352324   2.807531   4.057255   4.772301
    45  H    7.332009   6.041526   5.169689   5.624475   6.598594
                    6          7          8          9         10
     6  C    0.000000
     7  O    1.435242   0.000000
     8  H    1.888060   0.999900   0.000000
     9  C    4.423776   5.802680   6.236713   0.000000
    10  O    5.343002   6.653210   7.222200   1.434702   0.000000
    11  H    6.192882   7.530465   8.051005   1.907656   0.999138
    12  C    2.977795   4.317331   4.792680   1.519973   2.561785
    13  O    2.379709   3.642109   4.257516   2.532662   3.092755
    14  C    1.520193   2.415407   3.213982   3.811248   4.388125
    15  O    2.349652   2.856497   3.654804   4.645140   4.952909
    16  C    3.578119   3.728207   4.636430   5.541609   5.549668
    17  C    4.562348   5.037421   5.925475   5.207377   4.838452
    18  O    4.579503   5.373334   6.233739   4.040090   3.491111
    19  H    3.734091   4.685570   5.486289   3.252077   3.005822
    20  C    5.831412   6.099075   7.043244   6.407210   5.851511
    21  O    7.030099   7.429000   8.373099   6.825778   5.989719
    22  H    6.833389   7.376679   8.318542   6.118174   5.196688
    23  C    4.252141   3.674599   4.298757   7.531642   7.780898
    24  O    5.567714   4.856830   5.330310   8.910690   9.123447
    25  H    5.789921   5.226957   5.609420   8.981569   9.188709
    26  C    4.520519   4.346349   5.136946   6.912035   6.901896
    27  O    5.685988   5.436236   6.292369   7.752398   7.552068
    28  C    6.412555   6.430926   7.322513   7.640987   7.180018
    29  O    7.718442   7.630048   8.536241   8.875846   8.315115
    30  H    8.289678   8.159746   9.020245   9.562383   9.003929
    31  H    6.648629   6.766939   7.593608   7.724630   7.229857
    32  H    5.717343   5.861969   6.846458   6.506352   6.041081
    33  H    4.942157   5.467037   6.265033   5.502428   5.101621
    34  H    3.680066   3.636083   4.618085   5.775389   5.817984
    35  H    4.923326   4.938060   5.640480   6.957522   6.872836
    36  H    4.043645   3.215949   3.901324   7.585306   7.911154
    37  H    4.256778   5.345994   5.263415   3.590328   5.000548
    38  H    4.607657   6.038243   6.352150   1.070000   2.026850
    39  H    4.994325   6.332541   6.711823   1.070000   2.026850
    40  H    3.271222   4.413374   4.988571   2.082535   2.847329
    41  H    2.986421   4.330379   4.351438   2.753921   4.101227
    42  H    2.079551   2.757825   3.025528   4.136472   5.234474
    43  H    1.070000   2.027225   2.167264   4.550081   5.470181
    44  H    2.207787   2.730814   3.627673   4.129039   4.591724
    45  H    3.651168   3.187131   3.666251   7.083358   7.466424
                   11         12         13         14         15
    11  H    0.000000
    12  C    3.296424   0.000000
    13  O    4.024406   1.435708   0.000000
    14  C    5.325687   2.428500   1.434474   0.000000
    15  O    5.940393   3.503483   2.133580   1.434160   0.000000
    16  C    6.545853   4.504270   3.195506   2.467144   1.435263
    17  C    5.794438   4.547703   3.318849   3.211677   2.343025
    18  O    4.422233   3.647420   2.717957   3.113940   2.809632
    19  H    3.996491   2.701669   1.723067   2.322324   2.297875
    20  C    6.742193   5.806583   4.701654   4.456958   3.673243
    21  O    6.756916   6.510141   5.564160   5.581946   4.910505
    22  H    5.913114   5.928737   5.151663   5.332514   4.884751
    23  C    8.776583   6.330016   5.009437   3.989723   2.887729
    24  O   10.116951   7.738401   6.399018   5.416269   4.276710
    25  H   10.166180   7.894728   6.520496   5.697001   4.456822
    26  C    7.894513   5.891863   4.514436   3.751013   2.481515
    27  O    8.522584   6.800408   5.498267   4.743513   3.645041
    28  C    8.095544   6.932997   5.678794   5.241670   4.171490
    29  O    9.188131   8.202890   7.012599   6.535316   5.546014
    30  H    9.877867   8.901593   7.649764   7.183390   6.077846
    31  H    8.128457   7.122985   5.809055   5.539561   4.321713
    32  H    6.927350   5.777987   4.792739   4.343590   3.808804
    33  H    6.029594   4.977453   3.673829   3.753798   2.646606
    34  H    6.794082   4.637315   3.526200   2.555799   2.068958
    35  H    7.842839   6.093947   4.666097   4.180902   2.771639
    36  H    8.902773   6.270507   5.073255   3.845832   3.066781
    37  H    5.220633   3.190283   4.324055   4.790827   6.020638
    38  H    2.322133   2.100915   2.865304   4.216912   4.892751
    39  H    2.056023   2.100915   3.392060   4.508720   5.514524
    40  H    3.533847   1.070000   2.012470   2.553406   3.787522
    41  H    4.596940   2.141103   2.749685   3.446409   4.364153
    42  H    5.902362   2.741533   3.112017   2.607273   3.970217
    43  H    6.306504   3.290155   2.548791   2.106101   2.432427
    44  H    5.502096   2.761032   2.123091   1.070000   2.120524
    45  H    8.443811   5.886388   4.580498   3.654646   2.574059
                   16         17         18         19         20
    16  C    0.000000
    17  C    1.519621   0.000000
    18  O    2.553924   1.435255   0.000000
    19  H    2.562449   1.963879   1.000112   0.000000
    20  C    2.448799   1.519692   2.397968   3.212432   0.000000
    21  O    3.821232   2.595775   2.909129   3.891196   1.435373
    22  H    3.984388   2.671644   2.462904   3.444221   1.921479
    23  C    2.497741   3.781472   4.991741   4.903969   4.343824
    24  O    3.799979   4.906296   6.223924   6.230527   5.231317
    25  H    4.151635   5.107662   6.407096   6.390844   5.563992
    26  C    1.519816   2.428866   3.779754   3.926285   2.885081
    27  O    2.321877   2.766694   4.147967   4.574504   2.391758
    28  C    2.836844   2.443557   3.699547   4.391019   1.519689
    29  O    4.157939   3.763178   4.864574   5.646878   2.485415
    30  H    4.742658   4.388260   5.562244   6.325260   3.260914
    31  H    3.192412   2.627800   3.875045   4.544372   2.112838
    32  H    2.537291   2.082731   2.738137   3.431330   1.070000
    33  H    2.096796   1.070000   2.023248   2.462129   2.101461
    34  H    1.070000   2.141770   2.920365   2.945630   2.616436
    35  H    2.113266   2.516642   3.847675   4.026482   3.110918
    36  H    2.656987   4.103435   5.200008   5.065058   4.567884
    37  H    7.231362   7.605027   6.828017   5.865279   8.884658
    38  H    5.932179   5.616921   4.562436   3.750032   6.927469
    39  H    6.394529   6.113519   4.903712   4.150710   7.232284
    40  H    4.551969   4.624621   3.682660   2.862790   5.689647
    41  H    5.699429   6.023250   5.395601   4.400652   7.443697
    42  H    4.948601   5.729001   5.345658   4.478979   6.831596
    43  H    3.813923   4.708030   4.793219   3.939739   6.092739
    44  H    2.593522   3.323675   3.165147   2.549019   4.287493
    45  H    2.739763   3.997761   5.045274   4.777086   4.873162
                   21         22         23         24         25
    21  O    0.000000
    22  H    0.999671   0.000000
    23  C    5.738504   6.178929   0.000000
    24  O    6.537605   7.129977   1.435140   0.000000
    25  H    6.806500   7.404667   1.952899   1.000023   0.000000
    26  C    4.248351   4.724489   1.519727   2.484715   2.811426
    27  O    3.629260   4.301477   2.539264   3.043704   3.544118
    28  C    2.391094   3.219521   3.801886   4.311691   4.621089
    29  O    2.759757   3.709442   4.864951   5.108568   5.491562
    30  H    3.477188   4.465525   5.087532   5.085099   5.364370
    31  H    2.728927   3.556127   3.968995   4.355312   4.429675
    32  H    2.009466   2.268516   4.433827   5.384142   5.884365
    33  H    2.932714   3.143739   3.849906   4.817027   4.811713
    34  H    3.970791   4.073726   2.860011   4.143695   4.700460
    35  H    4.295855   4.808487   2.109726   2.770039   2.715085
    36  H    5.995964   6.368271   1.070000   2.043496   2.811329
    37  H    9.672457   9.086569   8.470912   9.803266   9.941066
    38  H    7.371762   6.729803   7.730480   9.055342   9.014070
    39  H    7.607368   6.836839   8.382249   9.784879   9.904994
    40  H    6.362906   5.728431   6.497498   7.931206   8.212888
    41  H    8.286094   7.816718   6.883308   8.179694   8.184300
    42  H    7.868447   7.463734   6.009537   7.355630   7.713438
    43  H    7.275698   7.129111   4.241147   5.459621   5.496685
    44  H    5.379767   5.083099   4.286217   5.709604   6.147427
    45  H    6.246916   6.585535   1.070000   2.043496   2.140404
                   26         27         28         29         30
    26  C    0.000000
    27  O    1.435236   0.000000
    28  C    2.403376   1.435847   0.000000
    29  O    3.645183   2.348500   1.434543   0.000000
    30  H    3.970516   2.738995   1.974239   0.960000   0.000000
    31  H    2.576557   2.040767   1.070000   2.038282   2.153781
    32  H    3.157540   2.539373   2.091382   2.753547   3.659761
    33  H    2.496098   2.999407   2.563735   3.926824   4.350911
    34  H    2.143485   2.498456   3.125182   4.224939   4.931397
    35  H    1.070000   2.037476   2.532066   3.826302   3.982286
    36  H    2.117326   2.832392   4.185558   5.137975   5.482866
    37  H    8.477683   9.531642   9.907372  11.192574  11.878133
    38  H    7.181458   8.144295   8.052331   9.349572   9.963155
    39  H    7.813403   8.613333   8.522213   9.711342  10.440923
    40  H    6.026305   6.769569   6.904431   8.073642   8.847637
    41  H    6.823853   7.994879   8.334794   9.702036  10.292145
    42  H    6.149567   7.077344   7.694089   8.885868   9.594990
    43  H    4.556312   5.866499   6.561015   7.932324   8.411525
    44  H    3.974709   4.696460   5.183937   6.343732   7.085036
    45  H    2.117326   3.412048   4.511722   5.706879   5.925450
                   31         32         33         34         35
    31  H    0.000000
    32  H    2.965875   0.000000
    33  H    2.290975   2.944974   0.000000
    34  H    3.767561   2.244903   2.984957   0.000000
    35  H    2.240484   3.689050   2.115046   2.998063   0.000000
    36  H    4.587629   4.402169   4.423959   2.609473   2.981954
    37  H   10.109774   8.747666   7.989778   7.252690   8.733149
    38  H    8.007999   7.149094   5.726518   6.316815   7.097617
    39  H    8.674993   7.227073   6.492581   6.504289   7.932514
    40  H    7.245501   5.478172   5.253884   4.443334   6.383040
    41  H    8.382505   7.508574   6.213591   5.984862   6.909474
    42  H    8.098688   6.487047   6.338542   4.700103   6.685614
    43  H    6.627495   6.156747   4.855408   4.184838   4.742977
    44  H    5.672699   3.928695   4.108498   2.242575   4.597009
    45  H    4.527378   5.049177   3.944215   3.277549   2.372818
                   36         37         38         39         40
    36  H    0.000000
    37  H    8.260405   0.000000
    38  H    7.890607   3.607008   0.000000
    39  H    8.342435   3.218392   1.725902   0.000000
    40  H    6.288490   3.465867   2.947063   2.314837   0.000000
    41  H    6.891663   2.151323   2.457392   3.082798   2.982694
    42  H    5.564454   3.057373   4.585019   4.259958   2.533899
    43  H    4.275016   4.484585   4.492396   5.230373   3.864584
    44  H    3.926384   5.083173   4.751108   4.676052   2.441690
    45  H    1.736920   7.829873   7.161705   7.945423   6.199454
                   41         42         43         44         45
    41  H    0.000000
    42  H    2.963398   0.000000
    43  H    2.833192   2.953321   0.000000
    44  H    4.123448   2.568293   3.041957   0.000000
    45  H    6.154425   5.585853   3.433011   4.187794   0.000000
 Stoichiometry    C12H22O11
 Framework group  C1[X(C12H22O11)]
 Deg. of freedom   129
 Full point group                 C1      NOp   1
 Largest Abelian subgroup         C1      NOp   1
 Largest concise Abelian subgroup C1      NOp   1
                         Standard orientation:                         
 ---------------------------------------------------------------------
 Center     Atomic      Atomic             Coordinates (Angstroms)
 Number     Number       Type             X           Y           Z
 ---------------------------------------------------------------------
      1          8           0        5.029550   -0.303092   -0.661102
      2          6           0        3.863533   -0.044966    0.135744
      3          6           0        3.315736    1.255094   -0.428511
      4          8           0        4.072616    2.460130   -0.242638
      5          1           0        4.978619    2.554961   -0.654004
      6          6           0        1.906101    1.667202   -0.034293
      7          8           0        1.307841    2.826342   -0.632958
      8          1           0        1.931162    3.535702   -0.304202
      9          6           0        3.315511   -2.480249    0.583779
     10          8           0        2.429755   -3.607678    0.635861
     11          1           0        3.072762   -4.366980    0.726847
     12          6           0        2.839576   -1.160297   -0.000629
     13          8           0        1.581149   -0.639228    0.453360
     14          6           0        1.045933    0.446060   -0.316971
     15          8           0       -0.137615    0.624746    0.473029
     16          6           0       -1.410419    0.326925   -0.119636
     17          6           0       -1.699314   -1.111007    0.278034
     18          8           0       -0.680348   -2.108926    0.117342
     19          1           0        0.192241   -1.638247    0.248774
     20          6           0       -2.932821   -1.554897   -0.490659
     21          8           0       -3.413517   -2.907334   -0.478777
     22          1           0       -2.591609   -3.435148   -0.691430
     23          6           0       -2.211212    2.633434    0.407104
     24          8           0       -3.283973    3.503195    0.797395
     25          1           0       -3.269639    3.505711    1.797313
     26          6           0       -2.561445    1.154758    0.427787
     27          8           0       -3.690261    0.708625   -0.338139
     28          6           0       -4.074135   -0.647278   -0.062776
     29          8           0       -5.330985   -0.933994   -0.692090
     30          1           0       -6.047667   -0.667397   -0.111664
     31          1           0       -4.201576   -0.749785    0.994651
     32          1           0       -2.733423   -1.326912   -1.516896
     33          1           0       -1.960291   -1.099307    1.315654
     34          1           0       -1.357885    0.415814   -1.184643
     35          1           0       -2.720982    0.869850    1.446745
     36          1           0       -1.907006    2.895319   -0.584750
     37          1           0        5.812447   -0.017446   -0.184575
     38          1           0        3.635769   -2.284283    1.585744
     39          1           0        4.176186   -2.781015    0.023711
     40          1           0        2.724851   -1.332463   -1.050437
     41          1           0        4.137712    0.083682    1.161988
     42          1           0        3.282246    1.100554   -1.486762
     43          1           0        1.905883    1.823492    1.024231
     44          1           0        0.870688    0.227783   -1.349708
     45          1           0       -1.386441    2.795155    1.069297
 ---------------------------------------------------------------------
 Rotational constants (GHZ):      0.3705327      0.1531758      0.1128390
 Standard basis: 6-31+G(2df,p) (6D, 7F)
 There are   846 symmetry adapted basis functions of A   symmetry.
 Integral buffers will be    131072 words long.
 Raffenetti 2 integral format.
 Two-electron integral symmetry is turned on.
   846 basis functions,  1258 primitive gaussians,   915 cartesian basis functions
    91 alpha electrons       91 beta electrons
       nuclear repulsion energy      2282.4828478094 Hartrees.
 NAtoms=   45 NActive=   45 NUniq=   45 SFac= 1.00D+00 NAtFMM=   50 NAOKFM=F Big=F
 One-electron integrals computed using PRISM.
 NBasis=   846 RedAO= T  NBF=   846
 NBsUse=   846 1.00D-06 NBFU=   846
 Harris functional with IExCor=  402 diagonalized for initial guess.
 ExpMin= 4.38D-02 ExpMax= 5.48D+03 ExpMxC= 8.25D+02 IAcc=2 IRadAn=         0 AccDes= 0.00D+00
 HarFok:  IExCor=  402 AccDes= 0.00D+00 IRadAn=         0 IDoV= 1
 ScaDFX=  1.000000  1.000000  1.000000  1.000000
 FoFCou: FMM=F IPFlag=           0 FMFlag=      100000 FMFlg1=           0
         NFxFlg=           0 DoJE=T BraDBF=F KetDBF=T FulRan=T
         Omega=  0.000000  0.000000  1.000000  0.000000  0.000000 ICntrl=     500 IOpCl=  0
         NMat0=    1 NMatS0=    1 NMatT0=    0 NMatD0=    1 NMtDS0=    0 NMtDT0=    0
         I1Cent=           4 NGrid=           0.
 Petite list used in FoFCou.
 Initial guess orbital symmetries:
       Occupied  (A) (A) (A) (A) (A) (A) (A) (A) (A) (A) (A) (A)
                 (A) (A) (A) (A) (A) (A) (A) (A) (A) (A) (A) (A)
                 (A) (A) (A) (A) (A) (A) (A) (A) (A) (A) (A) (A)
                 (A) (A) (A) (A) (A) (A) (A) (A) (A) (A) (A) (A)
                 (A) (A) (A) (A) (A) (A) (A) (A) (A) (A) (A) (A)
                 (A) (A) (A) (A) (A) (A) (A) (A) (A) (A) (A) (A)
                 (A) (A) (A) (A) (A) (A) (A) (A) (A) (A) (A) (A)
                 (A) (A) (A) (A) (A) (A) (A)
       Virtual   (A) (A) (A) (A) (A) (A) (A) (A) (A) (A) (A) (A)
                 (A) (A) (A) (A) (A) (A) (A) (A) (A) (A) (A) (A)
                 (A) (A) (A) (A) (A) (A) (A) (A) (A) (A) (A) (A)
                 (A) (A) (A) (A) (A) (A) (A) (A) (A) (A) (A) (A)
                 (A) (A) (A) (A) (A) (A) (A) (A) (A) (A) (A) (A)
                 (A) (A) (A) (A) (A) (A) (A) (A) (A) (A) (A) (A)
                 (A) (A) (A) (A) (A) (A) (A) (A) (A) (A) (A) (A)
                 (A) (A) (A) (A) (A) (A) (A) (A) (A) (A) (A) (A)
                 (A) (A) (A) (A) (A) (A) (A) (A) (A) (A) (A) (A)
                 (A) (A) (A) (A) (A) (A) (A) (A) (A) (A) (A) (A)
                 (A) (A) (A) (A) (A) (A) (A) (A) (A) (A) (A) (A)
                 (A) (A) (A) (A) (A) (A) (A) (A) (A) (A) (A) (A)
                 (A) (A) (A) (A) (A) (A) (A) (A) (A) (A) (A) (A)
                 (A) (A) (A) (A) (A) (A) (A) (A) (A) (A) (A) (A)
                 (A) (A) (A) (A) (A) (A) (A) (A) (A) (A) (A) (A)
                 (A) (A) (A) (A) (A) (A) (A) (A) (A) (A) (A) (A)
                 (A) (A) (A) (A) (A) (A) (A) (A) (A) (A) (A) (A)
                 (A) (A) (A) (A) (A) (A) (A) (A) (A) (A) (A) (A)
                 (A) (A) (A) (A) (A) (A) (A) (A) (A) (A) (A) (A)
                 (A) (A) (A) (A) (A) (A) (A) (A) (A) (A) (A) (A)
                 (A) (A) (A) (A) (A) (A) (A) (A) (A) (A) (A) (A)
                 (A) (A) (A) (A) (A) (A) (A) (A) (A) (A) (A) (A)
                 (A) (A) (A) (A) (A) (A) (A) (A) (A) (A) (A) (A)
                 (A) (A) (A) (A) (A) (A) (A) (A) (A) (A) (A) (A)
                 (A) (A) (A) (A) (A) (A) (A) (A) (A) (A) (A) (A)
                 (A) (A) (A) (A) (A) (A) (A) (A) (A) (A) (A) (A)
                 (A) (A) (A) (A) (A) (A) (A) (A) (A) (A) (A) (A)
                 (A) (A) (A) (A) (A) (A) (A) (A) (A) (A) (A) (A)
                 (A) (A) (A) (A) (A) (A) (A) (A) (A) (A) (A) (A)
                 (A) (A) (A) (A) (A) (A) (A) (A) (A) (A) (A) (A)
                 (A) (A) (A) (A) (A) (A) (A) (A) (A) (A) (A) (A)
                 (A) (A) (A) (A) (A) (A) (A) (A) (A) (A) (A) (A)
                 (A) (A) (A) (A) (A) (A) (A) (A) (A) (A) (A) (A)
                 (A) (A) (A) (A) (A) (A) (A) (A) (A) (A) (A) (A)
                 (A) (A) (A) (A) (A) (A) (A) (A) (A) (A) (A) (A)
                 (A) (A) (A) (A) (A) (A) (A) (A) (A) (A) (A) (A)
                 (A) (A) (A) (A) (A) (A) (A) (A) (A) (A) (A) (A)
                 (A) (A) (A) (A) (A) (A) (A) (A) (A) (A) (A) (A)
                 (A) (A) (A) (A) (A) (A) (A) (A) (A) (A) (A) (A)
                 (A) (A) (A) (A) (A) (A) (A) (A) (A) (A) (A) (A)
                 (A) (A) (A) (A) (A) (A) (A) (A) (A) (A) (A) (A)
                 (A) (A) (A) (A) (A) (A) (A) (A) (A) (A) (A) (A)
                 (A) (A) (A) (A) (A) (A) (A) (A) (A) (A) (A) (A)
                 (A) (A) (A) (A) (A) (A) (A) (A) (A) (A) (A) (A)
                 (A) (A) (A) (A) (A) (A) (A) (A) (A) (A) (A) (A)
                 (A) (A) (A) (A) (A) (A) (A) (A) (A) (A) (A) (A)
                 (A) (A) (A) (A) (A) (A) (A) (A) (A) (A) (A) (A)
                 (A) (A) (A) (A) (A) (A) (A) (A) (A) (A) (A) (A)
                 (A) (A) (A) (A) (A) (A) (A) (A) (A) (A) (A) (A)
                 (A) (A) (A) (A) (A) (A) (A) (A) (A) (A) (A) (A)
                 (A) (A) (A) (A) (A) (A) (A) (A) (A) (A) (A) (A)
                 (A) (A) (A) (A) (A) (A) (A) (A) (A) (A) (A) (A)
                 (A) (A) (A) (A) (A) (A) (A) (A) (A) (A) (A) (A)
                 (A) (A) (A) (A) (A) (A) (A) (A) (A) (A) (A) (A)
                 (A) (A) (A) (A) (A) (A) (A) (A) (A) (A) (A) (A)
                 (A) (A) (A) (A) (A) (A) (A) (A) (A) (A) (A) (A)
                 (A) (A) (A) (A) (A) (A) (A) (A) (A) (A) (A) (A)
                 (A) (A) (A) (A) (A) (A) (A) (A) (A) (A) (A) (A)
                 (A) (A) (A) (A) (A) (A) (A) (A) (A) (A) (A) (A)
                 (A) (A) (A) (A) (A) (A) (A) (A) (A) (A) (A) (A)
                 (A) (A) (A) (A) (A) (A) (A) (A) (A) (A) (A) (A)
                 (A) (A) (A) (A) (A) (A) (A) (A) (A) (A) (A) (A)
                 (A) (A) (A) (A) (A) (A) (A) (A) (A) (A) (A)
 The electronic state of the initial guess is 1-A.
 Requested convergence on RMS density matrix=1.00D-08 within 128 cycles.
 Requested convergence on MAX density matrix=1.00D-06.
 Requested convergence on             energy=1.00D-06.
 No special actions if energy rises.
 SCF Done:  E(RB3LYP) =  -1297.99448764     A.U. after   14 cycles
             Convg  =    0.1590D-08             -V/T =  2.0065
 Range of M.O.s used for correlation:     1   846
 NBasis=   846 NAE=    91 NBE=    91 NFC=     0 NFV=     0
 NROrb=    846 NOA=    91 NOB=    91 NVA=   755 NVB=   755

 **** Warning!!: The largest alpha MO coefficient is  0.88721331D+02

          Differentiating once with respect to electric field.
                with respect to dipole field.
          Electric field/nuclear overlap derivatives assumed to be zero.
          There are     3 degrees of freedom in the 1st order CPHF.  IDoFFX=0.
      3 vectors produced by pass  0 Test12= 2.29D-12 3.33D-08 XBig12= 1.23D+02 1.27D+00.
 AX will form     3 AO Fock derivatives at one time.
      3 vectors produced by pass  1 Test12= 2.29D-12 3.33D-08 XBig12= 2.41D+01 3.52D-01.
      3 vectors produced by pass  2 Test12= 2.29D-12 3.33D-08 XBig12= 1.02D+01 2.08D-01.
      3 vectors produced by pass  3 Test12= 2.29D-12 3.33D-08 XBig12= 1.20D+00 8.78D-02.
      3 vectors produced by pass  4 Test12= 2.29D-12 3.33D-08 XBig12= 3.58D-01 3.89D-02.
      3 vectors produced by pass  5 Test12= 2.29D-12 3.33D-08 XBig12= 6.42D-02 1.88D-02.
      3 vectors produced by pass  6 Test12= 2.29D-12 3.33D-08 XBig12= 2.08D-02 1.51D-02.
      3 vectors produced by pass  7 Test12= 2.29D-12 3.33D-08 XBig12= 3.43D-03 9.32D-03.
      3 vectors produced by pass  8 Test12= 2.29D-12 3.33D-08 XBig12= 7.81D-04 4.30D-03.
      3 vectors produced by pass  9 Test12= 2.29D-12 3.33D-08 XBig12= 1.98D-04 2.60D-03.
      3 vectors produced by pass 10 Test12= 2.29D-12 3.33D-08 XBig12= 5.65D-05 1.29D-03.
      3 vectors produced by pass 11 Test12= 2.29D-12 3.33D-08 XBig12= 1.24D-05 7.94D-04.
      3 vectors produced by pass 12 Test12= 2.29D-12 3.33D-08 XBig12= 1.72D-06 2.50D-04.
      3 vectors produced by pass 13 Test12= 2.29D-12 3.33D-08 XBig12= 3.71D-07 8.18D-05.
      3 vectors produced by pass 14 Test12= 2.29D-12 3.33D-08 XBig12= 6.11D-08 3.41D-05.
      3 vectors produced by pass 15 Test12= 2.29D-12 3.33D-08 XBig12= 1.64D-08 1.69D-05.
      3 vectors produced by pass 16 Test12= 2.29D-12 3.33D-08 XBig12= 2.53D-09 7.09D-06.
      3 vectors produced by pass 17 Test12= 2.29D-12 3.33D-08 XBig12= 2.15D-10 1.74D-06.
      3 vectors produced by pass 18 Test12= 2.29D-12 3.33D-08 XBig12= 3.04D-11 4.59D-07.
      3 vectors produced by pass 19 Test12= 2.29D-12 3.33D-08 XBig12= 7.27D-12 2.08D-07.
      3 vectors produced by pass 20 Test12= 2.29D-12 3.33D-08 XBig12= 5.35D-12 1.56D-07.
      3 vectors produced by pass 21 Test12= 2.29D-12 3.33D-08 XBig12= 1.01D-12 6.85D-08.
 Inverted reduced A of dimension    66 with in-core refinement.
 End of Minotr Frequency-dependent properties file   721 does not exist.
 End of Minotr Frequency-dependent properties file   722 does not exist.
 Symmetrizing basis deriv contribution to polar:
 IMax=3 JMax=2 DiffMx= 0.00D+00
 G2DrvN: will do     8 centers at a time, making    6 passes doing MaxLOS=3.
 Calling FoFCou, ICntrl=  3107 FMM=F I1Cent=   0 AccDes= 0.00D+00.
 Calling FoFCou, ICntrl=  3107 FMM=F I1Cent=   0 AccDes= 0.00D+00.
 Calling FoFCou, ICntrl=  3107 FMM=F I1Cent=   0 AccDes= 0.00D+00.
 Calling FoFCou, ICntrl=  3107 FMM=F I1Cent=   0 AccDes= 0.00D+00.
 Calling FoFCou, ICntrl=  3107 FMM=F I1Cent=   0 AccDes= 0.00D+00.
 Calling FoFCou, ICntrl=  3107 FMM=F I1Cent=   0 AccDes= 0.00D+00.
 FoFDir/FoFCou used for L=0 through L=3.
 End of G2Drv Frequency-dependent properties file   721 does not exist.
 End of G2Drv Frequency-dependent properties file   722 does not exist.
          IDoAtm=111111111111111111111111111111111111111111111
          Differentiating once with respect to electric field.
                with respect to dipole field.
          Differentiating once with respect to nuclear coordinates.
          There are   138 degrees of freedom in the 1st order CPHF.  IDoFFX=5.
 Will reuse    3 saved solutions.
    135 vectors produced by pass  0 Test12= 6.87D-14 1.00D-09 XBig12= 1.90D-01 7.57D-02.
 AX will form    27 AO Fock derivatives at one time.
    135 vectors produced by pass  1 Test12= 6.87D-14 1.00D-09 XBig12= 2.22D-02 1.51D-02.
    132 vectors produced by pass  2 Test12= 6.87D-14 1.00D-09 XBig12= 2.21D-04 2.12D-03.
    132 vectors produced by pass  3 Test12= 6.87D-14 1.00D-09 XBig12= 1.23D-06 9.40D-05.
    132 vectors produced by pass  4 Test12= 6.87D-14 1.00D-09 XBig12= 3.63D-09 3.89D-06.
    132 vectors produced by pass  5 Test12= 6.87D-14 1.00D-09 XBig12= 9.99D-12 1.78D-07.
     95 vectors produced by pass  6 Test12= 6.87D-14 1.00D-09 XBig12= 3.01D-13 3.09D-08.
      2 vectors produced by pass  7 Test12= 6.87D-14 1.00D-09 XBig12= 2.11D-15 2.39D-09.
 Inverted reduced A of dimension   895 with in-core refinement.
 Isotropic polarizability for W=    0.000000      191.80 Bohr**3.
 End of Minotr Frequency-dependent properties file   721 does not exist.
 End of Minotr Frequency-dependent properties file   722 does not exist.

 **********************************************************************

            Population analysis using the SCF density.

 **********************************************************************

 Orbital symmetries:
       Occupied  (A) (A) (A) (A) (A) (A) (A) (A) (A) (A) (A) (A)
                 (A) (A) (A) (A) (A) (A) (A) (A) (A) (A) (A) (A)
                 (A) (A) (A) (A) (A) (A) (A) (A) (A) (A) (A) (A)
                 (A) (A) (A) (A) (A) (A) (A) (A) (A) (A) (A) (A)
                 (A) (A) (A) (A) (A) (A) (A) (A) (A) (A) (A) (A)
                 (A) (A) (A) (A) (A) (A) (A) (A) (A) (A) (A) (A)
                 (A) (A) (A) (A) (A) (A) (A) (A) (A) (A) (A) (A)
                 (A) (A) (A) (A) (A) (A) (A)
       Virtual   (A) (A) (A) (A) (A) (A) (A) (A) (A) (A) (A) (A)
                 (A) (A) (A) (A) (A) (A) (A) (A) (A) (A) (A) (A)
                 (A) (A) (A) (A) (A) (A) (A) (A) (A) (A) (A) (A)
                 (A) (A) (A) (A) (A) (A) (A) (A) (A) (A) (A) (A)
                 (A) (A) (A) (A) (A) (A) (A) (A) (A) (A) (A) (A)
                 (A) (A) (A) (A) (A) (A) (A) (A) (A) (A) (A) (A)
                 (A) (A) (A) (A) (A) (A) (A) (A) (A) (A) (A) (A)
                 (A) (A) (A) (A) (A) (A) (A) (A) (A) (A) (A) (A)
                 (A) (A) (A) (A) (A) (A) (A) (A) (A) (A) (A) (A)
                 (A) (A) (A) (A) (A) (A) (A) (A) (A) (A) (A) (A)
                 (A) (A) (A) (A) (A) (A) (A) (A) (A) (A) (A) (A)
                 (A) (A) (A) (A) (A) (A) (A) (A) (A) (A) (A) (A)
                 (A) (A) (A) (A) (A) (A) (A) (A) (A) (A) (A) (A)
                 (A) (A) (A) (A) (A) (A) (A) (A) (A) (A) (A) (A)
                 (A) (A) (A) (A) (A) (A) (A) (A) (A) (A) (A) (A)
                 (A) (A) (A) (A) (A) (A) (A) (A) (A) (A) (A) (A)
                 (A) (A) (A) (A) (A) (A) (A) (A) (A) (A) (A) (A)
                 (A) (A) (A) (A) (A) (A) (A) (A) (A) (A) (A) (A)
                 (A) (A) (A) (A) (A) (A) (A) (A) (A) (A) (A) (A)
                 (A) (A) (A) (A) (A) (A) (A) (A) (A) (A) (A) (A)
                 (A) (A) (A) (A) (A) (A) (A) (A) (A) (A) (A) (A)
                 (A) (A) (A) (A) (A) (A) (A) (A) (A) (A) (A) (A)
                 (A) (A) (A) (A) (A) (A) (A) (A) (A) (A) (A) (A)
                 (A) (A) (A) (A) (A) (A) (A) (A) (A) (A) (A) (A)
                 (A) (A) (A) (A) (A) (A) (A) (A) (A) (A) (A) (A)
                 (A) (A) (A) (A) (A) (A) (A) (A) (A) (A) (A) (A)
                 (A) (A) (A) (A) (A) (A) (A) (A) (A) (A) (A) (A)
                 (A) (A) (A) (A) (A) (A) (A) (A) (A) (A) (A) (A)
                 (A) (A) (A) (A) (A) (A) (A) (A) (A) (A) (A) (A)
                 (A) (A) (A) (A) (A) (A) (A) (A) (A) (A) (A) (A)
                 (A) (A) (A) (A) (A) (A) (A) (A) (A) (A) (A) (A)
                 (A) (A) (A) (A) (A) (A) (A) (A) (A) (A) (A) (A)
                 (A) (A) (A) (A) (A) (A) (A) (A) (A) (A) (A) (A)
                 (A) (A) (A) (A) (A) (A) (A) (A) (A) (A) (A) (A)
                 (A) (A) (A) (A) (A) (A) (A) (A) (A) (A) (A) (A)
                 (A) (A) (A) (A) (A) (A) (A) (A) (A) (A) (A) (A)
                 (A) (A) (A) (A) (A) (A) (A) (A) (A) (A) (A) (A)
                 (A) (A) (A) (A) (A) (A) (A) (A) (A) (A) (A) (A)
                 (A) (A) (A) (A) (A) (A) (A) (A) (A) (A) (A) (A)
                 (A) (A) (A) (A) (A) (A) (A) (A) (A) (A) (A) (A)
                 (A) (A) (A) (A) (A) (A) (A) (A) (A) (A) (A) (A)
                 (A) (A) (A) (A) (A) (A) (A) (A) (A) (A) (A) (A)
                 (A) (A) (A) (A) (A) (A) (A) (A) (A) (A) (A) (A)
                 (A) (A) (A) (A) (A) (A) (A) (A) (A) (A) (A) (A)
                 (A) (A) (A) (A) (A) (A) (A) (A) (A) (A) (A) (A)
                 (A) (A) (A) (A) (A) (A) (A) (A) (A) (A) (A) (A)
                 (A) (A) (A) (A) (A) (A) (A) (A) (A) (A) (A) (A)
                 (A) (A) (A) (A) (A) (A) (A) (A) (A) (A) (A) (A)
                 (A) (A) (A) (A) (A) (A) (A) (A) (A) (A) (A) (A)
                 (A) (A) (A) (A) (A) (A) (A) (A) (A) (A) (A) (A)
                 (A) (A) (A) (A) (A) (A) (A) (A) (A) (A) (A) (A)
                 (A) (A) (A) (A) (A) (A) (A) (A) (A) (A) (A) (A)
                 (A) (A) (A) (A) (A) (A) (A) (A) (A) (A) (A) (A)
                 (A) (A) (A) (A) (A) (A) (A) (A) (A) (A) (A) (A)
                 (A) (A) (A) (A) (A) (A) (A) (A) (A) (A) (A) (A)
                 (A) (A) (A) (A) (A) (A) (A) (A) (A) (A) (A) (A)
                 (A) (A) (A) (A) (A) (A) (A) (A) (A) (A) (A) (A)
                 (A) (A) (A) (A) (A) (A) (A) (A) (A) (A) (A) (A)
                 (A) (A) (A) (A) (A) (A) (A) (A) (A) (A) (A) (A)
                 (A) (A) (A) (A) (A) (A) (A) (A) (A) (A) (A) (A)
                 (A) (A) (A) (A) (A) (A) (A) (A) (A) (A) (A) (A)
                 (A) (A) (A) (A) (A) (A) (A) (A) (A) (A) (A) (A)
                 (A) (A) (A) (A) (A) (A) (A) (A) (A) (A) (A)
 The electronic state is 1-A.
 Alpha  occ. eigenvalues --  -19.19562 -19.19078 -19.18483 -19.17632 -19.17241
 Alpha  occ. eigenvalues --  -19.17133 -19.15391 -19.15232 -19.15185 -19.14240
 Alpha  occ. eigenvalues --  -19.13570 -10.31619 -10.28189 -10.27605 -10.27230
 Alpha  occ. eigenvalues --  -10.26440 -10.25749 -10.25584 -10.24560 -10.24282
 Alpha  occ. eigenvalues --  -10.22913 -10.22805 -10.22510  -1.11125  -1.07318
 Alpha  occ. eigenvalues --   -1.06424  -1.05335  -1.04179  -1.03512  -1.03041
 Alpha  occ. eigenvalues --   -1.01863  -1.01310  -1.00405  -0.99402  -0.82890
 Alpha  occ. eigenvalues --   -0.81977  -0.78903  -0.77426  -0.72481  -0.69491
 Alpha  occ. eigenvalues --   -0.67617  -0.64580  -0.63409  -0.62356  -0.61101
 Alpha  occ. eigenvalues --   -0.60205  -0.57429  -0.56689  -0.55223  -0.53707
 Alpha  occ. eigenvalues --   -0.53178  -0.52970  -0.52647  -0.52185  -0.50711
 Alpha  occ. eigenvalues --   -0.49869  -0.49421  -0.49143  -0.47612  -0.46568
 Alpha  occ. eigenvalues --   -0.46019  -0.45167  -0.44586  -0.43573  -0.43211
 Alpha  occ. eigenvalues --   -0.42937  -0.42276  -0.40457  -0.40175  -0.39385
 Alpha  occ. eigenvalues --   -0.38513  -0.37503  -0.37297  -0.36724  -0.36374
 Alpha  occ. eigenvalues --   -0.35468  -0.35394  -0.34423  -0.34132  -0.33839
 Alpha  occ. eigenvalues --   -0.32461  -0.31149  -0.30492  -0.30300  -0.29805
 Alpha  occ. eigenvalues --   -0.29630  -0.29487  -0.28093  -0.27610  -0.26040
 Alpha  occ. eigenvalues --   -0.25645
 Alpha virt. eigenvalues --   -0.03696  -0.02265  -0.00932  -0.00864   0.00202
 Alpha virt. eigenvalues --    0.01136   0.01406   0.01809   0.02549   0.03004
 Alpha virt. eigenvalues --    0.03478   0.04417   0.05055   0.05526   0.05769
 Alpha virt. eigenvalues --    0.06143   0.06424   0.06635   0.07518   0.08343
 Alpha virt. eigenvalues --    0.08392   0.08633   0.09303   0.09475   0.10170
 Alpha virt. eigenvalues --    0.10396   0.11240   0.11426   0.11597   0.11781
 Alpha virt. eigenvalues --    0.12103   0.12252   0.12777   0.13242   0.13644
 Alpha virt. eigenvalues --    0.14116   0.14246   0.14442   0.14763   0.15155
 Alpha virt. eigenvalues --    0.15529   0.15920   0.16280   0.16682   0.16987
 Alpha virt. eigenvalues --    0.17257   0.17434   0.18269   0.18351   0.18771
 Alpha virt. eigenvalues --    0.19048   0.19233   0.19516   0.19865   0.20184
 Alpha virt. eigenvalues --    0.20269   0.20636   0.20766   0.21396   0.21643
 Alpha virt. eigenvalues --    0.21844   0.22228   0.22388   0.23156   0.23260
 Alpha virt. eigenvalues --    0.23358   0.23825   0.23909   0.24329   0.24614
 Alpha virt. eigenvalues --    0.24803   0.24894   0.25104   0.25630   0.25812
 Alpha virt. eigenvalues --    0.26095   0.26557   0.27010   0.27183   0.27545
 Alpha virt. eigenvalues --    0.27731   0.28176   0.28336   0.28645   0.28943
 Alpha virt. eigenvalues --    0.29249   0.29437   0.29688   0.30023   0.30292
 Alpha virt. eigenvalues --    0.30479   0.30837   0.31193   0.31674   0.32149
 Alpha virt. eigenvalues --    0.32322   0.32540   0.33188   0.33385   0.33844
 Alpha virt. eigenvalues --    0.34034   0.34535   0.34858   0.35038   0.35405
 Alpha virt. eigenvalues --    0.35473   0.35904   0.36148   0.36678   0.37149
 Alpha virt. eigenvalues --    0.37695   0.37979   0.38375   0.38636   0.38844
 Alpha virt. eigenvalues --    0.39935   0.40111   0.40510   0.40963   0.41405
 Alpha virt. eigenvalues --    0.41476   0.41879   0.42412   0.42874   0.43587
 Alpha virt. eigenvalues --    0.44111   0.44420   0.44947   0.45607   0.45768
 Alpha virt. eigenvalues --    0.46570   0.46975   0.47848   0.48633   0.49801
 Alpha virt. eigenvalues --    0.51466   0.53338   0.54146   0.55660   0.56729
 Alpha virt. eigenvalues --    0.57962   0.58451   0.60058   0.61140   0.61650
 Alpha virt. eigenvalues --    0.61898   0.62757   0.64903   0.65495   0.66309
 Alpha virt. eigenvalues --    0.66671   0.68094   0.68141   0.69306   0.69851
 Alpha virt. eigenvalues --    0.70612   0.71233   0.71797   0.72118   0.73112
 Alpha virt. eigenvalues --    0.73928   0.74708   0.75623   0.76161   0.76254
 Alpha virt. eigenvalues --    0.77984   0.78313   0.79477   0.80686   0.81487
 Alpha virt. eigenvalues --    0.81830   0.82495   0.83514   0.83901   0.84281
 Alpha virt. eigenvalues --    0.86173   0.86944   0.87275   0.87665   0.89045
 Alpha virt. eigenvalues --    0.89838   0.90105   0.90474   0.91066   0.91104
 Alpha virt. eigenvalues --    0.91424   0.91851   0.92646   0.92848   0.92962
 Alpha virt. eigenvalues --    0.93567   0.93984   0.94549   0.95091   0.95942
 Alpha virt. eigenvalues --    0.96090   0.96739   0.96936   0.97528   0.97676
 Alpha virt. eigenvalues --    0.98916   0.98979   0.99907   1.00707   1.01554
 Alpha virt. eigenvalues --    1.01981   1.02602   1.03612   1.03777   1.04274
 Alpha virt. eigenvalues --    1.04657   1.04934   1.05995   1.06295   1.06829
 Alpha virt. eigenvalues --    1.08168   1.08471   1.09207   1.09768   1.10485
 Alpha virt. eigenvalues --    1.11620   1.11777   1.12101   1.12653   1.13448
 Alpha virt. eigenvalues --    1.13748   1.14465   1.14744   1.15819   1.16746
 Alpha virt. eigenvalues --    1.17295   1.17516   1.18225   1.18585   1.18763
 Alpha virt. eigenvalues --    1.19505   1.19817   1.20875   1.21416   1.21726
 Alpha virt. eigenvalues --    1.22270   1.22959   1.23913   1.24553   1.24773
 Alpha virt. eigenvalues --    1.25548   1.25823   1.26364   1.26459   1.27043
 Alpha virt. eigenvalues --    1.27553   1.28060   1.28308   1.28579   1.29242
 Alpha virt. eigenvalues --    1.30313   1.31066   1.31637   1.32541   1.33242
 Alpha virt. eigenvalues --    1.33831   1.34231   1.35265   1.35756   1.36263
 Alpha virt. eigenvalues --    1.36616   1.37304   1.37910   1.38675   1.39072
 Alpha virt. eigenvalues --    1.39819   1.40159   1.41067   1.41454   1.42105
 Alpha virt. eigenvalues --    1.42538   1.43891   1.45345   1.45564   1.46571
 Alpha virt. eigenvalues --    1.47242   1.48781   1.48996   1.49714   1.49888
 Alpha virt. eigenvalues --    1.51106   1.51532   1.52519   1.53324   1.54705
 Alpha virt. eigenvalues --    1.55716   1.55969   1.56595   1.57054   1.58212
 Alpha virt. eigenvalues --    1.58876   1.60841   1.61279   1.62054   1.62899
 Alpha virt. eigenvalues --    1.63428   1.64254   1.66228   1.66725   1.67968
 Alpha virt. eigenvalues --    1.69070   1.69324   1.70372   1.71335   1.71870
 Alpha virt. eigenvalues --    1.73188   1.73911   1.75267   1.76770   1.77283
 Alpha virt. eigenvalues --    1.78009   1.79008   1.79967   1.80665   1.80955
 Alpha virt. eigenvalues --    1.83002   1.83387   1.84352   1.85100   1.86961
 Alpha virt. eigenvalues --    1.87899   1.88019   1.88940   1.90677   1.91069
 Alpha virt. eigenvalues --    1.92095   1.92856   1.94118   1.94740   1.96417
 Alpha virt. eigenvalues --    1.96940   1.98040   1.98789   1.98993   2.00350
 Alpha virt. eigenvalues --    2.01383   2.02292   2.03382   2.04082   2.04816
 Alpha virt. eigenvalues --    2.06554   2.08325   2.11316   2.12386   2.13939
 Alpha virt. eigenvalues --    2.15577   2.17031   2.18244   2.18584   2.19696
 Alpha virt. eigenvalues --    2.20946   2.22555   2.24085   2.25019   2.25501
 Alpha virt. eigenvalues --    2.27229   2.28047   2.29392   2.29753   2.31297
 Alpha virt. eigenvalues --    2.31575   2.32818   2.36282   2.37913   2.42454
 Alpha virt. eigenvalues --    2.44221   2.44537   2.47668   2.49543   2.50462
 Alpha virt. eigenvalues --    2.51466   2.52661   2.53197   2.53486   2.54190
 Alpha virt. eigenvalues --    2.54792   2.55040   2.57681   2.58247   2.59948
 Alpha virt. eigenvalues --    2.60735   2.61260   2.62273   2.63637   2.64371
 Alpha virt. eigenvalues --    2.65037   2.65654   2.67361   2.69747   2.70048
 Alpha virt. eigenvalues --    2.71726   2.72967   2.73941   2.76746   2.77539
 Alpha virt. eigenvalues --    2.77794   2.80483   2.81862   2.82006   2.82949
 Alpha virt. eigenvalues --    2.83754   2.83998   2.85212   2.86632   2.87773
 Alpha virt. eigenvalues --    2.88526   2.89865   2.91260   2.91695   2.93144
 Alpha virt. eigenvalues --    2.94522   2.94714   2.96716   2.97472   2.98116
 Alpha virt. eigenvalues --    2.98996   2.99902   3.01361   3.02250   3.02649
 Alpha virt. eigenvalues --    3.03003   3.03933   3.04412   3.04954   3.05692
 Alpha virt. eigenvalues --    3.06456   3.07786   3.08004   3.09544   3.09862
 Alpha virt. eigenvalues --    3.10780   3.12072   3.12446   3.15051   3.15939
 Alpha virt. eigenvalues --    3.17065   3.18929   3.20168   3.21527   3.22314
 Alpha virt. eigenvalues --    3.23256   3.24057   3.25306   3.26699   3.27284
 Alpha virt. eigenvalues --    3.28029   3.29321   3.31711   3.32194   3.33361
 Alpha virt. eigenvalues --    3.34470   3.35177   3.36514   3.36885   3.38278
 Alpha virt. eigenvalues --    3.39597   3.41091   3.42743   3.43771   3.44296
 Alpha virt. eigenvalues --    3.45768   3.47053   3.48518   3.50411   3.51736
 Alpha virt. eigenvalues --    3.53388   3.54318   3.57770   3.58016   3.59162
 Alpha virt. eigenvalues --    3.60551   3.62120   3.63342   3.64844   3.66426
 Alpha virt. eigenvalues --    3.68418   3.69492   3.70323   3.71926   3.72434
 Alpha virt. eigenvalues --    3.74151   3.74985   3.75833   3.76796   3.78525
 Alpha virt. eigenvalues --    3.81292   3.82241   3.84650   3.85168   3.87025
 Alpha virt. eigenvalues --    3.87374   3.89073   3.90653   3.92904   3.94088
 Alpha virt. eigenvalues --    3.95898   3.98393   3.99730   4.01134   4.04211
 Alpha virt. eigenvalues --    4.05272   4.06613   4.10943   4.12532   4.12704
 Alpha virt. eigenvalues --    4.13563   4.14425   4.15132   4.16593   4.17792
 Alpha virt. eigenvalues --    4.18657   4.20173   4.20902   4.22587   4.23146
 Alpha virt. eigenvalues --    4.25231   4.25716   4.26742   4.29040   4.29859
 Alpha virt. eigenvalues --    4.30840   4.31691   4.32992   4.33904   4.35210
 Alpha virt. eigenvalues --    4.35985   4.36553   4.36991   4.38050   4.39330
 Alpha virt. eigenvalues --    4.40487   4.41892   4.42218   4.42981   4.43847
 Alpha virt. eigenvalues --    4.44445   4.45315   4.46059   4.46742   4.47455
 Alpha virt. eigenvalues --    4.47984   4.49081   4.49302   4.50173   4.50915
 Alpha virt. eigenvalues --    4.52046   4.52522   4.53290   4.53498   4.54316
 Alpha virt. eigenvalues --    4.54707   4.55557   4.56662   4.57001   4.57782
 Alpha virt. eigenvalues --    4.58116   4.59018   4.60073   4.60480   4.61018
 Alpha virt. eigenvalues --    4.62559   4.63363   4.63657   4.64592   4.65292
 Alpha virt. eigenvalues --    4.65524   4.65620   4.66621   4.66718   4.68120
 Alpha virt. eigenvalues --    4.69083   4.70419   4.70635   4.71273   4.72382
 Alpha virt. eigenvalues --    4.72814   4.73584   4.73740   4.75572   4.76321
 Alpha virt. eigenvalues --    4.76751   4.77359   4.77823   4.78743   4.79369
 Alpha virt. eigenvalues --    4.80508   4.81018   4.81467   4.81725   4.82291
 Alpha virt. eigenvalues --    4.83236   4.84075   4.84927   4.85759   4.86527
 Alpha virt. eigenvalues --    4.86969   4.87699   4.88982   4.90277   4.91359
 Alpha virt. eigenvalues --    4.91972   4.92460   4.93929   4.94543   4.96132
 Alpha virt. eigenvalues --    4.98053   4.98933   4.99261   5.00362   5.02237
 Alpha virt. eigenvalues --    5.04671   5.05903   5.06956   5.08827   5.09478
 Alpha virt. eigenvalues --    5.11039   5.14232   5.16963   5.17597   5.18799
 Alpha virt. eigenvalues --    5.20127   5.21097   5.21566   5.23578   5.24275
 Alpha virt. eigenvalues --    5.24713   5.24910   5.25812   5.27466   5.29161
 Alpha virt. eigenvalues --    5.31513   5.31690   5.32378   5.34557   5.37094
 Alpha virt. eigenvalues --    5.37725   5.38384   5.39335   5.39772   5.40375
 Alpha virt. eigenvalues --    5.40872   5.41601   5.42180   5.42347   5.43008
 Alpha virt. eigenvalues --    5.43394   5.44733   5.45389   5.46471   5.47576
 Alpha virt. eigenvalues --    5.48160   5.48625   5.49048   5.49730   5.51487
 Alpha virt. eigenvalues --    5.52054   5.53812   5.54482   5.56805   5.58064
 Alpha virt. eigenvalues --    5.59288   5.61650   5.62069   5.64084   5.64825
 Alpha virt. eigenvalues --    5.65530   5.67231   5.69822   5.71980   5.73705
 Alpha virt. eigenvalues --    5.74565   5.76304   5.78489   5.80603   5.82586
 Alpha virt. eigenvalues --    5.84530   5.85125   5.88404   5.89450   5.89823
 Alpha virt. eigenvalues --    5.90988   5.92074   5.92662   5.93148   5.94098
 Alpha virt. eigenvalues --    5.95488   5.96791   5.98053   5.99698   6.00682
 Alpha virt. eigenvalues --    6.01363   6.02503   6.03868   6.05180   6.06017
 Alpha virt. eigenvalues --    6.06217   6.06531   6.09960   6.11358   6.12475
 Alpha virt. eigenvalues --    6.14638   6.16327   6.16889   6.18717   6.21432
 Alpha virt. eigenvalues --    6.23513   6.29483   6.32234   6.35873   6.43035
 Alpha virt. eigenvalues --    6.58330   6.66733   6.98359   7.03588   7.04378
 Alpha virt. eigenvalues --    7.09044   7.12709   7.18999   7.22094   7.26626
 Alpha virt. eigenvalues --    7.36511   7.39396   7.52769   7.56341   7.81146
 Alpha virt. eigenvalues --    7.99466   8.40679  12.01236  12.12173  12.22465
 Alpha virt. eigenvalues --   12.24337  12.43272  12.54132  12.85974  12.92280
 Alpha virt. eigenvalues --   12.96204  13.12949  13.26436  13.29494  13.33523
 Alpha virt. eigenvalues --   13.42138  13.44191  13.49805  13.54356  13.58534
 Alpha virt. eigenvalues --   13.74703  13.81145  13.99321  14.20606  14.48424
          Condensed to atoms (all electrons):
              1          2          3          4          5          6
     1  O    8.101620   0.228288  -0.129249   0.023608   0.005908   0.039648
     2  C    0.228288   8.064274  -1.402864  -0.059142  -0.025790  -0.716418
     3  C   -0.129249  -1.402864   9.205899   0.134191  -0.019834  -0.778422
     4  O    0.023608  -0.059142   0.134191   8.200031   0.250264  -0.001678
     5  H    0.005908  -0.025790  -0.019834   0.250264   0.402496   0.029309
     6  C    0.039648  -0.716418  -0.778422  -0.001678   0.029309   7.860212
     7  O    0.000430   0.005251  -0.044589  -0.022982   0.000462   0.277428
     8  H   -0.000058   0.006158  -0.049515   0.013241  -0.000619  -0.000367
     9  C   -0.017667  -0.012174  -0.028962   0.006185  -0.001817   0.102171
    10  O   -0.000475   0.020665  -0.003918   0.000034   0.000000  -0.003556
    11  H    0.000012  -0.004678   0.001671   0.000000   0.000000   0.000597
    12  C   -0.042115  -1.748878   0.442742   0.062340   0.000648   0.396223
    13  O    0.003431   0.007977  -0.016100  -0.003482   0.000069  -0.054272
    14  C   -0.005496   0.888802  -0.759905  -0.029903   0.005617  -1.221968
    15  O    0.000026   0.005349  -0.017669   0.001447  -0.000038  -0.077800
    16  C    0.002238   0.235302  -0.456828  -0.004390   0.000430   0.309283
    17  C    0.000175  -0.042792  -0.026514   0.000400   0.000008  -0.187090
    18  O    0.000027  -0.004107   0.004988  -0.000015   0.000000   0.015981
    19  H   -0.000036  -0.001198   0.004060   0.000017   0.000000  -0.008617
    20  C    0.000042   0.003230  -0.016283  -0.000152   0.000002   0.092004
    21  O    0.000000   0.000284  -0.000116   0.000000   0.000000  -0.000561
    22  H    0.000000  -0.000063   0.000061   0.000000   0.000000   0.000206
    23  C    0.000116   0.006289  -0.063711  -0.000557   0.000002   0.061859
    24  O    0.000000  -0.000085  -0.001035  -0.000002   0.000000   0.002151
    25  H    0.000000  -0.000017  -0.000100   0.000000   0.000000   0.000556
    26  C   -0.000003   0.056591  -0.037360   0.001220   0.000024  -0.200823
    27  O    0.000000   0.000434  -0.000198   0.000001   0.000000  -0.000987
    28  C   -0.000002   0.000009   0.002454   0.000024   0.000000  -0.018368
    29  O    0.000000   0.000001   0.000030   0.000000   0.000000  -0.000198
    30  H    0.000000   0.000000   0.000001   0.000000   0.000000   0.000009
    31  H    0.000000   0.000011  -0.000021   0.000000   0.000000  -0.000155
    32  H    0.000000   0.000386  -0.000512   0.000000   0.000000   0.002126
    33  H    0.000000  -0.000390   0.000789  -0.000001   0.000000   0.010140
    34  H   -0.000001  -0.001640   0.007079   0.000010   0.000000   0.004507
    35  H    0.000000  -0.000262   0.000790   0.000000   0.000000  -0.001505
    36  H    0.000000  -0.000456   0.001651  -0.000002   0.000000   0.002064
    37  H    0.267861   0.049597  -0.062769   0.001683  -0.000744   0.003200
    38  H   -0.000968   0.044446  -0.014829   0.000088   0.000000   0.009217
    39  H    0.000309   0.017169  -0.003815  -0.000057   0.000000  -0.004086
    40  H   -0.000205   0.153184  -0.118831   0.000356   0.000005  -0.007347
    41  H   -0.019649   0.322407  -0.093691   0.005049  -0.000162   0.023578
    42  H   -0.000847  -0.114208   0.310070  -0.018584  -0.005747  -0.041232
    43  H   -0.000068  -0.027695  -0.028794   0.003392  -0.000217   0.337621
    44  H    0.000075  -0.003606  -0.010116   0.000266   0.000012   0.005570
    45  H    0.000000   0.000336   0.004843   0.000010   0.000000  -0.010743
              7          8          9         10         11         12
     1  O    0.000430  -0.000058  -0.017667  -0.000475   0.000012  -0.042115
     2  C    0.005251   0.006158  -0.012174   0.020665  -0.004678  -1.748878
     3  C   -0.044589  -0.049515  -0.028962  -0.003918   0.001671   0.442742
     4  O   -0.022982   0.013241   0.006185   0.000034   0.000000   0.062340
     5  H    0.000462  -0.000619  -0.001817   0.000000   0.000000   0.000648
     6  C    0.277428  -0.000367   0.102171  -0.003556   0.000597   0.396223
     7  O    8.067869   0.248256   0.000862  -0.000008   0.000000   0.010531
     8  H    0.248256   0.409246   0.000085   0.000000   0.000000  -0.002756
     9  C    0.000862   0.000085   7.492267   0.213008  -0.015377  -1.692750
    10  O   -0.000008   0.000000   0.213008   8.086297   0.232692  -0.093677
    11  H    0.000000   0.000000  -0.015377   0.232692   0.442457   0.014693
    12  C    0.010531  -0.002756  -1.692750  -0.093677   0.014693   9.583885
    13  O    0.001489  -0.000773  -0.048408   0.013767   0.000284   0.109534
    14  C   -0.042687   0.029493  -0.487240   0.000370  -0.001098  -0.745489
    15  O   -0.005660   0.001088  -0.004171  -0.000508   0.000018  -0.029711
    16  C   -0.032618   0.000786  -0.095724   0.010567  -0.000613  -0.071334
    17  C   -0.000607  -0.000132  -0.001123  -0.002915  -0.000108  -0.062820
    18  O    0.000030  -0.000004  -0.001872   0.001236   0.000248   0.010966
    19  H   -0.000129   0.000001  -0.005880   0.001859  -0.000057   0.003191
    20  C    0.000769  -0.000068   0.004096   0.000743  -0.000076  -0.034020
    21  O    0.000001   0.000000   0.000008  -0.000005   0.000000   0.000346
    22  H    0.000000   0.000000   0.000106   0.000008   0.000000  -0.000178
    23  C   -0.021824   0.000030  -0.001746   0.000117  -0.000002  -0.009310
    24  O    0.000575  -0.000005  -0.000012   0.000000   0.000000  -0.000061
    25  H    0.000030   0.000000   0.000000   0.000000   0.000000  -0.000038
    26  C    0.010139   0.000463   0.001969   0.000800  -0.000048  -0.091350
    27  O   -0.000005   0.000002   0.000014   0.000001   0.000000  -0.000219
    28  C    0.000280   0.000013   0.000100   0.000153   0.000004   0.008513
    29  O   -0.000002   0.000000  -0.000004   0.000000   0.000000   0.000046
    30  H    0.000000   0.000000   0.000000   0.000000   0.000000   0.000000
    31  H    0.000002   0.000000   0.000000   0.000000   0.000000   0.000070
    32  H    0.000030   0.000000  -0.000297   0.000002   0.000000  -0.000284
    33  H    0.000006   0.000000  -0.001315   0.000004   0.000000  -0.001821
    34  H   -0.001309   0.000001  -0.000100   0.000001   0.000000  -0.001001
    35  H   -0.000055   0.000000   0.000187   0.000000   0.000000   0.000482
    36  H   -0.001420  -0.000005   0.000057   0.000000   0.000000   0.000749
    37  H   -0.000024   0.000001   0.009649   0.000015  -0.000001  -0.009809
    38  H    0.000003   0.000000   0.651882  -0.048689   0.000242  -0.345038
    39  H   -0.000004   0.000000   0.352408  -0.021244  -0.011559  -0.003851
    40  H    0.000170   0.000000   0.108868  -0.000108  -0.000079   0.046638
    41  H    0.000325  -0.000003  -0.032951   0.000143  -0.000001   0.009335
    42  H    0.005151  -0.000201   0.002198   0.000042   0.000000   0.084732
    43  H   -0.032884  -0.005731   0.014658  -0.000007   0.000000   0.086546
    44  H    0.001081  -0.000267   0.015868  -0.000065   0.000000   0.047412
    45  H   -0.000363   0.000045  -0.000006   0.000000   0.000000   0.000582
             13         14         15         16         17         18
     1  O    0.003431  -0.005496   0.000026   0.002238   0.000175   0.000027
     2  C    0.007977   0.888802   0.005349   0.235302  -0.042792  -0.004107
     3  C   -0.016100  -0.759905  -0.017669  -0.456828  -0.026514   0.004988
     4  O   -0.003482  -0.029903   0.001447  -0.004390   0.000400  -0.000015
     5  H    0.000069   0.005617  -0.000038   0.000430   0.000008   0.000000
     6  C   -0.054272  -1.221968  -0.077800   0.309283  -0.187090   0.015981
     7  O    0.001489  -0.042687  -0.005660  -0.032618  -0.000607   0.000030
     8  H   -0.000773   0.029493   0.001088   0.000786  -0.000132  -0.000004
     9  C   -0.048408  -0.487240  -0.004171  -0.095724  -0.001123  -0.001872
    10  O    0.013767   0.000370  -0.000508   0.010567  -0.002915   0.001236
    11  H    0.000284  -0.001098   0.000018  -0.000613  -0.000108   0.000248
    12  C    0.109534  -0.745489  -0.029711  -0.071334  -0.062820   0.010966
    13  O    7.872625   0.229053  -0.032462   0.028120  -0.005294  -0.015913
    14  C    0.229053   9.015122   0.263402  -0.516027   0.160652   0.085415
    15  O   -0.032462   0.263402   7.867588   0.115031  -0.002214  -0.012284
    16  C    0.028120  -0.516027   0.115031  13.148178  -1.906856   0.020796
    17  C   -0.005294   0.160652  -0.002214  -1.906856   8.570055   0.072524
    18  O   -0.015913   0.085415  -0.012284   0.020796   0.072524   8.180275
    19  H    0.023688   0.004695   0.010756  -0.014460   0.001315   0.235579
    20  C   -0.009300  -0.206644  -0.019136  -1.476292  -0.440967  -0.034924
    21  O    0.000273  -0.010839   0.000341  -0.023142  -0.022878  -0.008200
    22  H   -0.000067   0.006229   0.000187   0.001925  -0.068547   0.012246
    23  C    0.000578  -0.017852  -0.089331   0.495576  -0.617013   0.018213
    24  O   -0.000001  -0.001824   0.000349   0.026635   0.005546   0.000043
    25  H   -0.000010  -0.001038  -0.000376   0.017091   0.006008   0.000001
    26  C   -0.006294  -1.040188   0.076251  -4.686270   0.334372  -0.045278
    27  O    0.000146   0.001729   0.004787   0.083763   0.009048  -0.002995
    28  C    0.002769   0.019098   0.018593   0.712868   0.062093  -0.008843
    29  O    0.000014   0.000545  -0.000116  -0.041824   0.022076   0.000069
    30  H    0.000000   0.000314   0.000008   0.008845   0.000225  -0.000011
    31  H    0.000058  -0.002362   0.000690   0.022954  -0.048334   0.002662
    32  H    0.000100  -0.027331   0.001308   0.125919  -0.257888   0.011556
    33  H   -0.002488   0.006017  -0.000186  -0.097579   0.170501  -0.013480
    34  H   -0.003455  -0.024798  -0.009540   0.046399   0.033401  -0.002184
    35  H   -0.000817   0.044721   0.000584   0.081317   0.027907   0.000358
    36  H   -0.000149   0.039974  -0.001761   0.119073   0.004930   0.000076
    37  H   -0.000552   0.002182   0.000012   0.000124  -0.000010  -0.000001
    38  H   -0.002664  -0.001246  -0.000026   0.000002  -0.000228   0.000021
    39  H    0.002787   0.004138  -0.000094   0.000309   0.000203  -0.000081
    40  H   -0.031196   0.084233  -0.001665   0.003814   0.003691   0.000047
    41  H   -0.001032   0.049188  -0.001024  -0.001818   0.000907   0.000020
    42  H    0.000980   0.015551   0.001211  -0.008114   0.001402   0.000071
    43  H    0.005963  -0.055493  -0.007425  -0.034667  -0.000103   0.000185
    44  H   -0.017488   0.183198  -0.013695   0.020735  -0.000268  -0.000796
    45  H    0.000205   0.017096  -0.004905  -0.035159  -0.006718   0.000009
             19         20         21         22         23         24
     1  O   -0.000036   0.000042   0.000000   0.000000   0.000116   0.000000
     2  C   -0.001198   0.003230   0.000284  -0.000063   0.006289  -0.000085
     3  C    0.004060  -0.016283  -0.000116   0.000061  -0.063711  -0.001035
     4  O    0.000017  -0.000152   0.000000   0.000000  -0.000557  -0.000002
     5  H    0.000000   0.000002   0.000000   0.000000   0.000002   0.000000
     6  C   -0.008617   0.092004  -0.000561   0.000206   0.061859   0.002151
     7  O   -0.000129   0.000769   0.000001   0.000000  -0.021824   0.000575
     8  H    0.000001  -0.000068   0.000000   0.000000   0.000030  -0.000005
     9  C   -0.005880   0.004096   0.000008   0.000106  -0.001746  -0.000012
    10  O    0.001859   0.000743  -0.000005   0.000008   0.000117   0.000000
    11  H   -0.000057  -0.000076   0.000000   0.000000  -0.000002   0.000000
    12  C    0.003191  -0.034020   0.000346  -0.000178  -0.009310  -0.000061
    13  O    0.023688  -0.009300   0.000273  -0.000067   0.000578  -0.000001
    14  C    0.004695  -0.206644  -0.010839   0.006229  -0.017852  -0.001824
    15  O    0.010756  -0.019136   0.000341   0.000187  -0.089331   0.000349
    16  C   -0.014460  -1.476292  -0.023142   0.001925   0.495576   0.026635
    17  C    0.001315  -0.440967  -0.022878  -0.068547  -0.617013   0.005546
    18  O    0.235579  -0.034924  -0.008200   0.012246   0.018213   0.000043
    19  H    0.329792  -0.012806   0.000290  -0.000241  -0.003096   0.000000
    20  C   -0.012806   7.401394   0.273442   0.048712   0.216088  -0.013407
    21  O    0.000290   0.273442   8.080774   0.241998  -0.000824  -0.000015
    22  H   -0.000241   0.048712   0.241998   0.415450   0.000554   0.000001
    23  C   -0.003096   0.216088  -0.000824   0.000554   6.832060   0.135250
    24  O    0.000000  -0.013407  -0.000015   0.000001   0.135250   8.044192
    25  H    0.000000  -0.000704   0.000000   0.000000   0.014432   0.251203
    26  C   -0.008804   1.183481   0.026898  -0.003761  -1.225896   0.002447
    27  O   -0.000026  -0.111067   0.000894  -0.000207  -0.100786   0.001568
    28  C    0.005016  -0.854543  -0.106791   0.002234  -0.207318   0.015567
    29  O    0.000012  -0.081332  -0.011984   0.000044   0.005557   0.000248
    30  H    0.000000   0.025053  -0.001252   0.000026  -0.000329   0.000027
    31  H   -0.000010  -0.138008   0.007438  -0.000341   0.018922  -0.000131
    32  H   -0.000224   0.326359  -0.027056  -0.003779   0.019679  -0.000043
    33  H    0.000236   0.097304  -0.001978   0.000197   0.019481   0.000111
    34  H    0.000246   0.050071  -0.000223   0.000021  -0.055094   0.000271
    35  H    0.000045  -0.062063   0.000301  -0.000003  -0.002315  -0.002430
    36  H    0.000001  -0.007679   0.000007   0.000000   0.489280  -0.041187
    37  H    0.000000  -0.000001   0.000000   0.000000   0.000000   0.000000
    38  H   -0.000054   0.000112   0.000000   0.000000   0.000003   0.000000
    39  H    0.000018   0.000013   0.000000   0.000000   0.000002   0.000000
    40  H   -0.000632   0.001099   0.000000   0.000000   0.000033   0.000000
    41  H   -0.000026   0.000044   0.000000   0.000000   0.000141   0.000000
    42  H   -0.000005   0.000049   0.000000   0.000000   0.000524   0.000000
    43  H   -0.000032   0.000304   0.000000   0.000000   0.001626  -0.000014
    44  H   -0.001358   0.010453   0.000032  -0.000001  -0.004638   0.000017
    45  H    0.000000  -0.001134  -0.000002   0.000000   0.362038  -0.020574
             25         26         27         28         29         30
     1  O    0.000000  -0.000003   0.000000  -0.000002   0.000000   0.000000
     2  C   -0.000017   0.056591   0.000434   0.000009   0.000001   0.000000
     3  C   -0.000100  -0.037360  -0.000198   0.002454   0.000030   0.000001
     4  O    0.000000   0.001220   0.000001   0.000024   0.000000   0.000000
     5  H    0.000000   0.000024   0.000000   0.000000   0.000000   0.000000
     6  C    0.000556  -0.200823  -0.000987  -0.018368  -0.000198   0.000009
     7  O    0.000030   0.010139  -0.000005   0.000280  -0.000002   0.000000
     8  H    0.000000   0.000463   0.000002   0.000013   0.000000   0.000000
     9  C    0.000000   0.001969   0.000014   0.000100  -0.000004   0.000000
    10  O    0.000000   0.000800   0.000001   0.000153   0.000000   0.000000
    11  H    0.000000  -0.000048   0.000000   0.000004   0.000000   0.000000
    12  C   -0.000038  -0.091350  -0.000219   0.008513   0.000046   0.000000
    13  O   -0.000010  -0.006294   0.000146   0.002769   0.000014   0.000000
    14  C   -0.001038  -1.040188   0.001729   0.019098   0.000545   0.000314
    15  O   -0.000376   0.076251   0.004787   0.018593  -0.000116   0.000008
    16  C    0.017091  -4.686270   0.083763   0.712868  -0.041824   0.008845
    17  C    0.006008   0.334372   0.009048   0.062093   0.022076   0.000225
    18  O    0.000001  -0.045278  -0.002995  -0.008843   0.000069  -0.000011
    19  H    0.000000  -0.008804  -0.000026   0.005016   0.000012   0.000000
    20  C   -0.000704   1.183481  -0.111067  -0.854543  -0.081332   0.025053
    21  O    0.000000   0.026898   0.000894  -0.106791  -0.011984  -0.001252
    22  H    0.000000  -0.003761  -0.000207   0.002234   0.000044   0.000026
    23  C    0.014432  -1.225896  -0.100786  -0.207318   0.005557  -0.000329
    24  O    0.251203   0.002447   0.001568   0.015567   0.000248   0.000027
    25  H    0.444150  -0.051747  -0.000434  -0.000689   0.000020   0.000000
    26  C   -0.051747  12.166524   0.184389  -0.793748   0.001036  -0.010162
    27  O   -0.000434   0.184389   7.867839   0.249490  -0.026010   0.001803
    28  C   -0.000689  -0.793748   0.249490   6.027898   0.343350  -0.036597
    29  O    0.000020   0.001036  -0.026010   0.343350   7.985471   0.264628
    30  H    0.000000  -0.010162   0.001803  -0.036597   0.264628   0.420598
    31  H    0.000000   0.038052  -0.050634   0.420771  -0.021958  -0.008993
    32  H    0.000000   0.046247  -0.005680   0.010300  -0.000281  -0.000064
    33  H   -0.000001   0.076635   0.000789  -0.047666   0.000360   0.000012
    34  H   -0.000002   0.203835  -0.000214   0.000987  -0.000444   0.000003
    35  H    0.001969   0.121692  -0.037159   0.058872   0.000415  -0.000009
    36  H    0.006282  -0.290729  -0.001560  -0.001216   0.000107   0.000000
    37  H    0.000000   0.000001   0.000000   0.000000   0.000000   0.000000
    38  H    0.000000   0.000111   0.000000  -0.000004   0.000000   0.000000
    39  H    0.000000   0.000027   0.000000  -0.000001   0.000000   0.000000
    40  H    0.000000   0.001614   0.000002  -0.000091   0.000000   0.000000
    41  H    0.000000  -0.000366   0.000000  -0.000005   0.000000   0.000000
    42  H    0.000000  -0.001840   0.000000  -0.000001   0.000000   0.000000
    43  H    0.000000  -0.007317  -0.000001   0.000041   0.000000   0.000000
    44  H    0.000000   0.037856   0.000251   0.000326  -0.000004   0.000000
    45  H   -0.011581   0.023775   0.001809   0.005468  -0.000021   0.000000
             31         32         33         34         35         36
     1  O    0.000000   0.000000   0.000000  -0.000001   0.000000   0.000000
     2  C    0.000011   0.000386  -0.000390  -0.001640  -0.000262  -0.000456
     3  C   -0.000021  -0.000512   0.000789   0.007079   0.000790   0.001651
     4  O    0.000000   0.000000  -0.000001   0.000010   0.000000  -0.000002
     5  H    0.000000   0.000000   0.000000   0.000000   0.000000   0.000000
     6  C   -0.000155   0.002126   0.010140   0.004507  -0.001505   0.002064
     7  O    0.000002   0.000030   0.000006  -0.001309  -0.000055  -0.001420
     8  H    0.000000   0.000000   0.000000   0.000001   0.000000  -0.000005
     9  C    0.000000  -0.000297  -0.001315  -0.000100   0.000187   0.000057
    10  O    0.000000   0.000002   0.000004   0.000001   0.000000   0.000000
    11  H    0.000000   0.000000   0.000000   0.000000   0.000000   0.000000
    12  C    0.000070  -0.000284  -0.001821  -0.001001   0.000482   0.000749
    13  O    0.000058   0.000100  -0.002488  -0.003455  -0.000817  -0.000149
    14  C   -0.002362  -0.027331   0.006017  -0.024798   0.044721   0.039974
    15  O    0.000690   0.001308  -0.000186  -0.009540   0.000584  -0.001761
    16  C    0.022954   0.125919  -0.097579   0.046399   0.081317   0.119073
    17  C   -0.048334  -0.257888   0.170501   0.033401   0.027907   0.004930
    18  O    0.002662   0.011556  -0.013480  -0.002184   0.000358   0.000076
    19  H   -0.000010  -0.000224   0.000236   0.000246   0.000045   0.000001
    20  C   -0.138008   0.326359   0.097304   0.050071  -0.062063  -0.007679
    21  O    0.007438  -0.027056  -0.001978  -0.000223   0.000301   0.000007
    22  H   -0.000341  -0.003779   0.000197   0.000021  -0.000003   0.000000
    23  C    0.018922   0.019679   0.019481  -0.055094  -0.002315   0.489280
    24  O   -0.000131  -0.000043   0.000111   0.000271  -0.002430  -0.041187
    25  H    0.000000   0.000000  -0.000001  -0.000002   0.001969   0.006282
    26  C    0.038052   0.046247   0.076635   0.203835   0.121692  -0.290729
    27  O   -0.050634  -0.005680   0.000789  -0.000214  -0.037159  -0.001560
    28  C    0.420771   0.010300  -0.047666   0.000987   0.058872  -0.001216
    29  O   -0.021958  -0.000281   0.000360  -0.000444   0.000415   0.000107
    30  H   -0.008993  -0.000064   0.000012   0.000003  -0.000009   0.000000
    31  H    0.629846   0.006418   0.004153  -0.000104   0.005174   0.000001
    32  H    0.006418   0.644657   0.007649   0.002742  -0.000082  -0.000017
    33  H    0.004153   0.007649   0.654967   0.006442   0.003159  -0.000015
    34  H   -0.000104   0.002742   0.006442   0.608340   0.005779   0.002528
    35  H    0.005174  -0.000082   0.003159   0.005779   0.641719   0.006138
    36  H    0.000001  -0.000017  -0.000015   0.002528   0.006138   0.541077
    37  H    0.000000   0.000000   0.000000   0.000000   0.000000   0.000000
    38  H    0.000000   0.000000   0.000000   0.000000   0.000000   0.000000
    39  H    0.000000   0.000000   0.000000   0.000000   0.000000   0.000000
    40  H    0.000000   0.000000  -0.000001  -0.000010   0.000000   0.000000
    41  H    0.000000   0.000000   0.000000   0.000000   0.000000   0.000000
    42  H    0.000000   0.000000   0.000000  -0.000007   0.000000   0.000000
    43  H    0.000000   0.000000  -0.000004  -0.000012  -0.000004  -0.000005
    44  H    0.000000  -0.000001  -0.000040   0.003889  -0.000009  -0.000014
    45  H   -0.000003   0.000000  -0.000002   0.000152  -0.004930  -0.034441
             37         38         39         40         41         42
     1  O    0.267861  -0.000968   0.000309  -0.000205  -0.019649  -0.000847
[...]
 0.00000162,0.00004557,0.00008335,-0.00016414,0.00000358,-0.00000853,-0
 .00003522,0.00004854,-0.00001859,0.00001968,-0.00005939,0.00001590,0.0
 0004286,-0.00001341,0.00002234,-0.00001285,0.00000603,-0.00001523,0.00
 001001,-0.00000463,0.00000819,-0.00000499,-0.00004843,-0.00000482,0.00
 000631,0.00003432,0.00002027,0.00000038,-0.00000893,-0.00000693,0.0000
 1218,-0.00002630,-0.00001987,-0.00001052,0.00002218,0.00000925,0.00001
 425,-0.00000832,-0.00000219,-0.00002237,0.00000208,0.00000051,0.000014
 73,-0.00000168,0.00000098,-0.00000331,0.00000477,-0.00000110,0.0000031
 9,0.00000951,-0.00000661,-0.00000034,0.00000878,-0.00000400,0.00000964
 ,0.00000090,-0.00000666,-0.00003649,0.00000822,-0.00000528,0.00000754,
 0.00000184,-0.00000586,-0.00000066,0.00020677,-0.00048636,-0.00032868,
 -0.00006310,-0.00026889,-0.00002183,0.00001054,0.00001763,0.00000220,0
 .00069182,0.00004259,-0.00033386,0.00070242,0.00030628,-0.00032756,0.3
 5346589,-0.00026596,0.00296224,0.00244852,0.03386027,-0.01862790,-0.00
 188448,0.09099084,-0.06668123,0.00147703,-0.03333756,-0.00322717,0.008
 85922,0.00002663,0.00110761,-0.00082561,-0.00535169,0.00230798,-0.0010
 7409,0.00016839,0.00123574,0.00132298,-0.00033767,-0.00001884,0.000192
 22,0.00000363,-0.00003554,-0.00017278,-0.00021840,-0.00009979,0.000111
 92,0.00002207,0.00000527,0.00000262,0.00217374,0.00172133,-0.00091203,
 -0.00057488,-0.00038463,0.00051178,0.00122056,0.00024825,0.00045925,-0
 .00016285,-0.00007365,0.00003193,0.00005283,-0.00000947,0.00000403,-0.
 00000373,-0.00001131,-0.00000290,-0.00005024,0.00000511,0.00006094,0.0
 0006721,0.00001962,-0.00008881,0.00000933,-0.00000187,-0.00000074,-0.0
 0000941,-0.00000060,0.00000308,0.00000751,-0.00000172,-0.00000116,-0.0
 0001711,0.00000576,-0.00000719,0.00000836,-0.00000078,0.00001152,-0.00
 000156,-0.00000137,0.00000027,-0.00000135,0.00000521,-0.00000013,-0.00
 000826,-0.00000775,0.00001024,0.00000519,0.00000876,-0.00000713,-0.000
 00382,-0.00000043,0.00000738,0.00000012,0.00000040,-0.00000138,-0.0000
 0140,-0.00000105,-0.00000067,-0.00000260,0.00000331,0.00000108,-0.0000
 0220,0.00000188,-0.00000215,-0.00000042,0.00001042,0.00000312,-0.00000
 197,-0.00000345,-0.00000139,0.00000866,-0.00000331,-0.00000717,-0.0000
 3375,0.00017302,0.00029618,-0.00029383,0.00019149,0.00013444,-0.000010
 41,-0.00003054,-0.00003461,-0.00105848,-0.00013325,0.00048464,-0.00068
 005,-0.00550494,-0.00251320,-0.08515737,0.08446417,0.00153014,-0.00026
 013,0.00049483,0.00906221,-0.00854051,0.00069962,-0.01948844,0.0025747
 7,-0.04067499,0.03173807,0.00791844,-0.00534299,0.00111020,-0.00115022
 ,0.00095939,-0.03612290,0.00975491,-0.00667727,0.00287081,0.00014730,0
 .00247362,-0.00027863,0.00006812,-0.00023867,-0.00005496,-0.00005661,0
 .00004178,-0.00005092,-0.00005872,0.00000207,-0.00000239,-0.00000597,0
 .00000715,-0.00016728,0.00069794,-0.00012867,0.00043366,0.00018770,-0.
 00024356,-0.00194756,-0.00006200,0.00070935,0.00046650,-0.00011771,0.0
 0015847,0.00013212,0.00001359,0.00006250,-0.00000836,-0.00001238,-0.00
 001956,0.00003076,-0.00000005,0.00000844,-0.00003464,0.00000175,0.0000
 0537,-0.00000672,0.00001121,-0.00000154,0.00000824,0.00000098,-0.00000
 317,-0.00000320,0.00000185,-0.00000154,-0.00004478,0.00002838,0.000036
 41,0.00001046,-0.00001461,-0.00001943,0.00000023,0.00000148,0.00001156
 ,-0.00001846,-0.00001154,0.00002214,0.00001970,0.00000908,-0.00001606,
 -0.00000823,-0.00001229,0.00000529,0.00000560,0.00000043,-0.00000502,-
 0.00000086,0.00000051,0.00000094,0.00000201,0.00000039,0.00000149,0.00
 000447,-0.00000060,-0.00000098,0.00000480,-0.00000219,0.00000729,0.000
 03277,-0.00000228,-0.00006257,0.00000351,-0.00000813,0.00000792,0.0000
 1298,-0.00000701,-0.00001043,0.00013085,-0.00016572,-0.00007239,-0.000
 02817,0.00006977,0.00001780,0.00000579,-0.00000535,-0.00001187,-0.0001
 0139,0.00014245,0.00012298,0.00004123,-0.00178285,-0.00059675,0.011994
 58,-0.00805454,0.05438832,0.00027124,-0.00034023,-0.00017914,-0.000223
 10,0.00093521,0.00005641,-0.01401711,0.00073654,-0.00283822,0.00171275
 ,0.00016382,0.00038241,0.00022334,0.00006532,-0.00001834,-0.33381198,0
 .07385078,-0.02071463,0.00408781,0.00621253,0.00148633,0.00098127,0.00
 061730,0.00058643,-0.00002408,0.00001775,0.00006870,0.00003579,-0.0000
 0606,-0.00001374,-0.00001278,-0.00000445,0.00000405,-0.00019525,-0.000
 19227,-0.00025307,0.00246231,0.00046397,-0.00055375,-0.01985385,0.0040
 2905,-0.00105659,0.00188028,0.00036828,-0.00240956,0.00025728,0.000379
 44,0.00016081,0.00008103,-0.00001916,-0.00020517,0.00012980,-0.0000411
 7,-0.00008475,-0.00013570,-0.00001935,0.00016707,-0.00004347,0.0000777
 8,0.00002723,0.00004809,0.00001190,-0.00004075,-0.00001990,-0.00000080
 ,-0.00000141,-0.00007649,0.00006076,0.00003633,0.00001034,-0.00005082,
 -0.00001745,0.00000358,0.00000959,0.00001257,0.00000247,-0.00000053,0.
 00007903,0.00001736,-0.00002139,-0.00007092,-0.00001355,-0.00000883,0.
 00003566,0.00001247,-0.00000700,-0.00002344,-0.00000078,0.00000187,0.0
 0000325,0.00000536,-0.00000022,0.00000219,0.00001499,-0.00000722,0.000
 00005,0.00000800,-0.00001568,0.00002166,0.00013033,-0.00002975,-0.0002
 2316,0.00000850,-0.00001644,0.00002251,0.00003694,-0.00001971,-0.00002
 994,-0.00002661,-0.00002394,-0.00004291,0.00002429,-0.00004371,-0.0000
 2626,0.00001529,0.00002400,0.00000658,0.00018584,0.00011511,0.00007774
 ,0.00024362,-0.00062419,-0.00026524,0.00043298,-0.00087358,-0.00193462
 ,0.35553062,0.00017202,0.00013613,0.00022425,-0.00029685,0.00001890,0.
 00065501,-0.00470256,0.00395306,-0.00072561,0.00063705,0.00029078,-0.0
 0018969,-0.00010855,-0.00005162,-0.00007676,0.07377084,-0.05710489,0.0
 1072858,0.03406551,-0.03415380,-0.00793111,0.00186481,0.00053592,-0.00
 123209,-0.00005190,0.00006220,0.00001884,0.00000436,-0.00003828,-0.000
 00622,0.00000070,0.00000064,0.00000379,-0.00030111,-0.00020570,-0.0001
 8664,-0.00032236,0.00098694,0.00003623,-0.02013923,0.00327689,-0.00051
 521,0.00026504,0.00039385,-0.00123147,-0.00008195,0.00029729,-0.000092
 66,-0.00002832,-0.00007206,-0.00020617,0.00010683,-0.00010029,0.000127
 06,-0.00013181,0.00013096,0.00003934,-0.00000499,0.00002511,0.00000327
 ,0.00000512,0.00000202,0.00000700,0.00000587,0.00000598,-0.00001230,0.
 00014775,-0.00011134,-0.00002007,-0.00004433,0.00005134,0.00001126,0.0
 0000032,0.00000105,-0.00002975,-0.00001073,0.,-0.00001387,0.00000534,0
 .00001124,0.00000572,-0.00000836,-0.00002203,-0.00001391,-0.00000155,0
 .00000911,0.00001822,-0.00000056,-0.00000226,-0.00000121,0.00000019,0.
 00000316,0.00000188,0.00000888,-0.00000523,-0.00000690,0.00001727,0.00
 000093,0.00002446,0.00007916,-0.00007941,0.00004254,0.00001346,0.00002
 474,0.00000390,-0.00006152,0.00002373,0.00006654,0.00004133,0.00003424
 ,0.00001177,0.00001899,-0.00003053,-0.00001089,0.00000872,-0.00001110,
 -0.00000306,0.00015547,0.00001022,0.00002686,0.00010850,0.00016840,0.0
 0008653,-0.00021386,0.00030404,-0.00152228,-0.08398352,0.08349383,0.00
 059547,-0.00044816,-0.00039249,-0.00025549,0.00111983,0.00119607,-0.03
 695890,0.00646218,-0.00731953,0.00098764,-0.00106801,0.00329297,0.0003
 5138,-0.00014372,0.00049031,-0.02516561,0.01036967,-0.04328799,0.01122
 666,-0.01271372,0.00181629,-0.00039679,0.00073161,0.00003588,-0.000056
 75,0.00002206,0.00008899,-0.00000174,-0.00004206,-0.00000197,-0.000002
 17,-0.00000101,0.00000616,-0.00030992,-0.00021796,-0.00042893,-0.00120
 050,-0.00148572,0.00016432,0.02467225,-0.00246806,-0.00055623,0.000202
 96,-0.00051589,0.00131607,0.00034433,-0.00031109,-0.00018761,0.0000231
 9,0.00007711,0.00022741,-0.00012938,0.00007080,-0.00010339,0.00013327,
 -0.00008635,-0.00001625,0.00002354,-0.00004117,-0.00002293,-0.00004087
 ,-0.00002858,0.00002128,0.00000646,-0.00000088,0.00000834,0.00013913,-
 0.00011560,-0.00016812,-0.00001386,0.00006025,0.00011718,-0.00000779,-
 0.00000380,-0.00004139,-0.00003159,0.00005638,-0.00004076,-0.00008386,
 -0.00005140,0.00012218,0.00004225,0.00007888,-0.00004592,-0.00002473,-
 0.00001085,0.00003315,0.00000130,0.00000097,-0.00000818,-0.00000332,-0
 .00000430,-0.00000230,-0.00001524,0.00000405,0.00000932,-0.00002764,0.
 00002210,-0.00002833,-0.00022490,0.00007835,0.00000454,-0.00002130,0.0
 0001269,-0.00004048,-0.00003382,0.00001521,0.00003263,0.00000869,-0.00
 014086,-0.00010057,0.00000853,-0.00001791,0.00000021,0.00001216,0.0000
 2390,-0.00000555,0.00008780,-0.00002250,-0.00012702,0.00030051,-0.0005
 3147,-0.00019328,-0.00170590,-0.00100058,-0.00585628,0.02628391,-0.000
 16646,0.05228406,0.00007694,0.00004052,0.00011216,-0.00003355,0.000076
 97,-0.00001007,-0.00080877,0.00003066,-0.00077774,0.00055402,-0.000061
 74,0.00002250,-0.00003030,-0.00003718,0.00015742,-0.01183081,0.0053997
 9,0.00073747,0.00117834,-0.00039793,-0.00047824,0.00022428,-0.00001160
 ,-0.00011805,0.00032726,-0.00010667,0.00006125,0.00001222,-0.00001921,
 0.00000803,-0.00000123,-0.00000178,0.00000652,0.00108861,-0.00022933,0
 .00037452,0.00172234,0.00418625,0.00037902,-0.34662727,0.06032314,0.03
 727608,-0.01382172,0.00283201,-0.00517498,0.00010228,0.00006113,0.0032
 9088,0.00013133,-0.00003067,-0.00042140,0.00047406,-0.00043451,-0.0000
 6477,-0.00063996,0.00021973,0.00048868,-0.00001511,0.00014098,0.000040
 12,0.00006289,0.00002345,-0.00004575,-0.00000953,0.00000019,-0.0000161
 1,-0.00014341,0.00011813,0.00005479,0.00003443,-0.00005000,-0.00006270
 ,0.00000253,0.00000403,0.00003315,0.00033317,-0.00025797,0.00003837,0.
 00001787,-0.00001946,-0.00025318,-0.00004604,-0.00008686,0.00004572,0.
 00002257,0.00001137,-0.00002377,-0.00000136,0.00000004,0.00000589,0.00
 000472,0.00000651,0.00000264,0.00003950,-0.00000809,-0.00000969,0.0000
 0199,-0.00013530,0.00013999,0.00127338,-0.00030794,-0.00101973,0.00008
 387,0.00002749,0.00020182,0.00002622,-0.00005462,-0.00002803,0.0000115
 2,-0.00000051,0.00000769,-0.00004222,-0.00010601,-0.00007577,-0.000024
 60,0.00007717,0.00003174,0.00021193,0.00057684,0.00097856,-0.00001653,
 -0.00013095,-0.00017289,0.00083217,-0.00015889,0.00063959,-0.00041735,
 -0.00101264,0.00131881,0.36557804,0.00012241,0.00035113,-0.00024055,-0
 .00049278,-0.00064502,-0.00005097,-0.00091249,-0.00002564,-0.00161293,
 0.00027079,-0.00016982,0.00050231,0.00011545,-0.00010418,0.00012954,-0
 .01913130,0.00775934,0.00295708,0.00186914,0.00166022,-0.00088304,0.00
 029642,0.00044301,-0.00000788,-0.00039703,0.00020776,-0.00029505,-0.00
 005943,-0.00008667,0.00006760,0.00000564,0.00003215,-0.00000752,0.0038
 0269,0.00173700,0.00474021,0.03051340,-0.01932498,-0.00974977,0.056166
 32,-0.05609891,-0.00543055,0.00132616,0.00323699,0.00029089,-0.0006414
 9,0.00004471,-0.00012369,0.00017942,-0.00001484,0.00025358,-0.00070904
 ,0.00031118,0.00023960,0.00140679,-0.00033157,-0.00130618,0.00001817,-
 0.00004472,0.00005447,0.00001720,0.00004960,-0.00003659,-0.00000102,-0
 .00003160,0.00001666,-0.00001522,0.00008765,-0.00002455,-0.00001375,-0
 .00004681,-0.00002534,0.00000910,0.00000349,0.00000971,-0.00009967,0.0
 0005826,0.00004288,0.00003009,-0.00000515,-0.00003299,-0.00000227,0.00
 002119,0.00006584,0.00001133,-0.00000844,-0.00004582,0.00000099,-0.000
 00092,0.00000749,-0.00000759,-0.00000622,-0.00000683,-0.00002694,0.000
 02548,0.00000833,-0.00002906,-0.00001128,-0.00005520,0.00001114,0.0001
 5076,0.00009567,-0.00000710,-0.00002556,-0.00003611,-0.00000609,-0.000
 01654,0.00000489,-0.00003833,0.00000504,-0.00003982,-0.00004171,0.0001
 8278,0.00011877,-0.00007966,-0.00019354,-0.00001648,-0.00144585,0.0005
 3503,-0.00047094,-0.00003360,-0.00005396,0.00008700,0.00040347,0.00007
 514,0.00020329,-0.00184345,-0.00224226,0.00251759,-0.07055372,0.062522
 27,-0.00014692,-0.00001339,-0.00026075,0.00009135,0.00013300,-0.000129
 73,0.00134852,-0.00045233,0.00158544,-0.00045072,0.00014621,-0.0000991
 3,-0.00009757,0.00000259,-0.00007010,0.01888441,-0.00460667,0.00148902
 ,-0.00113745,0.00049343,0.00061079,-0.00021539,-0.00011216,0.00006449,
 -0.00020602,0.00002671,-0.00005944,-0.00001810,-0.00003229,0.00001294,
 0.00000501,0.00000691,-0.00000746,0.00247745,0.00041361,0.00277957,0.0
 0896617,-0.00712443,-0.00112287,0.04347986,-0.00643126,-0.05088230,-0.
 03203853,0.00648867,-0.00841289,-0.00501854,0.00097934,0.00481526,-0.0
 0013540,-0.00001551,-0.00058454,0.00015080,-0.00002491,0.00041397,-0.0
 0026531,0.00022631,-0.00056257,-0.00002241,0.00010528,0.00005028,0.000
 08948,0.00004722,-0.00003606,-0.00000780,0.00000837,-0.00002362,-0.000
 11154,0.00009652,0.00017970,-0.00000100,-0.00007220,-0.00014310,0.0000
 2179,0.00001219,0.00002785,0.00018712,-0.00016315,0.00005600,0.0001681
 3,0.00000715,-0.00030252,-0.00007401,-0.00014950,0.00008002,0.00003987
 ,0.00002180,-0.00004583,-0.00000156,-0.00000171,0.00001147,0.00000537,
 0.00000905,0.00001163,0.00006765,-0.00001334,-0.00006754,0.00014880,-0
 .00012788,0.00006853,0.00117526,-0.00065524,-0.00028567,0.00015574,-0.
 00002617,0.00013131,0.00002416,-0.00002682,-0.00001094,-0.00002354,0.0
 0001012,0.00001104,-0.00006233,0.00011608,0.00002740,-0.00002052,-0.00
 005790,-0.00001096,-0.00077260,0.00038062,-0.00001259,-0.00013924,0.00
 000414,0.00005995,-0.00043646,0.00016025,-0.00027308,0.00147696,0.0020
 6992,-0.00224096,-0.03768851,0.00806519,0.05322954,0.00005034,0.000062
 56,0.00012931,-0.00000381,-0.00008239,-0.00004600,-0.00002543,0.000092
 68,-0.00007906,-0.00001397,0.00000833,0.00013096,0.00000428,0.00001032
 ,-0.00000553,-0.00007002,-0.00049403,-0.00031591,0.00037167,0.00019180
 ,0.00062799,0.00001113,0.00007768,-0.00009507,-0.00000640,-0.00009250,
 0.00005323,0.00002810,0.00007403,-0.00003765,-0.00000682,-0.00001290,0
 .00000054,-0.00009608,-0.00001586,-0.00005621,0.00012381,0.00037934,0.
 00014358,-0.00016124,-0.00026043,-0.00076417,0.00116216,0.00082210,-0.
 00013652,-0.00121041,-0.00026322,0.00163821,0.00012693,0.00002406,0.00
 004492,0.00002152,-0.00006268,-0.00035179,-0.00012699,-0.00017408,0.00
 019872,0.00008269,0.00011121,0.00017527,-0.00003173,-0.00013819,-0.000
 14850,-0.00003678,-0.00001354,0.00003566,-0.19394329,0.03856418,0.1580
 9901,0.01015556,-0.00940951,-0.02262852,0.00389103,-0.00056337,-0.0008
 7174,-0.00768572,0.00647107,0.00743484,0.00020104,-0.00358930,0.000268
 71,0.00021381,0.00122715,-0.00025066,-0.00024877,-0.00023132,0.0004284
 4,-0.00003550,-0.00000240,-0.00007424,0.00000599,-0.00017970,0.0000354
 0,0.00000474,0.00000884,-0.00000495,-0.00001890,-0.00003821,0.00000863
 ,0.00018644,-0.00009765,-0.00003666,0.00104837,-0.00051381,-0.00020297
 ,-0.01374672,0.00273500,0.01664515,0.00000229,-0.00001345,-0.00001957,
 0.00000025,0.00000727,-0.00000463,0.00000281,0.00002125,0.00000132,0.0
 0001095,-0.00000573,0.00001318,-0.00000086,0.00000781,0.00000525,0.000
 00549,-0.00000590,0.00001123,0.00001803,0.00000319,-0.00005817,0.00008
 127,0.00001249,0.00012756,0.19965873,-0.00000848,-0.00002785,-0.000000
 01,-0.00000193,0.00003443,-0.00002623,0.00004930,-0.00008939,-0.000055
 46,-0.00001785,-0.00006266,0.00002002,-0.00000528,0.00000042,0.0000079
 6,-0.00010608,0.00049027,0.00007070,-0.00027856,-0.00041468,-0.0003554
 2,0.00007605,0.00002998,0.00016601,-0.00000665,-0.00000811,0.00001579,
 0.00000737,0.00000196,-0.00000336,-0.00000338,-0.00000198,0.00000139,-
 0.00002097,-0.00000440,-0.00005403,0.00001072,0.00002066,0.00007439,0.
 00001252,-0.00007409,-0.00054119,-0.00039713,-0.00099502,-0.00091636,-
 0.00012118,0.00076433,0.00013089,-0.00005916,0.00001278,0.00025998,0.0
 0010486,0.00007414,-0.00016541,-0.00004494,-0.00006807,0.00000715,0.00
 011662,-0.00002934,0.00029144,-0.00007294,-0.00018004,-0.00017641,-0.0
 0004195,-0.00002715,0.00003284,0.03762434,-0.05311066,-0.03385433,0.00
 528780,-0.00620567,-0.02252457,0.00046217,0.00062305,0.00087211,-0.019
 34251,0.00640586,0.02119702,-0.00254420,-0.00768530,0.00170285,-0.0007
 3989,0.00198257,-0.00022093,-0.00040590,-0.00050706,0.00089268,-0.0000
 8008,-0.00005139,-0.00008472,0.00010947,-0.00014972,0.00005194,-0.0000
 0175,-0.00000795,-0.00000842,0.00003803,-0.00001458,0.00004380,0.00003
 792,-0.00003540,-0.00008348,0.00083393,0.00130544,0.00037017,0.0140608
 3,-0.00200690,-0.01483360,0.00000023,0.00000405,0.00000164,0.00000158,
 0.00000090,-0.00000355,0.00000363,0.00000705,0.00000240,0.00000551,-0.
 00000105,0.00000915,0.00000131,-0.00000406,-0.00000255,-0.00000082,0.0
 0000382,0.00001929,0.00005243,-0.00002188,-0.00008550,0.00005718,-0.00
 001155,0.00007618,-0.03465217,0.06003425,0.00000883,0.00002816,0.00000
 767,-0.00000915,-0.00004424,0.00001226,0.00002539,0.00002293,-0.000005
 40,0.00000219,0.00002398,0.00000806,0.00000415,0.00000293,-0.00000292,
 -0.00008496,-0.00024546,-0.00015964,0.00010908,0.00004407,0.00001230,-
 0.00002076,0.00005668,-0.00008305,-0.00000005,0.00000118,-0.00001384,-
 0.00000358,0.00000398,-0.00000147,0.00000227,0.00000128,-0.00000077,0.
 00001637,-0.00002127,0.00000979,-0.00001532,-0.00003717,-0.00016015,-0
 .00018816,-0.00025970,0.00035646,-0.00155255,-0.00139919,-0.00109880,0
 .00035344,0.00063588,-0.00037035,0.00021528,-0.00003667,0.00009720,-0.
 00004738,0.00006961,0.00004582,0.00001449,0.00002007,0.00001215,-0.000
 03139,0.00003053,-0.00004911,0.00000286,0.00002460,0.00004479,0.000010
 68,0.00000901,-0.00000905,0.15333826,-0.03423549,-0.20078031,0.0050152
 5,-0.01472559,-0.02975939,0.00076525,-0.00087888,0.00018858,0.01035914
 ,-0.00045046,-0.00761603,-0.00034488,0.00183073,0.00042662,0.00027958,
 -0.00051602,0.00007215,0.00004074,0.00010005,-0.00006879,0.00000707,-0
 .00002508,0.00001309,-0.00003751,0.00000637,-0.00001786,-0.00000141,-0
 .00000082,-0.00000381,-0.00003238,0.00000960,-0.00002503,-0.00002157,-
 0.00004346,-0.00007405,-0.00052181,-0.00030386,0.00029309,-0.00758492,
 0.00262849,0.00981019,0.00000043,-0.00000208,-0.00000243,0.00000050,-0
 .00000050,0.00000140,-0.00000179,-0.00000655,-0.00000162,-0.00000210,0
 .00000170,-0.00000113,-0.00000046,0.00000323,0.00000060,0.00000632,-0.
 00000190,0.00001211,0.00000519,-0.00001865,-0.00005087,-0.00001205,0.0
 0002020,-0.00007158,-0.16006859,0.04767778,0.22900318\\0.00149708,0.01
 100012,0.00012102,-0.00092625,-0.01350152,0.01471934,0.00791013,-0.046
 71798,0.00139010,-0.01297796,0.00026167,0.03069705,0.00168049,0.016136
 46,-0.03371111,0.01074744,0.01128940,-0.01059039,-0.01466590,0.0016026
 0,0.04236740,0.02203212,0.00298232,-0.02119709,-0.01613812,0.00840449,
 -0.01024439,0.00955680,0.00898135,0.01916984,-0.00421305,-0.02053969,-
 0.02686489,0.01973971,-0.01042457,-0.00949871,0.01239364,0.01984490,0.
 02259125,-0.07399444,0.01814393,-0.03033296,0.01283538,-0.03240932,-0.
 00252674,-0.00791158,0.03099849,0.02391041,0.01934206,0.03656408,-0.01
 081671,-0.00296698,-0.03028166,0.01142418,0.00532896,0.01692666,-0.017
 64112,0.02219513,-0.00496204,-0.02969411,-0.00696087,0.01290508,0.0445
 9849,-0.01078787,-0.00690240,-0.02561141,0.00538284,-0.00591135,-0.029
 72016,-0.02740700,0.01847868,0.00268296,0.02891224,-0.01610616,-0.0028
 4907,0.01258438,0.00212705,0.00475376,-0.00599829,-0.01575474,-0.00604
 990,0.00746706,-0.01219272,-0.02038654,-0.00261147,-0.00124263,0.03354
 861,-0.00375324,-0.00170293,0.00129914,-0.01913458,0.00973197,-0.00553
 919,0.01763380,-0.01308743,0.00487711,-0.02074713,0.00868845,-0.001741
 62,0.01278320,-0.01286102,0.00232526,-0.01727686,0.01215214,-0.0056906
 9,0.00935828,-0.01495311,0.00380786,-0.00101457,0.00168121,0.00103163,
 -0.02132530,0.00540594,0.00647129,0.00820958,-0.00739433,0.01655357,0.
 02275650,-0.00625439,-0.00037453,-0.01778593,0.00732680,0.00343392,0.0
 2299092,-0.00288748,0.00190854,-0.01690421,0.00927200,-0.00523795,0.01
 751886,-0.00116561,-0.00254834,-0.00535497,0.00634730,0.01518487\\\@


 IT IS BY EATING THE LIGHT OF A STAR THAT WE EXIST, 
 IN THE FINAL ANALYSIS, 
 JUST AS IT IS BY PERCEIVING THE LIGHT OF STARS
 THAT WE DEFINE THE WORLD AROUND US.

                                    -- GILBERT GROSVENOR
 Job cpu time:  3 days 22 hours 10 minutes  5.0 seconds.
 File lengths (MBytes):  RWF=   2340 Int=      0 D2E=      0 Chk=     43 Scr=      1
 Normal termination of Gaussian 09 at Tue Feb 16 09:09:48 2016.
Gaussian '09 finished on node016 at Tue Feb 16 09:09:48 EST 2016.
