Gaussian '09 started on node002 at Mon Feb  8 13:54:04 EST 2016.
 Entering Gaussian System, Link 0=/usr/local/gaussian/g09/g09
 Initial command:
 /usr/local/gaussian/g09/l1.exe /home/srmcgrat/thesis/gaussian/cellobiose/350/9000/1/2dfp/gaussian2741/Gau-2823.inp -scrdir=/home/srmcgrat/thesis/gaussian/cellobiose/350/9000/1/2dfp/gaussian2741/
 Entering Link 1 = /usr/local/gaussian/g09/l1.exe PID=      2825.
  
 Copyright (c) 1988,1990,1992,1993,1995,1998,2003,2009,2010,
            Gaussian, Inc.  All Rights Reserved.
  
 This is part of the Gaussian(R) 09 program.  It is based on
 the Gaussian(R) 03 system (copyright 2003, Gaussian, Inc.),
 the Gaussian(R) 98 system (copyright 1998, Gaussian, Inc.),
 the Gaussian(R) 94 system (copyright 1995, Gaussian, Inc.),
 the Gaussian 92(TM) system (copyright 1992, Gaussian, Inc.),
 the Gaussian 90(TM) system (copyright 1990, Gaussian, Inc.),
 the Gaussian 88(TM) system (copyright 1988, Gaussian, Inc.),
 the Gaussian 86(TM) system (copyright 1986, Carnegie Mellon
 University), and the Gaussian 82(TM) system (copyright 1983,
 Carnegie Mellon University). Gaussian is a federally registered
 trademark of Gaussian, Inc.
  
 This software contains proprietary and confidential information,
 including trade secrets, belonging to Gaussian, Inc.
  
 This software is provided under written license and may be
 used, copied, transmitted, or stored only in accord with that
 written license.
  
 The following legend is applicable only to US Government
 contracts under FAR:
  
                    RESTRICTED RIGHTS LEGEND
  
 Use, reproduction and disclosure by the US Government is
 subject to restrictions as set forth in subparagraphs (a)
 and (c) of the Commercial Computer Software - Restricted
 Rights clause in FAR 52.227-19.
  
 Gaussian, Inc.
 340 Quinnipiac St., Bldg. 40, Wallingford CT 06492
  
  
 ---------------------------------------------------------------
 Warning -- This program may not be used in any manner that
 competes with the business of Gaussian, Inc. or will provide
 assistance to any competitor of Gaussian, Inc.  The licensee
 of this program is prohibited from giving any competitor of
 Gaussian, Inc. access to this program.  By using this program,
 the user acknowledges that Gaussian, Inc. is engaged in the
 business of creating and licensing software in the field of
 computational chemistry and represents and warrants to the
 licensee that it is not a competitor of Gaussian, Inc. and that
 it will not use this program in any manner prohibited above.
 ---------------------------------------------------------------
  

 Cite this work as:
 Gaussian 09, Revision B.01,
 M. J. Frisch, G. W. Trucks, H. B. Schlegel, G. E. Scuseria, 
 M. A. Robb, J. R. Cheeseman, G. Scalmani, V. Barone, B. Mennucci, 
 G. A. Petersson, H. Nakatsuji, M. Caricato, X. Li, H. P. Hratchian, 
 A. F. Izmaylov, J. Bloino, G. Zheng, J. L. Sonnenberg, M. Hada, 
 M. Ehara, K. Toyota, R. Fukuda, J. Hasegawa, M. Ishida, T. Nakajima, 
 Y. Honda, O. Kitao, H. Nakai, T. Vreven, J. A. Montgomery, Jr., 
 J. E. Peralta, F. Ogliaro, M. Bearpark, J. J. Heyd, E. Brothers, 
 K. N. Kudin, V. N. Staroverov, T. Keith, R. Kobayashi, J. Normand, 
 K. Raghavachari, A. Rendell, J. C. Burant, S. S. Iyengar, J. Tomasi, 
 M. Cossi, N. Rega, J. M. Millam, M. Klene, J. E. Knox, J. B. Cross, 
 V. Bakken, C. Adamo, J. Jaramillo, R. Gomperts, R. E. Stratmann, 
 O. Yazyev, A. J. Austin, R. Cammi, C. Pomelli, J. W. Ochterski, 
 R. L. Martin, K. Morokuma, V. G. Zakrzewski, G. A. Voth, 
 P. Salvador, J. J. Dannenberg, S. Dapprich, A. D. Daniels, 
 O. Farkas, J. B. Foresman, J. V. Ortiz, J. Cioslowski, 
 and D. J. Fox, Gaussian, Inc., Wallingford CT, 2010.
 
 ******************************************
 Gaussian 09:  EM64L-G09RevB.01 12-Aug-2010
                 8-Feb-2016 
 ******************************************
 --------------------------------------------------
 # freq=raman b3lyp/6-31+g(2df,p) geom=connectivity
 --------------------------------------------------
 1/10=4,30=1,38=1,57=2/1,3;
 2/12=2,17=6,18=5,40=1/2;
 3/5=1,6=6,7=114,11=2,16=1,25=1,30=1,71=2,74=-5/1,2,3;
 4//1;
 5/5=2,38=5,98=1/2;
 8/6=4,10=90,11=11/1;
 10/13=10,15=4/2;
 11/6=3,8=1,9=11,15=111,16=1/1,2,10;
 10/6=1/2;
 6/7=2,8=2,9=2,10=2,18=1,28=1/1;
 7/8=1,10=1,25=1/1,2,3,16;
 1/10=4,30=1/3;
 99//99;
 ------------
 350 9000.com
 ------------
 Symbolic Z-matrix:
 Charge =  0 Multiplicity = 1
 O                     7.255     7.794     12.208 
 C                     7.758     8.134     13.508 
 C                     7.151     9.409     14.07 
 O                     7.595     10.406    13.138 
 H                     7.691     9.914     12.273 
 C                     7.735     9.689     15.445 
 O                     7.165     10.836    16.092 
 H                     7.74      10.981    16.897 
 C                     8.289     5.7       13.937 
 O                     7.764     5.018     12.79 
 H                     7.894     4.031     12.879 
 C                     7.573     6.945     14.436 
 O                     8.164     7.272     15.702 
 C                     7.8       8.488     16.373 
 O                     8.678     8.666     17.494 
 C                     8.103     8.247     18.741 
 C                     8.79      6.959     19.164 
 O                     8.82      5.943     18.151 
 H                     8.769     6.337     17.234 
 C                     8.317     6.54      20.546 
 O                     9.077     5.424     21.035 
 H                     9.061     5.463     22.034 
 C                     8.168     10.76     19.587 
 O                     8.406     11.375    18.313 
 H                     8.275     12.366    18.347 
 C                     8.495     9.287     19.777 
 O                     7.938     8.859     21.029 
 C                     8.552     7.667     21.539 
 O                     7.723     7.379     22.674 
 H                     8.27681   7.18614   23.43406 
 H                     9.5823    7.80004   21.7953 
 H                     7.27714   6.28953   20.51672 
 H                     9.81626   7.22938   19.3003 
 H                     7.04147   8.13073   18.67363 
 H                     9.55879   9.22674   19.8751 
 H                     8.72912   11.30761   20.31513 
 H                     7.13019   10.88799   19.81386 
 H                     7.99047   7.63788   11.61108 
 H                     6.81513   8.34598   16.76639 
 H                     8.75577   9.95228   15.26166 
 H                     6.08297   9.35183   14.1008 
 H                     8.81029   8.30063   13.40894 
 H                     6.53052   6.73996   14.56283 
 H                     8.31503   4.99842   14.74447 
 H                     9.29783   5.97719   13.71266 
 

 GradGradGradGradGradGradGradGradGradGradGradGradGradGradGradGradGradGrad
 Berny optimization.
 Initialization pass.
 Trust Radius=3.00D-01 FncErr=1.00D-07 GrdErr=1.00D-07
 Number of steps in this run=      2 maximum allowed number of steps=      2.
 GradGradGradGradGradGradGradGradGradGradGradGradGradGradGradGradGradGrad

                          Input orientation:                          
 ---------------------------------------------------------------------
 Center     Atomic      Atomic             Coordinates (Angstroms)
 Number     Number       Type             X           Y           Z
 ---------------------------------------------------------------------
      1          8           0        7.255000    7.794000   12.208000
      2          6           0        7.758000    8.134000   13.508000
      3          6           0        7.151000    9.409000   14.070000
      4          8           0        7.595000   10.406000   13.138000
      5          1           0        7.691000    9.914000   12.273000
      6          6           0        7.735000    9.689000   15.445000
      7          8           0        7.165000   10.836000   16.092000
      8          1           0        7.740000   10.981000   16.897000
      9          6           0        8.289000    5.700000   13.937000
     10          8           0        7.764000    5.018000   12.790000
     11          1           0        7.894000    4.031000   12.879000
     12          6           0        7.573000    6.945000   14.436000
     13          8           0        8.164000    7.272000   15.702000
     14          6           0        7.800000    8.488000   16.373000
     15          8           0        8.678000    8.666000   17.494000
     16          6           0        8.103000    8.247000   18.741000
     17          6           0        8.790000    6.959000   19.164000
     18          8           0        8.820000    5.943000   18.151000
     19          1           0        8.769000    6.337000   17.234000
     20          6           0        8.317000    6.540000   20.546000
     21          8           0        9.077000    5.424000   21.035000
     22          1           0        9.061000    5.463000   22.034000
     23          6           0        8.168000   10.760000   19.587000
     24          8           0        8.406000   11.375000   18.313000
     25          1           0        8.275000   12.366000   18.347000
     26          6           0        8.495000    9.287000   19.777000
     27          8           0        7.938000    8.859000   21.029000
     28          6           0        8.552000    7.667000   21.539000
     29          8           0        7.723000    7.379000   22.674000
     30          1           0        8.276810    7.186138   23.434065
     31          1           0        9.582296    7.800040   21.795303
     32          1           0        7.277140    6.289533   20.516725
     33          1           0        9.816264    7.229376   19.300303
     34          1           0        7.041472    8.130727   18.673627
     35          1           0        9.558789    9.226745   19.875098
     36          1           0        8.729122   11.307607   20.315127
     37          1           0        7.130190   10.887993   19.813864
     38          1           0        7.990470    7.637883   11.611082
     39          1           0        6.815126    8.345984   16.766389
     40          1           0        8.755770    9.952279   15.261664
     41          1           0        6.082973    9.351827   14.100803
     42          1           0        8.810293    8.300632   13.408937
     43          1           0        6.530517    6.739957   14.562834
     44          1           0        8.315029    4.998425   14.744474
     45          1           0        9.297831    5.977188   13.712663
 ---------------------------------------------------------------------
                    Distance matrix (angstroms):
                    1          2          3          4          5
     1  O    0.000000
     2  C    1.434785   0.000000
     3  C    2.466999   1.519841   0.000000
     4  O    2.793393   2.307694   1.435190   0.000000
     5  H    2.165345   2.167513   1.943151   0.999752   0.000000
     6  C    3.781480   2.484054   1.519895   2.419905   3.180274
     7  O    4.934300   3.785434   2.474876   3.015944   3.963776
     8  H    5.690247   4.426178   3.287862   3.805487   4.745763
     9  C    2.905759   2.527916   3.881934   4.823533   4.569934
    10  O    2.881663   3.197658   4.614656   5.401871   4.923762
    11  H    3.875401   4.153161   5.558184   6.387261   5.917612
    12  C    2.405392   1.519582   2.526526   3.696459   3.675249
    13  O    3.647849   2.391969   2.873389   4.088987   4.354530
    14  C    4.257451   2.887093   2.563835   3.766427   4.342276
    15  O    5.543204   4.125242   3.821983   4.814065   5.458069
    16  C    6.603363   5.245577   4.906607   6.026023   6.692059
    17  C    7.172126   5.868218   5.885377   7.044325   7.577975
    18  O    6.418308   5.242688   5.608322   6.822695   7.182922
    19  H    5.447543   4.258451   4.697447   5.891711   6.210357
    20  C    8.498388   7.237870   7.178391   8.387235   8.956466
    21  O    9.319470   8.107995   8.252329   9.454060   9.942522
    22  H   10.258922   9.029104   9.090892  10.282083  10.815055
    23  C    8.005021   6.634623   5.770336   6.484076   7.378200
    24  O    7.170731   5.831982   4.841821   5.327035   6.255186
    25  H    7.722105   6.449266   5.319770   5.606932   6.576233
    26  C    7.813860   6.416614   5.864390   6.792531   7.572949
    27  O    8.911271   7.558007   7.024923   8.048524   8.822787
    28  C    9.421566   8.083655   7.796366   8.887900   9.573353
    29  O   10.484675   9.197109   8.858719  10.005719  10.705515
    30  H   11.288849   9.984707   9.689906  10.809317  11.504511
    31  H    9.865735   8.492289   8.257134   9.256850   9.935798
    32  H    8.443863   7.263298   7.162907   8.455289   9.014823
    33  H    7.561721   6.213338   6.261826   7.280036   7.817093
    34  H    6.477910   5.215087   4.779055   6.010527   6.676075
    35  H    8.132932   6.706479   6.287275   7.115869   7.858298
    36  H    8.957900   7.573099   6.715414   7.321904   8.227736
    37  H    8.212037   6.909599   5.931259   6.709362   7.624160
    38  H    0.960000   1.974455   3.144494   3.185961   2.389252
    39  H    4.612709   3.398683   2.917761   4.244652   4.839047
    40  H    4.029310   2.716067   2.071353   2.462356   3.172903
    41  H    2.717200   2.154120   1.070000   2.079542   2.498530
    42  H    2.029252   1.070000   2.102079   2.446000   2.268507
    43  H    2.679762   2.136058   2.784183   4.074695   4.082230
    44  H    3.920791   3.416282   4.611188   5.686921   5.537190
    45  H    3.120573   2.657970   4.063731   4.779566   4.489212
                    6          7          8          9         10
     6  C    0.000000
     7  O    1.434963   0.000000
     8  H    1.943603   0.999837   0.000000
     9  C    4.300361   5.682068   6.078813   0.000000
    10  O    5.372905   6.716482   7.240538   1.434001   0.000000
    11  H    6.214708   7.560611   8.029355   2.015180   0.999495
    12  C    2.928116   4.248374   4.730085   1.520422   2.541481
    13  O    2.468193   3.721854   3.919755   2.366862   3.704087
    14  C    1.519148   2.448528   2.548181   3.734456   4.987994
    15  O    2.476727   2.993939   2.568166   4.647658   6.022534
    16  C    3.616408   3.820990   3.317659   5.440609   6.779068
    17  C    4.732535   5.206624   4.734794   5.399779   6.741516
    18  O    4.746807   5.560571   5.302863   4.254269   5.541758
    19  H    3.937713   4.911006   4.768558   3.392105   4.743303
    20  C    6.022884   6.294508   5.776730   6.662227   7.923246
    21  O    7.158162   7.574875   7.056264   7.146938   8.358758
    22  H    7.939287   8.232333   7.653897   8.137172   9.345147
    23  C    4.300081   3.636868   2.732787   7.585561   8.906907
    24  O    3.393856   2.600662   1.613644   7.167195   8.445540
    25  H    3.984913   2.942452   2.075319   7.992737   9.226834
    26  C    4.416495   4.212781   3.425502   6.856720   8.220516
    27  O    5.648997   5.374014   4.649249   7.771676   9.092012
    28  C    6.472465   6.452607   5.761085   7.856759   9.175137
    29  O    7.589116   7.455531   6.807968   8.914851  10.162158
    30  H    8.389460   8.274269   7.577754   9.612648  10.874737
    31  H    6.878010   6.898408   6.124209   8.236244   9.599033
    32  H    6.122777   6.345165   5.943610   6.683127   7.845770
    33  H    5.024417   5.507281   4.915427   5.782434   7.175376
    34  H    3.651470   3.741465   3.430510   5.468126   6.695386
    35  H    4.813071   4.757285   3.905697   7.022200   8.434063
    36  H    5.227457   4.528100   3.573321   8.504085   9.854854
    37  H    4.570597   3.722390   2.981378   7.924371   9.175686
    38  H    4.355602   5.566685   6.259400   3.042105   2.881826
    39  H    2.096647   2.603342   2.795668   4.144753   5.271386
    40  H    1.070000   2.000243   2.182746   4.478223   5.607124
    41  H    2.156327   2.708952   3.635748   4.269570   4.829712
    42  H    2.688749   4.041522   4.527304   2.704420   3.500498
    43  H    3.305427   4.417973   4.989752   2.136689   2.762165
    44  H    4.777935   6.100465   6.383982   1.070000   2.030760
    45  H    4.384174   5.815348   6.132290   1.070000   2.030760
                   11         12         13         14         15
    11  H    0.000000
    12  C    3.319441   0.000000
    13  O    4.306543   1.434910   0.000000
    14  C    5.664073   2.486835   1.435755   0.000000
    15  O    6.587572   3.678890   2.327809   1.434994   0.000000
    16  C    7.223668   4.528701   3.192157   2.399440   1.435686
    17  C    6.991225   4.882138   3.532038   3.332810   2.390668
    18  O    5.683943   4.044779   2.862547   3.267829   2.804736
    19  H    5.004926   3.103044   1.894010   2.511391   2.345234
    20  C    8.078174   6.168441   4.901384   4.634212   3.736964
    21  O    8.358246   6.937021   5.717479   5.723030   4.817515
    22  H    9.339515   7.882897   6.646150   6.541228   5.569336
    23  C    9.505355   6.437472   5.221052   3.953126   3.004261
    24  O    9.150128   5.945580   4.869342   3.530666   2.843137
    25  H    9.975791   6.721307   5.740835   4.377349   3.818379
    26  C    8.693051   5.904348   4.558005   3.564918   2.373019
    27  O    9.472804   6.874901   5.562964   4.672796   3.616777
    28  C    9.415363   7.206409   5.863202   5.284610   4.168441
    29  O   10.352795   8.250788   6.986753   6.398313   5.422250
    30  H   11.023195   9.028769   7.733364   7.195890   6.134763
    31  H    9.826315   7.676438   6.278434   5.749021   4.479827
    32  H    7.988512   6.123102   4.993329   4.719861   4.092294
    33  H    7.426832   5.364191   3.959744   3.770750   2.573376
    34  H    7.149285   4.432376   3.290600   2.448652   2.087166
    35  H    8.872016   6.223624   4.814687   3.987953   2.599971
    36  H   10.437549   7.411686   6.155195   4.934958   3.865159
    37  H    9.782337   6.683166   5.572396   4.248313   3.565774
    38  H    3.824464   2.938457   4.110911   4.840954   6.011526
    39  H    5.907186   2.822737   2.026284   1.070000   2.025371
    40  H    6.440596   3.335325   2.779925   2.071878   2.577574
    41  H    5.751854   2.850501   3.349655   2.976115   4.326467
    42  H    4.398885   2.103210   2.594979   3.137111   4.103502
    43  H    3.468837   1.070000   2.061319   2.818500   4.112549
    44  H    2.143168   2.105925   2.471601   3.885162   4.598124
    45  H    2.540351   2.105925   2.630508   3.952856   4.681069
                   16         17         18         19         20
    16  C    0.000000
    17  C    1.519816   0.000000
    18  O    2.484070   1.435035   0.000000
    19  H    2.522440   2.027862   0.999363   0.000000
    20  C    2.493526   1.519610   2.519016   3.348859   0.000000
    21  O    3.765693   2.437055   2.941575   3.921229   1.436028
    22  H    4.417269   3.247823   3.919971   4.887652   1.981820
    23  C    2.652378   3.874715   5.068598   5.045864   4.330160
    24  O    3.171652   4.513614   5.450162   5.165022   5.326484
    25  H    4.141374   5.492573   6.449060   6.150744   6.227330
    26  C    1.519395   2.425361   3.732538   3.904411   2.858156
    27  O    2.374176   2.795376   4.190926   4.631746   2.398894
    28  C    2.892543   2.489685   3.810846   4.510988   1.520330
    29  O    4.045530   3.692559   4.870630   5.636797   2.363290
    30  H    4.814613   4.306786   5.454468   6.277268   2.959734
    31  H    3.422989   2.873819   4.160605   4.858747   2.179319
    32  H    2.768920   2.137006   2.845550   3.606131   1.070000
    33  H    2.069699   1.070000   1.992035   2.482479   2.067558
    34  H    1.070000   2.161194   2.867482   2.876515   2.768242
    35  H    2.089354   2.497872   3.781706   3.993719   3.034921
    36  H    3.498174   4.498798   5.785388   5.848236   4.790952
    37  H    3.012017   4.314427   5.483934   5.482056   4.566135
    38  H    7.156774   7.625398   6.806708   5.823711   9.008037
    39  H    2.359556   3.401822   3.422134   2.841179   4.450018
    40  H    3.929360   4.918243   4.942338   4.118316   6.305583
    41  H    5.180018   6.220095   5.959490   5.110856   7.378199
    42  H    5.379036   5.909411   5.295818   4.299844   7.367552
    43  H    4.711789   5.130689   4.330336   3.508320   6.247382
    44  H    5.154650   4.858154   3.570943   2.862798   6.002846
    45  H    5.644807   5.562277   4.464115   3.578958   6.926275
                   21         22         23         24         25
    21  O    0.000000
    22  H    0.999889   0.000000
    23  C    5.603203   5.902836   0.000000
    24  O    6.578292   7.016168   1.434554   0.000000
    25  H    7.487317   7.865315   2.031818   1.000199   0.000000
    26  C    4.104151   4.476313   1.520775   2.551658   3.401991
    27  O    3.618920   3.715369   2.397095   3.731747   4.427837
    28  C    2.358112   2.315539   3.677555   4.917078   5.687371
    29  O    2.888194   2.422994   4.599865   5.954228   6.625542
    30  H    3.082360   2.354642   5.252070   6.617293   7.260110
    31  H    2.545378   2.406342   3.954516   5.127421   5.869225
    32  H    2.063312   2.483433   4.652214   5.656209   6.528926
    33  H    2.610569   3.341199   3.906952   4.488854   5.446943
    34  H    4.128659   4.742084   3.002730   3.537979   4.423326
    35  H    4.004792   4.367428   2.090016   2.895526   3.719962
    36  H    5.937682   6.101155   1.070000   2.029153   2.280339
    37  H    5.927602   6.171514   1.070000   2.029153   2.376297
    38  H    9.741255  10.701092   8.567053   7.684687   8.234600
    39  H    5.645804   6.411184   3.951403   3.754707   4.559615
    40  H    7.344379   8.130887   4.439192   3.384838   3.946706
    41  H    8.513232   9.323478   6.035615   5.218457   5.649815
    42  H    8.154936   9.083321   6.680530   5.802156   6.418584
    43  H    7.078507   7.990763   6.639604   6.250184   7.001106
    44  H    6.350782   7.342308   7.527777   7.307760   8.201278
    45  H    7.346523   8.340571   7.658958   7.148065   7.958655
                   26         27         28         29         30
    26  C    0.000000
    27  O    1.435596   0.000000
    28  C    2.394221   1.434559   0.000000
    29  O    3.553738   2.223207   1.434716   0.000000
    30  H    4.223192   2.949169   1.974393   0.960000   0.000000
    31  H    2.732546   2.100553   1.070000   2.099134   2.183279
    32  H    3.318913   2.702096   2.137225   2.457553   3.211559
    33  H    2.491344   3.028522   2.607996   3.973157   4.411324
    34  H    2.160357   2.623342   3.272170   4.127052   5.008001
    35  H    1.070000   2.023285   2.492990   3.823367   4.298115
    36  H    2.104102   2.670424   3.844900   4.691537   5.188340
    37  H    2.104102   2.499185   3.920770   4.565614   5.303237
    38  H    8.346038   9.496897   9.943828  11.069178  11.835074
    39  H    3.573691   4.437779   5.124019   6.054681   6.923848
    40  H    4.571527   5.926734   6.683485   7.913982   8.641127
    41  H    6.167762   7.189153   8.016328   8.948824   9.829187
    42  H    6.451709   7.690125   8.158807   9.374060  10.100984
    43  H    6.126512   6.948572   7.322069   8.223224   9.052478
    44  H    6.614422   7.385219   7.303631   8.300302   8.960833
    45  H    6.955255   7.980148   8.041348   9.206016   9.849350
                   31         32         33         34         35
    31  H    0.000000
    32  H    3.038114   0.000000
    33  H    2.570102   2.968188   0.000000
    34  H    4.038564   2.615825   2.984062   0.000000
    35  H    2.392327   3.774231   2.094317   2.996943   0.000000
    36  H    3.901519   5.227806   4.340934   3.954143   2.282972
    37  H    4.412978   4.654185   4.567737   2.985051   2.943058
    38  H   10.309149   9.035339   7.913565   7.143041   8.560260
    39  H    5.765870   4.302030   4.083425   1.932648   4.238808
    40  H    6.928472   6.574018   4.984922   4.230646   4.738672
    41  H    8.594105   7.208865   6.743668   4.829134   6.740877
    42  H    8.436688   7.544251   6.071882   5.556488   6.574889
    43  H    7.921221   6.017403   5.786128   4.369661   6.601113
    44  H    7.692152   6.005252   5.290220   5.183774   6.763795
    45  H    8.290524   7.104647   5.749649   5.860039   6.971608
                   36         37         38         39         40
    36  H    0.000000
    37  H    1.727404   0.000000
    38  H    9.474855   8.865040   0.000000
    39  H    5.002812   3.980978   5.334794   0.000000
    40  H    5.232123   4.923475   4.389630   2.934362   0.000000
    41  H    7.031714   6.007957   3.574194   2.941618   2.975229
    42  H    7.532857   7.109168   2.084137   3.905794   2.482640
    43  H    7.667213   6.718566   3.413293   2.741529   3.969776
    44  H    8.426709   7.860635   4.109772   4.188556   5.000241
    45  H    8.504665   8.126459   2.980561   4.593502   4.300533
                   41         42         43         44         45
    41  H    0.000000
    42  H    3.003658   0.000000
    43  H    2.689913   2.994088   0.000000
    44  H    4.934420   3.596320   2.500082   0.000000
    45  H    4.676982   2.393395   2.993766   1.728731   0.000000
 Stoichiometry    C12H22O11
 Framework group  C1[X(C12H22O11)]
 Deg. of freedom   129
 Full point group                 C1      NOp   1
 Largest Abelian subgroup         C1      NOp   1
 Largest concise Abelian subgroup C1      NOp   1
                         Standard orientation:                         
 ---------------------------------------------------------------------
 Center     Atomic      Atomic             Coordinates (Angstroms)
 Number     Number       Type             X           Y           Z
 ---------------------------------------------------------------------
      1          8           0       -5.039618   -0.322776    0.352192
      2          6           0       -3.698654   -0.014696   -0.054638
      3          6           0       -3.208661    1.326730    0.465363
      4          8           0       -4.099203    2.254987   -0.171068
      5          1           0       -4.946905    1.740474   -0.298286
      6          6           0       -1.784617    1.567960   -0.007910
      7          8           0       -1.205464    2.779722    0.497395
      8          1           0       -0.348529    2.877634   -0.008324
      9          6           0       -3.201792   -2.483093   -0.279361
     10          8           0       -4.390247   -3.126221    0.200553
     11          1           0       -4.281760   -4.119698    0.185553
     12          6           0       -2.785068   -1.161149    0.345530
     13          8           0       -1.469128   -0.875841   -0.150319
     14          6           0       -0.846184    0.383300    0.146155
     15          8           0        0.354963    0.487741   -0.632014
     16          6           0        1.541844    0.153506    0.103374
     17          6           0        2.039998   -1.191917   -0.398144
     18          8           0        1.042236   -2.223115   -0.418806
     19          1           0        0.121902   -1.842138   -0.499847
     20          6           0        3.371315   -1.534497    0.249506
     21          8           0        3.941144   -2.715410   -0.336084
     22          1           0        4.933343   -2.657367   -0.226768
     23          6           0        2.372145    2.660256   -0.145452
     24          8           0        1.123619    3.224318   -0.570850
     25          1           0        1.137396    4.224042   -0.543265
     26          6           0        2.604117    1.164620   -0.293845
     27          8           0        3.797821    0.819632    0.425177
     28          6           0        4.374629   -0.421134   -0.005811
     29          8           0        5.423971   -0.600392    0.956041
     30          1           0        6.236508   -0.836982    0.502820
     31          1           0        4.730758   -0.392622   -1.014404
     32          1           0        3.240983   -1.674766    1.302235
     33          1           0        2.275340   -1.028539   -1.429077
     34          1           0        1.370499    0.148273    1.159552
     35          1           0        2.807521    0.994633   -1.330490
     36          1           0        3.148335    3.158588   -0.687757
     37          1           0        2.494186    2.900585    0.890042
     38          1           0       -5.559628   -0.565806   -0.417305
     39          1           0       -0.551269    0.352525    1.174249
     40          1           0       -1.867828    1.719232   -1.063889
     41          1           0       -3.283382    1.382672    1.531283
     42          1           0       -3.694196    0.038651   -1.123298
     43          1           0       -2.760647   -1.253230    1.411281
     44          1           0       -2.390718   -3.169197   -0.151612
     45          1           0       -3.327083   -2.317457   -1.329012
 ---------------------------------------------------------------------
 Rotational constants (GHZ):      0.4126533      0.1443001      0.1102155
 Standard basis: 6-31+G(2df,p) (6D, 7F)
 There are   846 symmetry adapted basis functions of A   symmetry.
 Integral buffers will be    131072 words long.
 Raffenetti 2 integral format.
 Two-electron integral symmetry is turned on.
   846 basis functions,  1258 primitive gaussians,   915 cartesian basis functions
    91 alpha electrons       91 beta electrons
       nuclear repulsion energy      2288.2284366374 Hartrees.
 NAtoms=   45 NActive=   45 NUniq=   45 SFac= 1.00D+00 NAtFMM=   50 NAOKFM=F Big=F
 One-electron integrals computed using PRISM.
 NBasis=   846 RedAO= T  NBF=   846
 NBsUse=   846 1.00D-06 NBFU=   846
 Harris functional with IExCor=  402 diagonalized for initial guess.
 ExpMin= 4.38D-02 ExpMax= 5.48D+03 ExpMxC= 8.25D+02 IAcc=2 IRadAn=         0 AccDes= 0.00D+00
 HarFok:  IExCor=  402 AccDes= 0.00D+00 IRadAn=         0 IDoV= 1
 ScaDFX=  1.000000  1.000000  1.000000  1.000000
 FoFCou: FMM=F IPFlag=           0 FMFlag=      100000 FMFlg1=           0
         NFxFlg=           0 DoJE=T BraDBF=F KetDBF=T FulRan=T
         Omega=  0.000000  0.000000  1.000000  0.000000  0.000000 ICntrl=     500 IOpCl=  0
         NMat0=    1 NMatS0=    1 NMatT0=    0 NMatD0=    1 NMtDS0=    0 NMtDT0=    0
         I1Cent=           4 NGrid=           0.
 Petite list used in FoFCou.
 Initial guess orbital symmetries:
       Occupied  (A) (A) (A) (A) (A) (A) (A) (A) (A) (A) (A) (A)
                 (A) (A) (A) (A) (A) (A) (A) (A) (A) (A) (A) (A)
                 (A) (A) (A) (A) (A) (A) (A) (A) (A) (A) (A) (A)
                 (A) (A) (A) (A) (A) (A) (A) (A) (A) (A) (A) (A)
                 (A) (A) (A) (A) (A) (A) (A) (A) (A) (A) (A) (A)
                 (A) (A) (A) (A) (A) (A) (A) (A) (A) (A) (A) (A)
                 (A) (A) (A) (A) (A) (A) (A) (A) (A) (A) (A) (A)
                 (A) (A) (A) (A) (A) (A) (A)
       Virtual   (A) (A) (A) (A) (A) (A) (A) (A) (A) (A) (A) (A)
                 (A) (A) (A) (A) (A) (A) (A) (A) (A) (A) (A) (A)
                 (A) (A) (A) (A) (A) (A) (A) (A) (A) (A) (A) (A)
                 (A) (A) (A) (A) (A) (A) (A) (A) (A) (A) (A) (A)
                 (A) (A) (A) (A) (A) (A) (A) (A) (A) (A) (A) (A)
                 (A) (A) (A) (A) (A) (A) (A) (A) (A) (A) (A) (A)
                 (A) (A) (A) (A) (A) (A) (A) (A) (A) (A) (A) (A)
                 (A) (A) (A) (A) (A) (A) (A) (A) (A) (A) (A) (A)
                 (A) (A) (A) (A) (A) (A) (A) (A) (A) (A) (A) (A)
                 (A) (A) (A) (A) (A) (A) (A) (A) (A) (A) (A) (A)
                 (A) (A) (A) (A) (A) (A) (A) (A) (A) (A) (A) (A)
                 (A) (A) (A) (A) (A) (A) (A) (A) (A) (A) (A) (A)
                 (A) (A) (A) (A) (A) (A) (A) (A) (A) (A) (A) (A)
                 (A) (A) (A) (A) (A) (A) (A) (A) (A) (A) (A) (A)
                 (A) (A) (A) (A) (A) (A) (A) (A) (A) (A) (A) (A)
                 (A) (A) (A) (A) (A) (A) (A) (A) (A) (A) (A) (A)
                 (A) (A) (A) (A) (A) (A) (A) (A) (A) (A) (A) (A)
                 (A) (A) (A) (A) (A) (A) (A) (A) (A) (A) (A) (A)
                 (A) (A) (A) (A) (A) (A) (A) (A) (A) (A) (A) (A)
                 (A) (A) (A) (A) (A) (A) (A) (A) (A) (A) (A) (A)
                 (A) (A) (A) (A) (A) (A) (A) (A) (A) (A) (A) (A)
                 (A) (A) (A) (A) (A) (A) (A) (A) (A) (A) (A) (A)
                 (A) (A) (A) (A) (A) (A) (A) (A) (A) (A) (A) (A)
                 (A) (A) (A) (A) (A) (A) (A) (A) (A) (A) (A) (A)
                 (A) (A) (A) (A) (A) (A) (A) (A) (A) (A) (A) (A)
                 (A) (A) (A) (A) (A) (A) (A) (A) (A) (A) (A) (A)
                 (A) (A) (A) (A) (A) (A) (A) (A) (A) (A) (A) (A)
                 (A) (A) (A) (A) (A) (A) (A) (A) (A) (A) (A) (A)
                 (A) (A) (A) (A) (A) (A) (A) (A) (A) (A) (A) (A)
                 (A) (A) (A) (A) (A) (A) (A) (A) (A) (A) (A) (A)
                 (A) (A) (A) (A) (A) (A) (A) (A) (A) (A) (A) (A)
                 (A) (A) (A) (A) (A) (A) (A) (A) (A) (A) (A) (A)
                 (A) (A) (A) (A) (A) (A) (A) (A) (A) (A) (A) (A)
                 (A) (A) (A) (A) (A) (A) (A) (A) (A) (A) (A) (A)
                 (A) (A) (A) (A) (A) (A) (A) (A) (A) (A) (A) (A)
                 (A) (A) (A) (A) (A) (A) (A) (A) (A) (A) (A) (A)
                 (A) (A) (A) (A) (A) (A) (A) (A) (A) (A) (A) (A)
                 (A) (A) (A) (A) (A) (A) (A) (A) (A) (A) (A) (A)
                 (A) (A) (A) (A) (A) (A) (A) (A) (A) (A) (A) (A)
                 (A) (A) (A) (A) (A) (A) (A) (A) (A) (A) (A) (A)
                 (A) (A) (A) (A) (A) (A) (A) (A) (A) (A) (A) (A)
                 (A) (A) (A) (A) (A) (A) (A) (A) (A) (A) (A) (A)
                 (A) (A) (A) (A) (A) (A) (A) (A) (A) (A) (A) (A)
                 (A) (A) (A) (A) (A) (A) (A) (A) (A) (A) (A) (A)
                 (A) (A) (A) (A) (A) (A) (A) (A) (A) (A) (A) (A)
                 (A) (A) (A) (A) (A) (A) (A) (A) (A) (A) (A) (A)
                 (A) (A) (A) (A) (A) (A) (A) (A) (A) (A) (A) (A)
                 (A) (A) (A) (A) (A) (A) (A) (A) (A) (A) (A) (A)
                 (A) (A) (A) (A) (A) (A) (A) (A) (A) (A) (A) (A)
                 (A) (A) (A) (A) (A) (A) (A) (A) (A) (A) (A) (A)
                 (A) (A) (A) (A) (A) (A) (A) (A) (A) (A) (A) (A)
                 (A) (A) (A) (A) (A) (A) (A) (A) (A) (A) (A) (A)
                 (A) (A) (A) (A) (A) (A) (A) (A) (A) (A) (A) (A)
                 (A) (A) (A) (A) (A) (A) (A) (A) (A) (A) (A) (A)
                 (A) (A) (A) (A) (A) (A) (A) (A) (A) (A) (A) (A)
                 (A) (A) (A) (A) (A) (A) (A) (A) (A) (A) (A) (A)
                 (A) (A) (A) (A) (A) (A) (A) (A) (A) (A) (A) (A)
                 (A) (A) (A) (A) (A) (A) (A) (A) (A) (A) (A) (A)
                 (A) (A) (A) (A) (A) (A) (A) (A) (A) (A) (A) (A)
                 (A) (A) (A) (A) (A) (A) (A) (A) (A) (A) (A) (A)
                 (A) (A) (A) (A) (A) (A) (A) (A) (A) (A) (A) (A)
                 (A) (A) (A) (A) (A) (A) (A) (A) (A) (A) (A) (A)
                 (A) (A) (A) (A) (A) (A) (A) (A) (A) (A) (A)
 The electronic state of the initial guess is 1-A.
 Requested convergence on RMS density matrix=1.00D-08 within 128 cycles.
 Requested convergence on MAX density matrix=1.00D-06.
 Requested convergence on             energy=1.00D-06.
 No special actions if energy rises.
 SCF Done:  E(RB3LYP) =  -1298.00775943     A.U. after   14 cycles
             Convg  =    0.1479D-08             -V/T =  2.0065
 Range of M.O.s used for correlation:     1   846
 NBasis=   846 NAE=    91 NBE=    91 NFC=     0 NFV=     0
 NROrb=    846 NOA=    91 NOB=    91 NVA=   755 NVB=   755

 **** Warning!!: The largest alpha MO coefficient is  0.69523101D+02

          Differentiating once with respect to electric field.
                with respect to dipole field.
          Electric field/nuclear overlap derivatives assumed to be zero.
          There are     3 degrees of freedom in the 1st order CPHF.  IDoFFX=0.
      3 vectors produced by pass  0 Test12= 2.29D-12 3.33D-08 XBig12= 1.23D+02 1.09D+00.
 AX will form     3 AO Fock derivatives at one time.
      3 vectors produced by pass  1 Test12= 2.29D-12 3.33D-08 XBig12= 2.44D+01 4.64D-01.
      3 vectors produced by pass  2 Test12= 2.29D-12 3.33D-08 XBig12= 1.01D+01 2.26D-01.
      3 vectors produced by pass  3 Test12= 2.29D-12 3.33D-08 XBig12= 1.15D+00 1.14D-01.
      3 vectors produced by pass  4 Test12= 2.29D-12 3.33D-08 XBig12= 3.14D-01 4.80D-02.
      3 vectors produced by pass  5 Test12= 2.29D-12 3.33D-08 XBig12= 6.24D-02 2.87D-02.
      3 vectors produced by pass  6 Test12= 2.29D-12 3.33D-08 XBig12= 2.12D-02 1.98D-02.
      3 vectors produced by pass  7 Test12= 2.29D-12 3.33D-08 XBig12= 3.18D-03 9.47D-03.
      3 vectors produced by pass  8 Test12= 2.29D-12 3.33D-08 XBig12= 5.49D-04 2.69D-03.
      3 vectors produced by pass  9 Test12= 2.29D-12 3.33D-08 XBig12= 1.60D-04 1.75D-03.
      3 vectors produced by pass 10 Test12= 2.29D-12 3.33D-08 XBig12= 3.88D-05 5.49D-04.
      3 vectors produced by pass 11 Test12= 2.29D-12 3.33D-08 XBig12= 1.08D-05 3.43D-04.
      3 vectors produced by pass 12 Test12= 2.29D-12 3.33D-08 XBig12= 1.48D-06 1.12D-04.
      3 vectors produced by pass 13 Test12= 2.29D-12 3.33D-08 XBig12= 4.38D-07 4.74D-05.
      3 vectors produced by pass 14 Test12= 2.29D-12 3.33D-08 XBig12= 5.75D-08 2.00D-05.
      3 vectors produced by pass 15 Test12= 2.29D-12 3.33D-08 XBig12= 1.17D-08 9.09D-06.
      3 vectors produced by pass 16 Test12= 2.29D-12 3.33D-08 XBig12= 1.71D-09 3.75D-06.
      3 vectors produced by pass 17 Test12= 2.29D-12 3.33D-08 XBig12= 1.64D-10 9.22D-07.
      3 vectors produced by pass 18 Test12= 2.29D-12 3.33D-08 XBig12= 2.73D-11 3.17D-07.
      3 vectors produced by pass 19 Test12= 2.29D-12 3.33D-08 XBig12= 7.93D-12 1.86D-07.
      3 vectors produced by pass 20 Test12= 2.29D-12 3.33D-08 XBig12= 9.00D-12 2.52D-07.
      2 vectors produced by pass 21 Test12= 2.29D-12 3.33D-08 XBig12= 1.77D-12 8.90D-08.
      1 vectors produced by pass 22 Test12= 2.29D-12 3.33D-08 XBig12= 4.12D-13 3.70D-08.
 Inverted reduced A of dimension    66 with in-core refinement.
 End of Minotr Frequency-dependent properties file   721 does not exist.
 End of Minotr Frequency-dependent properties file   722 does not exist.
 Symmetrizing basis deriv contribution to polar:
 IMax=3 JMax=2 DiffMx= 0.00D+00
 G2DrvN: will do     8 centers at a time, making    6 passes doing MaxLOS=3.
 Calling FoFCou, ICntrl=  3107 FMM=F I1Cent=   0 AccDes= 0.00D+00.
 Calling FoFCou, ICntrl=  3107 FMM=F I1Cent=   0 AccDes= 0.00D+00.
 Calling FoFCou, ICntrl=  3107 FMM=F I1Cent=   0 AccDes= 0.00D+00.
 Calling FoFCou, ICntrl=  3107 FMM=F I1Cent=   0 AccDes= 0.00D+00.
 Calling FoFCou, ICntrl=  3107 FMM=F I1Cent=   0 AccDes= 0.00D+00.
 Calling FoFCou, ICntrl=  3107 FMM=F I1Cent=   0 AccDes= 0.00D+00.
 FoFDir/FoFCou used for L=0 through L=3.
 End of G2Drv Frequency-dependent properties file   721 does not exist.
 End of G2Drv Frequency-dependent properties file   722 does not exist.
          IDoAtm=111111111111111111111111111111111111111111111
          Differentiating once with respect to electric field.
                with respect to dipole field.
          Differentiating once with respect to nuclear coordinates.
          There are   138 degrees of freedom in the 1st order CPHF.  IDoFFX=5.
 Will reuse    3 saved solutions.
    135 vectors produced by pass  0 Test12= 6.87D-14 1.00D-09 XBig12= 1.72D-01 1.03D-01.
 AX will form    27 AO Fock derivatives at one time.
    135 vectors produced by pass  1 Test12= 6.87D-14 1.00D-09 XBig12= 2.48D-02 1.30D-02.
    132 vectors produced by pass  2 Test12= 6.87D-14 1.00D-09 XBig12= 1.49D-04 1.64D-03.
    132 vectors produced by pass  3 Test12= 6.87D-14 1.00D-09 XBig12= 7.43D-07 7.03D-05.
    132 vectors produced by pass  4 Test12= 6.87D-14 1.00D-09 XBig12= 1.81D-09 3.35D-06.
    132 vectors produced by pass  5 Test12= 6.87D-14 1.00D-09 XBig12= 4.10D-12 1.37D-07.
     94 vectors produced by pass  6 Test12= 6.87D-14 1.00D-09 XBig12= 2.06D-13 2.89D-08.
      2 vectors produced by pass  7 Test12= 6.87D-14 1.00D-09 XBig12= 4.94D-16 1.30D-09.
 Inverted reduced A of dimension   894 with in-core refinement.
 Isotropic polarizability for W=    0.000000      191.36 Bohr**3.
 End of Minotr Frequency-dependent properties file   721 does not exist.
 End of Minotr Frequency-dependent properties file   722 does not exist.

 **********************************************************************

            Population analysis using the SCF density.

 **********************************************************************

 Orbital symmetries:
       Occupied  (A) (A) (A) (A) (A) (A) (A) (A) (A) (A) (A) (A)
                 (A) (A) (A) (A) (A) (A) (A) (A) (A) (A) (A) (A)
                 (A) (A) (A) (A) (A) (A) (A) (A) (A) (A) (A) (A)
                 (A) (A) (A) (A) (A) (A) (A) (A) (A) (A) (A) (A)
                 (A) (A) (A) (A) (A) (A) (A) (A) (A) (A) (A) (A)
                 (A) (A) (A) (A) (A) (A) (A) (A) (A) (A) (A) (A)
                 (A) (A) (A) (A) (A) (A) (A) (A) (A) (A) (A) (A)
                 (A) (A) (A) (A) (A) (A) (A)
       Virtual   (A) (A) (A) (A) (A) (A) (A) (A) (A) (A) (A) (A)
                 (A) (A) (A) (A) (A) (A) (A) (A) (A) (A) (A) (A)
                 (A) (A) (A) (A) (A) (A) (A) (A) (A) (A) (A) (A)
                 (A) (A) (A) (A) (A) (A) (A) (A) (A) (A) (A) (A)
                 (A) (A) (A) (A) (A) (A) (A) (A) (A) (A) (A) (A)
                 (A) (A) (A) (A) (A) (A) (A) (A) (A) (A) (A) (A)
                 (A) (A) (A) (A) (A) (A) (A) (A) (A) (A) (A) (A)
                 (A) (A) (A) (A) (A) (A) (A) (A) (A) (A) (A) (A)
                 (A) (A) (A) (A) (A) (A) (A) (A) (A) (A) (A) (A)
                 (A) (A) (A) (A) (A) (A) (A) (A) (A) (A) (A) (A)
                 (A) (A) (A) (A) (A) (A) (A) (A) (A) (A) (A) (A)
                 (A) (A) (A) (A) (A) (A) (A) (A) (A) (A) (A) (A)
                 (A) (A) (A) (A) (A) (A) (A) (A) (A) (A) (A) (A)
                 (A) (A) (A) (A) (A) (A) (A) (A) (A) (A) (A) (A)
                 (A) (A) (A) (A) (A) (A) (A) (A) (A) (A) (A) (A)
                 (A) (A) (A) (A) (A) (A) (A) (A) (A) (A) (A) (A)
                 (A) (A) (A) (A) (A) (A) (A) (A) (A) (A) (A) (A)
                 (A) (A) (A) (A) (A) (A) (A) (A) (A) (A) (A) (A)
                 (A) (A) (A) (A) (A) (A) (A) (A) (A) (A) (A) (A)
                 (A) (A) (A) (A) (A) (A) (A) (A) (A) (A) (A) (A)
                 (A) (A) (A) (A) (A) (A) (A) (A) (A) (A) (A) (A)
                 (A) (A) (A) (A) (A) (A) (A) (A) (A) (A) (A) (A)
                 (A) (A) (A) (A) (A) (A) (A) (A) (A) (A) (A) (A)
                 (A) (A) (A) (A) (A) (A) (A) (A) (A) (A) (A) (A)
                 (A) (A) (A) (A) (A) (A) (A) (A) (A) (A) (A) (A)
                 (A) (A) (A) (A) (A) (A) (A) (A) (A) (A) (A) (A)
                 (A) (A) (A) (A) (A) (A) (A) (A) (A) (A) (A) (A)
                 (A) (A) (A) (A) (A) (A) (A) (A) (A) (A) (A) (A)
                 (A) (A) (A) (A) (A) (A) (A) (A) (A) (A) (A) (A)
                 (A) (A) (A) (A) (A) (A) (A) (A) (A) (A) (A) (A)
                 (A) (A) (A) (A) (A) (A) (A) (A) (A) (A) (A) (A)
                 (A) (A) (A) (A) (A) (A) (A) (A) (A) (A) (A) (A)
                 (A) (A) (A) (A) (A) (A) (A) (A) (A) (A) (A) (A)
                 (A) (A) (A) (A) (A) (A) (A) (A) (A) (A) (A) (A)
                 (A) (A) (A) (A) (A) (A) (A) (A) (A) (A) (A) (A)
                 (A) (A) (A) (A) (A) (A) (A) (A) (A) (A) (A) (A)
                 (A) (A) (A) (A) (A) (A) (A) (A) (A) (A) (A) (A)
                 (A) (A) (A) (A) (A) (A) (A) (A) (A) (A) (A) (A)
                 (A) (A) (A) (A) (A) (A) (A) (A) (A) (A) (A) (A)
                 (A) (A) (A) (A) (A) (A) (A) (A) (A) (A) (A) (A)
                 (A) (A) (A) (A) (A) (A) (A) (A) (A) (A) (A) (A)
                 (A) (A) (A) (A) (A) (A) (A) (A) (A) (A) (A) (A)
                 (A) (A) (A) (A) (A) (A) (A) (A) (A) (A) (A) (A)
                 (A) (A) (A) (A) (A) (A) (A) (A) (A) (A) (A) (A)
                 (A) (A) (A) (A) (A) (A) (A) (A) (A) (A) (A) (A)
                 (A) (A) (A) (A) (A) (A) (A) (A) (A) (A) (A) (A)
                 (A) (A) (A) (A) (A) (A) (A) (A) (A) (A) (A) (A)
                 (A) (A) (A) (A) (A) (A) (A) (A) (A) (A) (A) (A)
                 (A) (A) (A) (A) (A) (A) (A) (A) (A) (A) (A) (A)
                 (A) (A) (A) (A) (A) (A) (A) (A) (A) (A) (A) (A)
                 (A) (A) (A) (A) (A) (A) (A) (A) (A) (A) (A) (A)
                 (A) (A) (A) (A) (A) (A) (A) (A) (A) (A) (A) (A)
                 (A) (A) (A) (A) (A) (A) (A) (A) (A) (A) (A) (A)
                 (A) (A) (A) (A) (A) (A) (A) (A) (A) (A) (A) (A)
                 (A) (A) (A) (A) (A) (A) (A) (A) (A) (A) (A) (A)
                 (A) (A) (A) (A) (A) (A) (A) (A) (A) (A) (A) (A)
                 (A) (A) (A) (A) (A) (A) (A) (A) (A) (A) (A) (A)
                 (A) (A) (A) (A) (A) (A) (A) (A) (A) (A) (A) (A)
                 (A) (A) (A) (A) (A) (A) (A) (A) (A) (A) (A) (A)
                 (A) (A) (A) (A) (A) (A) (A) (A) (A) (A) (A) (A)
                 (A) (A) (A) (A) (A) (A) (A) (A) (A) (A) (A) (A)
                 (A) (A) (A) (A) (A) (A) (A) (A) (A) (A) (A) (A)
                 (A) (A) (A) (A) (A) (A) (A) (A) (A) (A) (A)
 The electronic state is 1-A.
 Alpha  occ. eigenvalues --  -19.19267 -19.18599 -19.18409 -19.18086 -19.18036
 Alpha  occ. eigenvalues --  -19.17216 -19.16382 -19.16213 -19.14747 -19.13798
 Alpha  occ. eigenvalues --  -19.13079 -10.31245 -10.30220 -10.26347 -10.25924
 Alpha  occ. eigenvalues --  -10.25643 -10.25537 -10.25030 -10.24683 -10.24345
 Alpha  occ. eigenvalues --  -10.24281 -10.24081 -10.23819  -1.09955  -1.09270
 Alpha  occ. eigenvalues --   -1.06036  -1.05697  -1.04227  -1.03728  -1.02789
 Alpha  occ. eigenvalues --   -1.02603  -1.01839  -1.00274  -0.99879  -0.82254
 Alpha  occ. eigenvalues --   -0.79986  -0.79521  -0.78303  -0.72326  -0.70103
 Alpha  occ. eigenvalues --   -0.67310  -0.65041  -0.63291  -0.62895  -0.62026
 Alpha  occ. eigenvalues --   -0.60124  -0.57003  -0.55746  -0.55343  -0.54709
 Alpha  occ. eigenvalues --   -0.54338  -0.53460  -0.52791  -0.51617  -0.51081
 Alpha  occ. eigenvalues --   -0.50620  -0.49907  -0.49676  -0.48798  -0.47102
 Alpha  occ. eigenvalues --   -0.46313  -0.45300  -0.44864  -0.43708  -0.43150
 Alpha  occ. eigenvalues --   -0.42820  -0.41770  -0.41380  -0.40044  -0.39536
 Alpha  occ. eigenvalues --   -0.38681  -0.38378  -0.37963  -0.36320  -0.35643
 Alpha  occ. eigenvalues --   -0.35580  -0.35235  -0.34301  -0.33895  -0.33697
 Alpha  occ. eigenvalues --   -0.33062  -0.31417  -0.31108  -0.30298  -0.30126
 Alpha  occ. eigenvalues --   -0.29515  -0.29162  -0.27909  -0.27679  -0.26698
 Alpha  occ. eigenvalues --   -0.26039
 Alpha virt. eigenvalues --   -0.02792  -0.02185  -0.01946  -0.00250   0.00165
 Alpha virt. eigenvalues --    0.01065   0.01636   0.02418   0.03468   0.03720
 Alpha virt. eigenvalues --    0.04147   0.04306   0.04828   0.05275   0.05559
 Alpha virt. eigenvalues --    0.05872   0.06642   0.07464   0.07556   0.07938
 Alpha virt. eigenvalues --    0.08381   0.08675   0.09141   0.09518   0.09910
 Alpha virt. eigenvalues --    0.10331   0.11048   0.11430   0.11595   0.11822
 Alpha virt. eigenvalues --    0.12106   0.12551   0.13064   0.13535   0.13704
 Alpha virt. eigenvalues --    0.13908   0.14190   0.14590   0.14855   0.14913
 Alpha virt. eigenvalues --    0.15524   0.16253   0.16529   0.16794   0.17106
 Alpha virt. eigenvalues --    0.17241   0.17476   0.17740   0.18191   0.18542
 Alpha virt. eigenvalues --    0.18802   0.19044   0.19492   0.19909   0.20215
 Alpha virt. eigenvalues --    0.20236   0.20325   0.20819   0.21332   0.21499
 Alpha virt. eigenvalues --    0.21844   0.22280   0.22554   0.22821   0.23026
 Alpha virt. eigenvalues --    0.23366   0.23425   0.23848   0.23972   0.24607
 Alpha virt. eigenvalues --    0.24764   0.25150   0.25426   0.25786   0.25864
 Alpha virt. eigenvalues --    0.26118   0.26419   0.26930   0.27162   0.27466
 Alpha virt. eigenvalues --    0.27713   0.27765   0.28350   0.28554   0.28625
 Alpha virt. eigenvalues --    0.29193   0.29734   0.30283   0.30570   0.30725
 Alpha virt. eigenvalues --    0.31138   0.31280   0.31587   0.32079   0.32313
 Alpha virt. eigenvalues --    0.32641   0.33088   0.33204   0.33645   0.33834
 Alpha virt. eigenvalues --    0.34298   0.34694   0.34930   0.35319   0.35690
 Alpha virt. eigenvalues --    0.36029   0.36221   0.36937   0.37226   0.37776
 Alpha virt. eigenvalues --    0.37816   0.38009   0.38540   0.38704   0.39298
 Alpha virt. eigenvalues --    0.39475   0.40037   0.40646   0.41107   0.41597
 Alpha virt. eigenvalues --    0.42146   0.42769   0.42799   0.43724   0.44397
 Alpha virt. eigenvalues --    0.44523   0.45109   0.45530   0.46009   0.47099
 Alpha virt. eigenvalues --    0.47379   0.47872   0.48312   0.49579   0.49905
 Alpha virt. eigenvalues --    0.50617   0.51042   0.54299   0.56252   0.57887
 Alpha virt. eigenvalues --    0.59115   0.59250   0.59888   0.60595   0.61216
 Alpha virt. eigenvalues --    0.61829   0.62102   0.63044   0.65176   0.65687
 Alpha virt. eigenvalues --    0.66152   0.66663   0.67753   0.67852   0.69464
 Alpha virt. eigenvalues --    0.69983   0.70230   0.70927   0.72602   0.72859
 Alpha virt. eigenvalues --    0.73485   0.74204   0.75270   0.75692   0.76591
 Alpha virt. eigenvalues --    0.77071   0.77517   0.78635   0.79536   0.80573
 Alpha virt. eigenvalues --    0.81748   0.82601   0.83133   0.83694   0.84068
 Alpha virt. eigenvalues --    0.84374   0.85837   0.86600   0.87941   0.88369
 Alpha virt. eigenvalues --    0.88787   0.89177   0.90037   0.90890   0.91356
 Alpha virt. eigenvalues --    0.91753   0.92447   0.92604   0.93343   0.93480
 Alpha virt. eigenvalues --    0.93563   0.94551   0.95133   0.95522   0.95833
 Alpha virt. eigenvalues --    0.96614   0.96845   0.97343   0.98215   0.98441
 Alpha virt. eigenvalues --    0.99320   1.00048   1.00851   1.02121   1.02309
 Alpha virt. eigenvalues --    1.02884   1.03854   1.03946   1.04521   1.05466
 Alpha virt. eigenvalues --    1.05858   1.06513   1.07050   1.07383   1.08088
 Alpha virt. eigenvalues --    1.08625   1.09852   1.10380   1.10989   1.11613
 Alpha virt. eigenvalues --    1.11696   1.12221   1.12886   1.13174   1.13776
 Alpha virt. eigenvalues --    1.14608   1.14978   1.15093   1.15545   1.16745
 Alpha virt. eigenvalues --    1.17041   1.17265   1.17661   1.18165   1.18255
 Alpha virt. eigenvalues --    1.19279   1.20357   1.20498   1.21322   1.22494
 Alpha virt. eigenvalues --    1.22699   1.22841   1.23563   1.24260   1.24992
 Alpha virt. eigenvalues --    1.25252   1.25760   1.26553   1.27048   1.27497
 Alpha virt. eigenvalues --    1.27855   1.28358   1.29380   1.29706   1.29947
 Alpha virt. eigenvalues --    1.31227   1.32418   1.33057   1.33368   1.33573
 Alpha virt. eigenvalues --    1.34921   1.35045   1.36342   1.36399   1.36948
 Alpha virt. eigenvalues --    1.38004   1.38259   1.38445   1.39683   1.40142
 Alpha virt. eigenvalues --    1.40991   1.41580   1.41832   1.42807   1.43160
 Alpha virt. eigenvalues --    1.43820   1.44890   1.45345   1.46754   1.47062
 Alpha virt. eigenvalues --    1.47668   1.48100   1.48540   1.49755   1.51110
 Alpha virt. eigenvalues --    1.51525   1.52227   1.53008   1.54436   1.55037
 Alpha virt. eigenvalues --    1.56056   1.57262   1.58685   1.59547   1.59718
 Alpha virt. eigenvalues --    1.60428   1.61094   1.61787   1.62601   1.63232
 Alpha virt. eigenvalues --    1.64374   1.64850   1.65364   1.66704   1.66825
 Alpha virt. eigenvalues --    1.67629   1.68395   1.69255   1.70013   1.70528
 Alpha virt. eigenvalues --    1.71045   1.72452   1.73519   1.74284   1.75366
 Alpha virt. eigenvalues --    1.76150   1.77691   1.78794   1.79398   1.80975
 Alpha virt. eigenvalues --    1.81459   1.82894   1.83561   1.85130   1.85640
 Alpha virt. eigenvalues --    1.86474   1.87906   1.89466   1.89542   1.90583
 Alpha virt. eigenvalues --    1.90728   1.92620   1.93217   1.93688   1.94179
 Alpha virt. eigenvalues --    1.94981   1.95923   1.97970   1.99151   2.00022
 Alpha virt. eigenvalues --    2.01285   2.01943   2.02559   2.03725   2.03968
 Alpha virt. eigenvalues --    2.05737   2.07601   2.09284   2.10871   2.13537
 Alpha virt. eigenvalues --    2.15283   2.15885   2.17368   2.18074   2.18929
 Alpha virt. eigenvalues --    2.20674   2.22812   2.23553   2.25203   2.25502
 Alpha virt. eigenvalues --    2.27583   2.29730   2.30089   2.30343   2.31659
 Alpha virt. eigenvalues --    2.32932   2.35866   2.38142   2.41255   2.41776
 Alpha virt. eigenvalues --    2.42762   2.43993   2.45593   2.46644   2.49043
 Alpha virt. eigenvalues --    2.50740   2.52727   2.53512   2.54893   2.55677
 Alpha virt. eigenvalues --    2.56517   2.57324   2.58491   2.59088   2.60798
 Alpha virt. eigenvalues --    2.61664   2.62719   2.64207   2.65021   2.65621
 Alpha virt. eigenvalues --    2.66493   2.67884   2.68954   2.70403   2.71994
 Alpha virt. eigenvalues --    2.73533   2.75343   2.77381   2.77443   2.79121
 Alpha virt. eigenvalues --    2.79442   2.80690   2.81771   2.82116   2.82798
 Alpha virt. eigenvalues --    2.83807   2.84863   2.86089   2.87110   2.87436
 Alpha virt. eigenvalues --    2.88858   2.89606   2.91519   2.91942   2.93099
 Alpha virt. eigenvalues --    2.94082   2.94711   2.95833   2.97103   2.97728
 Alpha virt. eigenvalues --    2.98497   3.00266   3.00998   3.01707   3.02856
 Alpha virt. eigenvalues --    3.03099   3.04617   3.05402   3.06039   3.07236
 Alpha virt. eigenvalues --    3.08330   3.09166   3.10369   3.10917   3.11635
 Alpha virt. eigenvalues --    3.12855   3.13841   3.15556   3.15699   3.18527
 Alpha virt. eigenvalues --    3.19439   3.20156   3.20498   3.21907   3.22300
 Alpha virt. eigenvalues --    3.22440   3.25017   3.26657   3.26961   3.28794
 Alpha virt. eigenvalues --    3.29975   3.30793   3.32232   3.32754   3.33876
 Alpha virt. eigenvalues --    3.34792   3.36451   3.37059   3.37850   3.39398
 Alpha virt. eigenvalues --    3.40089   3.42176   3.43327   3.44016   3.44593
 Alpha virt. eigenvalues --    3.45940   3.46358   3.47854   3.50372   3.51234
 Alpha virt. eigenvalues --    3.53263   3.55674   3.57502   3.58404   3.61464
 Alpha virt. eigenvalues --    3.61957   3.62424   3.64048   3.65044   3.65848
 Alpha virt. eigenvalues --    3.67503   3.68476   3.71182   3.72398   3.73214
 Alpha virt. eigenvalues --    3.74324   3.76481   3.77176   3.78192   3.80728
 Alpha virt. eigenvalues --    3.81556   3.81846   3.83257   3.83531   3.86688
 Alpha virt. eigenvalues --    3.86896   3.87886   3.88955   3.91970   3.92472
 Alpha virt. eigenvalues --    3.94269   3.95630   3.99946   4.00892   4.03476
 Alpha virt. eigenvalues --    4.05465   4.07311   4.08244   4.10371   4.14892
 Alpha virt. eigenvalues --    4.14994   4.16541   4.18179   4.19461   4.19863
 Alpha virt. eigenvalues --    4.21644   4.21848   4.23215   4.24136   4.24873
 Alpha virt. eigenvalues --    4.25947   4.26844   4.27695   4.30224   4.30674
 Alpha virt. eigenvalues --    4.31269   4.32028   4.33133   4.33421   4.34476
 Alpha virt. eigenvalues --    4.35422   4.36487   4.36665   4.38106   4.39103
 Alpha virt. eigenvalues --    4.39906   4.41307   4.42203   4.42700   4.43709
 Alpha virt. eigenvalues --    4.44574   4.45372   4.45480   4.46930   4.47495
 Alpha virt. eigenvalues --    4.48451   4.49391   4.49803   4.51380   4.51781
 Alpha virt. eigenvalues --    4.52633   4.53114   4.53949   4.54175   4.55040
 Alpha virt. eigenvalues --    4.55727   4.56936   4.57245   4.58297   4.58776
 Alpha virt. eigenvalues --    4.59891   4.60270   4.60563   4.61163   4.61380
 Alpha virt. eigenvalues --    4.61927   4.62544   4.63878   4.64068   4.65062
 Alpha virt. eigenvalues --    4.65434   4.66061   4.66990   4.67247   4.68088
 Alpha virt. eigenvalues --    4.69399   4.70471   4.70811   4.71616   4.72055
 Alpha virt. eigenvalues --    4.72554   4.73455   4.74292   4.74829   4.75481
 Alpha virt. eigenvalues --    4.76194   4.77470   4.78243   4.78743   4.79180
 Alpha virt. eigenvalues --    4.79560   4.80537   4.80677   4.81279   4.82215
 Alpha virt. eigenvalues --    4.82605   4.83327   4.84104   4.84517   4.85943
 Alpha virt. eigenvalues --    4.86263   4.87155   4.87728   4.88725   4.89542
 Alpha virt. eigenvalues --    4.90097   4.90746   4.92280   4.92886   4.94776
 Alpha virt. eigenvalues --    4.96377   4.96999   4.98790   5.01107   5.01958
 Alpha virt. eigenvalues --    5.04903   5.05110   5.06366   5.07057   5.08708
 Alpha virt. eigenvalues --    5.12287   5.13677   5.14473   5.15935   5.17256
 Alpha virt. eigenvalues --    5.18169   5.19258   5.20452   5.22357   5.23733
 Alpha virt. eigenvalues --    5.24685   5.24965   5.27620   5.29129   5.30287
 Alpha virt. eigenvalues --    5.31005   5.32471   5.33283   5.34987   5.36258
 Alpha virt. eigenvalues --    5.37295   5.37876   5.38957   5.39264   5.39472
 Alpha virt. eigenvalues --    5.39996   5.41783   5.42611   5.43087   5.43873
 Alpha virt. eigenvalues --    5.44443   5.45819   5.46269   5.47638   5.47911
 Alpha virt. eigenvalues --    5.48865   5.49543   5.50241   5.51397   5.52142
 Alpha virt. eigenvalues --    5.53778   5.54537   5.55262   5.57637   5.58552
 Alpha virt. eigenvalues --    5.59811   5.61103   5.61774   5.64689   5.66711
 Alpha virt. eigenvalues --    5.67652   5.69352   5.69945   5.71900   5.74301
 Alpha virt. eigenvalues --    5.75490   5.76729   5.77994   5.81376   5.82892
 Alpha virt. eigenvalues --    5.86465   5.87301   5.88668   5.88787   5.90184
 Alpha virt. eigenvalues --    5.90401   5.91177   5.92590   5.94269   5.95269
 Alpha virt. eigenvalues --    5.95465   5.96453   5.98703   5.98981   5.99801
 Alpha virt. eigenvalues --    6.01250   6.02424   6.03539   6.04933   6.06667
 Alpha virt. eigenvalues --    6.08791   6.09176   6.09847   6.12774   6.15321
 Alpha virt. eigenvalues --    6.17052   6.17499   6.18283   6.21504   6.22716
 Alpha virt. eigenvalues --    6.25108   6.26213   6.28801   6.32806   6.36169
 Alpha virt. eigenvalues --    6.50056   6.63309   6.93854   7.05857   7.10021
 Alpha virt. eigenvalues --    7.16125   7.19037   7.24599   7.27306   7.28961
 Alpha virt. eigenvalues --    7.30573   7.35729   7.42337   7.50497   7.80333
 Alpha virt. eigenvalues --    7.95104   8.22301  12.03790  12.16344  12.20730
 Alpha virt. eigenvalues --   12.29668  12.47076  12.56576  12.80566  12.87863
 Alpha virt. eigenvalues --   12.94991  13.13872  13.28475  13.37362  13.45729
 Alpha virt. eigenvalues --   13.49912  13.55270  13.60263  13.61368  13.65857
 Alpha virt. eigenvalues --   13.69489  13.72264  13.97642  14.13970  14.20058
          Condensed to atoms (all electrons):
              1          2          3          4          5          6
     1  O    8.066381   0.248026  -0.070636  -0.036861   0.027678   0.050773
     2  C    0.248026   7.854934  -0.262648   0.065903  -0.027969  -2.058697
     3  C   -0.070636  -0.262648   6.468608   0.296496  -0.025966  -0.246740
     4  O   -0.036861   0.065903   0.296496   8.058121   0.243608  -0.199374
     5  H    0.027678  -0.027969  -0.025966   0.243608   0.425312  -0.002783
     6  C    0.050773  -2.058697  -0.246740  -0.199374  -0.002783  10.347096
     7  O   -0.000419   0.014805  -0.141514   0.007122  -0.000405   0.295994
     8  H    0.000006  -0.003224   0.026735  -0.000257   0.000010  -0.005927
     9  C    0.016202   0.134302  -0.241824   0.005533  -0.001354   0.323275
    10  O   -0.010106   0.012195   0.009079  -0.000127  -0.000026  -0.000837
    11  H    0.002232  -0.008887  -0.000945   0.000003   0.000000   0.000819
    12  C   -0.114399  -1.067791   0.102104  -0.049090   0.026057   0.581257
    13  O   -0.000365  -0.073789  -0.069043  -0.002385   0.000180   0.059353
    14  C   -0.012283   0.902804  -0.043370   0.072246  -0.003242  -2.556537
    15  O   -0.000166  -0.006073   0.036851   0.000287   0.000012  -0.067137
    16  C    0.001652   0.061723  -0.001800  -0.001358   0.000282  -0.389570
    17  C   -0.000040  -0.030187   0.023737   0.000836  -0.000017  -0.082513
    18  O    0.000043   0.008017  -0.001833  -0.000010   0.000000   0.000344
    19  H   -0.000026  -0.004038   0.004505  -0.000008   0.000000   0.016048
    20  C    0.000024   0.008376  -0.004129   0.000017  -0.000001   0.030930
    21  O    0.000000   0.000023  -0.000004   0.000000   0.000000   0.000454
    22  H    0.000000  -0.000002   0.000001   0.000000   0.000000  -0.000061
    23  C    0.000034   0.007848  -0.026615  -0.000012  -0.000043  -0.086556
    24  O    0.000008  -0.001124  -0.013075  -0.000283  -0.000003   0.022806
    25  H    0.000000   0.000094   0.002598   0.000012   0.000000   0.004197
    26  C   -0.000076  -0.023742   0.013014   0.000176   0.000054  -0.009220
    27  O    0.000000  -0.000053   0.000338   0.000001   0.000000   0.004903
    28  C    0.000004  -0.001138  -0.000310   0.000005   0.000000  -0.002281
    29  O    0.000000  -0.000002   0.000015   0.000000   0.000000  -0.000325
    30  H    0.000000   0.000000   0.000000   0.000000   0.000000   0.000005
    31  H    0.000000   0.000000   0.000009   0.000000   0.000000   0.000005
    32  H    0.000000   0.000114   0.000041   0.000000   0.000000   0.000818
    33  H    0.000000   0.000756   0.000414   0.000000   0.000000   0.005237
    34  H   -0.000002  -0.002395   0.003269   0.000004   0.000000   0.013586
    35  H    0.000000  -0.000073  -0.000006   0.000000   0.000000  -0.003966
    36  H    0.000000   0.000003  -0.000160   0.000000   0.000000  -0.000030
    37  H    0.000000   0.000015  -0.000026   0.000000   0.000000  -0.006679
    38  H    0.281961   0.020880  -0.013193   0.000954  -0.003572  -0.002869
    39  H    0.000094  -0.014776  -0.047149   0.000113   0.000004   0.057041
    40  H   -0.000094   0.045640  -0.162937  -0.000201  -0.000085   0.423467
    41  H   -0.005027   0.100670   0.316235  -0.027145   0.000907  -0.180598
    42  H   -0.014445   0.385197  -0.076535   0.000347  -0.001456   0.002240
    43  H    0.006840   0.083246  -0.041066   0.000431  -0.000011  -0.033776
    44  H   -0.000386  -0.015014   0.005224  -0.000002   0.000001  -0.003699
    45  H    0.002539   0.038788  -0.010500  -0.000062  -0.000005   0.013578
              7          8          9         10         11         12
     1  O   -0.000419   0.000006   0.016202  -0.010106   0.002232  -0.114399
     2  C    0.014805  -0.003224   0.134302   0.012195  -0.008887  -1.067791
     3  C   -0.141514   0.026735  -0.241824   0.009079  -0.000945   0.102104
     4  O    0.007122  -0.000257   0.005533  -0.000127   0.000003  -0.049090
     5  H   -0.000405   0.000010  -0.001354  -0.000026   0.000000   0.026057
     6  C    0.295994  -0.005927   0.323275  -0.000837   0.000819   0.581257
     7  O    8.128741   0.256585   0.000037  -0.000007   0.000000   0.001381
     8  H    0.256585   0.336934  -0.000100   0.000000   0.000000  -0.001964
     9  C    0.000037  -0.000100   6.962040   0.173267  -0.011457  -1.571462
    10  O   -0.000007   0.000000   0.173267   8.140155   0.240426  -0.036926
    11  H    0.000000   0.000000  -0.011457   0.240426   0.423761   0.017849
    12  C    0.001381  -0.001964  -1.571462  -0.036926   0.017849   9.034378
    13  O    0.002732  -0.000412   0.018228   0.001217  -0.000876   0.034596
    14  C   -0.028966  -0.054577  -0.433557   0.003095  -0.002398  -0.765515
    15  O    0.006533   0.009141  -0.017236   0.000064  -0.000003  -0.009938
    16  C    0.007969   0.025566  -0.135646  -0.000383  -0.000198  -0.046778
    17  C   -0.001471   0.000488   0.016551   0.000012   0.000015  -0.000505
    18  O   -0.000088  -0.000015  -0.000355  -0.000082  -0.000002  -0.015150
    19  H   -0.000104  -0.000002   0.006531   0.000001  -0.000001  -0.010884
    20  C    0.002640   0.000721  -0.004673  -0.000020   0.000003  -0.002363
    21  O   -0.000002   0.000000   0.000036   0.000000   0.000000  -0.000192
    22  H    0.000000   0.000000  -0.000003   0.000000   0.000000   0.000018
    23  C    0.018460   0.009485  -0.000532   0.000002   0.000000   0.000980
    24  O   -0.038048  -0.025043   0.000016   0.000000   0.000000  -0.000080
    25  H    0.001666  -0.001976  -0.000012   0.000000   0.000000  -0.000200
    26  C   -0.000106  -0.020573   0.007219   0.000029   0.000000   0.026859
    27  O   -0.000096  -0.000028   0.000038   0.000000   0.000000   0.000059
    28  C   -0.000400  -0.000101  -0.001000   0.000000   0.000000   0.000456
    29  O   -0.000004   0.000000   0.000003   0.000000   0.000000   0.000048
    30  H    0.000000   0.000000   0.000000   0.000000   0.000000  -0.000001
    31  H    0.000001   0.000000  -0.000001   0.000000   0.000000   0.000002
    32  H    0.000003   0.000000  -0.000066   0.000000   0.000000  -0.000046
    33  H   -0.000005  -0.000003  -0.000075   0.000000   0.000000  -0.001430
    34  H   -0.001667  -0.000131   0.000686   0.000000   0.000000   0.004760
    35  H   -0.000126  -0.000028   0.000069   0.000000   0.000000   0.000902
    36  H   -0.000495   0.000173  -0.000001   0.000000   0.000000   0.000014
    37  H    0.000655   0.000240   0.000000   0.000000   0.000000  -0.000015
    38  H   -0.000008   0.000000   0.005783  -0.000118  -0.000077  -0.026293
    39  H   -0.001656  -0.000023   0.018290   0.000051   0.000000   0.055436
    40  H   -0.033287  -0.004775   0.016683   0.000014   0.000000   0.040517
    41  H    0.004975  -0.000051   0.009379  -0.000111   0.000000  -0.010397
    42  H    0.001050   0.000003  -0.015556  -0.001094  -0.000014  -0.096594
    43  H    0.000405   0.000001   0.065171   0.002089  -0.000255   0.066320
    44  H   -0.000010   0.000000   0.386515  -0.013044  -0.013444  -0.012792
    45  H    0.000013   0.000000   0.606447  -0.055057   0.001970  -0.286753
             13         14         15         16         17         18
     1  O   -0.000365  -0.012283  -0.000166   0.001652  -0.000040   0.000043
     2  C   -0.073789   0.902804  -0.006073   0.061723  -0.030187   0.008017
     3  C   -0.069043  -0.043370   0.036851  -0.001800   0.023737  -0.001833
     4  O   -0.002385   0.072246   0.000287  -0.001358   0.000836  -0.000010
     5  H    0.000180  -0.003242   0.000012   0.000282  -0.000017   0.000000
     6  C    0.059353  -2.556537  -0.067137  -0.389570  -0.082513   0.000344
     7  O    0.002732  -0.028966   0.006533   0.007969  -0.001471  -0.000088
     8  H   -0.000412  -0.054577   0.009141   0.025566   0.000488  -0.000015
     9  C    0.018228  -0.433557  -0.017236  -0.135646   0.016551  -0.000355
    10  O    0.001217   0.003095   0.000064  -0.000383   0.000012  -0.000082
    11  H   -0.000876  -0.002398  -0.000003  -0.000198   0.000015  -0.000002
    12  C    0.034596  -0.765515  -0.009938  -0.046778  -0.000505  -0.015150
    13  O    7.964129   0.162669  -0.003316   0.042655   0.008075  -0.019336
    14  C    0.162669   9.288451   0.318413  -1.276800   0.282039  -0.002931
    15  O   -0.003316   0.318413   7.766714   0.199453  -0.024188  -0.006216
    16  C    0.042655  -1.276800   0.199453  11.710937  -1.817774   0.027031
    17  C    0.008075   0.282039  -0.024188  -1.817774   8.033813   0.232442
    18  O   -0.019336  -0.002931  -0.006216   0.027031   0.232442   8.142650
    19  H    0.024833   0.010146   0.017300  -0.068915   0.004267   0.239004
    20  C   -0.012341  -0.254643   0.016170  -0.506090  -0.326742  -0.088416
    21  O   -0.000053   0.002367  -0.000351   0.090146  -0.198812   0.016616
    22  H    0.000004  -0.001586  -0.000002  -0.019602  -0.004130  -0.000846
    23  C    0.000513   0.036240  -0.052067   0.107051  -0.367189   0.021072
    24  O   -0.000245   0.071746  -0.025044  -0.029849   0.001936   0.000133
    25  H   -0.000015  -0.011858   0.002572  -0.005087  -0.000189  -0.000002
    26  C   -0.017322  -0.276120  -0.099021  -2.624892   0.237860   0.002330
    27  O    0.000175   0.009693   0.003119   0.138671  -0.039883  -0.002148
    28  C    0.002764  -0.073318   0.005187   0.779573  -0.226515  -0.019095
    29  O    0.000020   0.002316  -0.000078  -0.041978   0.009596  -0.000079
    30  H    0.000000  -0.000191  -0.000004  -0.001196   0.009448  -0.000013
    31  H    0.000007   0.000135   0.000502   0.027245  -0.011902   0.000082
    32  H    0.000106  -0.015642   0.000502   0.056095  -0.210456   0.006496
    33  H   -0.000843  -0.014192  -0.005024  -0.143570   0.248526  -0.026142
    34  H   -0.002597   0.005959  -0.018068   0.023542   0.043012  -0.001077
    35  H   -0.000142   0.048162   0.000936  -0.076626  -0.010004   0.001211
    36  H    0.000004   0.008053   0.000204   0.035234   0.004087   0.000025
    37  H    0.000030  -0.004927   0.001686   0.017380  -0.000536   0.000036
    38  H   -0.000995   0.002332  -0.000003   0.000234  -0.000014  -0.000001
    39  H   -0.038290   0.212790  -0.049652  -0.020082   0.019980  -0.001259
    40  H    0.010214  -0.063906  -0.016376  -0.020017   0.003619   0.000108
    41  H    0.005690   0.050641  -0.000306  -0.007425   0.001042   0.000016
    42  H    0.008430   0.067078   0.000084  -0.005324   0.001394   0.000039
    43  H   -0.022576   0.116200  -0.000973   0.003419   0.003230  -0.000108
    44  H   -0.002996  -0.005837  -0.000127   0.001982   0.000705  -0.000136
    45  H   -0.003941  -0.004346  -0.000466  -0.004347   0.001164  -0.000090
             19         20         21         22         23         24
     1  O   -0.000026   0.000024   0.000000   0.000000   0.000034   0.000008
     2  C   -0.004038   0.008376   0.000023  -0.000002   0.007848  -0.001124
     3  C    0.004505  -0.004129  -0.000004   0.000001  -0.026615  -0.013075
     4  O   -0.000008   0.000017   0.000000   0.000000  -0.000012  -0.000283
     5  H    0.000000  -0.000001   0.000000   0.000000  -0.000043  -0.000003
     6  C    0.016048   0.030930   0.000454  -0.000061  -0.086556   0.022806
     7  O   -0.000104   0.002640  -0.000002   0.000000   0.018460  -0.038048
     8  H   -0.000002   0.000721   0.000000   0.000000   0.009485  -0.025043
     9  C    0.006531  -0.004673   0.000036  -0.000003  -0.000532   0.000016
    10  O    0.000001  -0.000020   0.000000   0.000000   0.000002   0.000000
    11  H   -0.000001   0.000003   0.000000   0.000000   0.000000   0.000000
    12  C   -0.010884  -0.002363  -0.000192   0.000018   0.000980  -0.000080
    13  O    0.024833  -0.012341  -0.000053   0.000004   0.000513  -0.000245
    14  C    0.010146  -0.254643   0.002367  -0.001586   0.036240   0.071746
    15  O    0.017300   0.016170  -0.000351  -0.000002  -0.052067  -0.025044
    16  C   -0.068915  -0.506090   0.090146  -0.019602   0.107051  -0.029849
    17  C    0.004267  -0.326742  -0.198812  -0.004130  -0.367189   0.001936
    18  O    0.239004  -0.088416   0.016616  -0.000846   0.021072   0.000133
    19  H    0.344320   0.005465  -0.000628   0.000009  -0.004048   0.000000
    20  C    0.005465   6.789997   0.292846  -0.020590   0.093177  -0.004016
    21  O   -0.000628   0.292846   8.090444   0.216848   0.000930  -0.000003
    22  H    0.000009  -0.020590   0.216848   0.459910  -0.001219   0.000000
    23  C   -0.004048   0.093177   0.000930  -0.001219   7.164344   0.048084
    24  O    0.000000  -0.004016  -0.000003   0.000000   0.048084   8.252939
    25  H    0.000000   0.000771   0.000000   0.000000  -0.053005   0.258971
    26  C    0.003306   0.519113  -0.039602   0.005244  -1.168188   0.052805
    27  O   -0.000057  -0.163919   0.004135   0.001379  -0.120955   0.003108
    28  C    0.001019  -0.628653  -0.004077   0.032779  -0.237427   0.003326
    29  O    0.000004   0.052945  -0.021805   0.015775   0.019526   0.000006
    30  H    0.000000  -0.052369   0.000137  -0.001928  -0.000387  -0.000001
    31  H    0.000001  -0.105887  -0.000803  -0.000111  -0.005149   0.000006
    32  H   -0.000184   0.364863  -0.022917  -0.000863   0.007846  -0.000008
    33  H    0.000063  -0.009149   0.002673  -0.000387   0.036111  -0.000220
    34  H    0.000802   0.030154  -0.000285   0.000002  -0.025103   0.001352
    35  H    0.000035  -0.043532  -0.000012   0.000019   0.052690   0.000522
    36  H    0.000000  -0.006598   0.000003   0.000000   0.376526  -0.029210
    37  H    0.000000   0.001459  -0.000007   0.000000   0.613730  -0.052087
    38  H    0.000000   0.000002   0.000000   0.000000   0.000003   0.000000
    39  H   -0.000172   0.012177   0.000005   0.000000  -0.000091   0.000383
    40  H   -0.000019   0.000339   0.000000   0.000000   0.004614   0.000366
    41  H    0.000000  -0.000053   0.000000   0.000000   0.000028  -0.000006
    42  H   -0.000007  -0.000046   0.000000   0.000000  -0.000032   0.000016
    43  H    0.000053   0.000141   0.000000   0.000000  -0.000053   0.000001
    44  H    0.000568  -0.000288   0.000001   0.000000  -0.000014   0.000000
    45  H    0.000080  -0.000046   0.000000   0.000000  -0.000031   0.000000
             25         26         27         28         29         30
     1  O    0.000000  -0.000076   0.000000   0.000004   0.000000   0.000000
     2  C    0.000094  -0.023742  -0.000053  -0.001138  -0.000002   0.000000
     3  C    0.002598   0.013014   0.000338  -0.000310   0.000015   0.000000
     4  O    0.000012   0.000176   0.000001   0.000005   0.000000   0.000000
     5  H    0.000000   0.000054   0.000000   0.000000   0.000000   0.000000
     6  C    0.004197  -0.009220   0.004903  -0.002281  -0.000325   0.000005
     7  O    0.001666  -0.000106  -0.000096  -0.000400  -0.000004   0.000000
     8  H   -0.001976  -0.020573  -0.000028  -0.000101   0.000000   0.000000
     9  C   -0.000012   0.007219   0.000038  -0.001000   0.000003   0.000000
    10  O    0.000000   0.000029   0.000000   0.000000   0.000000   0.000000
    11  H    0.000000   0.000000   0.000000   0.000000   0.000000   0.000000
    12  C   -0.000200   0.026859   0.000059   0.000456   0.000048  -0.000001
    13  O   -0.000015  -0.017322   0.000175   0.002764   0.000020   0.000000
    14  C   -0.011858  -0.276120   0.009693  -0.073318   0.002316  -0.000191
    15  O    0.002572  -0.099021   0.003119   0.005187  -0.000078  -0.000004
    16  C   -0.005087  -2.624892   0.138671   0.779573  -0.041978  -0.001196
    17  C   -0.000189   0.237860  -0.039883  -0.226515   0.009596   0.009448
    18  O   -0.000002   0.002330  -0.002148  -0.019095  -0.000079  -0.000013
    19  H    0.000000   0.003306  -0.000057   0.001019   0.000004   0.000000
    20  C    0.000771   0.519113  -0.163919  -0.628653   0.052945  -0.052369
    21  O    0.000000  -0.039602   0.004135  -0.004077  -0.021805   0.000137
    22  H    0.000000   0.005244   0.001379   0.032779   0.015775  -0.001928
    23  C   -0.053005  -1.168188  -0.120955  -0.237427   0.019526  -0.000387
    24  O    0.258971   0.052805   0.003108   0.003326   0.000006  -0.000001
    25  H    0.389287   0.045199  -0.000602  -0.000891  -0.000002   0.000000
    26  C    0.045199   9.928882   0.050878  -0.889910   0.003355  -0.001780
    27  O   -0.000602   0.050878   7.931900   0.339869  -0.048092   0.003015
    28  C   -0.000891  -0.889910   0.339869   6.305127   0.191773   0.033383
    29  O   -0.000002   0.003355  -0.048092   0.191773   8.017689   0.267966
    30  H    0.000000  -0.001780   0.003015   0.033383   0.267966   0.410252
    31  H    0.000000  -0.014852  -0.030778   0.439785  -0.022239  -0.008516
    32  H    0.000000   0.018296   0.002128   0.053437  -0.006209   0.000322
    33  H    0.000000   0.152158   0.002549  -0.035174   0.000714   0.000012
    34  H   -0.000008   0.172320   0.003045  -0.002710  -0.000420   0.000002
    35  H   -0.000225   0.237990  -0.029338   0.060200  -0.000775   0.000015
    36  H   -0.006087  -0.063083   0.000017   0.009811  -0.000031  -0.000001
    37  H   -0.002763  -0.258244  -0.000723   0.001665  -0.000215   0.000000
    38  H    0.000000  -0.000009   0.000000   0.000000   0.000000   0.000000
    39  H    0.000013   0.032435   0.000505  -0.002057  -0.000004   0.000000
    40  H   -0.000003  -0.006491   0.000008  -0.000146   0.000000   0.000000
    41  H    0.000000  -0.000593   0.000000  -0.000010   0.000000   0.000000
    42  H    0.000000  -0.000263   0.000000  -0.000003   0.000000   0.000000
    43  H    0.000000  -0.000529   0.000000   0.000008   0.000000   0.000000
    44  H    0.000000   0.000144   0.000000   0.000024   0.000000   0.000000
    45  H    0.000000  -0.000165   0.000000   0.000001   0.000000   0.000000
             31         32         33         34         35         36
     1  O    0.000000   0.000000   0.000000  -0.000002   0.000000   0.000000
     2  C    0.000000   0.000114   0.000756  -0.002395  -0.000073   0.000003
     3  C    0.000009   0.000041   0.000414   0.003269  -0.000006  -0.000160
     4  O    0.000000   0.000000   0.000000   0.000004   0.000000   0.000000
     5  H    0.000000   0.000000   0.000000   0.000000   0.000000   0.000000
     6  C    0.000005   0.000818   0.005237   0.013586  -0.003966  -0.000030
     7  O    0.000001   0.000003  -0.000005  -0.001667  -0.000126  -0.000495
     8  H    0.000000   0.000000  -0.000003  -0.000131  -0.000028   0.000173
     9  C   -0.000001  -0.000066  -0.000075   0.000686   0.000069  -0.000001
    10  O    0.000000   0.000000   0.000000   0.000000   0.000000   0.000000
    11  H    0.000000   0.000000   0.000000   0.000000   0.000000   0.000000
    12  C    0.000002  -0.000046  -0.001430   0.004760   0.000902   0.000014
    13  O    0.000007   0.000106  -0.000843  -0.002597  -0.000142   0.000004
    14  C    0.000135  -0.015642  -0.014192   0.005959   0.048162   0.008053
    15  O    0.000502   0.000502  -0.005024  -0.018068   0.000936   0.000204
    16  C    0.027245   0.056095  -0.143570   0.023542  -0.076626   0.035234
    17  C   -0.011902  -0.210456   0.248526   0.043012  -0.010004   0.004087
    18  O    0.000082   0.006496  -0.026142  -0.001077   0.001211   0.000025
    19  H    0.000001  -0.000184   0.000063   0.000802   0.000035   0.000000
    20  C   -0.105887   0.364863  -0.009149   0.030154  -0.043532  -0.006598
    21  O   -0.000803  -0.022917   0.002673  -0.000285  -0.000012   0.000003
    22  H   -0.000111  -0.000863  -0.000387   0.000002   0.000019   0.000000
    23  C   -0.005149   0.007846   0.036111  -0.025103   0.052690   0.376526
    24  O    0.000006  -0.000008  -0.000220   0.001352   0.000522  -0.029210
    25  H    0.000000   0.000000   0.000000  -0.000008  -0.000225  -0.006087
    26  C   -0.014852   0.018296   0.152158   0.172320   0.237990  -0.063083
    27  O   -0.030778   0.002128   0.002549   0.003045  -0.029338   0.000017
    28  C    0.439785   0.053437  -0.035174  -0.002710   0.060200   0.009811
    29  O   -0.022239  -0.006209   0.000714  -0.000420  -0.000775  -0.000031
    30  H   -0.008516   0.000322   0.000012   0.000002   0.000015  -0.000001
    31  H    0.568213   0.004243   0.002425  -0.000055   0.003517   0.000017
    32  H    0.004243   0.591075   0.007244   0.001900  -0.000065   0.000001
    33  H    0.002425   0.007244   0.655154   0.006393   0.003906   0.000000
    34  H   -0.000055   0.001900   0.006393   0.600254   0.005939  -0.000093
    35  H    0.003517  -0.000065   0.003906   0.005939   0.629209  -0.009204
    36  H    0.000017   0.000001   0.000000  -0.000093  -0.009204   0.571242
    37  H   -0.000014  -0.000011  -0.000018   0.001019   0.006464  -0.043932
    38  H    0.000000   0.000000   0.000000   0.000000   0.000000   0.000000
    39  H    0.000000  -0.000011  -0.000016   0.010877  -0.000027   0.000000
    40  H    0.000000   0.000000  -0.000003  -0.000003  -0.000002   0.000001
    41  H    0.000000   0.000000   0.000000  -0.000001   0.000000   0.000000
    42  H    0.000000   0.000000   0.000000   0.000000   0.000000   0.000000
    43  H    0.000000   0.000000   0.000000   0.000000   0.000000   0.000000
    44  H    0.000000   0.000000   0.000000   0.000000   0.000000   0.000000
    45  H    0.000000   0.000000   0.000000   0.000000   0.000000   0.000000
             37         38         39         40         41         42
[...]
 4317,0.00011865,0.00006025,-0.00002531,0.00002805,-0.00716495,-0.00162
 959,0.00088846,0.00189755,0.00115994,0.00035407,-0.00018914,0.00000415
 ,0.00030746,0.00007120,-0.00001236,0.00006511,0.00000127,-0.00001000,0
 .00003452,-0.00001468,0.00001417,0.00001896,0.00002973,-0.00000846,-0.
 00002508,-0.00002316,0.00000219,0.00002835,-0.00000934,-0.00000848,0.0
 0000631,0.00000674,0.00000637,-0.00000563,-0.00000268,-0.00000178,0.00
 000016,-0.00000936,-0.00000287,0.00001859,0.00003027,0.00000839,0.0000
 0966,-0.00001258,-0.00000010,0.00000392,-0.00001355,-0.00000614,0.0000
 1214,0.00000850,0.00000837,-0.00001448,-0.00000614,-0.00000352,0.00001
 337,0.00000937,0.00000188,-0.00001411,-0.00000125,-0.00000018,0.000002
 45,0.00000164,0.00000075,0.00000024,0.00000317,0.00000159,-0.00000245,
 0.00000305,-0.00000052,0.00000494,0.00000696,0.00000266,-0.00001050,0.
 00000576,-0.00000130,0.00000371,-0.00000069,-0.00000133,0.00000050,0.0
 0000468,0.00000042,-0.00000420,0.00166644,0.00025149,-0.00078511,0.000
 03060,0.00002932,-0.00014718,0.00105886,0.00005170,0.00023936,0.000086
 39,0.00241755,0.00110837,0.36895482,-0.00801740,-0.00019583,-0.0056444
 6,-0.04508788,-0.04939191,0.00694826,0.02997583,-0.00122275,-0.0044225
 4,0.00026700,0.00244930,-0.00163724,0.00086989,-0.00034661,0.00091232,
 0.00077239,0.00103768,0.00064109,-0.00042462,-0.00009435,0.00006696,-0
 .00004015,0.00002383,0.00005004,-0.00287620,0.00132467,-0.00017613,0.0
 0049305,0.00005227,0.00016862,-0.00000472,-0.00004421,-0.00000277,-0.0
 2931663,-0.00881780,0.00667204,0.00141222,0.00179176,-0.00228154,0.000
 04725,-0.00027854,0.00003136,0.00001862,0.00009612,-0.00000159,-0.0000
 2717,0.00002129,-0.00000156,-0.00000024,0.00002499,0.00000819,0.000024
 58,-0.00000840,-0.00006077,-0.00001625,-0.00000687,0.00006665,-0.00001
 096,-0.00000408,-0.00000043,0.00000509,0.00000066,-0.00000224,-0.00000
 085,-0.00000023,-0.00000043,-0.00000007,-0.00000261,-0.00000452,-0.000
 01906,-0.00000841,-0.00002748,0.00000871,0.00000270,-0.00000290,0.0000
 0083,-0.00000216,0.00000597,0.00000150,-0.00000046,0.00000018,-0.00000
 191,0.00000408,0.00000322,0.00000294,-0.00000102,-0.00000561,-0.000000
 22,-0.00000010,0.00000090,0.00000053,0.00000021,0.00000015,0.00000230,
 0.00000013,-0.00000167,0.00000090,-0.00000117,0.00000029,0.00000389,-0
 .00000504,0.00000235,0.00000036,0.00000140,0.00000107,-0.00000014,0.00
 000068,-0.00000304,-0.00000045,-0.00000096,0.00000235,-0.00101426,0.00
 117662,-0.00026337,-0.00002265,-0.00013652,-0.00000759,-0.00030059,-0.
 00022337,-0.00020342,0.00118822,-0.00435280,-0.00140786,0.05092612,0.0
 6049443,-0.04138234,-0.01181070,-0.01779823,0.04160253,0.00586221,-0.0
 4486600,0.01439730,0.00137807,-0.00129678,-0.00194595,0.00175451,0.000
 34935,-0.00096794,0.00019124,-0.00001488,0.00129662,0.00011353,0.00011
 935,-0.00041076,0.00003765,-0.00000044,0.00003592,0.00002062,0.0000136
 1,0.00033558,-0.00142831,0.00022785,-0.00008219,-0.00003487,0.00015330
 ,0.00000958,-0.00004869,0.00005284,0.02162985,0.00652017,-0.00300135,-
 0.00039844,-0.00064493,0.00221968,0.00032553,-0.00011944,-0.00040424,-
 0.00006939,0.00000562,-0.00009295,0.00000560,-0.00001109,-0.00002332,0
 .00001388,0.00000332,0.00000970,-0.00004545,-0.00001658,0.00000555,0.0
 0005563,0.00002741,-0.00002035,0.00000947,-0.00000151,0.00000034,-0.00
 000920,0.00000223,-0.00000364,0.00000242,-0.00000019,0.00000063,0.0000
 0597,0.00000147,-0.00000709,-0.00002575,-0.00000876,-0.00001920,0.0000
 0896,0.00000240,0.00000088,0.00001108,0.00000657,0.00000117,-0.0000074
 9,-0.00000186,-0.00000239,0.00000373,0.00000100,0.00000553,-0.00000203
 ,-0.00000097,-0.00000294,0.00000039,0.00000029,0.00000110,-0.00000143,
 -0.00000084,-0.00000180,-0.00000391,-0.00000110,0.00000370,-0.00000588
 ,-0.00000402,-0.00000993,-0.00001127,0.00000078,0.00001229,-0.00000532
 ,0.00000028,-0.00000407,-0.00000077,-0.00000050,-0.00000202,-0.0000023
 1,0.00000064,0.00000341,-0.00332788,0.00043991,0.00302560,-0.00010759,
 -0.00001276,0.00016498,-0.00018068,-0.00041410,-0.00007802,0.00036131,
 -0.00242231,-0.00065603,-0.03017161,-0.00237825,0.06423555,0.00099982,
 0.00015382,0.00131845,-0.00477433,-0.00072375,0.00055516,-0.00016033,0
 .00028287,0.00004400,0.00038112,0.00013127,0.00002817,-0.00006317,0.00
 001941,-0.00001322,0.00001767,0.00000253,-0.00012951,0.00011052,-0.000
 23418,0.00003381,0.00000134,0.00005980,0.00000688,-0.01753896,-0.00322
 473,0.00363174,0.00216563,0.00018568,0.00034824,0.00000152,-0.00006094
 ,0.00011576,-0.33492987,-0.05523919,0.04835383,-0.01211735,-0.00543228
 ,-0.01219831,0.00007003,0.00202259,0.00110353,0.00014387,-0.00019302,-
 0.00065754,-0.00021700,-0.00015242,0.00026587,0.00000757,0.00010652,0.
 00007738,0.00010795,0.00010400,-0.00037184,-0.00003426,-0.00038234,0.0
 0061713,-0.00005578,-0.00005675,0.00003825,0.00000822,0.00004387,-0.00
 003862,-0.00000451,-0.00000599,-0.00000007,-0.00002343,0.00002087,0.00
 002123,0.00001040,-0.00003053,-0.00001448,-0.00000424,0.00000462,-0.00
 000815,0.00003320,0.00004315,0.00005235,0.00000433,0.00001938,-0.00011
 359,0.00000639,-0.00002715,0.00006925,0.00003160,0.00000975,-0.0000680
 9,-0.00000125,-0.00000092,0.00000964,0.00000118,0.00000462,-0.00000225
 ,0.00001125,0.00000319,-0.00001150,0.00000201,-0.00000391,0.00000623,0
 .00003012,-0.00001133,-0.00001491,0.00000853,0.00000017,0.00000350,-0.
 00000126,-0.00001088,-0.00000393,0.00000848,-0.00000305,-0.00000154,0.
 00016212,0.00006914,-0.00000857,0.00000374,-0.00116317,-0.00099756,0.0
 0005098,0.00009898,0.00006839,0.00058885,-0.00041097,-0.00015326,0.000
 79516,-0.00033638,-0.00017260,0.36432476,0.00178170,0.00101879,-0.0007
 4262,-0.02877822,-0.00649118,0.00589348,-0.00128636,0.00129881,0.00001
 304,0.00096338,-0.00020397,-0.00007975,-0.00021418,0.00013679,-0.00024
 470,-0.00008002,-0.00023533,-0.00013132,0.00013473,-0.00011908,-0.0000
 8697,0.00000174,0.00000095,0.00001090,0.03027980,0.00461712,-0.0054373
 1,-0.00230547,0.00165482,0.00123780,0.00001175,0.00017629,0.00013881,-
 0.05518315,-0.05685726,0.01112932,-0.00846336,-0.00026550,-0.00568130,
 -0.00221671,0.00112947,0.00129413,0.00033639,-0.00011353,-0.00032094,-
 0.00003005,-0.00005285,0.00000316,0.00000114,0.00008091,0.00007469,-0.
 00008062,-0.00000753,-0.00015019,0.00014332,-0.00010858,0.00018334,-0.
 00000198,-0.00001666,0.00000230,-0.00000784,0.00000294,-0.00000950,0.0
 0000227,-0.00000014,0.00000079,-0.00001141,0.00000431,0.00000024,0.000
 00481,-0.00000683,-0.00000588,-0.00000331,-0.00000007,0.00000033,0.000
 02330,0.00001263,0.00000182,0.00000101,-0.00000878,-0.00001968,-0.0000
 0203,0.00001349,0.00001175,0.00000568,-0.00000378,-0.00001591,0.000000
 46,0.00000084,0.00000281,-0.00000010,-0.00000180,-0.00000163,-0.000001
 62,0.00000329,0.00000164,-0.00000400,-0.00001978,-0.00001076,0.0000113
 4,0.00001124,-0.00002417,0.00000243,0.00000178,0.00000410,0.00000156,-
 0.00000254,-0.00000141,0.00000297,-0.00000246,-0.00000304,0.00020629,0
 .00008719,-0.00031647,0.00046372,0.00007623,-0.00014124,0.00015423,0.0
 0012432,0.00004632,0.00063317,-0.00049823,-0.00006050,-0.00053198,-0.0
 0357608,0.00299948,0.06160825,0.06138109,-0.00116009,-0.00109483,0.001
 81274,0.02238372,0.00517963,-0.00137235,0.00023235,-0.00100811,0.00005
 500,-0.00072954,0.00034094,0.00000279,0.00027495,-0.00012075,0.0002465
 6,0.00022716,-0.00004696,-0.00062008,0.00009967,-0.00029037,0.00029396
 ,-0.00002519,0.00008496,-0.00003255,0.01144713,0.00291278,0.00003399,-
 0.00100704,0.00062274,0.00068195,-0.00000919,0.00004966,-0.00001482,0.
 05123697,0.00994049,-0.04820295,-0.04002335,-0.01232943,-0.01124094,-0
 .00357011,0.00362317,0.00400874,0.00044335,-0.00033570,-0.00128436,-0.
 00015480,-0.00026747,0.00023429,0.00001476,0.00007776,0.00006118,0.000
 11878,0.00013205,-0.00031212,-0.00010104,-0.00052457,0.00071333,-0.000
 03731,-0.00005561,0.00003983,-0.00000865,0.00004602,-0.00004034,0.0000
 0073,-0.00000468,0.00000002,-0.00000866,0.00004272,-0.00000386,0.00000
 658,-0.00004690,0.00003459,0.00000420,0.00000237,-0.00001514,0.0000651
 9,0.00007633,0.00003967,-0.00001196,0.00000758,-0.00013281,0.00001752,
 -0.00003053,0.00006483,0.00002259,0.00000861,-0.00006095,0.00000052,-0
 .00000006,0.00000842,-0.00000193,0.00000408,-0.00000365,0.00000537,0.0
 0000287,-0.00000916,-0.00000092,-0.00000593,0.00000070,0.00002373,-0.0
 0000356,-0.00006295,0.00000127,0.00000124,0.00000074,-0.00000133,-0.00
 001388,0.00000004,0.00000398,-0.00000402,0.00000244,0.00000119,-0.0001
 6671,0.00046750,0.00109167,0.00012107,-0.00031197,-0.00005524,0.000018
 45,-0.00009932,-0.00035263,0.00029678,0.00020376,0.00038768,0.00333403
 ,-0.00262693,-0.04146144,-0.00814510,0.05740025,0.00017442,-0.00032880
 ,0.00004439,-0.00177268,0.00181441,0.00268756,0.00086239,0.00025942,-0
 .00081702,-0.00006976,0.00070695,-0.00010992,-0.00002667,-0.00000475,0
 .00010044,-0.00001231,-0.00005719,-0.00015644,0.00001862,-0.00005368,0
 .00006310,-0.00000254,0.00001752,0.00000003,-0.04724971,-0.00084251,0.
 00307389,-0.00082182,0.00661697,-0.02010603,0.00173700,0.00102569,0.00
 057735,-0.00034933,0.01751704,-0.01439682,0.00040012,-0.00251418,-0.00
 116854,-0.00009461,0.00018172,0.00015101,-0.00008975,-0.00003353,-0.00
 013744,0.00002639,-0.00002982,0.00007256,-0.00003004,-0.00006693,-0.00
 004591,-0.00020353,0.00010097,0.00011188,0.00034513,-0.00016740,-0.000
 10798,0.00003659,0.00001734,0.00001401,-0.00002305,0.00000992,-0.00000
 499,0.00000400,0.00000102,0.00000071,0.00000429,0.00000432,0.00000564,
 -0.00000056,-0.00000435,0.00000280,0.00000176,0.00000078,-0.00000158,0
 .00000021,0.00002224,0.00000213,-0.00001138,0.00000803,-0.00001963,0.0
 0000849,-0.00002408,0.00000736,-0.00000670,0.00000471,0.00000558,0.000
 00077,0.00000030,-0.00000049,-0.00000305,-0.00000044,-0.00000216,-0.00
 001017,0.00000104,0.00000481,0.00000259,-0.00000776,-0.00000948,-0.000
 00961,0.00000963,0.00000075,-0.00000522,-0.00000326,-0.00000437,-0.000
 00108,-0.00000041,-0.00000018,-0.00000122,0.00000154,0.00000081,-0.000
 23423,0.00009878,-0.00023178,0.00001243,0.00000387,-0.00000153,0.00000
 938,0.00001332,0.00001585,-0.00001886,-0.00010905,-0.00001582,0.000338
 72,0.00038306,-0.00008463,0.00062060,-0.00081471,-0.00052634,0.0448237
 7,-0.00010240,0.00031242,-0.00014330,0.00363844,-0.00342327,-0.0039946
 3,-0.00053741,0.00004041,0.00166486,0.00009332,-0.00123490,0.00016316,
 -0.00004867,0.00011697,-0.00024671,0.00000046,0.00021383,0.00062790,-0
 .00007420,0.00006202,-0.00039027,0.00007855,-0.00002580,0.00015416,0.0
 0335271,-0.18709512,0.16178087,-0.00474094,0.00850791,-0.02451652,-0.0
 0005298,0.00417641,-0.00131263,-0.00027662,-0.02120450,0.02075898,-0.0
 0032703,0.00249031,0.00065443,-0.00004890,-0.00010271,-0.00034361,-0.0
 0002551,0.00008991,-0.00021859,-0.00002012,-0.00003759,0.00010815,0.00
 000485,-0.00034165,-0.00030755,-0.00000490,0.00044560,0.00048827,-0.00
 011158,-0.00062917,-0.00057231,0.00001685,0.00009438,-0.00000145,0.000
 01197,-0.00000389,0.00003302,-0.00000495,0.00000383,-0.00000410,-0.000
 00587,-0.00006321,0.00009192,-0.00003434,0.00004638,-0.00014442,0.0000
 0662,-0.00000424,0.00001772,-0.00000418,-0.00000342,-0.00003625,-0.000
 01708,0.00006313,-0.00001878,0.00002475,-0.00011014,-0.00003294,-0.000
 02451,0.00002820,0.00006340,-0.00000017,-0.00000242,-0.00001192,-0.000
 00237,0.00000770,0.00000462,-0.00000008,-0.00000708,-0.00000521,0.0000
 3953,0.00006056,0.00005253,0.00000518,-0.00000855,-0.00001052,-0.00000
 517,-0.00000180,-0.00000016,-0.00000073,0.00001857,-0.00001443,0.00000
 038,0.00000762,-0.00000538,-0.00001266,-0.00007318,-0.00022091,-0.0000
 3190,0.00004288,0.00003338,0.00000809,-0.00000409,-0.00002986,0.000093
 76,-0.00009258,-0.00010180,0.00009340,0.00035823,-0.00017883,0.0001190
 8,0.00103759,-0.00016033,-0.00193819,0.20041966,0.00004728,0.00038897,
 0.00016266,0.00051391,-0.00192007,-0.00127753,-0.00013540,-0.00023584,
 0.00041924,0.00002758,-0.00035039,0.00014481,-0.00000783,-0.00006164,-
 0.00008861,0.00004082,-0.00002512,0.00001949,-0.00000677,-0.00001949,0
 .00000152,0.00000298,0.00000689,0.00000269,0.00078934,0.15549585,-0.20
 977922,-0.00860375,0.00560988,-0.03692767,-0.00058714,0.00091462,0.000
 70920,0.00078579,-0.00616311,0.00660546,0.00046132,-0.00078422,0.00105
 703,-0.00002993,-0.00006186,0.00034608,-0.00001438,0.00002202,-0.00001
 043,0.00000056,0.00001472,0.00000405,0.00001333,0.00000548,-0.00003813
 ,0.00004332,-0.00005938,-0.00000863,-0.00014273,-0.00002405,-0.0000623
 0,-0.00000777,0.00000256,-0.00000874,0.00000472,-0.00001242,-0.0000003
 8,-0.00000009,0.00000188,0.00000158,-0.00000066,0.00000431,-0.00000250
 ,-0.00000062,-0.00000560,0.00000213,0.00000008,0.00000198,-0.00000098,
 -0.00000307,0.00000318,-0.00000234,0.00000249,-0.00001142,0.00000340,-
 0.00000533,0.00001197,0.00000278,0.00000377,-0.00000553,-0.00000618,-0
 .00000069,0.00000217,0.00000260,0.00000083,-0.00000015,0.00000003,0.00
 000100,0.00000011,0.00000045,-0.00000118,0.00000783,0.00000796,0.00000
 229,-0.00000249,-0.00000194,0.00000059,-0.00000004,0.00000052,-0.00000
 053,-0.00000037,0.00000008,0.00000053,-0.00000035,0.00000025,0.0000031
 5,-0.00029552,0.00001700,-0.00001100,0.00000821,-0.00000014,-0.0000136
 7,-0.00000686,-0.00000048,0.00001915,0.00000390,-0.00000867,-0.0000393
 8,-0.00010513,-0.00001687,-0.00037362,0.00045267,0.00048187,0.00680158
 ,-0.15966518,0.24249065,0.00045309,-0.00010257,-0.00031558,0.00053460,
 -0.00223752,0.00069932,0.00061035,0.00000952,0.00004817,0.00008867,0.0
 0019742,-0.00006425,-0.00007949,0.00003802,-0.00000584,-0.00010548,-0.
 00002607,0.00010636,0.00005282,0.00001472,-0.00007454,-0.00000716,-0.0
 0000970,0.00001626,-0.31241442,-0.06914143,0.07441247,-0.00993332,-0.0
 1276245,-0.01147912,-0.00166677,0.00062701,-0.00053797,-0.02277203,-0.
 00305557,0.00676804,0.00174776,0.00027361,0.00029304,0.00026855,-0.000
 10648,0.00005533,0.00010663,0.00014386,0.00015985,-0.00001602,0.000026
 61,-0.00001955,-0.00001684,0.00002733,0.00001825,0.00012418,-0.0000374
 7,-0.00002427,-0.00018625,0.00004969,0.00002714,-0.00001850,-0.0000097
 9,-0.00000007,0.00001735,0.00000340,-0.00000121,-0.00000461,-0.0000027
 4,-0.00000021,-0.00001028,-0.00001111,0.00001217,0.00001233,0.00001021
 ,-0.00001923,-0.00000777,0.00000049,0.00000380,-0.00001779,-0.00001993
 ,0.00000734,0.00001279,0.00000718,0.00000333,-0.00001176,0.00000369,0.
 00000571,0.00001010,0.00000119,-0.00001111,-0.00000183,-0.00000112,0.0
 0000186,0.00000307,0.00000116,0.00000167,0.00000706,0.00000097,-0.0000
 0415,0.00000531,0.00000573,0.00001288,0.00001072,-0.00000553,-0.000004
 07,0.00000753,0.00000085,0.00000539,0.,0.00000170,-0.00000108,0.000004
 09,-0.00000057,-0.00000269,-0.00040097,0.00023524,-0.00046399,0.000020
 65,-0.00016629,-0.00018013,0.00005761,0.00005391,0.00000173,0.00014862
 ,-0.00029603,-0.00008281,0.00085575,0.00111351,-0.00068851,-0.00078322
 ,0.00324169,0.00113571,0.00162024,0.00086547,0.00041912,0.34167463,-0.
 00020622,0.00024563,0.00038167,0.00196854,0.00213964,-0.00091180,0.000
 19398,0.00009961,-0.00025353,-0.00015985,0.00006949,0.00012178,0.00001
 255,-0.00009625,0.00001907,0.00001640,0.00006287,-0.00001672,-0.000011
 13,0.00000780,0.00004932,-0.00000886,0.00000621,-0.00001162,-0.0714249
 6,-0.06257941,0.02599139,-0.01891732,-0.00839483,-0.01096969,-0.002056
 30,-0.00032792,-0.00025869,0.03059449,0.00168296,-0.00858390,-0.000426
 58,0.00138479,0.00184195,-0.00009677,0.00004142,-0.00002717,-0.0000514
 6,-0.00008246,-0.00007315,-0.00001192,-0.00001743,0.00004229,0.0000131
 0,-0.00000439,-0.00000993,0.00008490,0.00004247,0.00000122,-0.00014122
 ,-0.00007708,0.00000990,-0.00001015,-0.00000638,0.00000465,0.00000979,
 0.00000876,-0.00000410,-0.00000361,-0.00000181,-0.00000014,-0.00000074
 ,0.00000690,-0.00000248,0.00000616,-0.00000662,0.00000951,-0.00000158,
 0.00000116,-0.00000266,-0.00000623,0.00000809,0.00000894,0.00000310,0.
 00000315,-0.00001550,-0.00000298,-0.00000735,0.00001086,0.00000704,0.0
 0000278,-0.00001029,-0.00000163,-0.00000037,0.00000183,0.00000094,0.00
 000174,0.00000032,0.00000376,-0.00000211,-0.00000233,0.00000211,0.0000
 1434,0.00001456,0.00000459,-0.00000108,0.00000284,0.00000239,0.0000000
 8,0.00000033,-0.00000109,-0.00000173,0.00000113,0.00000099,-0.00000032
 ,0.00000100,-0.00002221,-0.00016671,0.00014722,-0.00011546,0.00007450,
 0.00011092,-0.00002534,-0.00002771,-0.00001436,-0.00020608,-0.00000708
 ,0.00004647,-0.00082411,-0.00013878,0.00017121,0.00259032,-0.00427897,
 -0.00227083,-0.02181955,-0.00417519,0.00685706,0.08103819,0.07449758,0
 .00011194,-0.00001368,0.00028555,-0.00078375,0.00072973,-0.00018243,-0
 .00011755,0.00001832,0.00002605,0.00000359,-0.00015937,0.00000708,-0.0
 0000185,0.00004710,-0.00000843,0.00005771,0.00003290,0.00005505,-0.000
 03939,-0.00002564,-0.00006273,0.00002865,0.00000530,0.00003750,0.07553
 050,0.02618542,-0.06009508,-0.03514646,-0.02000946,-0.00467300,-0.0024
 3626,-0.00045489,-0.00039114,0.00973229,0.00166641,0.00005401,-0.00039
 918,0.00037902,0.00096629,0.00002247,-0.00003786,0.00006694,-0.0001058
 3,-0.00001247,-0.00006989,0.00002026,-0.00000869,0.00000595,0.00000138
 ,-0.00000561,0.00001289,-0.00017674,-0.00001591,-0.00002304,0.00030981
 ,0.00005547,-0.00003720,0.00001749,0.00000070,0.00000601,-0.00002018,0
 .00000691,-0.00000702,0.00000434,-0.00000054,0.00000060,0.00000273,-0.
 00000506,0.00000522,-0.00001935,-0.00000014,-0.00002594,0.00000656,0.0
 0000189,0.00000341,0.00001152,0.00000256,0.00000768,-0.00001141,0.0000
 0524,-0.00000935,0.00000905,-0.00000622,0.00000983,-0.00000313,0.00000
 048,-0.00000378,0.00000110,0.00000037,0.00000080,-0.00000283,-0.000001
 18,-0.00000287,-0.00000780,0.00000072,0.00000609,-0.00000773,-0.000018
 20,-0.00002728,-0.00001336,0.00000440,0.00000656,-0.00000642,-0.000001
 15,-0.00000643,-0.00000060,-0.00000084,-0.00000350,-0.00000099,0.00000
 209,0.00000121,-0.00013356,0.00008734,-0.00004933,-0.00010851,0.000059
 41,0.00005828,-0.00002099,-0.00003053,0.00000225,-0.00004003,0.0000791
 2,0.00000189,-0.00028358,-0.00027348,0.00034308,0.00004580,-0.00187255
 ,-0.00044195,0.02420483,0.00599117,-0.00424174,-0.07023456,-0.01240857
 ,0.06839191\\0.00776005,-0.01622081,-0.00325241,0.00855239,0.02577481,
 -0.00441870,-0.02118229,-0.00071427,0.01941659,0.00399806,0.00443418,0
 .01672652,0.00826164,-0.01950016,-0.02323129,-0.01823611,-0.02356445,-
 0.00759705,-0.00252380,0.02033699,-0.00049650,0.01441993,0.00029275,0.
 01200808,-0.00321638,0.01855345,0.00236130,0.00729054,0.01818404,-0.00
 020774,0.00295683,-0.03535442,-0.00194678,-0.00113692,-0.01035994,0.00
 518809,-0.01689720,0.00386564,-0.00484766,0.00792506,0.00945197,-0.002
 25768,0.02300689,0.00290115,0.02956950,-0.02310535,-0.00790809,0.00694
 640,-0.01392794,0.01319382,0.01802586,0.01774129,-0.00493660,0.0011029
 4,-0.00088588,0.00458627,-0.02506050,-0.02477018,0.01794084,0.00045390
 ,-0.00089039,-0.00027129,-0.02163148,0.00370049,0.00491170,0.03273967,
 0.01793297,-0.01263335,0.00013135,-0.01061739,-0.01866411,0.00266358,-
 0.00330062,0.03346118,-0.00715349,-0.00263778,0.00741476,-0.00124305,-
 0.00910451,-0.01267413,-0.00222649,0.06699945,-0.01146664,0.00437230,-
 0.01873500,0.00194501,0.00427129,-0.00033655,-0.00400036,-0.00446825,-
 0.01762051,-0.00397900,-0.00388278,0.01863776,0.00260585,-0.00357625,-
 0.02228500,-0.00648279,-0.00231930,0.01693608,-0.00057894,0.00247774,-
 0.02155795,0.00065385,0.00233808,-0.00886368,-0.00597467,-0.01468362,0
 .01948068,-0.00168393,-0.00656527,0.00004108,0.00446486,-0.00026645,0.
 01942555,0.00353538,-0.00768156,-0.02211656,-0.00243343,0.00800529,0.0
 1983556,-0.00071983,0.00060151,-0.01910572,-0.00468842,-0.00275354,0.0
 2031011,0.00407420,-0.00222304,-0.00204323,0.00804369,-0.01707156,-0.0
 2011549,-0.00581679,0.00166247\\\@


 KNOWLEDGE IS EXPERIMENT'S DAUGHTER.
 -- LEONARDO DA VINCI, IN "PENSIERI" CA. 1492
 Job cpu time:  3 days 20 hours 50 minutes 21.8 seconds.
 File lengths (MBytes):  RWF=   2340 Int=      0 D2E=      0 Chk=     43 Scr=      1
 Normal termination of Gaussian 09 at Fri Feb 12 10:46:19 2016.
Gaussian '09 finished on node002 at Fri Feb 12 10:46:19 EST 2016.
