Gaussian '09 started on node005 at Tue Mar  1 03:31:49 EST 2016.
 Entering Gaussian System, Link 0=/usr/local/gaussian/g09/g09
 Initial command:
 /usr/local/gaussian/g09/l1.exe /home/srmcgrat/thesis/gaussian/cellobiose/500/8000/2/gdp/gaussian5384/Gau-5420.inp -scrdir=/home/srmcgrat/thesis/gaussian/cellobiose/500/8000/2/gdp/gaussian5384/
 Entering Link 1 = /usr/local/gaussian/g09/l1.exe PID=      5422.
  
 Copyright (c) 1988,1990,1992,1993,1995,1998,2003,2009,2010,
            Gaussian, Inc.  All Rights Reserved.
  
 This is part of the Gaussian(R) 09 program.  It is based on
 the Gaussian(R) 03 system (copyright 2003, Gaussian, Inc.),
 the Gaussian(R) 98 system (copyright 1998, Gaussian, Inc.),
 the Gaussian(R) 94 system (copyright 1995, Gaussian, Inc.),
 the Gaussian 92(TM) system (copyright 1992, Gaussian, Inc.),
 the Gaussian 90(TM) system (copyright 1990, Gaussian, Inc.),
 the Gaussian 88(TM) system (copyright 1988, Gaussian, Inc.),
 the Gaussian 86(TM) system (copyright 1986, Carnegie Mellon
 University), and the Gaussian 82(TM) system (copyright 1983,
 Carnegie Mellon University). Gaussian is a federally registered
 trademark of Gaussian, Inc.
  
 This software contains proprietary and confidential information,
 including trade secrets, belonging to Gaussian, Inc.
  
 This software is provided under written license and may be
 used, copied, transmitted, or stored only in accord with that
 written license.
  
 The following legend is applicable only to US Government
 contracts under FAR:
  
                    RESTRICTED RIGHTS LEGEND
  
 Use, reproduction and disclosure by the US Government is
 subject to restrictions as set forth in subparagraphs (a)
 and (c) of the Commercial Computer Software - Restricted
 Rights clause in FAR 52.227-19.
  
 Gaussian, Inc.
 340 Quinnipiac St., Bldg. 40, Wallingford CT 06492
  
  
 ---------------------------------------------------------------
 Warning -- This program may not be used in any manner that
 competes with the business of Gaussian, Inc. or will provide
 assistance to any competitor of Gaussian, Inc.  The licensee
 of this program is prohibited from giving any competitor of
 Gaussian, Inc. access to this program.  By using this program,
 the user acknowledges that Gaussian, Inc. is engaged in the
 business of creating and licensing software in the field of
 computational chemistry and represents and warrants to the
 licensee that it is not a competitor of Gaussian, Inc. and that
 it will not use this program in any manner prohibited above.
 ---------------------------------------------------------------
  

 Cite this work as:
 Gaussian 09, Revision B.01,
 M. J. Frisch, G. W. Trucks, H. B. Schlegel, G. E. Scuseria, 
 M. A. Robb, J. R. Cheeseman, G. Scalmani, V. Barone, B. Mennucci, 
 G. A. Petersson, H. Nakatsuji, M. Caricato, X. Li, H. P. Hratchian, 
 A. F. Izmaylov, J. Bloino, G. Zheng, J. L. Sonnenberg, M. Hada, 
 M. Ehara, K. Toyota, R. Fukuda, J. Hasegawa, M. Ishida, T. Nakajima, 
 Y. Honda, O. Kitao, H. Nakai, T. Vreven, J. A. Montgomery, Jr., 
 J. E. Peralta, F. Ogliaro, M. Bearpark, J. J. Heyd, E. Brothers, 
 K. N. Kudin, V. N. Staroverov, T. Keith, R. Kobayashi, J. Normand, 
 K. Raghavachari, A. Rendell, J. C. Burant, S. S. Iyengar, J. Tomasi, 
 M. Cossi, N. Rega, J. M. Millam, M. Klene, J. E. Knox, J. B. Cross, 
 V. Bakken, C. Adamo, J. Jaramillo, R. Gomperts, R. E. Stratmann, 
 O. Yazyev, A. J. Austin, R. Cammi, C. Pomelli, J. W. Ochterski, 
 R. L. Martin, K. Morokuma, V. G. Zakrzewski, G. A. Voth, 
 P. Salvador, J. J. Dannenberg, S. Dapprich, A. D. Daniels, 
 O. Farkas, J. B. Foresman, J. V. Ortiz, J. Cioslowski, 
 and D. J. Fox, Gaussian, Inc., Wallingford CT, 2010.
 
 ******************************************
 Gaussian 09:  EM64L-G09RevB.01 12-Aug-2010
                 1-Mar-2016 
 ******************************************
 ------------------------------------------------
 # freq=raman b3lyp/6-31+g(d,p) geom=connectivity
 ------------------------------------------------
 1/10=4,30=1,38=1,57=2/1,3;
 2/12=2,17=6,18=5,40=1/2;
 3/5=1,6=6,7=111,11=2,16=1,25=1,30=1,71=2,74=-5/1,2,3;
 4//1;
 5/5=2,38=5,98=1/2;
 8/6=4,10=90,11=11/1;
 10/13=10,15=4/2;
 11/6=3,8=1,9=11,15=111,16=1/1,2,10;
 10/6=1/2;
 6/7=2,8=2,9=2,10=2,18=1,28=1/1;
 7/8=1,10=1,25=1/1,2,3,16;
 1/10=4,30=1/3;
 99//99;
 ------------
 500 8000.com
 ------------
 Symbolic Z-matrix:
 Charge =  0 Multiplicity = 1
 O                     8.819     6.033     22.263 
 C                     9.489     6.385     23.482 
 C                     8.913     7.663     24.072 
 O                     9.148     8.771     23.191 
 H                     9.029     8.408     22.267 
 C                     9.449     8.071     25.434 
 O                     8.993     9.264     26.088 
 H                     9.271     10.019    25.493 
 C                     9.527     3.795     24.178 
 O                     9.097     2.802     25.12 
 H                     9.018     1.905     24.686 
 C                     9.326     5.267     24.5 
 O                     9.928     5.637     25.748 
 C                     9.396     6.839     26.323 
 O                     10.207    6.869     27.506 
 C                     9.557     6.496     28.73 
 C                     9.532     4.998     28.981 
 O                     8.99      4.14      27.966 
 H                     9.282     4.216     27.013 
 C                     8.749     4.711     30.252 
 O                     8.898     3.286     30.331 
 H                     8.804     3.082     29.356 
 C                     10.314    8.529     29.795 
 O                     10.982    9.39      30.729 
 H                     10.661    10.314    30.522 
 C                     10.301    7.017     29.949 
 O                     9.789     6.684     31.247 
 C                     9.496     5.293     31.442 
 O                     8.807     5.019     32.67 
 H                     9.44716   4.86321   33.36823 
 H                     10.43604   4.78475   31.49596 
 H                     7.72689   5.02261   30.19651 
 H                     10.54259   4.68957   29.14974 
 H                     8.55652   6.87538   28.73313 
 H                     11.31084   6.66759   29.89381 
 H                     9.29145   8.84279   29.76637 
 H                     10.73484   8.73532   28.83311 
 H                     9.46994   5.83725   21.58509 
 H                     10.57346   3.64514   24.01261 
 H                     9.02166   3.59887   23.25547 
 H                     8.27844   5.3078    24.71414 
 H                     10.5302   6.52872   23.28162 
 H                     7.85483   7.53253   24.16232 
 H                     10.49145   8.24641   25.26839 
 H                     8.37904   6.66494   26.60654 
 

 GradGradGradGradGradGradGradGradGradGradGradGradGradGradGradGradGradGrad
 Berny optimization.
 Initialization pass.
 Trust Radius=3.00D-01 FncErr=1.00D-07 GrdErr=1.00D-07
 Number of steps in this run=      2 maximum allowed number of steps=      2.
 GradGradGradGradGradGradGradGradGradGradGradGradGradGradGradGradGradGrad

                          Input orientation:                          
 ---------------------------------------------------------------------
 Center     Atomic      Atomic             Coordinates (Angstroms)
 Number     Number       Type             X           Y           Z
 ---------------------------------------------------------------------
      1          8           0        8.819000    6.033000   22.263000
      2          6           0        9.489000    6.385000   23.482000
      3          6           0        8.913000    7.663000   24.072000
      4          8           0        9.148000    8.771000   23.191000
      5          1           0        9.029000    8.408000   22.267000
      6          6           0        9.449000    8.071000   25.434000
      7          8           0        8.993000    9.264000   26.088000
      8          1           0        9.271000   10.019000   25.493000
      9          6           0        9.527000    3.795000   24.178000
     10          8           0        9.097000    2.802000   25.120000
     11          1           0        9.018000    1.905000   24.686000
     12          6           0        9.326000    5.267000   24.500000
     13          8           0        9.928000    5.637000   25.748000
     14          6           0        9.396000    6.839000   26.323000
     15          8           0       10.207000    6.869000   27.506000
     16          6           0        9.557000    6.496000   28.730000
     17          6           0        9.532000    4.998000   28.981000
     18          8           0        8.990000    4.140000   27.966000
     19          1           0        9.282000    4.216000   27.013000
     20          6           0        8.749000    4.711000   30.252000
     21          8           0        8.898000    3.286000   30.331000
     22          1           0        8.804000    3.082000   29.356000
     23          6           0       10.314000    8.529000   29.795000
     24          8           0       10.982000    9.390000   30.729000
     25          1           0       10.661000   10.314000   30.522000
     26          6           0       10.301000    7.017000   29.949000
     27          8           0        9.789000    6.684000   31.247000
     28          6           0        9.496000    5.293000   31.442000
     29          8           0        8.807000    5.019000   32.670000
     30          1           0        9.447162    4.863207   33.368227
     31          1           0       10.436038    4.784753   31.495964
     32          1           0        7.726885    5.022612   30.196510
     33          1           0       10.542593    4.689570   29.149739
     34          1           0        8.556520    6.875382   28.733129
     35          1           0       11.310836    6.667593   29.893814
     36          1           0        9.291445    8.842787   29.766371
     37          1           0       10.734841    8.735323   28.833115
     38          1           0        9.469937    5.837246   21.585091
     39          1           0       10.573465    3.645140   24.012612
     40          1           0        9.021656    3.598867   23.255471
     41          1           0        8.278442    5.307797   24.714143
     42          1           0       10.530199    6.528716   23.281623
     43          1           0        7.854832    7.532526   24.162320
     44          1           0       10.491451    8.246409   25.268387
     45          1           0        8.379041    6.664937   26.606543
 ---------------------------------------------------------------------
                    Distance matrix (angstroms):
                    1          2          3          4          5
     1  O    0.000000
     2  C    1.434840   0.000000
     3  C    2.436846   1.520908   0.000000
     4  O    2.909651   2.427748   1.434939   0.000000
     5  H    2.384269   2.404237   1.956146   0.999853   0.000000
     6  C    3.821725   2.579632   1.519475   2.368892   3.212454
     7  O    5.010016   3.914830   2.575627   2.942734   3.915874
     8  H    5.150282   4.159038   2.774552   2.621419   3.613995
     9  C    3.029378   2.682156   3.917864   5.087080   5.017937
    10  O    4.321932   3.959116   4.976091   6.273165   6.290586
    11  H    4.790711   4.662816   5.791596   7.028078   6.938349
    12  C    2.418258   1.520795   2.468718   3.744754   3.865279
    13  O    3.678576   2.426310   2.818488   4.119297   4.539163
    14  C    4.179254   2.878549   2.445254   3.688299   4.364354
    15  O    5.487667   4.116109   3.754628   4.833044   5.585994
    16  C    6.525420   5.249614   4.844955   6.001952   6.760540
    17  C    6.834553   5.671386   5.619935   6.921494   7.547112
    18  O    6.011397   5.039373   5.251732   6.653702   7.120109
    19  H    5.106697   4.149141   4.546147   5.947576   6.337301
    20  C    8.097944   7.013043   6.850810   8.154785   8.803774
    21  O    8.523196   7.540682   7.637633   9.007071   9.554064
    22  H    7.682400   6.773692   6.994147   8.395849   8.869657
    23  C    8.074408   6.717986   5.955291   6.710509   7.637843
    24  O    9.360618   7.986118   7.181848   7.782555   8.739793
    25  H    9.483196   8.146915   7.189284   7.642878   8.627936
    26  C    7.889181   6.548348   6.073137   7.076474   7.909867
    27  O    9.059633   7.776543   7.294275   8.346591   9.175520
    28  C    9.233633   8.034557   7.763613   8.960836   9.700615
    29  O   10.456289   9.313991   8.995976  10.200256  10.943355
    30  H   11.184323  10.002754   9.723375  10.905792  11.660946
    31  H    9.456245   8.226864   8.106738   9.301701  10.014063
    32  H    8.071814   7.074305   6.774078   8.071378   8.719718
    33  H    7.225147   6.008977   6.105759   7.355918   7.968048
    34  H    6.530013   5.355777   4.740627   5.887139   6.662055
    35  H    8.052408   6.671604   6.374478   7.350503   8.148870
    36  H    8.026125   6.750783   5.827605   6.577327   7.516547
    37  H    7.357948   5.975832   5.209337   5.861126   6.791973
    38  H    0.960000   1.974503   3.135008   3.359985   2.695960
    39  H    3.441099   2.994069   4.347858   5.383441   5.302581
    40  H    2.636489   2.834125   4.146770   5.174078   4.909673
    41  H    2.612705   2.035680   2.522299   3.881993   4.020337
    42  H    2.052201   1.070000   2.127587   2.635626   2.610511
    43  H    2.604921   2.109539   1.070000   2.037047   2.395279
    44  H    4.090064   2.767839   2.064756   2.528951   3.342634
    45  H    4.411267   3.327633   2.775815   4.085674   4.721478
                    6          7          8          9         10
     6  C    0.000000
     7  O    1.434887   0.000000
     8  H    1.957005   1.000667   0.000000
     9  C    4.457331   5.817492   6.366548   0.000000
    10  O    5.290072   6.534928   7.228727   1.434682   0.000000
    11  H    6.226140   7.491402   8.157956   2.022188   0.999603
    12  C    2.958023   4.313774   4.854954   1.520154   2.552071
    13  O    2.500479   3.760978   4.438310   2.453297   3.020293
    14  C    1.520182   2.469465   3.288909   3.726140   4.223030
    15  O    2.512479   3.036535   3.853669   4.581207   4.844129
    16  C    3.654573   3.867827   4.792859   5.293109   5.185493
    17  C    4.693765   5.182540   6.119208   4.951368   4.463066
    18  O    4.698347   5.457313   6.384147   3.841398   3.146650
    19  H    4.169191   5.140180   5.998777   2.876541   2.370036
    20  C    5.915465   6.174807   7.148107   6.191754   5.486603
    21  O    6.868802   7.331341   8.299317   6.205975   5.237211
    22  H    6.378733   6.995189   7.953793   5.276626   4.255343
    23  C    4.469487   4.003388   4.670669   7.387883   7.492346
    24  O    5.668057   5.050829   5.544264   8.737085   8.855272
    25  H    5.691022   4.852327   5.225894   9.166769   9.383914
    26  C    4.714026   4.654803   5.470726   6.654683   6.521893
    27  O    5.985845   5.822826   6.670762   7.641055   7.286214
    28  C    6.619332   6.684846   7.601072   7.416917   6.806759
    29  O    7.879503   7.834369   8.759259   8.609915   7.874115
    30  H    8.558148   8.519094   9.414480   9.252444   8.509080
    31  H    6.965707   7.168828   8.049239   7.440333   6.810085
    32  H    5.910994   6.039228   7.033576   6.400774   5.707826
    33  H    5.141666   5.718470   6.587223   5.152657   4.678831
    34  H    3.620811   3.590643   4.570695   5.583886   5.471678
    35  H    5.032487   5.157317   5.895763   6.641114   6.529409
    36  H    4.403398   3.714418   4.432335   7.534291   7.623496
    37  H    3.694414   3.293807   3.866138   6.894619   7.188468
    38  H    4.450191   5.678583   5.726988   3.301091   4.674119
    39  H    4.782573   6.194892   6.671885   1.070000   2.029074
    40  H    4.992853   6.333859   6.803442   1.070000   2.029074
    41  H    3.086048   4.248484   4.877215   2.033446   2.667166
    42  H    2.860132   4.209573   4.319473   3.046818   4.395691
    43  H    2.109146   2.828723   3.155756   4.094569   4.983775
    44  H    1.070000   1.988118   2.163800   4.683391   5.622108
    45  H    2.120538   2.720471   3.644902   3.930924   4.200899
                   11         12         13         14         15
    11  H    0.000000
    12  C    3.381199   0.000000
    13  O    3.985445   1.434158   0.000000
    14  C    5.212198   2.408197   1.434731   0.000000
    15  O    5.831588   3.518324   2.164770   1.434611   0.000000
    16  C    6.141803   4.410975   3.125355   2.436641   1.435202
    17  C    5.317694   4.493791   3.319251   3.236161   2.476266
    18  O    3.969182   3.660079   2.835556   3.185732   3.023265
    19  H    3.290189   2.724281   2.009174   2.714632   2.852557
    20  C    6.239099   5.807544   4.746950   4.514868   3.784606
    21  O    5.812709   6.173176   5.252808   5.379208   4.746788
    22  H    4.820791   5.350462   4.561695   4.864628   4.442103
    23  C    8.465156   6.297127   4.989075   3.969082   2.829588
    24  O    9.818369   7.651268   6.325052   5.332526   4.164588
    25  H   10.366756   7.969876   6.723295   5.595306   4.601130
    26  C    7.448342   5.805577   4.437559   3.741468   2.449283
    27  O    8.153527   6.909723   5.599512   4.942090   3.768823
    28  C    7.573016   6.944130   5.720716   5.348297   4.298999
    29  O    8.572384   8.190224   7.039364   6.629007   5.661219
    30  H    9.182387   8.878242   7.674492   7.317213   6.242297
    31  H    7.528574   7.099878   5.832969   5.662259   4.507367
    32  H    6.461594   5.921749   5.001162   4.592308   4.098654
    33  H    5.477516   4.840826   3.584296   3.731646   2.750348
    34  H    6.426267   4.593296   3.510775   2.552405   2.056689
    35  H    7.420291   5.915612   4.490226   4.055452   2.638309
    36  H    8.603362   6.365698   5.179728   3.985336   3.137412
    37  H    8.173091   5.726254   4.446182   3.418949   2.350109
    38  H    5.028165   2.973650   4.192819   4.843218   6.055158
    39  H    2.429199   2.103365   2.719504   4.114007   4.767738
    40  H    2.217118   2.103365   3.344869   4.477536   5.492341
    41  H    3.482351   1.070000   1.974405   2.486350   3.735124
    42  H    5.063375   2.127549   2.690876   3.260775   4.250366
    43  H    5.770290   2.722310   3.225744   2.743122   4.141637
    44  H    6.536337   3.290224   2.712291   2.071961   2.642930
    45  H    5.172403   2.699719   2.047687   1.070000   2.047461
                   16         17         18         19         20
    16  C    0.000000
    17  C    1.519089   0.000000
    18  O    2.540850   1.435323   0.000000
    19  H    2.867423   2.132381   0.999624   0.000000
    20  C    2.481043   1.520164   2.368527   3.319674   0.000000
    21  O    3.647133   2.270551   2.516149   3.467201   1.434945
    22  H    3.551659   2.083666   1.756719   2.646524   1.859968
    23  C    2.416684   3.707031   4.935741   5.235123   4.151530
    24  O    3.794979   4.944458   6.258173   6.593097   5.206425
    25  H    4.359725   5.648821   6.887935   7.169402   5.926403
    26  C    1.520177   2.367434   3.732042   4.183785   2.796095
    27  O    2.534651   2.836089   4.227919   4.926949   2.442203
    28  C    2.967469   2.478879   3.697029   4.563087   1.520800
    29  O    4.274065   3.759626   4.788919   5.733418   2.438227
    30  H    4.918458   4.390117   5.469560   6.390232   3.197103
    31  H    3.369219   2.681008   3.868770   4.663931   2.097376
    32  H    2.769629   2.176352   2.711021   3.633695   1.070000
    33  H    2.100182   1.070000   2.028253   2.525672   2.105330
    34  H    1.070000   2.130156   2.873796   3.249227   2.651144
    35  H    2.111835   2.604809   3.935921   4.292502   3.243387
    36  H    2.579146   3.931547   5.044642   5.384079   4.195444
    37  H    2.532294   3.928903   4.991328   5.084078   4.706589
    38  H    7.175741   7.443632   6.620195   5.667977   8.769464
    39  H    5.604851   5.253547   4.287368   3.316035   6.587465
    40  H    6.216948   5.916055   4.741615   3.816760   7.089612
    41  H    4.378772   4.457965   3.527696   2.735670   5.589763
    42  H    5.534708   5.985180   5.479193   4.563971   7.420439
    43  H    4.983519   5.697051   5.221669   4.600275   6.770875
    44  H    3.989974   5.025555   5.137515   4.555287   6.353869
    45  H    2.434173   3.121864   2.932013   2.641559   4.152601
                   21         22         23         24         25
    21  O    0.000000
    22  H    1.000538   0.000000
    23  C    5.457234   5.669447   0.000000
    24  O    6.462219   6.813199   1.435236   0.000000
    25  H    7.248271   7.557105   1.958357   0.999833   0.000000
    26  C    4.004334   4.251692   1.519878   2.589071   3.365730
    27  O    3.630336   4.185751   2.405817   3.002334   3.803013
    28  C    2.370648   3.117496   3.722019   4.416104   5.235844
    29  O    2.912472   3.838564   4.780876   5.253927   6.007349
    30  H    3.466109   4.436702   5.192052   5.460138   6.267819
    31  H    2.443146   3.184708   4.114312   4.700491   5.618878
    32  H    2.098909   2.373311   4.375972   5.472970   6.059188
    33  H    2.463752   2.376874   3.899979   4.978070   5.790625
    34  H    3.943788   3.852137   2.636429   4.023650   4.410554
    35  H    4.177090   4.407942   2.113831   2.866560   3.756752
    36  H    5.599240   5.795919   1.070000   2.020908   2.147352
    37  H    5.942455   5.996801   1.070000   2.020908   2.313008
    38  H    9.128357   8.271752   8.681048   9.925697  10.066196
    39  H    6.546617   5.656848   7.573336   8.847609   9.319522
    40  H    7.083522   6.126253   8.291068   9.655765  10.029103
    41  H    6.001716   5.174671   6.350964   7.755779   8.029312
    42  H    7.929249   7.194280   6.817034   7.990900   8.171202
    43  H    7.561336   6.905246   6.226360   7.506709   7.487103
    44  H    7.264626   6.799058   4.538895   5.600601   5.648374
    45  H    5.055503   4.536247   4.169539   5.585339   5.818402
                   26         27         28         29         30
    26  C    0.000000
    27  O    1.434516   0.000000
    28  C    2.418522   1.434836   0.000000
    29  O    3.691596   2.400308   1.434497   0.000000
    30  H    4.130252   2.816336   1.974198   0.960000   0.000000
    31  H    2.719239   2.021827   1.070000   2.021633   2.118821
    32  H    3.265718   2.848870   2.180395   2.699040   3.611725
    33  H    2.472674   2.990678   2.591128   3.938660   4.361853
    34  H    2.131105   2.806275   3.274834   4.359799   5.130909
    35  H    1.070000   2.036509   2.753183   4.085861   4.335970
    36  H    2.094291   2.664617   3.930721   4.825671   5.369793
    37  H    2.094291   3.305962   4.493395   5.678848   6.100709
    38  H    8.487489   9.704189   9.871957  11.134820  11.823349
    39  H    6.832597   7.885837   7.685843   8.941938   9.501567
    40  H    7.623889   8.600663   8.373431   9.523456  10.200365
    41  H    5.866502   6.844994   6.837157   7.978623   8.743954
    42  H    6.689160   8.001294   8.317951   9.663864  10.280392
    43  H    6.303584   7.392814   7.791191   8.922167   9.716456
    44  H    4.843124   6.219194   6.915710   8.248480   8.839910
    45  H    3.871678   4.849968   5.148927   6.297441   7.078664
                   31         32         33         34         35
    31  H    0.000000
    32  H    3.014079   0.000000
    33  H    2.350571   3.022393   0.000000
    34  H    3.941647   2.502506   2.982586   0.000000
    35  H    2.622450   3.955034   2.248649   2.996101   0.000000
    36  H    4.557327   4.150495   4.381189   2.340596   2.970800
    37  H    4.773580   4.968991   4.062675   2.866088   2.394235
    38  H   10.013317   8.823741   7.726037   7.280557   8.550630
    39  H    7.570876   6.945577   5.242314   6.065130   6.653381
    40  H    8.444675   7.202881   6.184277   6.399737   7.663225
    41  H    7.135958   5.517417   5.018276   4.322834   6.154141
    42  H    8.397956   7.612002   6.149585   5.808140   6.659561
    43  H    8.245922   6.536627   6.338833   4.670814   6.748489
    44  H    7.125226   6.505543   5.264847   4.198584   4.955666
    45  H    5.627857   4.001300   3.879546   2.144330   4.404723
                   36         37         38         39         40
    36  H    0.000000
    37  H    1.722181   0.000000
    38  H    8.717711   7.907761   0.000000
    39  H    7.859062   7.012364   3.451950   0.000000
    40  H    8.364407   7.773564   2.828687   1.727285   0.000000
    41  H    6.248787   5.894723   3.389830   2.919539   2.366545
    42  H    6.995812   5.977462   2.116721   2.975101   3.295512
    43  H    5.931782   5.617606   3.482047   4.746066   4.202086
    44  H    4.693350   3.606322   4.518211   4.770259   5.273687
    45  H    3.944620   3.846286   5.204816   4.545673   4.587311
                   41         42         43         44         45
    41  H    0.000000
    42  H    2.934820   0.000000
    43  H    2.330960   2.990125   0.000000
    44  H    3.720220   2.626633   2.946994   0.000000
    45  H    2.330906   3.962465   2.646079   2.958714   0.000000
 Stoichiometry    C12H22O11
 Framework group  C1[X(C12H22O11)]
 Deg. of freedom   129
 Full point group                 C1      NOp   1
 Largest Abelian subgroup         C1      NOp   1
 Largest concise Abelian subgroup C1      NOp   1
                         Standard orientation:                         
 ---------------------------------------------------------------------
 Center     Atomic      Atomic             Coordinates (Angstroms)
 Number     Number       Type             X           Y           Z
 ---------------------------------------------------------------------
      1          8           0        5.101512   -0.545485   -0.303074
      2          6           0        3.874240   -0.030807    0.233280
      3          6           0        3.396548    1.176760   -0.558396
      4          8           0        4.332427    2.257551   -0.435628
      5          1           0        5.236581    1.830772   -0.444143
      6          6           0        2.037194    1.734460   -0.171186
      7          8           0        1.484165    2.879612   -0.835781
      8          1           0        2.110501    3.634034   -0.636069
      9          6           0        3.015145   -2.543801    0.608484
     10          8           0        2.035779   -3.536960    0.272643
     11          1           0        2.415800   -4.458068    0.352333
     12          6           0        2.797473   -1.103174    0.174800
     13          8           0        1.545940   -0.579334    0.639626
     14          6           0        1.076133    0.558983   -0.096560
     15          8           0       -0.142848    0.774955    0.628389
     16          6           0       -1.352808    0.376306   -0.032580
     17          6           0       -1.696220   -1.092496    0.147192
     18          8           0       -0.710801   -2.076328   -0.200915
     19          1           0        0.228772   -2.009705    0.133766
     20          6           0       -2.940740   -1.423613   -0.660540
     21          8           0       -3.117088   -2.803683   -0.309289
     22          1           0       -2.153359   -3.072544   -0.313351
     23          6           0       -2.324992    2.555046    0.352537
     24          8           0       -3.235986    3.556294    0.829499
     25          1           0       -2.954814    4.408991    0.389594
     26          6           0       -2.573229    1.068911    0.552063
     27          8           0       -3.861533    0.734490    0.017019
     28          6           0       -4.128563   -0.671928   -0.080126
     29          8           0       -5.334252   -0.978474   -0.794357
     30          1           0       -6.072990   -0.998068   -0.181592
     31          1           0       -4.262883   -1.029776    0.919275
     32          1           0       -2.813077   -1.272269   -1.712061
     33          1           0       -1.935961   -1.236226    1.180036
     34          1           0       -1.280407    0.601005   -1.076213
     35          1           0       -2.592336    0.872356    1.603682
     36          1           0       -2.223941    2.709942   -0.701359
     37          1           0       -1.374980    2.769151    0.795860
     38          1           0        5.731256   -0.678258    0.409241
     39          1           0        3.116578   -2.543910    1.673666
     40          1           0        3.948280   -2.863692    0.193961
     41          1           0        2.640620   -1.208225   -0.878415
     42          1           0        4.029344    0.256191    1.252336
     43          1           0        3.352845    0.894264   -1.589505
     44          1           0        2.159585    2.054837    0.842362
     45          1           0        0.834975    0.250213   -1.092252
 ---------------------------------------------------------------------
 Rotational constants (GHZ):      0.3746211      0.1530213      0.1132383
 Standard basis: 6-31+G(d,p) (6D, 7F)
 There are   547 symmetry adapted basis functions of A   symmetry.
 Integral buffers will be    131072 words long.
 Raffenetti 2 integral format.
 Two-electron integral symmetry is turned on.
   547 basis functions,   890 primitive gaussians,   547 cartesian basis functions
    91 alpha electrons       91 beta electrons
       nuclear repulsion energy      2281.8447480870 Hartrees.
 NAtoms=   45 NActive=   45 NUniq=   45 SFac= 1.00D+00 NAtFMM=   50 NAOKFM=F Big=F
 One-electron integrals computed using PRISM.
 NBasis=   547 RedAO= T  NBF=   547
 NBsUse=   547 1.00D-06 NBFU=   547
 Harris functional with IExCor=  402 diagonalized for initial guess.
 ExpMin= 4.38D-02 ExpMax= 5.48D+03 ExpMxC= 8.25D+02 IAcc=2 IRadAn=         0 AccDes= 0.00D+00
 HarFok:  IExCor=  402 AccDes= 0.00D+00 IRadAn=         0 IDoV= 1
 ScaDFX=  1.000000  1.000000  1.000000  1.000000
 FoFCou: FMM=F IPFlag=           0 FMFlag=      100000 FMFlg1=           0
         NFxFlg=           0 DoJE=T BraDBF=F KetDBF=T FulRan=T
         Omega=  0.000000  0.000000  1.000000  0.000000  0.000000 ICntrl=     500 IOpCl=  0
         NMat0=    1 NMatS0=    1 NMatT0=    0 NMatD0=    1 NMtDS0=    0 NMtDT0=    0
         I1Cent=           4 NGrid=           0.
 Petite list used in FoFCou.
 Initial guess orbital symmetries:
       Occupied  (A) (A) (A) (A) (A) (A) (A) (A) (A) (A) (A) (A)
                 (A) (A) (A) (A) (A) (A) (A) (A) (A) (A) (A) (A)
                 (A) (A) (A) (A) (A) (A) (A) (A) (A) (A) (A) (A)
                 (A) (A) (A) (A) (A) (A) (A) (A) (A) (A) (A) (A)
                 (A) (A) (A) (A) (A) (A) (A) (A) (A) (A) (A) (A)
                 (A) (A) (A) (A) (A) (A) (A) (A) (A) (A) (A) (A)
                 (A) (A) (A) (A) (A) (A) (A) (A) (A) (A) (A) (A)
                 (A) (A) (A) (A) (A) (A) (A)
       Virtual   (A) (A) (A) (A) (A) (A) (A) (A) (A) (A) (A) (A)
                 (A) (A) (A) (A) (A) (A) (A) (A) (A) (A) (A) (A)
                 (A) (A) (A) (A) (A) (A) (A) (A) (A) (A) (A) (A)
                 (A) (A) (A) (A) (A) (A) (A) (A) (A) (A) (A) (A)
                 (A) (A) (A) (A) (A) (A) (A) (A) (A) (A) (A) (A)
                 (A) (A) (A) (A) (A) (A) (A) (A) (A) (A) (A) (A)
                 (A) (A) (A) (A) (A) (A) (A) (A) (A) (A) (A) (A)
                 (A) (A) (A) (A) (A) (A) (A) (A) (A) (A) (A) (A)
                 (A) (A) (A) (A) (A) (A) (A) (A) (A) (A) (A) (A)
                 (A) (A) (A) (A) (A) (A) (A) (A) (A) (A) (A) (A)
                 (A) (A) (A) (A) (A) (A) (A) (A) (A) (A) (A) (A)
                 (A) (A) (A) (A) (A) (A) (A) (A) (A) (A) (A) (A)
                 (A) (A) (A) (A) (A) (A) (A) (A) (A) (A) (A) (A)
                 (A) (A) (A) (A) (A) (A) (A) (A) (A) (A) (A) (A)
                 (A) (A) (A) (A) (A) (A) (A) (A) (A) (A) (A) (A)
                 (A) (A) (A) (A) (A) (A) (A) (A) (A) (A) (A) (A)
                 (A) (A) (A) (A) (A) (A) (A) (A) (A) (A) (A) (A)
                 (A) (A) (A) (A) (A) (A) (A) (A) (A) (A) (A) (A)
                 (A) (A) (A) (A) (A) (A) (A) (A) (A) (A) (A) (A)
                 (A) (A) (A) (A) (A) (A) (A) (A) (A) (A) (A) (A)
                 (A) (A) (A) (A) (A) (A) (A) (A) (A) (A) (A) (A)
                 (A) (A) (A) (A) (A) (A) (A) (A) (A) (A) (A) (A)
                 (A) (A) (A) (A) (A) (A) (A) (A) (A) (A) (A) (A)
                 (A) (A) (A) (A) (A) (A) (A) (A) (A) (A) (A) (A)
                 (A) (A) (A) (A) (A) (A) (A) (A) (A) (A) (A) (A)
                 (A) (A) (A) (A) (A) (A) (A) (A) (A) (A) (A) (A)
                 (A) (A) (A) (A) (A) (A) (A) (A) (A) (A) (A) (A)
                 (A) (A) (A) (A) (A) (A) (A) (A) (A) (A) (A) (A)
                 (A) (A) (A) (A) (A) (A) (A) (A) (A) (A) (A) (A)
                 (A) (A) (A) (A) (A) (A) (A) (A) (A) (A) (A) (A)
                 (A) (A) (A) (A) (A) (A) (A) (A) (A) (A) (A) (A)
                 (A) (A) (A) (A) (A) (A) (A) (A) (A) (A) (A) (A)
                 (A) (A) (A) (A) (A) (A) (A) (A) (A) (A) (A) (A)
                 (A) (A) (A) (A) (A) (A) (A) (A) (A) (A) (A) (A)
                 (A) (A) (A) (A) (A) (A) (A) (A) (A) (A) (A) (A)
                 (A) (A) (A) (A) (A) (A) (A) (A) (A) (A) (A) (A)
                 (A) (A) (A) (A) (A) (A) (A) (A) (A) (A) (A) (A)
                 (A) (A) (A) (A) (A) (A) (A) (A) (A) (A) (A) (A)
 The electronic state of the initial guess is 1-A.
 Requested convergence on RMS density matrix=1.00D-08 within 128 cycles.
 Requested convergence on MAX density matrix=1.00D-06.
 Requested convergence on             energy=1.00D-06.
 No special actions if energy rises.
 SCF Done:  E(RB3LYP) =  -1297.91522564     A.U. after   13 cycles
             Convg  =    0.7622D-08             -V/T =  2.0087
 Range of M.O.s used for correlation:     1   547
 NBasis=   547 NAE=    91 NBE=    91 NFC=     0 NFV=     0
 NROrb=    547 NOA=    91 NOB=    91 NVA=   456 NVB=   456

 **** Warning!!: The largest alpha MO coefficient is  0.90303605D+02

          Differentiating once with respect to electric field.
                with respect to dipole field.
          Electric field/nuclear overlap derivatives assumed to be zero.
          There are     3 degrees of freedom in the 1st order CPHF.  IDoFFX=0.
      3 vectors produced by pass  0 Test12= 1.38D-12 3.33D-08 XBig12= 1.17D+02 1.38D+00.
 AX will form     3 AO Fock derivatives at one time.
      3 vectors produced by pass  1 Test12= 1.38D-12 3.33D-08 XBig12= 2.08D+01 3.58D-01.
      3 vectors produced by pass  2 Test12= 1.38D-12 3.33D-08 XBig12= 8.37D+00 1.87D-01.
      3 vectors produced by pass  3 Test12= 1.38D-12 3.33D-08 XBig12= 8.95D-01 7.21D-02.
      3 vectors produced by pass  4 Test12= 1.38D-12 3.33D-08 XBig12= 2.61D-01 3.32D-02.
      3 vectors produced by pass  5 Test12= 1.38D-12 3.33D-08 XBig12= 4.78D-02 1.55D-02.
      3 vectors produced by pass  6 Test12= 1.38D-12 3.33D-08 XBig12= 1.64D-02 1.04D-02.
      3 vectors produced by pass  7 Test12= 1.38D-12 3.33D-08 XBig12= 2.74D-03 6.56D-03.
      3 vectors produced by pass  8 Test12= 1.38D-12 3.33D-08 XBig12= 6.07D-04 2.77D-03.
      3 vectors produced by pass  9 Test12= 1.38D-12 3.33D-08 XBig12= 1.45D-04 1.43D-03.
      3 vectors produced by pass 10 Test12= 1.38D-12 3.33D-08 XBig12= 3.53D-05 6.49D-04.
      3 vectors produced by pass 11 Test12= 1.38D-12 3.33D-08 XBig12= 7.72D-06 4.19D-04.
      3 vectors produced by pass 12 Test12= 1.38D-12 3.33D-08 XBig12= 7.18D-07 1.09D-04.
      3 vectors produced by pass 13 Test12= 1.38D-12 3.33D-08 XBig12= 1.59D-07 4.54D-05.
      3 vectors produced by pass 14 Test12= 1.38D-12 3.33D-08 XBig12= 3.22D-08 3.11D-05.
      3 vectors produced by pass 15 Test12= 1.38D-12 3.33D-08 XBig12= 8.03D-09 1.19D-05.
      3 vectors produced by pass 16 Test12= 1.38D-12 3.33D-08 XBig12= 1.28D-09 6.11D-06.
      3 vectors produced by pass 17 Test12= 1.38D-12 3.33D-08 XBig12= 1.07D-10 1.42D-06.
      3 vectors produced by pass 18 Test12= 1.38D-12 3.33D-08 XBig12= 2.46D-11 6.43D-07.
      3 vectors produced by pass 19 Test12= 1.38D-12 3.33D-08 XBig12= 1.29D-11 3.10D-07.
      3 vectors produced by pass 20 Test12= 1.38D-12 3.33D-08 XBig12= 6.89D-12 2.02D-07.
      1 vectors produced by pass 21 Test12= 1.38D-12 3.33D-08 XBig12= 1.44D-12 8.84D-08.
 Inverted reduced A of dimension    64 with in-core refinement.
 End of Minotr Frequency-dependent properties file   721 does not exist.
 End of Minotr Frequency-dependent properties file   722 does not exist.
 Symmetrizing basis deriv contribution to polar:
 IMax=3 JMax=2 DiffMx= 0.00D+00
 G2DrvN: will do    23 centers at a time, making    2 passes doing MaxLOS=2.
 Calling FoFCou, ICntrl=  3107 FMM=F I1Cent=   0 AccDes= 0.00D+00.
 Calling FoFCou, ICntrl=  3107 FMM=F I1Cent=   0 AccDes= 0.00D+00.
 FoFDir/FoFCou used for L=0 through L=2.
 End of G2Drv Frequency-dependent properties file   721 does not exist.
 End of G2Drv Frequency-dependent properties file   722 does not exist.
          IDoAtm=111111111111111111111111111111111111111111111
          Differentiating once with respect to electric field.
                with respect to dipole field.
          Differentiating once with respect to nuclear coordinates.
          There are   138 degrees of freedom in the 1st order CPHF.  IDoFFX=5.
 Will reuse    3 saved solutions.
    135 vectors produced by pass  0 Test12= 4.15D-14 1.00D-09 XBig12= 2.68D-01 1.07D-01.
 AX will form    68 AO Fock derivatives at one time.
    135 vectors produced by pass  1 Test12= 4.15D-14 1.00D-09 XBig12= 2.58D-02 1.77D-02.
    132 vectors produced by pass  2 Test12= 4.15D-14 1.00D-09 XBig12= 1.75D-04 1.61D-03.
    132 vectors produced by pass  3 Test12= 4.15D-14 1.00D-09 XBig12= 7.93D-07 7.96D-05.
    132 vectors produced by pass  4 Test12= 4.15D-14 1.00D-09 XBig12= 1.59D-09 2.64D-06.
    131 vectors produced by pass  5 Test12= 4.15D-14 1.00D-09 XBig12= 1.14D-11 3.15D-07.
     79 vectors produced by pass  6 Test12= 4.15D-14 1.00D-09 XBig12= 1.97D-13 2.64D-08.
 Inverted reduced A of dimension   876 with in-core refinement.
 Isotropic polarizability for W=    0.000000      186.89 Bohr**3.
 End of Minotr Frequency-dependent properties file   721 does not exist.
 End of Minotr Frequency-dependent properties file   722 does not exist.

 **********************************************************************

            Population analysis using the SCF density.

 **********************************************************************

 Orbital symmetries:
       Occupied  (A) (A) (A) (A) (A) (A) (A) (A) (A) (A) (A) (A)
                 (A) (A) (A) (A) (A) (A) (A) (A) (A) (A) (A) (A)
                 (A) (A) (A) (A) (A) (A) (A) (A) (A) (A) (A) (A)
                 (A) (A) (A) (A) (A) (A) (A) (A) (A) (A) (A) (A)
                 (A) (A) (A) (A) (A) (A) (A) (A) (A) (A) (A) (A)
                 (A) (A) (A) (A) (A) (A) (A) (A) (A) (A) (A) (A)
                 (A) (A) (A) (A) (A) (A) (A) (A) (A) (A) (A) (A)
                 (A) (A) (A) (A) (A) (A) (A)
       Virtual   (A) (A) (A) (A) (A) (A) (A) (A) (A) (A) (A) (A)
                 (A) (A) (A) (A) (A) (A) (A) (A) (A) (A) (A) (A)
                 (A) (A) (A) (A) (A) (A) (A) (A) (A) (A) (A) (A)
                 (A) (A) (A) (A) (A) (A) (A) (A) (A) (A) (A) (A)
                 (A) (A) (A) (A) (A) (A) (A) (A) (A) (A) (A) (A)
                 (A) (A) (A) (A) (A) (A) (A) (A) (A) (A) (A) (A)
                 (A) (A) (A) (A) (A) (A) (A) (A) (A) (A) (A) (A)
                 (A) (A) (A) (A) (A) (A) (A) (A) (A) (A) (A) (A)
                 (A) (A) (A) (A) (A) (A) (A) (A) (A) (A) (A) (A)
                 (A) (A) (A) (A) (A) (A) (A) (A) (A) (A) (A) (A)
                 (A) (A) (A) (A) (A) (A) (A) (A) (A) (A) (A) (A)
                 (A) (A) (A) (A) (A) (A) (A) (A) (A) (A) (A) (A)
                 (A) (A) (A) (A) (A) (A) (A) (A) (A) (A) (A) (A)
                 (A) (A) (A) (A) (A) (A) (A) (A) (A) (A) (A) (A)
                 (A) (A) (A) (A) (A) (A) (A) (A) (A) (A) (A) (A)
                 (A) (A) (A) (A) (A) (A) (A) (A) (A) (A) (A) (A)
                 (A) (A) (A) (A) (A) (A) (A) (A) (A) (A) (A) (A)
                 (A) (A) (A) (A) (A) (A) (A) (A) (A) (A) (A) (A)
                 (A) (A) (A) (A) (A) (A) (A) (A) (A) (A) (A) (A)
                 (A) (A) (A) (A) (A) (A) (A) (A) (A) (A) (A) (A)
                 (A) (A) (A) (A) (A) (A) (A) (A) (A) (A) (A) (A)
                 (A) (A) (A) (A) (A) (A) (A) (A) (A) (A) (A) (A)
                 (A) (A) (A) (A) (A) (A) (A) (A) (A) (A) (A) (A)
                 (A) (A) (A) (A) (A) (A) (A) (A) (A) (A) (A) (A)
                 (A) (A) (A) (A) (A) (A) (A) (A) (A) (A) (A) (A)
                 (A) (A) (A) (A) (A) (A) (A) (A) (A) (A) (A) (A)
                 (A) (A) (A) (A) (A) (A) (A) (A) (A) (A) (A) (A)
                 (A) (A) (A) (A) (A) (A) (A) (A) (A) (A) (A) (A)
                 (A) (A) (A) (A) (A) (A) (A) (A) (A) (A) (A) (A)
                 (A) (A) (A) (A) (A) (A) (A) (A) (A) (A) (A) (A)
                 (A) (A) (A) (A) (A) (A) (A) (A) (A) (A) (A) (A)
                 (A) (A) (A) (A) (A) (A) (A) (A) (A) (A) (A) (A)
                 (A) (A) (A) (A) (A) (A) (A) (A) (A) (A) (A) (A)
                 (A) (A) (A) (A) (A) (A) (A) (A) (A) (A) (A) (A)
                 (A) (A) (A) (A) (A) (A) (A) (A) (A) (A) (A) (A)
                 (A) (A) (A) (A) (A) (A) (A) (A) (A) (A) (A) (A)
                 (A) (A) (A) (A) (A) (A) (A) (A) (A) (A) (A) (A)
                 (A) (A) (A) (A) (A) (A) (A) (A) (A) (A) (A) (A)
 The electronic state is 1-A.
 Alpha  occ. eigenvalues --  -19.21392 -19.20147 -19.19399 -19.19295 -19.19055
 Alpha  occ. eigenvalues --  -19.18499 -19.16455 -19.16369 -19.16081 -19.15020
 Alpha  occ. eigenvalues --  -19.13327 -10.32197 -10.29044 -10.28766 -10.27579
 Alpha  occ. eigenvalues --  -10.27507 -10.27395 -10.26738 -10.25488 -10.24930
 Alpha  occ. eigenvalues --  -10.24274 -10.23402 -10.22209  -1.10836  -1.08584
 Alpha  occ. eigenvalues --   -1.06444  -1.05939  -1.04841  -1.04188  -1.03832
 Alpha  occ. eigenvalues --   -1.03242  -1.01329  -1.00376  -0.98993  -0.83292
 Alpha  occ. eigenvalues --   -0.82803  -0.79644  -0.77233  -0.73572  -0.69217
 Alpha  occ. eigenvalues --   -0.68262  -0.65380  -0.64011  -0.62824  -0.61261
 Alpha  occ. eigenvalues --   -0.60117  -0.58074  -0.56837  -0.55471  -0.55124
 Alpha  occ. eigenvalues --   -0.53972  -0.53689  -0.53034  -0.52344  -0.51453
 Alpha  occ. eigenvalues --   -0.50912  -0.50553  -0.48275  -0.47684  -0.47229
 Alpha  occ. eigenvalues --   -0.46172  -0.45857  -0.44818  -0.44424  -0.44003
 Alpha  occ. eigenvalues --   -0.43323  -0.41855  -0.41197  -0.40611  -0.40208
 Alpha  occ. eigenvalues --   -0.39293  -0.38369  -0.37694  -0.37384  -0.35948
 Alpha  occ. eigenvalues --   -0.35527  -0.35256  -0.34229  -0.33811  -0.33354
 Alpha  occ. eigenvalues --   -0.32307  -0.32011  -0.30769  -0.30653  -0.30370
 Alpha  occ. eigenvalues --   -0.29867  -0.29479  -0.28366  -0.26602  -0.26449
 Alpha  occ. eigenvalues --   -0.25568
 Alpha virt. eigenvalues --   -0.04191  -0.02673  -0.01470  -0.00139   0.00390
 Alpha virt. eigenvalues --    0.00910   0.01435   0.01763   0.02626   0.03052
 Alpha virt. eigenvalues --    0.03427   0.04268   0.04899   0.05313   0.06136
 Alpha virt. eigenvalues --    0.06153   0.06696   0.06869   0.07278   0.08141
 Alpha virt. eigenvalues --    0.08693   0.09018   0.09202   0.09486   0.10025
 Alpha virt. eigenvalues --    0.10423   0.10893   0.11082   0.11474   0.12012
 Alpha virt. eigenvalues --    0.12130   0.12469   0.12698   0.13106   0.13942
 Alpha virt. eigenvalues --    0.14169   0.14405   0.14589   0.14673   0.15034
 Alpha virt. eigenvalues --    0.15586   0.15909   0.16288   0.16608   0.16756
 Alpha virt. eigenvalues --    0.17266   0.17510   0.17805   0.18047   0.18150
 Alpha virt. eigenvalues --    0.18357   0.18879   0.19283   0.19587   0.19817
 Alpha virt. eigenvalues --    0.20422   0.20587   0.20923   0.21151   0.21345
 Alpha virt. eigenvalues --    0.21680   0.21971   0.22287   0.22440   0.23163
 Alpha virt. eigenvalues --    0.23458   0.23646   0.23738   0.24028   0.24432
 Alpha virt. eigenvalues --    0.24829   0.25227   0.25791   0.25946   0.26437
 Alpha virt. eigenvalues --    0.26472   0.26536   0.26921   0.27122   0.27182
 Alpha virt. eigenvalues --    0.27748   0.27973   0.28203   0.28703   0.29006
 Alpha virt. eigenvalues --    0.29357   0.29526   0.30043   0.30150   0.30515
 Alpha virt. eigenvalues --    0.30903   0.31037   0.31492   0.32145   0.32405
 Alpha virt. eigenvalues --    0.32689   0.33144   0.33313   0.33970   0.34058
 Alpha virt. eigenvalues --    0.34394   0.34668   0.35082   0.35232   0.35471
 Alpha virt. eigenvalues --    0.36138   0.36643   0.36987   0.37425   0.37531
 Alpha virt. eigenvalues --    0.38012   0.38277   0.38324   0.38941   0.39361
 Alpha virt. eigenvalues --    0.39505   0.40095   0.40239   0.40700   0.41113
 Alpha virt. eigenvalues --    0.41878   0.42351   0.42462   0.43419   0.44193
 Alpha virt. eigenvalues --    0.44351   0.45186   0.45973   0.46302   0.46511
 Alpha virt. eigenvalues --    0.47196   0.47827   0.48760   0.49117   0.51381
 Alpha virt. eigenvalues --    0.52328   0.54813   0.56301   0.60843   0.62455
 Alpha virt. eigenvalues --    0.65451   0.66723   0.67215   0.68048   0.68862
 Alpha virt. eigenvalues --    0.70044   0.70801   0.71589   0.72828   0.73969
 Alpha virt. eigenvalues --    0.74376   0.75474   0.77152   0.77787   0.78227
 Alpha virt. eigenvalues --    0.80030   0.80190   0.81758   0.82339   0.83793
 Alpha virt. eigenvalues --    0.85172   0.85808   0.86781   0.87115   0.88999
 Alpha virt. eigenvalues --    0.89995   0.92820   0.93029   0.93371   0.95595
 Alpha virt. eigenvalues --    0.96293   0.97680   0.98852   0.99592   1.01127
 Alpha virt. eigenvalues --    1.01545   1.02542   1.02833   1.03279   1.03737
 Alpha virt. eigenvalues --    1.04405   1.04959   1.05361   1.06034   1.06792
 Alpha virt. eigenvalues --    1.07411   1.07689   1.08278   1.09153   1.10302
 Alpha virt. eigenvalues --    1.11000   1.11673   1.14178   1.15096   1.15871
 Alpha virt. eigenvalues --    1.16476   1.17774   1.18115   1.20148   1.21077
 Alpha virt. eigenvalues --    1.22289   1.23054   1.23868   1.24004   1.24421
 Alpha virt. eigenvalues --    1.25503   1.26544   1.26736   1.27779   1.27946
 Alpha virt. eigenvalues --    1.28935   1.29395   1.29640   1.30970   1.31110
 Alpha virt. eigenvalues --    1.31541   1.32675   1.33143   1.33793   1.34360
 Alpha virt. eigenvalues --    1.35084   1.35498   1.35799   1.38057   1.38622
 Alpha virt. eigenvalues --    1.38798   1.39356   1.40519   1.40808   1.42474
 Alpha virt. eigenvalues --    1.43061   1.43788   1.44752   1.45044   1.46365
 Alpha virt. eigenvalues --    1.48088   1.48869   1.49525   1.51038   1.52050
 Alpha virt. eigenvalues --    1.53658   1.54648   1.55095   1.55282   1.56696
 Alpha virt. eigenvalues --    1.58189   1.58697   1.59505   1.59691   1.60989
 Alpha virt. eigenvalues --    1.61911   1.62680   1.62851   1.63562   1.64407
 Alpha virt. eigenvalues --    1.65332   1.65816   1.66241   1.67539   1.69263
 Alpha virt. eigenvalues --    1.69721   1.70106   1.71506   1.72192   1.72613
 Alpha virt. eigenvalues --    1.73503   1.74198   1.75305   1.75767   1.76941
 Alpha virt. eigenvalues --    1.78056   1.78827   1.79768   1.80064   1.81297
 Alpha virt. eigenvalues --    1.82719   1.83676   1.84502   1.85408   1.86593
 Alpha virt. eigenvalues --    1.86827   1.88232   1.89343   1.90390   1.90896
 Alpha virt. eigenvalues --    1.91369   1.93023   1.94514   1.94605   1.94943
 Alpha virt. eigenvalues --    1.95333   1.96756   1.97459   1.98096   1.98552
 Alpha virt. eigenvalues --    1.99137   2.00292   2.01136   2.02367   2.03222
 Alpha virt. eigenvalues --    2.03526   2.04449   2.05254   2.05742   2.07056
 Alpha virt. eigenvalues --    2.08599   2.08798   2.09394   2.10299   2.11508
 Alpha virt. eigenvalues --    2.12627   2.13172   2.13999   2.15354   2.16100
 Alpha virt. eigenvalues --    2.16896   2.17323   2.18151   2.19708   2.20767
 Alpha virt. eigenvalues --    2.22566   2.22956   2.23307   2.25440   2.26948
 Alpha virt. eigenvalues --    2.28999   2.30524   2.31829   2.33831   2.34396
 Alpha virt. eigenvalues --    2.35108   2.35627   2.35921   2.36766   2.37145
 Alpha virt. eigenvalues --    2.37807   2.39213   2.40402   2.42396   2.43155
 Alpha virt. eigenvalues --    2.44450   2.45777   2.46942   2.48769   2.49698
 Alpha virt. eigenvalues --    2.49942   2.51405   2.51850   2.52494   2.54627
 Alpha virt. eigenvalues --    2.55799   2.56927   2.57756   2.57940   2.59058
 Alpha virt. eigenvalues --    2.60621   2.61461   2.61954   2.62734   2.63842
 Alpha virt. eigenvalues --    2.64295   2.65004   2.65471   2.67104   2.68330
 Alpha virt. eigenvalues --    2.69607   2.70756   2.72515   2.74657   2.75732
 Alpha virt. eigenvalues --    2.76344   2.77951   2.79763   2.80794   2.81477
 Alpha virt. eigenvalues --    2.82927   2.83076   2.83500   2.84250   2.85119
 Alpha virt. eigenvalues --    2.86033   2.87992   2.88650   2.89207   2.89740
 Alpha virt. eigenvalues --    2.90885   2.91443   2.93305   2.93880   2.94395
 Alpha virt. eigenvalues --    2.95061   2.96453   2.97354   2.99275   3.00993
 Alpha virt. eigenvalues --    3.01933   3.02664   3.03626   3.05583   3.06837
 Alpha virt. eigenvalues --    3.07605   3.08460   3.12919   3.13767   3.14196
 Alpha virt. eigenvalues --    3.15625   3.20868   3.22010   3.27750   3.28844
 Alpha virt. eigenvalues --    3.32057   3.34718   3.37516   3.39370   3.41436
 Alpha virt. eigenvalues --    3.42017   3.44386   3.45481   3.46529   3.47473
 Alpha virt. eigenvalues --    3.48422   3.50175   3.50598   3.51330   3.53625
 Alpha virt. eigenvalues --    3.55675   3.58230   3.60404   3.61381   3.63498
 Alpha virt. eigenvalues --    3.64397   3.65710   3.71519   4.26539   4.33268
 Alpha virt. eigenvalues --    4.34766   4.37178   4.38461   4.41348   4.43249
 Alpha virt. eigenvalues --    4.45320   4.47921   4.51357   4.53371   4.55100
 Alpha virt. eigenvalues --    4.58805   4.59665   4.60340   4.67060   4.67666
 Alpha virt. eigenvalues --    4.77119   4.82060   4.84504   4.85956   4.89724
 Alpha virt. eigenvalues --    4.94177
          Condensed to atoms (all electrons):
              1          2          3          4          5          6
     1  O    8.284281   0.289483  -0.096138  -0.015860   0.026408   0.043042
     2  C    0.289483  10.494183  -0.921689   0.045435  -0.077992  -2.354793
     3  C   -0.096138  -0.921689   8.318827   0.191950   0.039877  -0.269784
     4  O   -0.015860   0.045435   0.191950   8.261378   0.212092  -0.126567
     5  H    0.026408  -0.077992   0.039877   0.212092   0.410222   0.002729
     6  C    0.043042  -2.354793  -0.269784  -0.126567   0.002729  13.758334
     7  O   -0.000450  -0.014440  -0.140022  -0.004344   0.000783   0.442074
     8  H   -0.000067   0.014361  -0.027309   0.011884  -0.000220  -0.027048
     9  C   -0.126675  -0.604777  -0.226707   0.002035  -0.005780   0.490968
    10  O   -0.002313   0.048182  -0.007284   0.000074   0.000001  -0.001838
    11  H    0.000096  -0.011172   0.002410   0.000000   0.000000   0.000295
    12  C   -0.086675  -3.407304  -0.389876  -0.011688   0.028250   1.519065
    13  O    0.007061   0.023548   0.022111  -0.001466  -0.000026   0.085233
    14  C    0.021806   1.798154  -0.455484   0.002121   0.010642  -5.259675
    15  O    0.000361   0.005924   0.015017  -0.001085   0.000053  -0.075107
    16  C    0.005865   0.481704  -0.217017  -0.003324   0.000823  -0.877175
    17  C   -0.001123  -0.165333  -0.002290   0.001721   0.000064  -0.346108
    18  O    0.000036  -0.018611  -0.005550   0.000019   0.000000   0.019445
    19  H   -0.000021   0.015459  -0.002558   0.000000   0.000000  -0.007181
    20  C    0.000135   0.010629  -0.020370   0.000092   0.000002  -0.121543
    21  O    0.000000   0.000290  -0.000043   0.000000   0.000000   0.001269
    22  H    0.000000  -0.000177  -0.000054   0.000000   0.000000   0.000769
    23  C    0.000025   0.023495  -0.009893   0.000118  -0.000023  -0.030962
    24  O    0.000000   0.000105  -0.001491   0.000000   0.000000  -0.003405
    25  H    0.000000  -0.000021  -0.000007   0.000000   0.000000  -0.000939
    26  C    0.000235  -0.017429  -0.007503  -0.000542   0.000038  -0.413042
    27  O    0.000000   0.000451   0.000613   0.000001   0.000000  -0.001063
    28  C   -0.000001   0.002900   0.001210   0.000031   0.000000  -0.018014
    29  O    0.000000   0.000008  -0.000010   0.000000   0.000000   0.000324
    30  H    0.000000   0.000000   0.000000   0.000000   0.000000   0.000008
    31  H    0.000000   0.000011   0.000004   0.000000   0.000000   0.000232
    32  H    0.000000   0.000103  -0.000006   0.000000   0.000000   0.002407
    33  H    0.000000   0.000160  -0.000222   0.000000   0.000000   0.009777
    34  H   -0.000002   0.000414   0.001280   0.000008   0.000000  -0.007780
    35  H    0.000000   0.000048  -0.000160   0.000000   0.000000   0.002608
    36  H    0.000000   0.000052  -0.001943   0.000000   0.000000   0.005467
    37  H    0.000000   0.000239   0.006600   0.000003   0.000000  -0.009863
    38  H    0.235188   0.100959  -0.024033   0.000673  -0.002557   0.002734
    39  H   -0.003155  -0.014526  -0.004554   0.000051  -0.000001   0.005104
    40  H    0.008107   0.048649  -0.004334  -0.000057   0.000000  -0.000626
    41  H    0.005762  -0.006152  -0.053100   0.001330  -0.000044  -0.083318
    42  H   -0.044991   0.403707  -0.096084   0.003568  -0.001331  -0.040572
    43  H   -0.005344   0.070371   0.300991  -0.040903  -0.003240  -0.277496
    44  H   -0.000854   0.031705  -0.130304   0.005010  -0.000088   0.287128
    45  H    0.000280   0.008485  -0.032741   0.000191   0.000003  -0.270321
              7          8          9         10         11         12
     1  O   -0.000450  -0.000067  -0.126675  -0.002313   0.000096  -0.086675
     2  C   -0.014440   0.014361  -0.604777   0.048182  -0.011172  -3.407304
     3  C   -0.140022  -0.027309  -0.226707  -0.007284   0.002410  -0.389876
     4  O   -0.004344   0.011884   0.002035   0.000074   0.000000  -0.011688
     5  H    0.000783  -0.000220  -0.005780   0.000001   0.000000   0.028250
     6  C    0.442074  -0.027048   0.490968  -0.001838   0.000295   1.519065
     7  O    8.186468   0.214382   0.001319  -0.000007   0.000000   0.019995
     8  H    0.214382   0.403088   0.000336   0.000000   0.000000  -0.004971
     9  C    0.001319   0.000336   8.532490   0.082981  -0.022711  -2.098390
    10  O   -0.000007   0.000000   0.082981   8.346140   0.217726   0.012839
    11  H    0.000000   0.000000  -0.022711   0.217726   0.396662   0.035921
    12  C    0.019995  -0.004971  -2.098390   0.012839   0.035921  12.829373
    13  O    0.006306  -0.000942  -0.047943   0.014066  -0.000208  -0.141853
    14  C   -0.143441   0.049981  -0.685159  -0.024701   0.001290  -1.796512
    15  O   -0.004190   0.000619  -0.008373  -0.001887   0.000010  -0.035680
    16  C   -0.030933   0.000452  -0.326705   0.011981  -0.000760  -0.267564
    17  C    0.005668  -0.000342   0.060078  -0.004314   0.000492  -0.132848
    18  O    0.000332  -0.000002   0.025655  -0.008213   0.001440  -0.018172
    19  H   -0.000050   0.000000   0.000085   0.009081  -0.000154  -0.006873
    20  C    0.001508  -0.000130  -0.005275   0.000167  -0.000421  -0.044031
    21  O    0.000002   0.000000  -0.000418  -0.000140   0.000002   0.001737
    22  H   -0.000001   0.000000   0.000345  -0.000272  -0.000001  -0.000326
    23  C   -0.012907  -0.000739  -0.003123  -0.000127  -0.000003  -0.015104
    24  O    0.000273  -0.000003   0.000008   0.000000   0.000000  -0.000002
    25  H    0.000026   0.000000   0.000000   0.000000   0.000000   0.000041
    26  C    0.005744   0.001589  -0.017308   0.000539  -0.000063  -0.027603
    27  O   -0.000041   0.000000  -0.000591   0.000000   0.000000  -0.000717
    28  C   -0.000220   0.000018  -0.006723   0.000197   0.000001   0.005886
    29  O   -0.000001   0.000000   0.000003   0.000001   0.000000   0.000097
    30  H    0.000000   0.000000   0.000002   0.000000   0.000000  -0.000001
    31  H    0.000001   0.000000   0.000042   0.000000   0.000000   0.000042
    32  H    0.000018   0.000000   0.000145   0.000004   0.000000   0.000555
    33  H    0.000038   0.000000   0.001232   0.000047   0.000000   0.001574
    34  H    0.000378   0.000003  -0.000157   0.000010   0.000000   0.002400
    35  H   -0.000017   0.000000   0.000328   0.000000   0.000000   0.000256
    36  H    0.000134   0.000005   0.000085   0.000000   0.000000   0.000433
    37  H   -0.000440  -0.000001  -0.000231   0.000000   0.000000  -0.001955
    38  H   -0.000001   0.000000   0.028804   0.000115  -0.000002  -0.086531
    39  H    0.000002   0.000000   0.633066  -0.062951  -0.001541  -0.272715
    40  H   -0.000002   0.000000   0.424216  -0.047867  -0.008740  -0.100535
    41  H   -0.000012   0.000001   0.017054  -0.001176  -0.000043   0.207571
    42  H   -0.000029  -0.000001  -0.012125  -0.000288   0.000002  -0.069586
    43  H    0.003063  -0.000066   0.016115   0.000004   0.000000  -0.007011
    44  H   -0.053054  -0.007848   0.013875  -0.000015   0.000000   0.029466
    45  H    0.005832  -0.000171   0.002617  -0.000793  -0.000002  -0.010027
             13         14         15         16         17         18
     1  O    0.007061   0.021806   0.000361   0.005865  -0.001123   0.000036
     2  C    0.023548   1.798154   0.005924   0.481704  -0.165333  -0.018611
     3  C    0.022111  -0.455484   0.015017  -0.217017  -0.002290  -0.005550
     4  O   -0.001466   0.002121  -0.001085  -0.003324   0.001721   0.000019
     5  H   -0.000026   0.010642   0.000053   0.000823   0.000064   0.000000
     6  C    0.085233  -5.259675  -0.075107  -0.877175  -0.346108   0.019445
     7  O    0.006306  -0.143441  -0.004190  -0.030933   0.005668   0.000332
     8  H   -0.000942   0.049981   0.000619   0.000452  -0.000342  -0.000002
     9  C   -0.047943  -0.685159  -0.008373  -0.326705   0.060078   0.025655
    10  O    0.014066  -0.024701  -0.001887   0.011981  -0.004314  -0.008213
    11  H   -0.000208   0.001290   0.000010  -0.000760   0.000492   0.001440
    12  C   -0.141853  -1.796512  -0.035680  -0.267564  -0.132848  -0.018172
    13  O    8.540947   0.144684  -0.046800  -0.033152   0.024890  -0.005246
    14  C    0.144684  12.470988   0.198962  -0.028402  -0.039476   0.023746
    15  O   -0.046800   0.198962   8.296744   0.029417  -0.050540  -0.001628
    16  C   -0.033152  -0.028402   0.029417  18.482319  -3.905277  -0.280433
    17  C    0.024890  -0.039476  -0.050540  -3.905277  10.323524   0.334966
    18  O   -0.005246   0.023746  -0.001628  -0.280433   0.334966   8.293948
    19  H    0.029003  -0.018430   0.005298  -0.032718   0.024063   0.212108
    20  C   -0.017985  -0.477410   0.065835  -3.759493  -0.699357   0.025652
    21  O    0.000431   0.006366  -0.001467   0.009119  -0.023953  -0.021869
    22  H    0.000011   0.008722  -0.000108   0.073102  -0.086983   0.040807
    23  C   -0.001052   0.068232  -0.062049   1.119902  -0.575677   0.006321
    24  O    0.000032   0.007523  -0.005021   0.071947  -0.006842   0.000137
    25  H    0.000007   0.000986   0.000800  -0.028426   0.001187   0.000000
    26  C   -0.042722  -1.164048   0.091287  -6.989315   1.529142   0.032816
    27  O    0.000103  -0.009157   0.004579  -0.012407   0.028305   0.001352
    28  C    0.004114   0.012354   0.019233   1.357440  -0.427055  -0.018347
    29  O    0.000004   0.001531  -0.000239  -0.021078   0.027794   0.000342
    30  H    0.000000   0.000465   0.000001   0.005441  -0.003062  -0.000013
    31  H    0.000026   0.004679  -0.000581   0.155692   0.002077  -0.000109
    32  H    0.000209   0.009519  -0.002288   0.192896  -0.007839   0.001550
    33  H   -0.000466   0.055010  -0.010218   0.075272   0.343568  -0.056710
    34  H    0.000468   0.030422  -0.059353   0.409355  -0.080745   0.000432
    35  H   -0.000039   0.049730   0.004141   0.175768  -0.051154  -0.000393
    36  H   -0.000019   0.018502  -0.003366   0.156065  -0.013978   0.000047
    37  H   -0.000461  -0.012016   0.002667  -0.000135   0.005096  -0.000105
    38  H   -0.000772  -0.004634   0.000000   0.000275  -0.000095   0.000001
    39  H   -0.004571   0.014377  -0.000043  -0.006209   0.004680   0.000322
    40  H    0.007586  -0.007327  -0.000005   0.001451  -0.000972  -0.000534
    41  H   -0.082112   0.161217   0.000469   0.008188   0.016022   0.001004
    42  H    0.005604   0.090445  -0.000919  -0.000326   0.002302   0.000012
    43  H    0.001953   0.150209  -0.001399   0.006645   0.003921   0.000055
    44  H    0.008396   0.033802  -0.013047   0.014844   0.006874  -0.000010
    45  H   -0.065086   0.449436  -0.058925   0.102030   0.020833   0.001917
             19         20         21         22         23         24
     1  O   -0.000021   0.000135   0.000000   0.000000   0.000025   0.000000
     2  C    0.015459   0.010629   0.000290  -0.000177   0.023495   0.000105
     3  C   -0.002558  -0.020370  -0.000043  -0.000054  -0.009893  -0.001491
     4  O    0.000000   0.000092   0.000000   0.000000   0.000118   0.000000
     5  H    0.000000   0.000002   0.000000   0.000000  -0.000023   0.000000
     6  C   -0.007181  -0.121543   0.001269   0.000769  -0.030962  -0.003405
     7  O   -0.000050   0.001508   0.000002  -0.000001  -0.012907   0.000273
     8  H    0.000000  -0.000130   0.000000   0.000000  -0.000739  -0.000003
     9  C    0.000085  -0.005275  -0.000418   0.000345  -0.003123   0.000008
    10  O    0.009081   0.000167  -0.000140  -0.000272  -0.000127   0.000000
    11  H   -0.000154  -0.000421   0.000002  -0.000001  -0.000003   0.000000
    12  C   -0.006873  -0.044031   0.001737  -0.000326  -0.015104  -0.000002
    13  O    0.029003  -0.017985   0.000431   0.000011  -0.001052   0.000032
    14  C   -0.018430  -0.477410   0.006366   0.008722   0.068232   0.007523
    15  O    0.005298   0.065835  -0.001467  -0.000108  -0.062049  -0.005021
    16  C   -0.032718  -3.759493   0.009119   0.073102   1.119902   0.071947
    17  C    0.024063  -0.699357  -0.023953  -0.086983  -0.575677  -0.006842
    18  O    0.212108   0.025652  -0.021869   0.040807   0.006321   0.000137
    19  H    0.311569   0.006907   0.001765  -0.001628  -0.001135   0.000000
    20  C    0.006907  10.362742   0.261114  -0.021406  -0.056217   0.000254
    21  O    0.001765   0.261114   8.239610   0.207297  -0.007522  -0.000009
    22  H   -0.001628  -0.021406   0.207297   0.391313   0.002361   0.000001
    23  C   -0.001135  -0.056217  -0.007522   0.002361   6.297352   0.221509
    24  O    0.000000   0.000254  -0.000009   0.000001   0.221509   8.294993
    25  H    0.000000   0.000874   0.000000   0.000000  -0.045771   0.212729
    26  C    0.005285   2.132229   0.012389  -0.011586  -1.936013  -0.178728
    27  O   -0.000030  -0.206309   0.007221  -0.000668  -0.077552   0.008535
    28  C    0.003979  -1.133997  -0.156432   0.011203   0.119065   0.006020
    29  O    0.000028  -0.149220   0.001766  -0.000726  -0.006814  -0.000496
    30  H    0.000000   0.036522  -0.001882   0.000032   0.000676  -0.000006
    31  H    0.000006  -0.253273   0.006136   0.000010   0.008131  -0.000221
    32  H   -0.000159   0.117551  -0.032563  -0.001978   0.009498  -0.000014
    33  H   -0.002612  -0.140328  -0.001173  -0.001245   0.014565   0.000040
    34  H   -0.000023  -0.001057  -0.000144  -0.000011   0.030894   0.000309
    35  H    0.000024  -0.034888  -0.000457  -0.000012   0.068993   0.000816
    36  H    0.000000  -0.009854  -0.000015   0.000000   0.543355  -0.049503
    37  H    0.000000   0.004782  -0.000014   0.000000   0.496118  -0.060724
    38  H    0.000000   0.000000   0.000000   0.000000   0.000001   0.000000
    39  H    0.000280   0.000227   0.000000   0.000000  -0.000010   0.000000
    40  H    0.000112   0.000005   0.000000   0.000000   0.000003   0.000000
    41  H    0.000515   0.002159   0.000003   0.000001  -0.000008   0.000000
    42  H   -0.000005   0.000083   0.000000   0.000000   0.000057   0.000000
    43  H   -0.000003   0.000235   0.000000   0.000000  -0.000049   0.000000
    44  H   -0.000006   0.000772   0.000000   0.000000   0.002488  -0.000006
    45  H   -0.000610   0.017540   0.000042  -0.000004   0.000237  -0.000018
             25         26         27         28         29         30
     1  O    0.000000   0.000235   0.000000  -0.000001   0.000000   0.000000
     2  C   -0.000021  -0.017429   0.000451   0.002900   0.000008   0.000000
     3  C   -0.000007  -0.007503   0.000613   0.001210  -0.000010   0.000000
     4  O    0.000000  -0.000542   0.000001   0.000031   0.000000   0.000000
     5  H    0.000000   0.000038   0.000000   0.000000   0.000000   0.000000
     6  C   -0.000939  -0.413042  -0.001063  -0.018014   0.000324   0.000008
     7  O    0.000026   0.005744  -0.000041  -0.000220  -0.000001   0.000000
     8  H    0.000000   0.001589   0.000000   0.000018   0.000000   0.000000
     9  C    0.000000  -0.017308  -0.000591  -0.006723   0.000003   0.000002
    10  O    0.000000   0.000539   0.000000   0.000197   0.000001   0.000000
    11  H    0.000000  -0.000063   0.000000   0.000001   0.000000   0.000000
    12  C    0.000041  -0.027603  -0.000717   0.005886   0.000097  -0.000001
    13  O    0.000007  -0.042722   0.000103   0.004114   0.000004   0.000000
    14  C    0.000986  -1.164048  -0.009157   0.012354   0.001531   0.000465
    15  O    0.000800   0.091287   0.004579   0.019233  -0.000239   0.000001
    16  C   -0.028426  -6.989315  -0.012407   1.357440  -0.021078   0.005441
    17  C    0.001187   1.529142   0.028305  -0.427055   0.027794  -0.003062
    18  O    0.000000   0.032816   0.001352  -0.018347   0.000342  -0.000013
    19  H    0.000000   0.005285  -0.000030   0.003979   0.000028   0.000000
    20  C    0.000874   2.132229  -0.206309  -1.133997  -0.149220   0.036522
    21  O    0.000000   0.012389   0.007221  -0.156432   0.001766  -0.001882
    22  H    0.000000  -0.011586  -0.000668   0.011203  -0.000726   0.000032
    23  C   -0.045771  -1.936013  -0.077552   0.119065  -0.006814   0.000676
    24  O    0.212729  -0.178728   0.008535   0.006020  -0.000496  -0.000006
    25  H    0.449689   0.086860  -0.001697  -0.000685  -0.000006   0.000000
    26  C    0.086860  14.659164   0.216483  -1.313090  -0.023685  -0.000726
    27  O   -0.001697   0.216483   8.389153   0.106928  -0.050071  -0.003932
    28  C   -0.000685  -1.313090   0.106928   6.210308   0.379710  -0.028516
    29  O   -0.000006  -0.023685  -0.050071   0.379710   8.164940   0.244222
    30  H    0.000000  -0.000726  -0.003932  -0.028516   0.244222   0.406929
    31  H   -0.000001  -0.092963  -0.072904   0.530800  -0.056361  -0.009935
    32  H    0.000000  -0.032645   0.007643  -0.026455   0.000482   0.000025
    33  H    0.000000  -0.088536   0.001452   0.020914  -0.000045   0.000004
    34  H   -0.000004  -0.113845   0.003129   0.013146  -0.000570   0.000002
    35  H   -0.000170   0.020790  -0.049559   0.038809  -0.001275  -0.000001
    36  H   -0.009312  -0.350666  -0.004014   0.008120  -0.000102   0.000001
    37  H   -0.003274  -0.126800   0.009775   0.000424   0.000008   0.000000
    38  H    0.000000   0.000001   0.000000   0.000000   0.000000   0.000000
    39  H    0.000000   0.000014   0.000000  -0.000019   0.000000   0.000000
    40  H    0.000000   0.000016   0.000000   0.000002   0.000000   0.000000
    41  H    0.000000   0.001642   0.000000  -0.000051   0.000000   0.000000
    42  H    0.000000  -0.000217   0.000000  -0.000002   0.000000   0.000000
    43  H    0.000000  -0.000352   0.000000   0.000007   0.000000   0.000000
    44  H    0.000000  -0.003025   0.000004   0.000008   0.000000   0.000000
    45  H    0.000000   0.041229   0.000214   0.000057  -0.000006   0.000000
             31         32         33         34         35         36
     1  O    0.000000   0.000000   0.000000  -0.000002   0.000000   0.000000
     2  C    0.000011   0.000103   0.000160   0.000414   0.000048   0.000052
     3  C    0.000004  -0.000006  -0.000222   0.001280  -0.000160  -0.001943
     4  O    0.000000   0.000000   0.000000   0.000008   0.000000   0.000000
     5  H    0.000000   0.000000   0.000000   0.000000   0.000000   0.000000
     6  C    0.000232   0.002407   0.009777  -0.007780   0.002608   0.005467
     7  O    0.000001   0.000018   0.000038   0.000378  -0.000017   0.000134
     8  H    0.000000   0.000000   0.000000   0.000003   0.000000   0.000005
     9  C    0.000042   0.000145   0.001232  -0.000157   0.000328   0.000085
    10  O    0.000000   0.000004   0.000047   0.000010   0.000000   0.000000
    11  H    0.000000   0.000000   0.000000   0.000000   0.000000   0.000000
    12  C    0.000042   0.000555   0.001574   0.002400   0.000256   0.000433
    13  O    0.000026   0.000209  -0.000466   0.000468  -0.000039  -0.000019
    14  C    0.004679   0.009519   0.055010   0.030422   0.049730   0.018502
    15  O   -0.000581  -0.002288  -0.010218  -0.059353   0.004141  -0.003366
    16  C    0.155692   0.192896   0.075272   0.409355   0.175768   0.156065
    17  C    0.002077  -0.007839   0.343568  -0.080745  -0.051154  -0.013978
    18  O   -0.000109   0.001550  -0.056710   0.000432  -0.000393   0.000047
    19  H    0.000006  -0.000159  -0.002612  -0.000023   0.000024   0.000000
    20  C   -0.253273   0.117551  -0.140328  -0.001057  -0.034888  -0.009854
    21  O    0.006136  -0.032563  -0.001173  -0.000144  -0.000457  -0.000015
    22  H    0.000010  -0.001978  -0.001245  -0.000011  -0.000012   0.000000
    23  C    0.008131   0.009498   0.014565   0.030894   0.068993   0.543355
    24  O   -0.000221  -0.000014   0.000040   0.000309   0.000816  -0.049503
    25  H   -0.000001   0.000000   0.000000  -0.000004  -0.000170  -0.009312
    26  C   -0.092963  -0.032645  -0.088536  -0.113845   0.020790  -0.350666
    27  O   -0.072904   0.007643   0.001452   0.003129  -0.049559  -0.004014
    28  C    0.530800  -0.026455   0.020914   0.013146   0.038809   0.008120
    29  O   -0.056361   0.000482  -0.000045  -0.000570  -0.001275  -0.000102
    30  H   -0.009935   0.000025   0.000004   0.000002  -0.000001   0.000001
    31  H    0.648609   0.005587   0.003548  -0.000001   0.005293   0.000003
    32  H    0.005587   0.604750   0.005032   0.002294  -0.000045  -0.000038
    33  H    0.003548   0.005032   0.614563   0.006503   0.004114  -0.000003
    34  H   -0.000001   0.002294   0.006503   0.615045   0.006019   0.005612
    35  H    0.005293  -0.000045   0.004114   0.006019   0.620501   0.007222
    36  H    0.000003  -0.000038  -0.000003   0.005612   0.007222   0.628574
    37  H    0.000012   0.000000  -0.000021  -0.000550  -0.006147  -0.053362
    38  H    0.000000   0.000000   0.000000   0.000000   0.000000   0.000000
    39  H    0.000000   0.000000  -0.000001   0.000000   0.000000   0.000000
    40  H    0.000000   0.000000   0.000000   0.000000   0.000000   0.000000
    41  H    0.000000  -0.000001  -0.000006  -0.000016   0.000000   0.000000
    42  H    0.000000   0.000000   0.000000   0.000000   0.000000   0.000000
    43  H    0.000000   0.000000   0.000000   0.000002   0.000000   0.000000
    44  H    0.000000   0.000000  -0.000001   0.000021   0.000000  -0.000004
    45  H    0.000000  -0.000089  -0.000042   0.007843  -0.000016  -0.000009
             37         38         39         40         41         42
     1  O    0.000000   0.235188  -0.003155   0.008107   0.005762  -0.044991
     2  C    0.000239   0.100959  -0.014526   0.048649  -0.006152   0.403707
     3  C    0.006600  -0.024033  -0.004554  -0.004334  -0.053100  -0.096084
     4  O    0.000003   0.000673   0.000051  -0.000057   0.001330   0.003568
     5  H    0.000000  -0.002557  -0.000001   0.000000  -0.000044  -0.001331
     6  C   -0.009863   0.002734   0.005104  -0.000626  -0.083318  -0.040572
     7  O   -0.000440  -0.000001   0.000002  -0.000002  -0.000012  -0.000029
     8  H   -0.000001   0.000000   0.000000   0.000000   0.000001  -0.000001
     9  C   -0.000231   0.028804   0.633066   0.424216   0.017054  -0.012125
    10  O    0.000000   0.000115  -0.062951  -0.047867  -0.001176  -0.000288
    11  H    0.000000  -0.000002  -0.001541  -0.008740  -0.000043   0.000002
    12  C   -0.001955  -0.086531  -0.272715  -0.100535   0.207571  -0.069586
    13  O   -0.000461  -0.000772  -0.004571   0.007586  -0.082112   0.005604
    14  C   -0.012016  -0.004634   0.014377  -0.007327   0.161217   0.090445
    15  O    0.002667   0.000000  -0.000043  -0.000005   0.000469  -0.000919
    16  C   -0.000135   0.000275  -0.006209   0.001451   0.008188  -0.000326
    17  C    0.005096  -0.000095   0.004680  -0.000972   0.016022   0.002302
    18  O   -0.000105   0.000001   0.000322  -0.000534   0.001004   0.000012
    19  H    0.000000   0.000000   0.000280   0.000112   0.000515  -0.000005
    20  C    0.004782   0.000000   0.000227   0.000005   0.002159   0.000083
    21  O   -0.000014   0.000000   0.000000   0.000000   0.000003   0.000000
    22  H    0.000000   0.000000   0.000000   0.000000   0.000001   0.000000
    23  C    0.496118   0.000001  -0.000010   0.000003  -0.000008   0.000057
    24  O   -0.060724   0.000000   0.000000   0.000000   0.000000   0.000000
    25  H   -0.003274   0.000000   0.000000   0.000000   0.000000   0.000000
    26  C   -0.126800   0.000001   0.000014   0.000016   0.001642  -0.000217
    27  O    0.009775   0.000000   0.000000   0.000000   0.000000   0.000000
    28  C    0.000424   0.000000  -0.000019   0.000002  -0.000051  -0.000002
    29  O    0.000008   0.000000   0.000000   0.000000   0.000000   0.000000
    30  H    0.000000   0.000000   0.000000   0.000000   0.000000   0.000000
    31  H    0.000012   0.000000   0.000000   0.000000   0.000000   0.000000
    32  H    0.000000   0.000000   0.000000   0.000000  -0.000001   0.000000
    33  H   -0.000021   0.000000  -0.000001   0.000000  -0.000006   0.000000
    34  H   -0.000550   0.000000   0.000000   0.000000  -0.000016   0.000000
    35  H   -0.006147   0.000000   0.000000   0.000000   0.000000   0.000000
    36  H   -0.053362   0.000000   0.000000   0.000000   0.000000   0.000000
    37  H    0.593779   0.000000   0.000000   0.000000   0.000000   0.000000
    38  H    0.000000   0.393016   0.000185  -0.000807   0.000097  -0.011348
    39  H    0.000000   0.000185   0.612780  -0.050861   0.008650   0.002629
    40  H    0.000000  -0.000807  -0.050861   0.595173  -0.008226  -0.000256
    41  H    0.000000   0.000097   0.008650  -0.008226   0.652073   0.007830
    42  H    0.000000  -0.011348   0.002629  -0.000256   0.007830   0.603866
    43  H    0.000000   0.000091   0.000004  -0.000016   0.006012   0.005996
    44  H    0.000024   0.000021   0.000002   0.000000   0.000237   0.003505
    45  H    0.000090   0.000003   0.000010   0.000006   0.010118   0.000093
             43         44         45
     1  O   -0.005344  -0.000854   0.000280
     2  C    0.070371   0.031705   0.008485
     3  C    0.300991  -0.130304  -0.032741
     4  O   -0.040903   0.005010   0.000191
     5  H   -0.003240  -0.000088   0.000003
     6  C   -0.277496   0.287128  -0.270321
     7  O    0.003063  -0.053054   0.005832
     8  H   -0.000066  -0.007848  -0.000171
     9  C    0.016115   0.013875   0.002617
    10  O    0.000004  -0.000015  -0.000793
    11  H    0.000000   0.000000  -0.000002
    12  C   -0.007011   0.029466  -0.010027
    13  O    0.001953   0.008396  -0.065086
    14  C    0.150209   0.033802   0.449436
    15  O   -0.001399  -0.013047  -0.058925
    16  C    0.006645   0.014844   0.102030
    17  C    0.003921   0.006874   0.020833
    18  O    0.000055  -0.000010   0.001917
    19  H   -0.000003  -0.000006  -0.000610
    20  C    0.000235   0.000772   0.017540
    21  O    0.000000   0.000000   0.000042
    22  H    0.000000   0.000000  -0.000004
    23  C   -0.000049   0.002488   0.000237
    24  O    0.000000  -0.000006  -0.000018
    25  H    0.000000   0.000000   0.000000
    26  C   -0.000352  -0.003025   0.041229
    27  O    0.000000   0.000004   0.000214
    28  C    0.000007   0.000008   0.000057
    29  O    0.000000   0.000000  -0.000006
    30  H    0.000000   0.000000   0.000000
    31  H    0.000000   0.000000   0.000000
    32  H    0.000000   0.000000  -0.000089
    33  H    0.000000  -0.000001  -0.000042
    34  H    0.000002   0.000021   0.007843
    35  H    0.000000   0.000000  -0.000016
    36  H    0.000000  -0.000004  -0.000009
    37  H    0.000000   0.000024   0.000090
    38  H    0.000091   0.000021   0.000003
    39  H    0.000004   0.000002   0.000010
    40  H   -0.000016   0.000000   0.000006
    41  H    0.006012   0.000237   0.010118
    42  H    0.005996   0.003505   0.000093
    43  H    0.611139   0.007601   0.003686
    44  H    0.007601   0.611754   0.006811
    45  H    0.003686   0.006811   0.639414
 Mulliken atomic charges:
              1
     1  O   -0.544503
     2  C   -0.304798
     3  C    0.247670
     4  O   -0.533946
     5  H    0.359314
     6  C   -0.054790
     7  O   -0.489742
     8  H    0.373140
     9  C   -0.134713
    10  O   -0.579969
    11  H    0.389474
    12  C    0.339046
    13  O   -0.433872
    14  C    0.229972
    15  O   -0.297098
    16  C   -0.127145
    17  C   -0.141901
    18  O   -0.588516
    19  H    0.448628
    20  C    0.104549
    21  O   -0.508459
    22  H    0.391211
    23  C   -0.190646
    24  O   -0.518741
    25  H    0.337112
    26  C    0.114961
    27  O   -0.295230
    28  C    0.276721
    29  O   -0.510554
    30  H    0.353746
    31  H    0.115409
    32  H    0.143850
    33  H    0.144215
    34  H    0.128267
    35  H    0.138872
    36  H    0.122514
    37  H    0.156482
    38  H    0.368618
    39  H    0.138773
    40  H    0.145844
    41  H    0.126313
    42  H    0.148381
    43  H    0.147782
    44  H    0.143915
    45  H    0.119844
 Sum of Mulliken atomic charges =   0.00000
 Mulliken charges with hydrogens summed into heavy atoms:
              1
     1  O   -0.175885
     2  C   -0.156416
     3  C    0.395452
     4  O   -0.174631
     6  C    0.089125
     7  O   -0.116602
     9  C    0.149903
    10  O   -0.190496
    12  C    0.465359
    13  O   -0.433872
    14  C    0.349815
    15  O   -0.297098
    16  C    0.001122
    17  C    0.002314
    18  O   -0.139887
    20  C    0.248399
    21  O   -0.117248
    23  C    0.088350
    24  O   -0.181629
    26  C    0.253833
    27  O   -0.295230
    28  C    0.392130
    29  O   -0.156808
 Sum of Mulliken charges with hydrogens summed into heavy atoms =   0.00000
 APT atomic charges:
              1
     1  O   -0.646867
     2  C    0.455648
     3  C    0.355660
     4  O   -0.639596
     5  H    0.270732
     6  C    0.373294
     7  O   -0.583669
     8  H    0.276108
     9  C    0.465679
    10  O   -0.625664
    11  H    0.267056
    12  C    0.389054
    13  O   -0.780881
    14  C    0.908020
    15  O   -0.863539
    16  C    0.417678
    17  C    0.412401
    18  O   -0.795828
    19  H    0.407945
    20  C    0.308143
    21  O   -0.653040
    22  H    0.363057
    23  C    0.485454
    24  O   -0.640111
    25  H    0.240107
    26  C    0.461793
    27  O   -0.794151
    28  C    0.977714
    29  O   -0.679248
    30  H    0.266062
    31  H   -0.084724
    32  H   -0.036524
    33  H   -0.044366
    34  H   -0.038747
    35  H   -0.055893
    36  H   -0.055181
    37  H   -0.023560
    38  H    0.265581
    39  H   -0.060517
    40  H   -0.027007
    41  H   -0.048931
    42  H   -0.049744
    43  H   -0.047975
    44  H   -0.036764
    45  H   -0.054658
 Sum of APT charges=   0.00000
 APT Atomic charges with hydrogens summed into heavy atoms:
              1
     1  O   -0.381286
     2  C    0.405905
     3  C    0.307685
     4  O   -0.368863
[...]
 9,-0.00003451,-0.00000509,0.00000986,-0.00360324,-0.00176172,0.0015848
 6,0.00152637,0.00079954,0.00110722,-0.00008691,-0.00020416,-0.00006221
 ,0.00009252,0.00003061,0.00012160,0.00000868,0.00001220,-0.00000404,-0
 .00001837,-0.00000895,-0.00002983,0.00003126,0.00000788,0.00002476,-0.
 00002423,-0.00001104,-0.00001182,-0.00000339,0.00000078,-0.00000027,0.
 00001025,-0.00000044,0.00000855,-0.00000764,0.00000208,-0.00001067,-0.
 00001523,-0.00000971,0.00000354,0.00001567,0.00001275,0.00000037,-0.00
 000636,-0.00000192,0.00000397,-0.00001924,-0.00000428,-0.00000345,0.00
 001513,0.00001058,0.00000205,-0.00000997,-0.00000885,-0.00000809,0.000
 00315,0.00000184,0.00000383,-0.00000066,-0.00000027,0.00000006,0.00000
 173,0.00000016,0.00000153,0.00000277,-0.00000107,-0.00000225,0.0000072
 8,-0.00000029,0.00000782,0.00000637,-0.00000361,-0.00000684,0.00000552
 ,-0.00000291,0.00000362,0.00000623,-0.00000052,-0.00000239,-0.00000309
 ,0.00000040,-0.00000051,0.00100212,0.00010343,-0.00056252,0.00004297,-
 0.00064439,0.00004439,-0.00001101,0.00010985,0.00005111,0.00072448,-0.
 00047101,0.00002663,0.36637111,-0.00911523,-0.00099495,-0.00416637,-0.
 03801339,-0.05069354,0.00937485,0.03047273,0.00202720,-0.00812319,-0.0
 0193462,0.00330846,-0.00021796,0.00058612,-0.00024409,0.00041144,0.001
 03744,0.00118692,0.00126907,-0.00058471,-0.00026920,-0.00002163,0.0000
 7695,-0.00003881,-0.00004394,-0.00114699,0.00226736,-0.00014143,0.0004
 3135,-0.00019339,-0.00005486,0.00005569,-0.00005894,-0.00003107,-0.028
 62991,-0.00460514,0.00833222,0.00184751,0.00153468,-0.00180713,0.00028
 171,-0.00049448,0.00002047,0.00004182,0.00011830,0.00000598,-0.0000261
 4,0.00001827,0.00001876,-0.00002650,-0.00004920,-0.00005637,0.00008885
 ,0.00004854,0.00004462,-0.00014308,-0.00003448,-0.00007362,0.00000420,
 0.00000084,0.00000777,0.00000757,0.00001092,0.00001241,-0.00000680,0.0
 0000488,-0.00002221,0.00000519,-0.00000100,0.00000520,-0.00000295,0.00
 000167,-0.00000242,0.00000225,0.00000112,0.00000127,-0.00000843,0.0000
 0626,-0.00000054,0.00000752,0.00001113,-0.00000447,-0.00000975,-0.0000
 1501,-0.00000535,0.00000233,0.00000300,0.00000552,-0.00000081,-0.00000
 011,-0.00000008,0.00000086,0.00000122,0.00000159,0.00000050,-0.0000013
 7,-0.00000321,0.00001048,0.00000793,0.00001348,0.00000063,-0.00000613,
 0.00000604,0.00000063,0.00000042,-0.00000025,-0.00000308,0.00000015,0.
 00000271,0.00000422,-0.00000029,0.00000024,-0.00111919,0.00117151,-0.0
 0001491,0.00067412,-0.00037200,-0.00016347,-0.00004089,-0.00002831,-0.
 00005502,-0.00103394,-0.00331298,0.00378555,0.04506416,0.05465866,-0.0
 4125728,-0.01029826,-0.00987619,0.07077244,0.00770366,-0.05803290,0.01
 486558,0.00296940,-0.00223859,-0.00185650,0.00063177,0.00084581,-0.000
 28611,-0.00031608,0.00007195,0.00113970,0.00056602,0.00079759,-0.00044
 438,-0.00006053,-0.00002546,0.00006767,-0.00001058,0.00001914,-0.00000
 592,-0.00142455,0.00001346,-0.00010378,0.00021808,0.00003364,-0.000076
 75,0.00003555,-0.00001942,0.02332773,0.00520857,-0.00485570,-0.0012231
 9,-0.00086532,0.00293949,0.00046316,-0.00015967,-0.00026406,-0.0000933
 9,0.00001334,-0.00017708,-0.00001304,-0.00003202,-0.00000920,0.0000468
 5,0.00004641,0.00006713,-0.00011047,-0.00005068,-0.00007368,0.00016451
 ,0.00004892,0.00006836,-0.00000486,-0.00000551,-0.00000180,-0.00000653
 ,0.00000392,-0.00002662,0.00000401,-0.00001318,0.00003342,0.00001724,0
 .00002026,-0.00000090,-0.00001913,-0.00002036,-0.00000914,0.00000467,0
 .00000249,-0.00000174,0.00002489,0.00000427,0.00001203,-0.00001448,-0.
 00000655,-0.00001519,0.00001198,0.00000647,0.00002718,-0.00000019,0.00
 000047,-0.00002236,0.00000152,-0.00000114,0.00000292,-0.00000228,-0.00
 000001,-0.00000310,-0.00000407,0.00000076,0.00000491,-0.00001562,-0.00
 000354,-0.00001981,-0.00000764,0.00000484,0.00001102,-0.00000665,0.000
 00271,-0.00000479,-0.00000678,0.00000045,0.00000226,0.00000461,-0.0000
 0190,-0.00000102,-0.00261947,0.00057917,0.00357484,-0.00029256,0.00054
 244,0.00011989,0.00000200,0.00017255,0.00004638,0.00044760,0.00329059,
 -0.00331037,-0.06294584,-0.00595855,0.07152578,0.00189635,-0.00008461,
 -0.00035188,-0.01672188,0.00000574,0.00058804,-0.35144264,-0.02805246,
 0.01907097,0.00048514,-0.00817712,0.00707290,-0.00021656,-0.00057801,-
 0.00015309,-0.01555334,-0.00056340,-0.00142926,0.00221727,-0.00067237,
 -0.00020309,-0.00016122,0.00012023,0.00003532,0.00055183,0.00014164,-0
 .00026470,0.00001309,0.00011449,0.00005272,-0.00000459,0.00003689,-0.0
 0002295,-0.00093009,-0.00123829,0.00068582,0.00062973,0.00055628,-0.00
 002392,-0.00113655,-0.00153017,0.00096303,0.00046311,0.00019367,-0.000
 32003,-0.00010943,0.00008439,-0.00002194,-0.00001137,-0.00004252,-0.00
 009385,0.00007659,0.00000784,0.00007326,-0.00007445,-0.00000308,-0.000
 00760,-0.00002120,0.00001757,0.00000861,0.00001868,0.00000999,0.000015
 37,-0.00000943,0.00000737,-0.00002281,-0.00003379,-0.00001159,0.000027
 23,0.00002413,0.00001865,-0.00001211,-0.00001158,-0.00000177,0.0000126
 9,-0.00000019,-0.00001362,-0.00000425,0.00002403,0.00003146,-0.0000136
 4,-0.00001716,-0.00003145,-0.00001191,0.00000647,0.00000599,0.00000705
 ,-0.00000076,-0.00000104,-0.00000083,0.00000290,0.00000231,0.00000287,
 0.00000692,-0.00000213,-0.00000751,0.00001202,-0.00000161,0.00001086,0
 .00001967,-0.00001380,-0.00003486,0.00000724,-0.00000197,0.00000737,0.
 00000844,-0.00000234,-0.00000266,0.00000479,0.00000118,0.00000070,0.00
 036897,-0.00037958,-0.00025418,0.00004985,-0.00030353,-0.00002064,-0.0
 0001367,0.00002294,0.00001025,0.00115922,0.00046161,-0.00067824,-0.000
 11963,0.00185295,0.00071149,0.37793374,-0.00199558,0.00189380,0.001608
 21,0.03203255,-0.00103732,-0.00278439,-0.02868355,-0.04257190,-0.00312
 017,-0.03088385,-0.01675105,0.01610859,-0.00062494,-0.00048681,-0.0007
 6689,-0.01030975,0.00145680,-0.00186890,0.00081971,0.00079260,0.001525
 77,-0.00025604,-0.00005871,0.00021194,-0.00020532,0.00007458,-0.000009
 69,-0.00010768,-0.00013440,0.00003978,0.00000243,-0.00000244,0.0000157
 8,0.00215010,0.00212804,-0.00162330,-0.00029605,-0.00021354,0.00032950
 ,0.00041548,-0.00060135,0.00044978,0.00008520,0.00008337,-0.00031256,-
 0.00007470,0.00003920,0.00002377,0.00001640,-0.00002246,-0.00004403,-0
 .00000616,0.00001491,0.00003481,0.00002021,0.00000512,-0.00002903,-0.0
 0000802,0.00000626,0.00000858,0.00000544,0.00001098,-0.00000119,-0.000
 00031,-0.00000094,-0.00000524,-0.00002312,0.00000080,0.00001315,0.0000
 1348,0.00000114,-0.00000707,-0.00000898,-0.00000147,0.00000265,0.00001
 053,0.00000405,0.00000873,0.00000576,0.00000637,-0.00001532,-0.0000040
 9,-0.00001057,0.00000480,0.00000271,0.00000196,-0.00000264,-0.00000003
 ,-0.00000032,-0.00000014,0.00000038,0.00000057,-0.00000022,0.00000116,
 0.00000042,0.00000054,0.00000079,-0.00000135,-0.00000088,0.00000659,0.
 00000286,-0.00001041,0.00000093,-0.00000397,-0.00000088,0.00000938,0.0
 0000039,-0.00000541,-0.00000151,0.00000524,0.00000066,0.00003128,0.000
 28930,0.00046610,-0.00015808,0.00011568,0.00007499,0.00001088,-0.00002
 643,-0.00002378,-0.00050135,-0.00044003,0.00037826,0.00186728,-0.00458
 731,-0.00237325,0.03753715,0.05983668,-0.00040734,0.00117932,0.0014546
 2,0.01556231,-0.00295415,0.00001503,0.01716349,-0.00349100,-0.04368371
 ,0.02478622,0.01695193,-0.00873389,0.00150614,0.00035267,0.00027245,-0
 .03592490,-0.00327859,0.00032975,0.00316551,0.00095760,0.00216712,-0.0
 0017631,-0.00004382,-0.00017813,-0.00017934,-0.00001175,0.00015115,-0.
 00002186,-0.00012371,-0.00002981,0.00000180,-0.00001626,0.00002614,-0.
 00014445,0.00084097,-0.00062169,0.00005644,0.00031397,-0.00022661,-0.0
 0125150,-0.00157930,0.00172838,0.00047872,0.00008799,-0.00027157,-0.00
 002116,0.00007631,0.00003407,0.00001393,-0.00002730,-0.00006055,0.0000
 2646,0.00001185,0.00002578,-0.00002071,-0.00000612,-0.00000382,-0.0000
 1789,0.00001478,0.00001112,0.00000960,0.00001619,-0.00000369,-0.000002
 93,-0.00000111,-0.00000517,-0.00002394,0.00001192,0.00004915,0.0000075
 0,-0.00001486,-0.00002714,-0.00000925,0.00000443,0.00000578,0.00000769
 ,-0.00001395,0.00002063,0.00001332,0.00002437,-0.00002992,-0.00000861,
 -0.00002349,0.00001191,0.00000653,0.00000440,-0.00000916,-0.00000045,-
 0.00000062,0.00000144,0.00000118,0.00000206,0.00000026,0.00000299,-0.0
 0000031,-0.00000447,0.00000329,-0.00000210,0.00000488,0.00002200,-0.00
 000072,-0.00004679,0.00000325,-0.00000419,0.00000549,0.00001231,0.0000
 0081,-0.00001094,0.00000156,0.00001518,0.00000876,-0.00009104,0.000348
 03,0.00019084,-0.00002317,0.00010079,0.00000289,0.00000304,-0.00000290
 ,-0.00000995,-0.00058121,0.00024648,0.00024280,0.00101789,-0.00194885,
 -0.00098794,-0.02285976,-0.00703130,0.05431404,0.00055635,0.00007457,-
 0.00024400,-0.00091880,0.00109420,0.00060885,-0.01908946,-0.00791610,-
 0.00110985,0.00234681,0.00067016,0.00154755,0.00031445,0.00002321,0.00
 020547,-0.33447996,-0.05849369,0.04150980,-0.01360112,0.01312143,0.010
 08585,0.00038042,0.00028928,0.00068547,0.00000572,0.00000555,0.0000296
 4,0.00003857,0.00001589,-0.00001569,-0.00001272,-0.00000183,-0.0000008
 5,-0.00013733,-0.00015149,0.00001382,0.00146722,-0.00055880,-0.0006799
 1,-0.00406071,-0.00192728,0.00144275,0.00103158,0.00006633,-0.00008454
 ,0.00008782,0.00010847,0.00009350,0.00006748,0.00004424,-0.00006169,0.
 00003350,-0.00000528,-0.00006468,-0.00001667,-0.00003518,0.00001761,-0
 .00003265,0.00003418,0.00001685,0.00002101,0.00000477,-0.00002190,-0.0
 0001102,-0.00000483,0.00000203,-0.00008938,-0.00000557,0.00005751,0.00
 005196,-0.00001121,-0.00000980,-0.00003022,-0.00000265,-0.00000733,-0.
 00001842,-0.00001650,0.00003845,0.00001862,-0.00001194,0.00000096,-0.0
 0000497,0.00001888,0.00000362,0.00000395,-0.00000729,-0.00000416,-0.00
 000118,0.00000247,-0.00000040,0.00000466,-0.00000311,0.00000135,0.0000
 0955,-0.00000206,-0.00000216,0.00000236,-0.00001597,0.00001141,0.00002
 392,0.00004458,-0.00015702,0.00001026,-0.00002050,0.00000799,0.0000546
 9,0.00000187,-0.00004644,-0.00002387,0.00003597,-0.00000669,-0.0000181
 2,-0.00017857,-0.00011257,0.00002814,-0.00003785,-0.00001187,0.0000004
 1,0.00001104,0.00000172,0.00006490,0.00018011,-0.00005358,0.00077481,-
 0.00062501,-0.00043752,0.00000116,-0.00100479,-0.00265470,0.36444846,0
 .00019908,0.00011372,0.00009501,-0.00097602,-0.00012512,0.00018311,-0.
 00873845,0.00027686,0.00089609,0.00132257,0.00057475,0.00002685,0.0000
 2280,-0.00001142,0.00000696,-0.06198629,-0.05073199,0.01434380,0.04104
 785,-0.01484124,-0.01918527,0.00191868,0.00167690,-0.00084282,-0.00000
 860,0.00003122,0.00004349,0.00003225,-0.00001875,-0.00002291,-0.000005
 91,-0.00000096,-0.00000033,-0.00028953,-0.00035603,-0.00019954,0.00123
 852,0.00248384,-0.00050403,-0.03116455,-0.00847330,0.00708021,0.001486
 37,0.00126265,-0.00190311,-0.00023310,0.00037344,0.00006792,-0.0000398
 3,-0.00002856,-0.00035391,0.00020979,-0.00018880,0.00013891,-0.0001753
 8,0.00007903,0.00015085,-0.00001367,0.00003610,0.00001937,0.00001169,0
 .00001884,0.00003117,0.00000261,0.00002453,-0.00005629,0.00005017,-0.0
 0002119,0.00000155,-0.00003052,0.00001565,-0.00000473,0.00002617,0.000
 00479,0.00000432,0.00005441,-0.00002405,-0.00002042,0.00000448,0.00002
 780,-0.00001033,-0.00001633,-0.00003739,-0.00001967,0.00000223,0.00000
 776,0.00001972,-0.00000120,-0.00000114,-0.00000190,0.00000192,0.000003
 50,0.00000359,0.00001159,-0.00000139,-0.00000995,0.00002389,-0.0000093
 0,0.00002813,0.00016521,-0.00008500,-0.00009462,0.00001666,0.00002129,
 0.00002794,-0.00003342,-0.00000703,0.00003641,0.00003027,0.00000983,-0
 .00001005,0.00001965,-0.00000014,-0.00000732,0.00002882,-0.00004794,-0
 .00001213,0.00000216,-0.00000003,-0.00000222,0.00020213,0.00019170,0.0
 0005988,0.00019987,-0.00022914,-0.00047377,-0.00018774,-0.00002460,-0.
 00151209,0.05503715,0.07208132,0.00045944,0.00026138,-0.00022952,-0.00
 118531,0.00058453,0.00123808,-0.03574451,-0.00918992,-0.00130875,0.001
 40856,-0.00044961,0.00308640,0.00005371,-0.00025427,0.00043929,0.04104
 941,0.01295352,-0.04698816,0.02186447,-0.01126062,-0.00554187,-0.00058
 929,0.00060969,0.00037512,-0.00002729,0.00002566,0.00002853,-0.0000122
 6,-0.00003337,0.00001197,0.00000235,0.00000158,0.00000697,-0.00020853,
 -0.00013952,-0.00029009,-0.00138339,-0.00132201,0.00073311,0.02640865,
 0.00892764,-0.00532220,-0.00054481,-0.00133363,0.00251289,0.00042731,-
 0.00033769,-0.00038293,-0.00001993,0.00004178,0.00034987,-0.00015882,0
 .00011800,-0.00011905,0.00011608,-0.00007132,-0.00007901,0.00003522,-0
 .00005331,-0.00003235,-0.00002844,-0.00004940,-0.00000333,0.00000536,-
 0.00000990,0.00003850,0.00011644,-0.00003028,-0.00020586,-0.00004087,0
 .00003650,0.00009659,0.00003567,-0.00001438,-0.00002328,-0.00009561,0.
 00005425,-0.00002110,-0.00004404,-0.00007542,0.00009059,0.00003815,0.0
 0008012,-0.00002445,-0.00001915,-0.00001706,0.00002155,0.00000101,0.00
 000210,-0.00000456,-0.00000367,-0.00000619,-0.00000200,-0.00001228,0.0
 0000087,0.00000946,-0.00002390,0.00002047,-0.00002028,-0.00022826,0.00
 003652,0.00010807,-0.00003428,0.00001276,-0.00004323,-0.00005492,-0.00
 000281,0.00005151,0.00000109,-0.00007785,-0.00015572,0.00012346,-0.000
 12159,-0.00007321,0.00000552,-0.00001588,0.00000548,0.00000032,0.00000
 397,-0.00000388,0.00012149,0.00008818,-0.00020704,0.00050027,-0.000353
 25,-0.00040690,-0.00200719,-0.00124388,-0.00572795,-0.05038921,-0.0009
 7470,0.06032062,0.00011802,-0.00008522,0.00026646,0.00000683,0.0005331
 6,-0.00005010,-0.00018468,-0.00043340,-0.00008312,0.00026602,0.0001219
 0,-0.00007524,-0.00002960,0.00000215,0.00008617,-0.00138232,-0.0008203
 6,0.00212288,0.00055588,-0.00113829,-0.00017474,0.00012544,-0.00015890
 ,-0.00017271,0.00053455,-0.00014455,0.00017765,0.00005127,0.00006517,-
 0.00005134,-0.00000135,-0.00001701,0.00000054,0.00009683,-0.00103458,-
 0.00121671,-0.01177094,0.01066339,0.00821710,-0.31707922,-0.05747687,0
 .07878049,-0.02427993,-0.00332008,-0.00896288,-0.00038060,-0.00052878,
 0.00465344,-0.00009204,0.00012006,-0.00104195,0.00087824,-0.00085559,0
 .00029139,-0.00089966,0.00026547,0.00067003,-0.00005459,0.00013301,0.0
 0011212,0.00006089,0.00009228,0.00003764,-0.00000345,0.00004941,-0.000
 14995,-0.00015055,-0.00002548,0.00018166,0.00006089,-0.00002474,-0.000
 10826,-0.00002876,0.00000761,0.00001816,0.00055767,-0.00030677,-0.0000
 4803,0.00004327,0.00005766,-0.00016235,-0.00007203,-0.00013616,0.00001
 742,0.00002562,0.00002333,-0.00000154,-0.00000264,-0.00000086,0.000002
 24,0.00001337,0.00001049,0.00000967,0.00004684,0.00000294,-0.00004160,
 0.00007164,-0.00015758,0.00014426,0.00152276,-0.00007633,-0.00112767,0
 .00020463,0.00004757,0.00031242,0.00008888,-0.00003297,-0.00006897,0.0
 0002474,0.00016862,-0.00002758,0.00000462,-0.00000320,-0.00000518,-0.0
 0001408,-0.00023545,-0.00012998,0.00000099,0.00015369,0.00002512,0.000
 69955,0.00046560,0.00127500,-0.00002412,-0.00008637,-0.00022322,0.0006
 0816,0.00010812,0.00054738,0.00069780,0.00053154,0.00008199,0.34908513
 ,-0.00005784,0.00035105,-0.00025624,-0.00042873,-0.00065469,-0.0000541
 5,-0.00127530,-0.00024844,-0.00148887,0.00062019,0.00002624,0.00046220
 ,0.00016494,-0.00007294,0.00007579,-0.02862759,-0.00445072,0.01215373,
 0.00154687,0.00261992,-0.00153107,0.00012075,0.00054412,-0.00005666,-0
 .00004084,0.00006603,-0.00018493,-0.00007298,-0.00013841,0.00011987,-0
 .00001246,0.00002817,0.00001798,0.00435341,0.00183775,0.00418573,0.035
 87590,-0.00984038,-0.01927121,-0.06323695,-0.05627992,0.02001946,-0.00
 269616,0.00402267,-0.00026963,-0.00015212,0.00029678,0.00120770,0.0005
 6262,0.00012695,0.00040114,-0.00056478,0.00034594,-0.00050597,0.000915
 98,-0.00024251,-0.00042964,-0.00007945,0.00004917,0.00004531,0.0000431
 5,0.00007852,-0.00015184,-0.00002946,-0.00009212,0.00010621,-0.0001205
 8,0.00009654,0.00000735,0.00003760,-0.00004749,-0.00001916,-0.00002218
 ,-0.00000509,0.00000764,0.00009352,-0.00012506,0.00003350,0.00000575,-
 0.00001224,-0.00007067,0.00001376,0.00001878,0.00008753,0.00001202,-0.
 00000019,-0.00007473,0.00000330,-0.00000302,0.00000758,0.00000043,-0.0
 0000128,-0.00000748,-0.00000045,0.00000586,0.00001275,-0.00006670,-0.0
 0007989,-0.00004779,0.00048779,0.00014762,-0.00021969,0.00004281,-0.00
 001123,0.00005003,0.00004219,-0.00002445,-0.00001899,0.00000151,0.0000
 1324,0.00001472,-0.00000746,0.00001249,0.00000823,-0.00013123,0.000104
 46,0.00007310,-0.00010431,-0.00011533,0.00001011,-0.00154471,0.0005114
 9,0.00029614,0.00003442,-0.00015957,0.00000233,0.00066384,0.00020588,0
 .00052641,0.00015314,-0.00405101,0.00357831,0.05347637,0.06514630,-0.0
 0007525,-0.00004078,-0.00027917,-0.00025222,0.00011586,-0.00010001,0.0
 0129468,-0.00004629,0.00110577,-0.00052482,-0.00003949,0.00003711,-0.0
 0002950,-0.00007191,0.00000608,0.02184299,0.00768103,-0.00348616,-0.00
 126423,0.00031110,0.00078602,-0.00013318,-0.00015065,0.00007430,-0.000
 23013,-0.00008067,-0.00006385,-0.00004623,-0.00005356,0.00002041,-0.00
 000176,0.00000727,-0.00000389,0.00350323,0.00089549,0.00318763,0.01720
 117,-0.00843578,-0.00670072,0.08677821,0.02030471,-0.06934808,-0.03677
 760,-0.00390832,-0.00837128,-0.00599403,-0.00082665,0.00299792,-0.0001
 5680,0.00002585,-0.00054885,0.00000657,0.00003332,0.00041518,0.0000680
 4,0.00039175,-0.00020424,-0.00000353,0.00003371,0.00001774,0.00002320,
 0.00004832,0.00005599,0.00000924,0.00003209,-0.00006625,-0.00004351,-0
 .00000445,0.00026946,-0.00001054,-0.00007618,-0.00017000,-0.00000854,0
 .00002389,0.00000849,-0.00005610,-0.00009067,-0.00006641,0.00016773,0.
 00011831,-0.00021730,-0.00007159,-0.00018916,0.00002970,0.00002592,0.0
 0003728,-0.00002230,-0.00000040,-0.00000527,0.00000689,0.00000032,0.00
 001528,0.00000891,0.00003569,0.00001807,-0.00004706,0.00009667,-0.0001
 2807,0.00002649,0.00060636,-0.00044204,-0.00068825,0.00025528,-0.00001
 130,0.00002086,0.00005144,-0.00002972,-0.00003109,0.00007222,0.0001665
 3,-0.00007600,-0.00002508,-0.00000044,0.00000323,-0.00011480,0.0001629
 4,0.00003988,-0.00003178,-0.00008169,-0.00001164,-0.00118931,0.0002603
 3,-0.00002311,-0.00015069,-0.00004901,0.00016679,-0.00053363,-0.000025
 76,-0.00040155,-0.00020562,0.00295683,-0.00230786,-0.08410809,-0.01885
 214,0.08395023\\0.00751455,-0.01183457,-0.00450043,-0.01335971,0.02305
 253,0.00024374,0.01205853,-0.02789809,0.01245418,-0.00056180,0.0148018
 9,0.02579947,0.00019980,-0.01401735,-0.02401706,-0.04235614,0.00832265
 ,-0.00527346,0.00755680,-0.00226619,0.02740487,0.01029105,0.02176982,-
 0.01704819,-0.02184290,0.00961508,0.01548561,0.00931707,0.00336695,-0.
 00446359,-0.00401448,-0.03207115,-0.00981256,0.03837630,0.00745505,-0.
 03407840,-0.00720088,-0.00361150,0.02696003,-0.01961179,0.01994046,-0.
 04341065,0.00704922,-0.02432192,0.00227667,0.00608527,0.02578736,0.003
 77078,0.00627079,-0.01572362,0.02957946,0.01373092,-0.00192271,0.01398
 636,-0.00472661,-0.00699773,-0.03125372,-0.03091980,0.02994468,-0.0035
 1195,0.01954431,0.00349821,0.01295562,-0.00079429,0.01225582,-0.023004
 67,0.00214658,-0.01891950,-0.00208046,0.00301075,-0.01214018,-0.004395
 26,-0.01094874,0.02965362,-0.00751234,-0.01848443,-0.04066898,-0.01913
 866,0.02399099,0.00206768,0.00409080,0.00404215,0.00182789,-0.01416745
 ,0.00162247,-0.01802916,0.02841401,-0.00494703,-0.00135262,-0.00186403
 ,-0.01787802,0.01124199,0.00110300,0.01815293,-0.00547627,-0.00057948,
 -0.01851855,0.00637004,-0.00296181,0.01773346,-0.00868998,0.00123613,-
 0.02032126,0.00943556,0.00160201,0.02106759,-0.00297710,0.00142753,-0.
 00494281,0.00115584,0.01737539,-0.00321372,0.00149896,0.00275198,-0.02
 218987,0.00426282,0.00496228,0.00766770,-0.00347526,0.01747700,0.02809
 507,0.00113778,-0.00216164,-0.01954493,-0.00547273,0.00382334,0.022983
 92,0.00460095,0.00091615,-0.02305016,0.00004498,0.00453816,0.02091969,
 0.00475797,-0.00539879\\\@


 Any fool can criticize, condemn, and complain -- and most do.
 -- Dale Carnegie
 Job cpu time:  0 days 12 hours 48 minutes 53.8 seconds.
 File lengths (MBytes):  RWF=   1326 Int=      0 D2E=      0 Chk=     19 Scr=      1
 Normal termination of Gaussian 09 at Tue Mar  1 16:21:15 2016.
Gaussian '09 finished on node005 at Tue Mar  1 16:21:15 EST 2016.
