Gaussian '09 started on node021 at Thu Mar 24 15:23:11 EDT 2016.
 Entering Gaussian System, Link 0=/usr/local/gaussian/g09/g09
 Initial command:
 /usr/local/gaussian/g09/l1.exe /home/srmcgrat/thesis/gaussian/cellobiose/400K/5456ps/1/2dp/gaussian7095/Gau-7131.inp -scrdir=/home/srmcgrat/thesis/gaussian/cellobiose/400K/5456ps/1/2dp/gaussian7095/
 Entering Link 1 = /usr/local/gaussian/g09/l1.exe PID=      7133.
  
 Copyright (c) 1988,1990,1992,1993,1995,1998,2003,2009,2010,
            Gaussian, Inc.  All Rights Reserved.
  
 This is part of the Gaussian(R) 09 program.  It is based on
 the Gaussian(R) 03 system (copyright 2003, Gaussian, Inc.),
 the Gaussian(R) 98 system (copyright 1998, Gaussian, Inc.),
 the Gaussian(R) 94 system (copyright 1995, Gaussian, Inc.),
 the Gaussian 92(TM) system (copyright 1992, Gaussian, Inc.),
 the Gaussian 90(TM) system (copyright 1990, Gaussian, Inc.),
 the Gaussian 88(TM) system (copyright 1988, Gaussian, Inc.),
 the Gaussian 86(TM) system (copyright 1986, Carnegie Mellon
 University), and the Gaussian 82(TM) system (copyright 1983,
 Carnegie Mellon University). Gaussian is a federally registered
 trademark of Gaussian, Inc.
  
 This software contains proprietary and confidential information,
 including trade secrets, belonging to Gaussian, Inc.
  
 This software is provided under written license and may be
 used, copied, transmitted, or stored only in accord with that
 written license.
  
 The following legend is applicable only to US Government
 contracts under FAR:
  
                    RESTRICTED RIGHTS LEGEND
  
 Use, reproduction and disclosure by the US Government is
 subject to restrictions as set forth in subparagraphs (a)
 and (c) of the Commercial Computer Software - Restricted
 Rights clause in FAR 52.227-19.
  
 Gaussian, Inc.
 340 Quinnipiac St., Bldg. 40, Wallingford CT 06492
  
  
 ---------------------------------------------------------------
 Warning -- This program may not be used in any manner that
 competes with the business of Gaussian, Inc. or will provide
 assistance to any competitor of Gaussian, Inc.  The licensee
 of this program is prohibited from giving any competitor of
 Gaussian, Inc. access to this program.  By using this program,
 the user acknowledges that Gaussian, Inc. is engaged in the
 business of creating and licensing software in the field of
 computational chemistry and represents and warrants to the
 licensee that it is not a competitor of Gaussian, Inc. and that
 it will not use this program in any manner prohibited above.
 ---------------------------------------------------------------
  

 Cite this work as:
 Gaussian 09, Revision B.01,
 M. J. Frisch, G. W. Trucks, H. B. Schlegel, G. E. Scuseria, 
 M. A. Robb, J. R. Cheeseman, G. Scalmani, V. Barone, B. Mennucci, 
 G. A. Petersson, H. Nakatsuji, M. Caricato, X. Li, H. P. Hratchian, 
 A. F. Izmaylov, J. Bloino, G. Zheng, J. L. Sonnenberg, M. Hada, 
 M. Ehara, K. Toyota, R. Fukuda, J. Hasegawa, M. Ishida, T. Nakajima, 
 Y. Honda, O. Kitao, H. Nakai, T. Vreven, J. A. Montgomery, Jr., 
 J. E. Peralta, F. Ogliaro, M. Bearpark, J. J. Heyd, E. Brothers, 
 K. N. Kudin, V. N. Staroverov, T. Keith, R. Kobayashi, J. Normand, 
 K. Raghavachari, A. Rendell, J. C. Burant, S. S. Iyengar, J. Tomasi, 
 M. Cossi, N. Rega, J. M. Millam, M. Klene, J. E. Knox, J. B. Cross, 
 V. Bakken, C. Adamo, J. Jaramillo, R. Gomperts, R. E. Stratmann, 
 O. Yazyev, A. J. Austin, R. Cammi, C. Pomelli, J. W. Ochterski, 
 R. L. Martin, K. Morokuma, V. G. Zakrzewski, G. A. Voth, 
 P. Salvador, J. J. Dannenberg, S. Dapprich, A. D. Daniels, 
 O. Farkas, J. B. Foresman, J. V. Ortiz, J. Cioslowski, 
 and D. J. Fox, Gaussian, Inc., Wallingford CT, 2010.
 
 ******************************************
 Gaussian 09:  EM64L-G09RevB.01 12-Aug-2010
                24-Mar-2016 
 ******************************************
 -------------------------------------------------
 # freq=raman b3lyp/6-31+g(2d,p) geom=connectivity
 -------------------------------------------------
 1/10=4,30=1,38=1,57=2/1,3;
 2/12=2,17=6,18=5,40=1/2;
 3/5=1,6=6,7=112,11=2,16=1,25=1,30=1,71=2,74=-5/1,2,3;
 4//1;
 5/5=2,38=5,98=1/2;
 8/6=4,10=90,11=11/1;
 10/13=10,15=4/2;
 11/6=3,8=1,9=11,15=111,16=1/1,2,10;
 10/6=1/2;
 6/7=2,8=2,9=2,10=2,18=1,28=1/1;
 7/8=1,10=1,25=1/1,2,3,16;
 1/10=4,30=1/3;
 99//99;
 -----------------
 400 5456/5456.com
 -----------------
 Symbolic Z-matrix:
 Charge =  0 Multiplicity = 1
 O                     8.861     7.577     12.028 
 C                     9.448     7.86      13.306 
 C                     9.414     9.296     13.803 
 O                     10.052    10.097    12.798 
 H                     9.613     9.936     11.914 
 C                     9.734     9.528     15.27 
 O                     9.248     10.823    15.651 
 H                     9.423     10.893    16.633 
 C                     9.29      5.371     14.045 
 O                     8.803     4.665     12.895 
 H                     8.911     3.681     13.041 
 C                     9.046     6.838     14.358 
 O                     9.611     7.18      15.632 
 C                     9.305     8.442     16.243 
 O                     9.989     8.536     17.501 
 C                     9.436     8.109     18.754 
 C                     9.83      6.683     19.106 
 O                     9.682     5.76      18.017 
 H                     9.936     6.317     17.226 
 C                     9.209     6.358     20.455 
 O                     9.694     5.06      20.828 
 H                     9.559     5.042     21.818 
 C                     9.347     10.52     19.475 
 O                     9.871     11.359    18.436 
 H                     9.894     12.282    18.82 
 C                     9.868     9.129     19.795 
 O                     9.329     8.729     21.064 
 C                     9.579     7.388     21.51 
 O                     8.728     7.337     22.664 
 H                     9.26689   7.30192   23.4577 
 H                     9.55592   7.4338    11.38133 
 H                     8.92897   4.82857   14.89372 
 H                     10.35297   5.24917   14.03247 
 H                     7.98645   6.93801   14.46869 
 H                     10.49021   7.6734    13.15146 
 H                     8.38228   9.57047   13.73139 
 H                     10.80082   9.57719   15.33618 
 H                     8.24987   8.50985   16.4073 
 H                     9.42575   11.08348   20.38119 
 H                     8.30313   10.40711   19.26885 
 H                     10.93627   9.15163   19.85151 
 H                     8.36952   8.14663   18.67588 
 H                     10.88362   6.71887   19.28903 
 H                     8.14434   6.32206   20.35449 
 H                     10.60348   7.27697   21.79812 
 

 GradGradGradGradGradGradGradGradGradGradGradGradGradGradGradGradGradGrad
 Berny optimization.
 Initialization pass.
 Trust Radius=3.00D-01 FncErr=1.00D-07 GrdErr=1.00D-07
 Number of steps in this run=      2 maximum allowed number of steps=      2.
 GradGradGradGradGradGradGradGradGradGradGradGradGradGradGradGradGradGrad

                          Input orientation:                          
 ---------------------------------------------------------------------
 Center     Atomic      Atomic             Coordinates (Angstroms)
 Number     Number       Type             X           Y           Z
 ---------------------------------------------------------------------
      1          8           0        8.861000    7.577000   12.028000
      2          6           0        9.448000    7.860000   13.306000
      3          6           0        9.414000    9.296000   13.803000
      4          8           0       10.052000   10.097000   12.798000
      5          1           0        9.613000    9.936000   11.914000
      6          6           0        9.734000    9.528000   15.270000
      7          8           0        9.248000   10.823000   15.651000
      8          1           0        9.423000   10.893000   16.633000
      9          6           0        9.290000    5.371000   14.045000
     10          8           0        8.803000    4.665000   12.895000
     11          1           0        8.911000    3.681000   13.041000
     12          6           0        9.046000    6.838000   14.358000
     13          8           0        9.611000    7.180000   15.632000
     14          6           0        9.305000    8.442000   16.243000
     15          8           0        9.989000    8.536000   17.501000
     16          6           0        9.436000    8.109000   18.754000
     17          6           0        9.830000    6.683000   19.106000
     18          8           0        9.682000    5.760000   18.017000
     19          1           0        9.936000    6.317000   17.226000
     20          6           0        9.209000    6.358000   20.455000
     21          8           0        9.694000    5.060000   20.828000
     22          1           0        9.559000    5.042000   21.818000
     23          6           0        9.347000   10.520000   19.475000
     24          8           0        9.871000   11.359000   18.436000
     25          1           0        9.894000   12.282000   18.820000
     26          6           0        9.868000    9.129000   19.795000
     27          8           0        9.329000    8.729000   21.064000
     28          6           0        9.579000    7.388000   21.510000
     29          8           0        8.728000    7.337000   22.664000
     30          1           0        9.266895    7.301923   23.457702
     31          1           0        9.555916    7.433801   11.381327
     32          1           0        8.928965    4.828569   14.893718
     33          1           0       10.352968    5.249175   14.032469
     34          1           0        7.986450    6.938008   14.468693
     35          1           0       10.490209    7.673403   13.151463
     36          1           0        8.382283    9.570469   13.731391
     37          1           0       10.800818    9.577189   15.336182
     38          1           0        8.249868    8.509854   16.407296
     39          1           0        9.425750   11.083484   20.381192
     40          1           0        8.303134   10.407112   19.268846
     41          1           0       10.936267    9.151631   19.851512
     42          1           0        8.369520    8.146633   18.675877
     43          1           0       10.883618    6.718875   19.289033
     44          1           0        8.144338    6.322058   20.354487
     45          1           0       10.603479    7.276968   21.798121
 ---------------------------------------------------------------------
                    Distance matrix (angstroms):
                    1          2          3          4          5
     1  O    0.000000
     2  C    1.434553   0.000000
     3  C    2.532073   1.519954   0.000000
     4  O    2.891674   2.372140   1.434807   0.000000
     5  H    2.478584   2.504928   2.004376   1.000049   0.000000
     6  C    3.883181   2.592550   1.519313   2.556495   3.382875
     7  O    4.879797   3.783965   2.402996   3.051737   3.858129
     8  H    5.702431   4.502071   3.249522   3.966923   4.818808
     9  C    3.019729   2.601193   3.934408   4.946790   5.048239
    10  O    3.038881   3.285266   4.758566   5.574588   5.422352
    11  H    4.025852   4.221686   5.688750   6.521195   6.394369
    12  C    2.451376   1.520787   2.546608   3.750562   3.986506
    13  O    3.702557   2.428836   2.803838   4.090834   4.628073
    14  C    4.325689   2.997523   2.587431   3.894234   4.589896
    15  O    5.669726   4.283419   3.818826   4.955694   5.771997
    16  C    6.771464   5.453700   5.091351   6.309163   7.082009
    17  C    7.199742   5.930536   5.926435   7.176040   7.896452
    18  O    6.312183   5.163165   5.507533   6.795913   7.395292
    19  H    5.455495   4.240919   4.567697   5.823147   6.435747
    20  C    8.521819   7.308989   7.274818   8.562734   9.268980
    21  O    9.190712   8.030006   8.208089   9.485802  10.160774
    22  H   10.136939   8.967028   9.075118  10.351641  11.047324
    23  C    8.022173   6.718807   5.802952   6.727428   7.588184
    24  O    7.509067   6.224053   5.092102   5.780350   6.680417
    25  H    8.326787   7.082175   5.858062   6.408094   7.299008
    26  C    7.984300   6.625246   6.011495   7.066038   7.926313
    27  O    9.121153   7.807425   7.283600   8.409572   9.233634
    28  C    9.511024   8.218611   7.941381   9.135719   9.928579
    29  O   10.639539   9.400218   9.100857  10.329982  11.095068
    30  H   11.440214  10.168643   9.859576  11.047990  11.845472
    31  H    0.960000   1.974248   3.058173   3.057072   2.558906
    32  H    3.971251   3.461187   4.624161   5.780104   5.952518
    33  H    3.415060   2.857120   4.160662   5.011577   5.196325
    34  H    2.670230   2.082799   2.835696   4.127583   4.261464
    35  H    1.981360   1.070000   2.053180   2.488129   2.723997
    36  H    2.665451   2.059712   1.070000   1.984038   2.225126
    37  H    4.325242   2.983370   2.086379   2.696906   3.640191
    38  H    4.519063   3.387605   2.958984   4.335173   4.907314
    39  H    9.076904   7.774940   6.816733   7.672688   8.546644
    40  H    7.794267   6.584378   5.687185   6.710183   7.485416
    41  H    8.245819   6.835713   6.238801   7.171309   8.085194
    42  H    6.690314   5.484602   5.114384   6.417485   7.104299
    43  H    7.586169   6.257783   6.236819   7.364566   8.145887
    44  H    8.450968   7.331164   7.306049   8.659668   9.298352
    45  H    9.928823   8.590179   8.331465   9.447693  10.283353
                    6          7          8          9         10
     6  C    0.000000
     7  O    1.434706   0.000000
     8  H    1.953897   0.999924   0.000000
     9  C    4.356422   5.683776   6.099829   0.000000
    10  O    5.491462   6.761252   7.290064   1.434610   0.000000
    11  H    6.311353   7.611428   8.073262   2.001938   1.000618
    12  C    2.922531   4.194386   4.664845   1.519735   2.630845
    13  O    2.378923   3.661090   3.850158   2.427775   3.803848
    14  C    1.519923   2.454154   2.484638   3.776569   5.072163
    15  O    2.454883   3.033472   2.574729   4.738118   6.132412
    16  C    3.773675   4.126712   3.499924   5.449095   6.825665
    17  C    4.776833   5.423592   4.899539   5.256107   6.610868
    18  O    4.663318   5.605380   5.322615   4.010208   5.310984
    19  H    3.765270   4.822655   4.642693   3.380975   4.771829
    20  C    6.099898   6.558671   5.934619   6.486049   7.757879
    21  O    7.131338   7.759666   7.189948   6.802134   7.992646
    22  H    7.939214   8.458639   7.819010   7.784609   8.962901
    23  C    4.337725   3.837263   2.867380   7.483338   8.824588
    24  O    3.659902   2.903730   1.915377   7.448126   8.755167
    25  H    4.495844   3.548036   2.633274   8.421838   9.711570
    26  C    4.544533   4.519599   3.648008   6.893413   8.286828
    27  O    5.862837   5.804478   4.932088   7.781005   9.139219
    28  C    6.598577   6.799755   6.007869   7.738090   9.068359
    29  O    7.777130   7.848870   7.035703   8.858226  10.128108
    30  H    8.497768   8.564049   7.713414   9.608743  10.896753
    31  H    4.420312   5.459999   6.289975   3.379499   3.244125
    32  H    4.782710   6.050492   6.328230   1.070000   2.009352
    33  H    4.496994   5.908310   6.283340   1.070000   2.009352
    34  H    3.225536   4.252355   4.731793   2.081891   2.882677
    35  H    2.915404   4.208412   4.860642   2.745900   3.458748
    36  H    2.048477   2.450142   3.354328   4.307881   4.994014
    37  H    1.070000   2.015539   2.304664   4.652069   5.837829
    38  H    2.129016   2.630379   2.665814   4.063831   5.236896
    39  H    5.351526   4.740692   3.753030   8.532188   9.880680
    40  H    4.337163   3.762253   2.904802   7.322902   8.593464
    41  H    4.751563   4.825766   3.959944   7.121723   8.548318
    42  H    3.920457   4.133347   3.581299   5.476901   6.762264
    43  H    5.036411   5.723144   5.158608   5.644136   7.030721
    44  H    6.217483   6.602979   6.031413   6.482798   7.669656
    45  H    6.959850   7.224872   6.414647   8.091281   9.451437
                   11         12         13         14         15
    11  H    0.000000
    12  C    3.423356   0.000000
    13  O    4.409794   1.435014   0.000000
    14  C    5.751101   2.488598   1.435131   0.000000
    15  O    6.680173   3.694713   2.339825   1.435011   0.000000
    16  C    7.247150   4.592642   3.261986   2.536370   1.434624
    17  C    6.829406   4.814788   3.516198   3.400952   2.456606
    18  O    5.447684   3.867152   2.776629   3.237643   2.840190
    19  H    5.051074   3.047780   1.841529   2.424887   2.236603
    20  C    7.888126   6.118037   4.909034   4.700342   3.752093
    21  O    7.946829   6.741075   5.612460   5.710645   4.820636
    22  H    8.905501   7.690279   6.545254   6.534917   5.570406
    23  C    9.399913   6.311213   5.098426   3.842613   2.871428
    24  O    9.432884   6.144115   5.039252   3.693033   2.976152
    25  H   10.408666   7.089830   6.022777   4.661915   3.972569
    26  C    8.730010   5.956957   4.603827   3.661372   2.372494
    27  O    9.488180   6.973264   5.655577   4.829595   3.628749
    28  C    9.268874   7.192892   5.881766   5.378409   4.190237
    29  O   10.295725   8.327050   7.088961   6.540886   5.448329
    30  H   11.033831   9.114197   7.834212   7.304324   6.125902
    31  H    4.153787   3.078242   4.258599   4.971447   6.233201
    32  H    2.179404   2.082907   2.557236   3.875415   4.654743
    33  H    2.349778   2.082907   2.614785   4.022290   4.792327
    34  H    3.674398   1.070000   2.012711   2.673711   3.969719
    35  H    4.294809   2.058973   2.677595   3.398979   4.462483
    36  H    5.953320   2.880893   3.291869   2.903967   4.226300
    37  H    6.603357   3.396967   2.692525   2.085292   2.535658
    38  H    5.923417   2.761980   2.054817   1.070000   2.054617
    39  H   10.437440   7.378834   6.150311   4.910871   3.886185
    40  H    9.186738   6.116112   5.035019   3.744482   3.077090
    41  H    8.967306   6.253373   4.842307   4.023178   2.607915
    42  H    7.210195   4.562259   3.426491   2.623215   2.038299
    43  H    7.222037   5.263660   3.899498   3.839208   2.701731
    44  H    7.813453   6.085806   5.018868   4.769236   4.055453
    45  H    9.616790   7.614055   6.246236   5.822604   4.519734
                   16         17         18         19         20
    16  C    0.000000
    17  C    1.520729   0.000000
    18  O    2.474164   1.435184   0.000000
    19  H    2.407498   1.918226   1.000223   0.000000
    20  C    2.451720   1.520219   2.554443   3.310083   0.000000
    21  O    3.696544   2.370213   2.896872   3.822698   1.434977
    22  H    4.337017   3.181394   3.870175   4.780609   1.926688
    23  C    2.518071   3.884845   4.989548   4.803138   4.278047
    24  O    3.294366   4.723934   5.617836   5.185565   5.433655
    25  H    4.198577   5.606665   6.574666   6.174449   6.183545
    26  C    1.520100   2.541472   3.813927   3.809426   2.923751
    27  O    2.394149   2.875914   4.268932   4.573449   2.450902
    28  C    2.852337   2.517785   3.855132   4.430253   1.520140
    29  O    4.047882   3.781730   4.999165   5.663171   2.463632
    30  H    4.775435   4.431417   5.670192   6.344437   3.148104
    31  H    7.404497   7.765912   6.844681   5.962542   9.143808
    32  H    5.091177   4.689786   3.345073   2.944331   5.774550
    33  H    5.595738   5.298119   4.072791   3.393045   6.617179
    34  H    4.672930   4.996831   4.105250   3.433531   6.137337
    35  H    5.717475   6.072337   5.290346   4.329991   7.530832
    36  H    5.335992   6.270549   5.880083   5.021094   7.497355
    37  H    3.962295   4.850809   4.796819   3.866284   6.252948
    38  H    2.659814   3.621770   3.493400   2.884775   4.683409
    39  H    3.390489   4.599325   5.830485   5.738899   4.731028
    40  H    2.613383   4.028256   5.006400   4.854739   4.315421
    41  H    2.131294   2.806021   4.054846   3.991112   3.339465
    42  H    1.070000   2.111925   2.802274   2.811327   2.658799
    43  H    2.077091   1.070000   1.995343   2.305556   2.072210
    44  H    2.724538   2.128486   2.853797   3.605205   1.070000
    45  H    3.364812   2.863317   4.176984   4.719254   2.143140
                   21         22         23         24         25
    21  O    0.000000
    22  H    0.999324   0.000000
    23  C    5.635833   5.961801   0.000000
    24  O    6.740207   7.172151   1.434579   0.000000
    25  H    7.498623   7.843330   1.957774   0.999957   0.000000
    26  C    4.201681   4.570731   1.519448   2.611473   3.300411
    27  O    3.694656   3.770330   2.394353   3.757266   4.240114
    28  C    2.428566   2.366216   3.742255   5.030266   5.593439
    29  O    3.080387   2.583274   4.548007   5.946336   6.370943
    30  H    3.481949   2.807347   5.120971   6.484004   6.833938
    31  H    9.741336  10.707234   8.664630   8.079286   8.885560
    32  H    5.987866   6.956161   7.318147   7.488772   8.479423
    33  H    6.830027   7.828653   7.642952   7.546744   8.520078
    34  H    6.847147   7.751134   6.304354   6.231872   7.150585
    35  H    8.148192   9.104959   7.028311   6.472509   7.329866
    36  H    8.510393   9.342641   5.900960   5.248663   5.960841
    37  H    7.196534   8.007747   4.486902   3.694358   4.502811
    38  H    5.790478   6.558625   3.828210   3.855041   4.770052
    39  H    6.045987   6.211417   1.070000   2.014430   2.023121
    40  H    5.740825   6.071228   1.070000   2.014430   2.499505
    41  H    4.386137   4.759518   2.130719   2.830361   3.456812
    42  H    3.989133   4.574554   2.688297   3.554053   4.409771
    43  H    2.556458   3.310921   4.104185   4.825332   5.669894
    44  H    2.053889   2.404514   4.454504   5.659747   6.398193
    45  H    2.585195   2.467066   4.182450   5.338855   5.867105
                   26         27         28         29         30
    26  C    0.000000
    27  O    1.435577   0.000000
    28  C    2.460859   1.435164   0.000000
    29  O    3.569597   2.204283   1.434754   0.000000
    30  H    4.137018   2.787510   1.974427   0.960000   0.000000
    31  H    8.588421   9.771549  10.128802  11.313422  12.080552
    32  H    6.587720   7.310661   7.123792   8.167612   8.920397
    33  H    6.963835   7.912024   7.815822   9.027894   9.707128
    34  H    6.058896   6.964781   7.233168   8.238456   9.087037
    35  H    6.829530   8.066655   8.412900   9.680232  10.385232
    36  H    6.258562   7.441202   8.167133   9.214087  10.026463
    37  H    4.577344   5.974410   6.663439   7.938006   8.572563
    38  H    3.805027   4.785127   5.390987   6.383615   7.225072
    39  H    2.087873   2.453402   3.867078   4.442320   4.877535
    40  H    2.087873   2.662900   3.970597   4.597083   5.302598
    41  H    1.070000   2.057195   2.775455   4.009915   4.383244
    42  H    2.112564   2.638728   3.173424   4.085234   4.938083
    43  H    2.663867   3.099669   2.661288   4.052058   4.509051
    44  H    3.341101   2.774924   2.128309   2.589328   3.442414
    45  H    2.825500   2.066792   1.070000   2.066585   2.131030
                   31         32         33         34         35
    31  H    0.000000
    32  H    4.417826   0.000000
    33  H    3.526533   1.716521   0.000000
    34  H    3.498694   2.349194   2.939873   0.000000
    35  H    2.015860   3.683207   2.583000   2.923133   0.000000
    36  H    3.386084   4.912787   4.758974   2.762272   2.894568
    37  H    4.667416   5.123377   4.542240   3.954552   2.914426
    38  H    5.303207   4.037814   4.549160   2.509636   4.039706
    39  H    9.712605   8.335654   8.672092   7.363030   8.064162
    40  H    8.521913   7.117130   7.630582   5.930973   7.048322
    41  H    8.752161   6.877342   7.030694   6.525050   6.875665
    42  H    7.424697   5.062336   5.821561   4.394077   5.936364
    43  H    8.050200   5.168434   5.483892   5.628258   6.223798
    44  H    9.151290   5.715430   6.782111   5.920041   7.694984
    45  H   10.470510   7.514615   8.029947   7.790010   8.656482
                   36         37         38         39         40
    36  H    0.000000
    37  H    2.902535   0.000000
    38  H    2.881476   2.965440   0.000000
    39  H    6.899122   5.441678   4.878332   0.000000
    40  H    5.600861   4.732129   3.433787   1.719029   0.000000
    41  H    6.644858   4.537361   4.414888   2.508840   2.974747
    42  H    5.145427   4.371644   2.300589   3.556518   2.337902
    43  H    6.728718   4.878714   4.295190   4.729483   4.501378
    44  H    7.380663   6.544932   4.514189   4.930913   4.229834
    45  H    8.675598   6.861969   6.010033   4.228984   4.635367
                   41         42         43         44         45
    41  H    0.000000
    42  H    2.996720   0.000000
    43  H    2.497490   2.955528   0.000000
    44  H    4.006786   2.489479   2.965858   0.000000
    45  H    2.722939   3.936407   2.585627   3.007210   0.000000
 Stoichiometry    C12H22O11
 Framework group  C1[X(C12H22O11)]
 Deg. of freedom   129
 Full point group                 C1      NOp   1
 Largest Abelian subgroup         C1      NOp   1
 Largest concise Abelian subgroup C1      NOp   1
                         Standard orientation:                         
 ---------------------------------------------------------------------
 Center     Atomic      Atomic             Coordinates (Angstroms)
 Number     Number       Type             X           Y           Z
 ---------------------------------------------------------------------
      1          8           0       -5.081107   -0.416910    0.491898
      2          6           0       -3.796330   -0.091681   -0.057207
      3          6           0       -3.306900    1.341129    0.076109
      4          8           0       -4.306682    2.177479   -0.523577
      5          1           0       -5.196006    1.985078   -0.108629
      6          6           0       -1.836672    1.599053   -0.207121
      7          8           0       -1.468934    2.861640    0.366486
      8          1           0       -0.484911    2.946650    0.210536
      9          6           0       -3.047459   -2.582730   -0.048717
     10          8           0       -4.200764   -3.323144    0.375289
     11          1           0       -4.048433   -4.297578    0.206441
     12          6           0       -2.745131   -1.133215    0.293479
     13          8           0       -1.464954   -0.750539   -0.229943
     14          6           0       -0.864533    0.491602    0.165255
     15          8           0        0.402544    0.634379   -0.493065
     16          6           0        1.649670    0.177703    0.049403
     17          6           0        2.014189   -1.218610   -0.430234
     18          8           0        0.927737   -2.153539   -0.357547
     19          1           0        0.137692   -1.584515   -0.586647
     20          6           0        3.355842   -1.577486    0.188023
     21          8           0        3.742020   -2.840132   -0.373894
     22          1           0        4.730087   -2.862834   -0.226051
     23          6           0        2.357522    2.580845    0.303445
     24          8           0        1.321944    3.447653   -0.180539
     25          1           0        1.701706    4.371743   -0.138674
     26          6           0        2.691671    1.227496   -0.301131
     27          8           0        3.954860    0.798728    0.229333
     28          6           0        4.410915   -0.521644   -0.099802
     29          8           0        5.552994   -0.622650    0.762737
     30          1           0        6.354404   -0.619856    0.234216
     31          1           0       -5.717173   -0.517715   -0.220042
     32          1           0       -2.201288   -3.143866    0.288954
     33          1           0       -3.044351   -2.636025   -1.117384
     34          1           0       -2.649934   -1.101083    1.358751
     35          1           0       -3.935188   -0.211512   -1.111369
     36          1           0       -3.394444    1.548424    1.122181
     37          1           0       -1.755643    1.716979   -1.267511
     38          1           0       -0.715519    0.492145    1.224828
     39          1           0        3.261967    3.151827    0.274133
     40          1           0        2.137173    2.400271    1.334823
     41          1           0        2.763182    1.318973   -1.364812
     42          1           0        1.556280    0.146393    1.114860
     43          1           0        2.211935   -1.114354   -1.476622
     44          1           0        3.240451   -1.682190    1.246617
     45          1           0        4.714045   -0.565446   -1.125030
 ---------------------------------------------------------------------
 Rotational constants (GHZ):      0.3954081      0.1423990      0.1073110
 Standard basis: 6-31+G(2d,p) (6D, 7F)
 There are   685 symmetry adapted basis functions of A   symmetry.
 Integral buffers will be    131072 words long.
 Raffenetti 2 integral format.
 Two-electron integral symmetry is turned on.
   685 basis functions,  1028 primitive gaussians,   685 cartesian basis functions
    91 alpha electrons       91 beta electrons
       nuclear repulsion energy      2264.9902363721 Hartrees.
 NAtoms=   45 NActive=   45 NUniq=   45 SFac= 1.00D+00 NAtFMM=   50 NAOKFM=F Big=F
 One-electron integrals computed using PRISM.
 NBasis=   685 RedAO= T  NBF=   685
 NBsUse=   685 1.00D-06 NBFU=   685
 Harris functional with IExCor=  402 diagonalized for initial guess.
 ExpMin= 4.38D-02 ExpMax= 5.48D+03 ExpMxC= 8.25D+02 IAcc=2 IRadAn=         0 AccDes= 0.00D+00
 HarFok:  IExCor=  402 AccDes= 0.00D+00 IRadAn=         0 IDoV= 1
 ScaDFX=  1.000000  1.000000  1.000000  1.000000
 FoFCou: FMM=F IPFlag=           0 FMFlag=      100000 FMFlg1=           0
         NFxFlg=           0 DoJE=T BraDBF=F KetDBF=T FulRan=T
         Omega=  0.000000  0.000000  1.000000  0.000000  0.000000 ICntrl=     500 IOpCl=  0
         NMat0=    1 NMatS0=    1 NMatT0=    0 NMatD0=    1 NMtDS0=    0 NMtDT0=    0
         I1Cent=           4 NGrid=           0.
 Petite list used in FoFCou.
 Initial guess orbital symmetries:
       Occupied  (A) (A) (A) (A) (A) (A) (A) (A) (A) (A) (A) (A)
                 (A) (A) (A) (A) (A) (A) (A) (A) (A) (A) (A) (A)
                 (A) (A) (A) (A) (A) (A) (A) (A) (A) (A) (A) (A)
                 (A) (A) (A) (A) (A) (A) (A) (A) (A) (A) (A) (A)
                 (A) (A) (A) (A) (A) (A) (A) (A) (A) (A) (A) (A)
                 (A) (A) (A) (A) (A) (A) (A) (A) (A) (A) (A) (A)
                 (A) (A) (A) (A) (A) (A) (A) (A) (A) (A) (A) (A)
                 (A) (A) (A) (A) (A) (A) (A)
       Virtual   (A) (A) (A) (A) (A) (A) (A) (A) (A) (A) (A) (A)
                 (A) (A) (A) (A) (A) (A) (A) (A) (A) (A) (A) (A)
                 (A) (A) (A) (A) (A) (A) (A) (A) (A) (A) (A) (A)
                 (A) (A) (A) (A) (A) (A) (A) (A) (A) (A) (A) (A)
                 (A) (A) (A) (A) (A) (A) (A) (A) (A) (A) (A) (A)
                 (A) (A) (A) (A) (A) (A) (A) (A) (A) (A) (A) (A)
                 (A) (A) (A) (A) (A) (A) (A) (A) (A) (A) (A) (A)
                 (A) (A) (A) (A) (A) (A) (A) (A) (A) (A) (A) (A)
                 (A) (A) (A) (A) (A) (A) (A) (A) (A) (A) (A) (A)
                 (A) (A) (A) (A) (A) (A) (A) (A) (A) (A) (A) (A)
                 (A) (A) (A) (A) (A) (A) (A) (A) (A) (A) (A) (A)
                 (A) (A) (A) (A) (A) (A) (A) (A) (A) (A) (A) (A)
                 (A) (A) (A) (A) (A) (A) (A) (A) (A) (A) (A) (A)
                 (A) (A) (A) (A) (A) (A) (A) (A) (A) (A) (A) (A)
                 (A) (A) (A) (A) (A) (A) (A) (A) (A) (A) (A) (A)
                 (A) (A) (A) (A) (A) (A) (A) (A) (A) (A) (A) (A)
                 (A) (A) (A) (A) (A) (A) (A) (A) (A) (A) (A) (A)
                 (A) (A) (A) (A) (A) (A) (A) (A) (A) (A) (A) (A)
                 (A) (A) (A) (A) (A) (A) (A) (A) (A) (A) (A) (A)
                 (A) (A) (A) (A) (A) (A) (A) (A) (A) (A) (A) (A)
                 (A) (A) (A) (A) (A) (A) (A) (A) (A) (A) (A) (A)
                 (A) (A) (A) (A) (A) (A) (A) (A) (A) (A) (A) (A)
                 (A) (A) (A) (A) (A) (A) (A) (A) (A) (A) (A) (A)
                 (A) (A) (A) (A) (A) (A) (A) (A) (A) (A) (A) (A)
                 (A) (A) (A) (A) (A) (A) (A) (A) (A) (A) (A) (A)
                 (A) (A) (A) (A) (A) (A) (A) (A) (A) (A) (A) (A)
                 (A) (A) (A) (A) (A) (A) (A) (A) (A) (A) (A) (A)
                 (A) (A) (A) (A) (A) (A) (A) (A) (A) (A) (A) (A)
                 (A) (A) (A) (A) (A) (A) (A) (A) (A) (A) (A) (A)
                 (A) (A) (A) (A) (A) (A) (A) (A) (A) (A) (A) (A)
                 (A) (A) (A) (A) (A) (A) (A) (A) (A) (A) (A) (A)
                 (A) (A) (A) (A) (A) (A) (A) (A) (A) (A) (A) (A)
                 (A) (A) (A) (A) (A) (A) (A) (A) (A) (A) (A) (A)
                 (A) (A) (A) (A) (A) (A) (A) (A) (A) (A) (A) (A)
                 (A) (A) (A) (A) (A) (A) (A) (A) (A) (A) (A) (A)
                 (A) (A) (A) (A) (A) (A) (A) (A) (A) (A) (A) (A)
                 (A) (A) (A) (A) (A) (A) (A) (A) (A) (A) (A) (A)
                 (A) (A) (A) (A) (A) (A) (A) (A) (A) (A) (A) (A)
                 (A) (A) (A) (A) (A) (A) (A) (A) (A) (A) (A) (A)
                 (A) (A) (A) (A) (A) (A) (A) (A) (A) (A) (A) (A)
                 (A) (A) (A) (A) (A) (A) (A) (A) (A) (A) (A) (A)
                 (A) (A) (A) (A) (A) (A) (A) (A) (A) (A) (A) (A)
                 (A) (A) (A) (A) (A) (A) (A) (A) (A) (A) (A) (A)
                 (A) (A) (A) (A) (A) (A) (A) (A) (A) (A) (A) (A)
                 (A) (A) (A) (A) (A) (A) (A) (A) (A) (A) (A) (A)
                 (A) (A) (A) (A) (A) (A) (A) (A) (A) (A) (A) (A)
                 (A) (A) (A) (A) (A) (A) (A) (A) (A) (A) (A) (A)
                 (A) (A) (A) (A) (A) (A) (A) (A) (A) (A) (A) (A)
                 (A) (A) (A) (A) (A) (A) (A) (A) (A) (A) (A) (A)
                 (A) (A) (A) (A) (A) (A)
 The electronic state of the initial guess is 1-A.
 Requested convergence on RMS density matrix=1.00D-08 within 128 cycles.
 Requested convergence on MAX density matrix=1.00D-06.
 Requested convergence on             energy=1.00D-06.
 No special actions if energy rises.
 SCF Done:  E(RB3LYP) =  -1297.95982168     A.U. after   13 cycles
             Convg  =    0.5080D-08             -V/T =  2.0065
 Range of M.O.s used for correlation:     1   685
 NBasis=   685 NAE=    91 NBE=    91 NFC=     0 NFV=     0
 NROrb=    685 NOA=    91 NOB=    91 NVA=   594 NVB=   594

 **** Warning!!: The largest alpha MO coefficient is  0.69998432D+02

          Differentiating once with respect to electric field.
                with respect to dipole field.
          Electric field/nuclear overlap derivatives assumed to be zero.
          There are     3 degrees of freedom in the 1st order CPHF.  IDoFFX=0.
      3 vectors produced by pass  0 Test12= 1.80D-12 3.33D-08 XBig12= 1.26D+02 1.13D+00.
 AX will form     3 AO Fock derivatives at one time.
      3 vectors produced by pass  1 Test12= 1.80D-12 3.33D-08 XBig12= 2.22D+01 5.01D-01.
      3 vectors produced by pass  2 Test12= 1.80D-12 3.33D-08 XBig12= 9.34D+00 2.37D-01.
      3 vectors produced by pass  3 Test12= 1.80D-12 3.33D-08 XBig12= 1.02D+00 9.81D-02.
      3 vectors produced by pass  4 Test12= 1.80D-12 3.33D-08 XBig12= 2.84D-01 3.80D-02.
      3 vectors produced by pass  5 Test12= 1.80D-12 3.33D-08 XBig12= 6.23D-02 2.12D-02.
      3 vectors produced by pass  6 Test12= 1.80D-12 3.33D-08 XBig12= 1.96D-02 1.53D-02.
      3 vectors produced by pass  7 Test12= 1.80D-12 3.33D-08 XBig12= 3.00D-03 8.94D-03.
      3 vectors produced by pass  8 Test12= 1.80D-12 3.33D-08 XBig12= 6.06D-04 2.19D-03.
      3 vectors produced by pass  9 Test12= 1.80D-12 3.33D-08 XBig12= 1.82D-04 1.50D-03.
      3 vectors produced by pass 10 Test12= 1.80D-12 3.33D-08 XBig12= 4.20D-05 5.62D-04.
      3 vectors produced by pass 11 Test12= 1.80D-12 3.33D-08 XBig12= 1.05D-05 3.52D-04.
      3 vectors produced by pass 12 Test12= 1.80D-12 3.33D-08 XBig12= 1.49D-06 1.04D-04.
      3 vectors produced by pass 13 Test12= 1.80D-12 3.33D-08 XBig12= 3.56D-07 4.84D-05.
      3 vectors produced by pass 14 Test12= 1.80D-12 3.33D-08 XBig12= 6.73D-08 2.03D-05.
      3 vectors produced by pass 15 Test12= 1.80D-12 3.33D-08 XBig12= 8.97D-09 9.71D-06.
      3 vectors produced by pass 16 Test12= 1.80D-12 3.33D-08 XBig12= 1.39D-09 3.64D-06.
      3 vectors produced by pass 17 Test12= 1.80D-12 3.33D-08 XBig12= 1.31D-10 1.46D-06.
      3 vectors produced by pass 18 Test12= 1.80D-12 3.33D-08 XBig12= 2.15D-11 5.12D-07.
      3 vectors produced by pass 19 Test12= 1.80D-12 3.33D-08 XBig12= 9.72D-12 2.21D-07.
      3 vectors produced by pass 20 Test12= 1.80D-12 3.33D-08 XBig12= 5.81D-12 1.58D-07.
      2 vectors produced by pass 21 Test12= 1.80D-12 3.33D-08 XBig12= 3.49D-12 1.20D-07.
      1 vectors produced by pass 22 Test12= 1.80D-12 3.33D-08 XBig12= 5.99D-13 5.46D-08.
 Inverted reduced A of dimension    66 with in-core refinement.
 End of Minotr Frequency-dependent properties file   721 does not exist.
 End of Minotr Frequency-dependent properties file   722 does not exist.
 Symmetrizing basis deriv contribution to polar:
 IMax=3 JMax=2 DiffMx= 0.00D+00
 G2DrvN: will do    16 centers at a time, making    3 passes doing MaxLOS=2.
 Calling FoFCou, ICntrl=  3107 FMM=F I1Cent=   0 AccDes= 0.00D+00.
 Calling FoFCou, ICntrl=  3107 FMM=F I1Cent=   0 AccDes= 0.00D+00.
 Calling FoFCou, ICntrl=  3107 FMM=F I1Cent=   0 AccDes= 0.00D+00.
 FoFDir/FoFCou used for L=0 through L=2.
 End of G2Drv Frequency-dependent properties file   721 does not exist.
 End of G2Drv Frequency-dependent properties file   722 does not exist.
          IDoAtm=111111111111111111111111111111111111111111111
          Differentiating once with respect to electric field.
                with respect to dipole field.
          Differentiating once with respect to nuclear coordinates.
          There are   138 degrees of freedom in the 1st order CPHF.  IDoFFX=5.
 Will reuse    3 saved solutions.
    135 vectors produced by pass  0 Test12= 5.41D-14 1.00D-09 XBig12= 1.54D-01 7.74D-02.
 AX will form    45 AO Fock derivatives at one time.
    135 vectors produced by pass  1 Test12= 5.41D-14 1.00D-09 XBig12= 2.06D-02 9.78D-03.
    132 vectors produced by pass  2 Test12= 5.41D-14 1.00D-09 XBig12= 1.84D-04 1.39D-03.
    132 vectors produced by pass  3 Test12= 5.41D-14 1.00D-09 XBig12= 5.47D-07 6.66D-05.
    132 vectors produced by pass  4 Test12= 5.41D-14 1.00D-09 XBig12= 1.02D-09 2.33D-06.
    132 vectors produced by pass  5 Test12= 5.41D-14 1.00D-09 XBig12= 2.73D-12 1.09D-07.
     79 vectors produced by pass  6 Test12= 5.41D-14 1.00D-09 XBig12= 1.20D-13 2.00D-08.
 Inverted reduced A of dimension   877 with in-core refinement.
 Isotropic polarizability for W=    0.000000      193.65 Bohr**3.
 End of Minotr Frequency-dependent properties file   721 does not exist.
 End of Minotr Frequency-dependent properties file   722 does not exist.

 **********************************************************************

            Population analysis using the SCF density.

 **********************************************************************

 Orbital symmetries:
       Occupied  (A) (A) (A) (A) (A) (A) (A) (A) (A) (A) (A) (A)
                 (A) (A) (A) (A) (A) (A) (A) (A) (A) (A) (A) (A)
                 (A) (A) (A) (A) (A) (A) (A) (A) (A) (A) (A) (A)
                 (A) (A) (A) (A) (A) (A) (A) (A) (A) (A) (A) (A)
                 (A) (A) (A) (A) (A) (A) (A) (A) (A) (A) (A) (A)
                 (A) (A) (A) (A) (A) (A) (A) (A) (A) (A) (A) (A)
                 (A) (A) (A) (A) (A) (A) (A) (A) (A) (A) (A) (A)
                 (A) (A) (A) (A) (A) (A) (A)
       Virtual   (A) (A) (A) (A) (A) (A) (A) (A) (A) (A) (A) (A)
                 (A) (A) (A) (A) (A) (A) (A) (A) (A) (A) (A) (A)
                 (A) (A) (A) (A) (A) (A) (A) (A) (A) (A) (A) (A)
                 (A) (A) (A) (A) (A) (A) (A) (A) (A) (A) (A) (A)
                 (A) (A) (A) (A) (A) (A) (A) (A) (A) (A) (A) (A)
                 (A) (A) (A) (A) (A) (A) (A) (A) (A) (A) (A) (A)
                 (A) (A) (A) (A) (A) (A) (A) (A) (A) (A) (A) (A)
                 (A) (A) (A) (A) (A) (A) (A) (A) (A) (A) (A) (A)
                 (A) (A) (A) (A) (A) (A) (A) (A) (A) (A) (A) (A)
                 (A) (A) (A) (A) (A) (A) (A) (A) (A) (A) (A) (A)
                 (A) (A) (A) (A) (A) (A) (A) (A) (A) (A) (A) (A)
                 (A) (A) (A) (A) (A) (A) (A) (A) (A) (A) (A) (A)
                 (A) (A) (A) (A) (A) (A) (A) (A) (A) (A) (A) (A)
                 (A) (A) (A) (A) (A) (A) (A) (A) (A) (A) (A) (A)
                 (A) (A) (A) (A) (A) (A) (A) (A) (A) (A) (A) (A)
                 (A) (A) (A) (A) (A) (A) (A) (A) (A) (A) (A) (A)
                 (A) (A) (A) (A) (A) (A) (A) (A) (A) (A) (A) (A)
                 (A) (A) (A) (A) (A) (A) (A) (A) (A) (A) (A) (A)
                 (A) (A) (A) (A) (A) (A) (A) (A) (A) (A) (A) (A)
                 (A) (A) (A) (A) (A) (A) (A) (A) (A) (A) (A) (A)
                 (A) (A) (A) (A) (A) (A) (A) (A) (A) (A) (A) (A)
                 (A) (A) (A) (A) (A) (A) (A) (A) (A) (A) (A) (A)
                 (A) (A) (A) (A) (A) (A) (A) (A) (A) (A) (A) (A)
                 (A) (A) (A) (A) (A) (A) (A) (A) (A) (A) (A) (A)
                 (A) (A) (A) (A) (A) (A) (A) (A) (A) (A) (A) (A)
                 (A) (A) (A) (A) (A) (A) (A) (A) (A) (A) (A) (A)
                 (A) (A) (A) (A) (A) (A) (A) (A) (A) (A) (A) (A)
                 (A) (A) (A) (A) (A) (A) (A) (A) (A) (A) (A) (A)
                 (A) (A) (A) (A) (A) (A) (A) (A) (A) (A) (A) (A)
                 (A) (A) (A) (A) (A) (A) (A) (A) (A) (A) (A) (A)
                 (A) (A) (A) (A) (A) (A) (A) (A) (A) (A) (A) (A)
                 (A) (A) (A) (A) (A) (A) (A) (A) (A) (A) (A) (A)
                 (A) (A) (A) (A) (A) (A) (A) (A) (A) (A) (A) (A)
                 (A) (A) (A) (A) (A) (A) (A) (A) (A) (A) (A) (A)
                 (A) (A) (A) (A) (A) (A) (A) (A) (A) (A) (A) (A)
                 (A) (A) (A) (A) (A) (A) (A) (A) (A) (A) (A) (A)
                 (A) (A) (A) (A) (A) (A) (A) (A) (A) (A) (A) (A)
                 (A) (A) (A) (A) (A) (A) (A) (A) (A) (A) (A) (A)
                 (A) (A) (A) (A) (A) (A) (A) (A) (A) (A) (A) (A)
                 (A) (A) (A) (A) (A) (A) (A) (A) (A) (A) (A) (A)
                 (A) (A) (A) (A) (A) (A) (A) (A) (A) (A) (A) (A)
                 (A) (A) (A) (A) (A) (A) (A) (A) (A) (A) (A) (A)
                 (A) (A) (A) (A) (A) (A) (A) (A) (A) (A) (A) (A)
                 (A) (A) (A) (A) (A) (A) (A) (A) (A) (A) (A) (A)
                 (A) (A) (A) (A) (A) (A) (A) (A) (A) (A) (A) (A)
                 (A) (A) (A) (A) (A) (A) (A) (A) (A) (A) (A) (A)
                 (A) (A) (A) (A) (A) (A) (A) (A) (A) (A) (A) (A)
                 (A) (A) (A) (A) (A) (A) (A) (A) (A) (A) (A) (A)
                 (A) (A) (A) (A) (A) (A) (A) (A) (A) (A) (A) (A)
                 (A) (A) (A) (A) (A) (A)
 The electronic state is 1-A.
 Alpha  occ. eigenvalues --  -19.18928 -19.18911 -19.18884 -19.18326 -19.18100
 Alpha  occ. eigenvalues --  -19.16761 -19.16721 -19.15977 -19.15362 -19.14537
 Alpha  occ. eigenvalues --  -19.14237 -10.31757 -10.31713 -10.26569 -10.26026
 Alpha  occ. eigenvalues --  -10.25899 -10.25509 -10.25461 -10.24854 -10.24541
 Alpha  occ. eigenvalues --  -10.24491 -10.24466 -10.23982  -1.10109  -1.09571
 Alpha  occ. eigenvalues --   -1.05578  -1.05123  -1.04272  -1.03970  -1.03267
 Alpha  occ. eigenvalues --   -1.02411  -1.02143  -1.01193  -1.00773  -0.82881
 Alpha  occ. eigenvalues --   -0.80073  -0.79910  -0.78611  -0.72255  -0.70406
 Alpha  occ. eigenvalues --   -0.68099  -0.65143  -0.63536  -0.62940  -0.61471
 Alpha  occ. eigenvalues --   -0.59622  -0.56936  -0.56327  -0.55858  -0.55156
 Alpha  occ. eigenvalues --   -0.53725  -0.53373  -0.52997  -0.51639  -0.51383
 Alpha  occ. eigenvalues --   -0.51062  -0.50585  -0.49597  -0.48827  -0.46732
 Alpha  occ. eigenvalues --   -0.46565  -0.45442  -0.45006  -0.43941  -0.43507
 Alpha  occ. eigenvalues --   -0.42685  -0.41649  -0.41445  -0.40433  -0.39752
 Alpha  occ. eigenvalues --   -0.38931  -0.38488  -0.37794  -0.36055  -0.35726
 Alpha  occ. eigenvalues --   -0.35483  -0.34797  -0.34266  -0.33859  -0.33503
 Alpha  occ. eigenvalues --   -0.32922  -0.31744  -0.31161  -0.30855  -0.30209
 Alpha  occ. eigenvalues --   -0.29421  -0.28531  -0.28154  -0.27494  -0.27151
 Alpha  occ. eigenvalues --   -0.26472
 Alpha virt. eigenvalues --   -0.02509  -0.02318  -0.01672  -0.00173   0.00130
 Alpha virt. eigenvalues --    0.00753   0.01900   0.02197   0.03078   0.03314
 Alpha virt. eigenvalues --    0.03607   0.04161   0.04378   0.05187   0.05513
 Alpha virt. eigenvalues --    0.06139   0.06301   0.07383   0.07549   0.07738
 Alpha virt. eigenvalues --    0.08392   0.08695   0.08896   0.09475   0.09741
 Alpha virt. eigenvalues --    0.09966   0.10568   0.10958   0.11551   0.11682
 Alpha virt. eigenvalues --    0.12187   0.12838   0.13087   0.13383   0.13467
 Alpha virt. eigenvalues --    0.13835   0.14188   0.14581   0.14682   0.14952
 Alpha virt. eigenvalues --    0.15138   0.15773   0.16399   0.16561   0.16749
 Alpha virt. eigenvalues --    0.17227   0.17524   0.17538   0.17809   0.18297
 Alpha virt. eigenvalues --    0.18508   0.19069   0.19217   0.19406   0.19938
 Alpha virt. eigenvalues --    0.20036   0.20558   0.20991   0.21159   0.21372
 Alpha virt. eigenvalues --    0.21618   0.21740   0.22247   0.22721   0.22926
 Alpha virt. eigenvalues --    0.23304   0.23498   0.24125   0.24318   0.24408
 Alpha virt. eigenvalues --    0.24700   0.24769   0.25015   0.25422   0.25685
 Alpha virt. eigenvalues --    0.25859   0.26262   0.26313   0.26966   0.27042
 Alpha virt. eigenvalues --    0.27385   0.27694   0.27855   0.28044   0.28772
 Alpha virt. eigenvalues --    0.28832   0.28953   0.29407   0.29921   0.30513
 Alpha virt. eigenvalues --    0.30720   0.31523   0.31631   0.31980   0.32220
 Alpha virt. eigenvalues --    0.32342   0.32476   0.33213   0.33339   0.33605
 Alpha virt. eigenvalues --    0.33825   0.34198   0.34681   0.34741   0.35391
 Alpha virt. eigenvalues --    0.35981   0.36426   0.36517   0.36825   0.37050
 Alpha virt. eigenvalues --    0.37824   0.38238   0.38393   0.38815   0.39212
 Alpha virt. eigenvalues --    0.39505   0.39967   0.40104   0.41022   0.41175
 Alpha virt. eigenvalues --    0.41706   0.42216   0.42592   0.42932   0.43361
 Alpha virt. eigenvalues --    0.43863   0.44210   0.45112   0.45555   0.45984
 Alpha virt. eigenvalues --    0.46477   0.47133   0.47761   0.47974   0.48785
 Alpha virt. eigenvalues --    0.50029   0.51621   0.53757   0.58125   0.58238
 Alpha virt. eigenvalues --    0.58656   0.58904   0.59767   0.60914   0.61141
 Alpha virt. eigenvalues --    0.63658   0.64149   0.64665   0.65121   0.65493
 Alpha virt. eigenvalues --    0.66606   0.67987   0.68911   0.69434   0.70074
 Alpha virt. eigenvalues --    0.71075   0.72262   0.72449   0.73093   0.74126
 Alpha virt. eigenvalues --    0.74484   0.75902   0.76092   0.76434   0.77199
 Alpha virt. eigenvalues --    0.78016   0.78997   0.80033   0.81008   0.81390
 Alpha virt. eigenvalues --    0.82235   0.83230   0.83837   0.84473   0.84852
 Alpha virt. eigenvalues --    0.86353   0.87312   0.87855   0.88779   0.89144
 Alpha virt. eigenvalues --    0.89265   0.89372   0.90417   0.91240   0.91565
 Alpha virt. eigenvalues --    0.91644   0.92504   0.92941   0.93328   0.93631
 Alpha virt. eigenvalues --    0.93921   0.95074   0.95192   0.95567   0.96314
 Alpha virt. eigenvalues --    0.96976   0.97265   0.97697   0.98163   0.98300
 Alpha virt. eigenvalues --    0.99407   0.99589   0.99908   1.00135   1.02022
 Alpha virt. eigenvalues --    1.02616   1.03415   1.03926   1.04831   1.05361
 Alpha virt. eigenvalues --    1.05546   1.06791   1.07391   1.07894   1.08389
 Alpha virt. eigenvalues --    1.09248   1.09719   1.10529   1.11332   1.11652
 Alpha virt. eigenvalues --    1.12190   1.12798   1.13024   1.13756   1.14116
 Alpha virt. eigenvalues --    1.14455   1.15422   1.15863   1.16499   1.16687
 Alpha virt. eigenvalues --    1.17237   1.17842   1.18248   1.18536   1.19371
 Alpha virt. eigenvalues --    1.20256   1.21009   1.21433   1.22142   1.22376
 Alpha virt. eigenvalues --    1.22549   1.23160   1.23753   1.24108   1.25230
 Alpha virt. eigenvalues --    1.25497   1.25861   1.26358   1.26741   1.28072
 Alpha virt. eigenvalues --    1.28218   1.28916   1.29155   1.30156   1.31018
 Alpha virt. eigenvalues --    1.31888   1.32180   1.32499   1.34023   1.34102
 Alpha virt. eigenvalues --    1.34451   1.35040   1.35811   1.36640   1.36989
 Alpha virt. eigenvalues --    1.38087   1.38426   1.38871   1.39776   1.40586
 Alpha virt. eigenvalues --    1.40688   1.41330   1.41678   1.42709   1.43167
 Alpha virt. eigenvalues --    1.43708   1.44084   1.44473   1.45498   1.46461
 Alpha virt. eigenvalues --    1.47561   1.48426   1.49603   1.50580   1.51801
 Alpha virt. eigenvalues --    1.52298   1.53021   1.53111   1.55052   1.55499
 Alpha virt. eigenvalues --    1.55925   1.57399   1.58106   1.58520   1.60098
 Alpha virt. eigenvalues --    1.61725   1.62604   1.62925   1.63566   1.64702
 Alpha virt. eigenvalues --    1.65680   1.66236   1.66333   1.67466   1.69384
 Alpha virt. eigenvalues --    1.70308   1.71314   1.72160   1.73227   1.73521
 Alpha virt. eigenvalues --    1.74946   1.75781   1.76478   1.77937   1.78956
 Alpha virt. eigenvalues --    1.79674   1.80880   1.81379   1.82726   1.83938
 Alpha virt. eigenvalues --    1.84854   1.85831   1.86379   1.88081   1.88520
 Alpha virt. eigenvalues --    1.89270   1.89766   1.91414   1.92406   1.93816
 Alpha virt. eigenvalues --    1.94414   1.96130   1.97098   1.97926   1.99209
 Alpha virt. eigenvalues --    2.00579   2.02399   2.02784   2.04022   2.05477
 Alpha virt. eigenvalues --    2.06290   2.07350   2.07737   2.08608   2.09110
 Alpha virt. eigenvalues --    2.11356   2.13689   2.14662   2.15074   2.15803
 Alpha virt. eigenvalues --    2.18120   2.18983   2.21327   2.22671   2.24958
 Alpha virt. eigenvalues --    2.26079   2.28004   2.29124   2.29493   2.32096
 Alpha virt. eigenvalues --    2.33403   2.34739   2.34953   2.36438   2.37388
 Alpha virt. eigenvalues --    2.38707   2.39072   2.41697   2.42262   2.48894
 Alpha virt. eigenvalues --    2.51955   2.54350   2.54505   2.55001   2.57378
 Alpha virt. eigenvalues --    2.58769   2.62221   2.64716   2.66114   2.67838
 Alpha virt. eigenvalues --    2.68175   2.69502   2.71390   2.72038   2.73001
 Alpha virt. eigenvalues --    2.74091   2.74731   2.75801   2.77075   2.79796
 Alpha virt. eigenvalues --    2.80131   2.80634   2.81809   2.83313   2.84207
 Alpha virt. eigenvalues --    2.86794   2.88426   2.89693   2.90747   2.91684
 Alpha virt. eigenvalues --    2.91823   2.93189   2.94385   2.95600   2.96297
 Alpha virt. eigenvalues --    2.96511   2.97203   2.97968   3.00765   3.01247
 Alpha virt. eigenvalues --    3.01684   3.02256   3.02619   3.03459   3.04118
 Alpha virt. eigenvalues --    3.04465   3.04846   3.05764   3.06524   3.07623
 Alpha virt. eigenvalues --    3.07991   3.09535   3.10378   3.11475   3.12693
 Alpha virt. eigenvalues --    3.14204   3.15132   3.16718   3.19013   3.20177
 Alpha virt. eigenvalues --    3.25488   3.27685   3.29632   3.65580   3.77347
 Alpha virt. eigenvalues --    3.93518   3.96432   4.06554   4.09619   4.10406
 Alpha virt. eigenvalues --    4.12395   4.14157   4.15075   4.15794   4.16358
 Alpha virt. eigenvalues --    4.16827   4.18060   4.18936   4.20180   4.20661
 Alpha virt. eigenvalues --    4.22784   4.23007   4.24280   4.24553   4.26123
 Alpha virt. eigenvalues --    4.26590   4.28361   4.28588   4.28972   4.29670
 Alpha virt. eigenvalues --    4.30212   4.30558   4.31228   4.31438   4.31944
 Alpha virt. eigenvalues --    4.33083   4.33720   4.34237   4.34386   4.35441
 Alpha virt. eigenvalues --    4.35991   4.36388   4.36807   4.37182   4.38842
 Alpha virt. eigenvalues --    4.39464   4.39674   4.40953   4.41593   4.42379
 Alpha virt. eigenvalues --    4.43331   4.43835   4.46309   4.46747   4.47930
 Alpha virt. eigenvalues --    4.48765   4.50143   4.51908   4.52731   4.53899
 Alpha virt. eigenvalues --    4.55755   4.56863   4.57502   4.58759   4.59405
 Alpha virt. eigenvalues --    4.60258   4.61338   4.61581   4.63014   4.63892
 Alpha virt. eigenvalues --    4.64293   4.65447   4.66647   4.67075   4.68242
 Alpha virt. eigenvalues --    4.68426   4.68904   4.69253   4.70088   4.70737
 Alpha virt. eigenvalues --    4.71514   4.72241   4.72846   4.72917   4.73790
 Alpha virt. eigenvalues --    4.73987   4.74528   4.74683   4.75693   4.76271
 Alpha virt. eigenvalues --    4.76634   4.77693   4.77920   4.79088   4.79970
 Alpha virt. eigenvalues --    4.80949   4.81218   4.83411   4.83922   4.85370
 Alpha virt. eigenvalues --    4.86495   4.87606   4.88665   4.89119   4.90816
 Alpha virt. eigenvalues --    4.91550   4.92471   4.92914   4.94248   4.95603
 Alpha virt. eigenvalues --    4.96670   4.99473   5.00516   5.01060   5.03174
 Alpha virt. eigenvalues --    5.03796   5.05856   5.08929   5.09561   5.12281
 Alpha virt. eigenvalues --    5.17679   5.19123   5.23607   5.25719   5.32573
 Alpha virt. eigenvalues --    5.41624   5.76810   5.85876   6.06900   6.28822
 Alpha virt. eigenvalues --    6.70377   6.72702   6.76044   6.76879   6.80276
 Alpha virt. eigenvalues --    6.86473   6.89399   6.92888   6.93065   6.98053
 Alpha virt. eigenvalues --    7.03579  11.77749  11.92931  12.05445  12.08771
 Alpha virt. eigenvalues --   12.26107  12.37796  12.62316  12.70011  12.86550
 Alpha virt. eigenvalues --   12.94364  13.07904  13.14710  13.20177  13.21781
 Alpha virt. eigenvalues --   13.24011  13.32856  13.35325  13.37646  13.40895
 Alpha virt. eigenvalues --   13.50119  13.64254  13.67921  13.74688
          Condensed to atoms (all electrons):
              1          2          3          4          5          6
     1  O    8.176917   0.451527  -0.170611   0.003495   0.015385   0.022650
     2  C    0.451527   7.187549  -0.934719   0.009008  -0.037819  -0.596679
     3  C   -0.170611  -0.934719   7.761832   0.129157  -0.021478  -0.459218
     4  O    0.003495   0.009008   0.129157   8.206294   0.244761  -0.032048
     5  H    0.015385  -0.037819  -0.021478   0.244761   0.420686   0.034967
     6  C    0.022650  -0.596679  -0.459218  -0.032048   0.034967   8.244566
     7  O    0.000141   0.009386  -0.073075   0.004823  -0.000475   0.227147
     8  H    0.000004   0.000354  -0.004849  -0.000182   0.000009   0.020928
     9  C   -0.020303  -0.404895  -0.165440   0.004877  -0.000630   0.411481
    10  O   -0.016385  -0.005752   0.016465  -0.000126  -0.000003  -0.008598
    11  H    0.001004  -0.009354  -0.002267   0.000000   0.000000   0.000434
    12  C   -0.159270  -0.687044  -0.418810   0.030552   0.009280   0.294032
    13  O   -0.000742  -0.005907  -0.041603  -0.003636   0.000135  -0.051833
    14  C   -0.006534   0.611576   0.039072   0.004066  -0.002637  -2.063189
    15  O   -0.000059  -0.005003  -0.006049   0.000596  -0.000021   0.042922
    16  C    0.000646   0.112463   0.013746  -0.000557   0.000225  -0.102138
    17  C   -0.000063  -0.024078   0.007907   0.000158   0.000017  -0.000262
    18  O   -0.000004   0.010037  -0.002565  -0.000012   0.000000   0.008142
    19  H   -0.000019  -0.007355   0.008110   0.000001   0.000000   0.005113
    20  C    0.000035   0.011597  -0.007464  -0.000023   0.000000   0.048116
    21  O    0.000000  -0.000044   0.000028   0.000000   0.000000  -0.000004
    22  H    0.000000   0.000000   0.000001   0.000000   0.000000  -0.000040
    23  C    0.000037   0.014124  -0.021253  -0.000073  -0.000004  -0.046688
    24  O   -0.000001  -0.000470  -0.005825  -0.000052  -0.000001   0.013989
    25  H    0.000000   0.000111   0.001050   0.000001   0.000000  -0.000977
    26  C    0.000025  -0.012037  -0.025019   0.000085   0.000003  -0.171378
    27  O    0.000000  -0.000161   0.000333   0.000000   0.000000   0.001685
    28  C    0.000000  -0.000320   0.001246   0.000004   0.000000  -0.008339
    29  O    0.000000  -0.000005   0.000005   0.000000   0.000000  -0.000217
    30  H    0.000000   0.000000   0.000000   0.000000   0.000000   0.000003
    31  H    0.266375  -0.010377  -0.006084  -0.000399  -0.001519  -0.005826
    32  H   -0.000044  -0.018158   0.005174   0.000007   0.000000  -0.004885
    33  H    0.001057   0.004180  -0.010575   0.000000   0.000000   0.014093
    34  H    0.001837   0.122705  -0.077884   0.000047   0.000003  -0.026323
    35  H   -0.029376   0.435064  -0.079185  -0.005250  -0.000211  -0.023027
    36  H   -0.002532   0.002896   0.334182  -0.037747  -0.005809  -0.171650
    37  H   -0.000397  -0.016672  -0.070552  -0.002572  -0.000110   0.348662
    38  H    0.000018  -0.014127  -0.032024  -0.000238   0.000004   0.027023
    39  H    0.000000   0.000004   0.000072   0.000000   0.000000   0.004133
    40  H    0.000000   0.000012  -0.000147   0.000000   0.000000  -0.007867
    41  H    0.000000  -0.000174   0.000424   0.000000   0.000000  -0.003102
    42  H   -0.000001  -0.001643   0.002970   0.000001   0.000000   0.012379
    43  H    0.000000   0.000757  -0.000162   0.000000   0.000000   0.008581
    44  H    0.000000   0.000137  -0.000016   0.000000   0.000000   0.000735
    45  H    0.000000  -0.000001   0.000005   0.000000   0.000000  -0.000113
              7          8          9         10         11         12
     1  O    0.000141   0.000004  -0.020303  -0.016385   0.001004  -0.159270
     2  C    0.009386   0.000354  -0.404895  -0.005752  -0.009354  -0.687044
     3  C   -0.073075  -0.004849  -0.165440   0.016465  -0.002267  -0.418810
     4  O    0.004823  -0.000182   0.004877  -0.000126   0.000000   0.030552
     5  H   -0.000475   0.000009  -0.000630  -0.000003   0.000000   0.009280
     6  C    0.227147   0.020928   0.411481  -0.008598   0.000434   0.294032
     7  O    8.244068   0.240120  -0.002109   0.000001   0.000000   0.004839
     8  H    0.240120   0.358656   0.000390   0.000000   0.000000   0.001180
     9  C   -0.002109   0.000390   6.628435   0.091162  -0.016629  -0.679221
    10  O    0.000001   0.000000   0.091162   8.240115   0.230989   0.056590
    11  H    0.000000   0.000000  -0.016629   0.230989   0.441361   0.029170
    12  C    0.004839   0.001180  -0.679221   0.056590   0.029170   8.593959
    13  O    0.000611   0.000445  -0.043177  -0.001363  -0.000297   0.015388
    14  C   -0.015906  -0.028937  -0.500080   0.008244  -0.002482  -1.027180
    15  O   -0.000457   0.009027  -0.002671   0.000035   0.000001   0.004554
    16  C   -0.000519  -0.002501  -0.115914  -0.000448  -0.000038  -0.029660
    17  C   -0.001251  -0.000361   0.010946  -0.000175  -0.000016  -0.078743
    18  O   -0.000013  -0.000024  -0.000931  -0.000112  -0.000004  -0.015875
    19  H   -0.000017  -0.000002   0.004972   0.000015  -0.000002  -0.005436
    20  C    0.000271   0.000442  -0.000872   0.000048   0.000007  -0.013691
    21  O    0.000000   0.000000   0.000144   0.000000   0.000000  -0.000201
    22  H    0.000000   0.000000  -0.000007   0.000000   0.000000   0.000029
    23  C    0.022797   0.004368   0.000333  -0.000007   0.000000  -0.015384
    24  O   -0.039473   0.021450  -0.000119   0.000000   0.000000   0.001238
    25  H    0.003079  -0.001763  -0.000006   0.000000   0.000000  -0.000276
    26  C   -0.019521  -0.009099   0.001699  -0.000032   0.000000   0.027108
    27  O    0.000007  -0.000134   0.000000   0.000000   0.000000   0.000285
    28  C    0.000015  -0.000101  -0.002127   0.000001   0.000000   0.007292
    29  O   -0.000001   0.000000  -0.000003   0.000000   0.000000   0.000022
    30  H    0.000000   0.000000   0.000000   0.000000   0.000000   0.000000
    31  H   -0.000028   0.000000   0.002645  -0.000144  -0.000018   0.011573
    32  H   -0.000009   0.000000   0.419905  -0.029482  -0.009895  -0.037312
    33  H    0.000006   0.000000   0.614969  -0.057016  -0.002275  -0.263798
    34  H    0.000168   0.000003   0.042413  -0.000819  -0.000197   0.071262
    35  H    0.000412   0.000003  -0.046287  -0.001599  -0.000023  -0.101218
    36  H    0.000661  -0.000084   0.002180  -0.000053   0.000000   0.030079
    37  H   -0.041751  -0.003089   0.009503   0.000009   0.000000   0.057431
    38  H   -0.001733  -0.000342   0.019433   0.000042   0.000000   0.059534
    39  H   -0.000435   0.000279  -0.000002   0.000000   0.000000   0.000022
    40  H    0.001193  -0.000479   0.000019   0.000000   0.000000   0.000219
    41  H   -0.000045  -0.000008   0.000075   0.000000   0.000000   0.000487
    42  H   -0.000659  -0.000059   0.000473   0.000001   0.000000   0.001821
    43  H   -0.000011   0.000000  -0.000170   0.000000   0.000000  -0.000901
    44  H    0.000000   0.000000  -0.000195   0.000000   0.000000   0.000491
    45  H    0.000000   0.000000  -0.000001   0.000000   0.000000   0.000027
             13         14         15         16         17         18
     1  O   -0.000742  -0.006534  -0.000059   0.000646  -0.000063  -0.000004
     2  C   -0.005907   0.611576  -0.005003   0.112463  -0.024078   0.010037
     3  C   -0.041603   0.039072  -0.006049   0.013746   0.007907  -0.002565
     4  O   -0.003636   0.004066   0.000596  -0.000557   0.000158  -0.000012
     5  H    0.000135  -0.002637  -0.000021   0.000225   0.000017   0.000000
     6  C   -0.051833  -2.063189   0.042922  -0.102138  -0.000262   0.008142
     7  O    0.000611  -0.015906  -0.000457  -0.000519  -0.001251  -0.000013
     8  H    0.000445  -0.028937   0.009027  -0.002501  -0.000361  -0.000024
     9  C   -0.043177  -0.500080  -0.002671  -0.115914   0.010946  -0.000931
    10  O   -0.001363   0.008244   0.000035  -0.000448  -0.000175  -0.000112
    11  H   -0.000297  -0.002482   0.000001  -0.000038  -0.000016  -0.000004
    12  C    0.015388  -1.027180   0.004554  -0.029660  -0.078743  -0.015875
    13  O    8.168246   0.244480   0.005163   0.040955  -0.014926  -0.014824
    14  C    0.244480   8.615440   0.125727  -0.608566   0.038527  -0.009873
    15  O    0.005163   0.125727   8.149346   0.072737   0.011501  -0.007924
    16  C    0.040955  -0.608566   0.072737  10.166189  -2.179258  -0.002358
    17  C   -0.014926   0.038527   0.011501  -2.179258   8.196566   0.233925
    18  O   -0.014824  -0.009873  -0.007924  -0.002358   0.233925   8.203489
    19  H    0.017248   0.010722   0.020944  -0.094943   0.055899   0.226900
    20  C   -0.009716  -0.142198   0.016903  -0.537804   0.130495  -0.048689
    21  O   -0.000076   0.004900  -0.000138   0.065305  -0.137963   0.013748
    22  H    0.000004  -0.001030   0.000000  -0.012731  -0.015872  -0.000357
    23  C    0.003269   0.062013  -0.014782   0.419507  -0.308446   0.009585
    24  O   -0.000017   0.052189  -0.017213   0.032074  -0.000883   0.000003
    25  H   -0.000017  -0.010041   0.002095  -0.008757  -0.000282   0.000000
    26  C   -0.012224  -0.030058  -0.043198  -2.243279   0.554626  -0.005142
    27  O    0.000287   0.003384  -0.000050   0.047233  -0.089676  -0.000703
    28  C    0.002680  -0.031984   0.005820   0.597516  -0.598807  -0.012806
    29  O    0.000011   0.000722  -0.000186  -0.020868   0.006436  -0.000003
    30  H    0.000000   0.000061  -0.000003   0.002863   0.008016  -0.000002
    31  H   -0.000347  -0.000023   0.000001   0.000100  -0.000020   0.000000
    32  H    0.000959   0.000808  -0.000030   0.002539  -0.000224  -0.000170
    33  H   -0.003067   0.001748  -0.000293  -0.004531   0.002137  -0.000156
    34  H   -0.033359   0.134887  -0.001714  -0.002535   0.005674  -0.000459
    35  H    0.002689   0.094270  -0.000327  -0.001366   0.000879   0.000021
    36  H    0.001191   0.079290   0.000176  -0.003339   0.000034   0.000019
    37  H    0.006218   0.001870  -0.013630  -0.033544  -0.002334   0.000142
    38  H   -0.037512   0.301951  -0.043430  -0.054410   0.016308  -0.001955
    39  H    0.000025   0.001165   0.000567   0.022324   0.004014   0.000009
    40  H    0.000008   0.007437   0.002794   0.060790  -0.017074   0.000088
    41  H   -0.000247   0.033216   0.001147   0.000675  -0.059606   0.000118
    42  H   -0.002833  -0.015837  -0.016749   0.127481   0.047156  -0.003065
    43  H   -0.000428  -0.008091  -0.001849  -0.113463   0.324629  -0.037818
    44  H    0.000118  -0.008939   0.000523   0.076202  -0.216885   0.005334
    45  H    0.000011   0.000980   0.000235   0.051252  -0.021872   0.000374
             19         20         21         22         23         24
     1  O   -0.000019   0.000035   0.000000   0.000000   0.000037  -0.000001
     2  C   -0.007355   0.011597  -0.000044   0.000000   0.014124  -0.000470
     3  C    0.008110  -0.007464   0.000028   0.000001  -0.021253  -0.005825
     4  O    0.000001  -0.000023   0.000000   0.000000  -0.000073  -0.000052
     5  H    0.000000   0.000000   0.000000   0.000000  -0.000004  -0.000001
     6  C    0.005113   0.048116  -0.000004  -0.000040  -0.046688   0.013989
     7  O   -0.000017   0.000271   0.000000   0.000000   0.022797  -0.039473
     8  H   -0.000002   0.000442   0.000000   0.000000   0.004368   0.021450
     9  C    0.004972  -0.000872   0.000144  -0.000007   0.000333  -0.000119
    10  O    0.000015   0.000048   0.000000   0.000000  -0.000007   0.000000
    11  H   -0.000002   0.000007   0.000000   0.000000   0.000000   0.000000
    12  C   -0.005436  -0.013691  -0.000201   0.000029  -0.015384   0.001238
    13  O    0.017248  -0.009716  -0.000076   0.000004   0.003269  -0.000017
    14  C    0.010722  -0.142198   0.004900  -0.001030   0.062013   0.052189
    15  O    0.020944   0.016903  -0.000138   0.000000  -0.014782  -0.017213
    16  C   -0.094943  -0.537804   0.065305  -0.012731   0.419507   0.032074
    17  C    0.055899   0.130495  -0.137963  -0.015872  -0.308446  -0.000883
    18  O    0.226900  -0.048689   0.013748  -0.000357   0.009585   0.000003
    19  H    0.373741   0.005183  -0.000521   0.000010  -0.004883   0.000023
    20  C    0.005183   6.168306   0.164412   0.015997   0.007346  -0.004022
    21  O   -0.000521   0.164412   8.225482   0.216493   0.001610   0.000002
    22  H    0.000010   0.015997   0.216493   0.453996  -0.000144   0.000000
    23  C   -0.004883   0.007346   0.001610  -0.000144   6.249601   0.019113
    24  O    0.000023  -0.004022   0.000002   0.000000   0.019113   8.299515
    25  H    0.000000   0.000814   0.000000   0.000000   0.006082   0.235104
    26  C   -0.004368   0.119716  -0.027151   0.006801  -1.127601   0.007981
    27  O   -0.000072  -0.066308   0.001444   0.000333  -0.059841   0.002022
    28  C    0.001543  -0.195209   0.031407   0.002812  -0.028439   0.003537
    29  O   -0.000010   0.022698  -0.014324   0.011237   0.006548  -0.000044
    30  H    0.000000  -0.024219   0.000995  -0.001595   0.000173  -0.000001
    31  H    0.000000   0.000000   0.000000   0.000000   0.000000   0.000000
    32  H    0.000235  -0.000791  -0.000002   0.000000   0.000002   0.000000
    33  H    0.000053   0.000188   0.000000   0.000000   0.000004   0.000000
    34  H    0.000150   0.000646  -0.000001   0.000000   0.000304   0.000002
    35  H   -0.000011   0.000014   0.000000   0.000000   0.000115   0.000004
    36  H   -0.000002  -0.000044   0.000000   0.000000   0.000508   0.000030
    37  H   -0.000054   0.000001   0.000000   0.000000   0.000595  -0.000275
    38  H    0.000171   0.007284   0.000003   0.000000  -0.004122   0.000004
    39  H    0.000000   0.001005  -0.000011   0.000000   0.385601  -0.013450
    40  H    0.000000  -0.000022   0.000008   0.000000   0.626246  -0.066887
    41  H    0.000039  -0.011634   0.000133   0.000005   0.069302   0.002038
    42  H    0.000573   0.045173  -0.000323   0.000004  -0.024317   0.000316
    43  H   -0.002787  -0.013201  -0.001368  -0.000235   0.008298  -0.000022
    44  H   -0.000177   0.352149  -0.026376  -0.001418   0.006489   0.000018
    45  H   -0.000001  -0.144694   0.002908  -0.000301   0.000114   0.000028
             25         26         27         28         29         30
     1  O    0.000000   0.000025   0.000000   0.000000   0.000000   0.000000
     2  C    0.000111  -0.012037  -0.000161  -0.000320  -0.000005   0.000000
     3  C    0.001050  -0.025019   0.000333   0.001246   0.000005   0.000000
     4  O    0.000001   0.000085   0.000000   0.000004   0.000000   0.000000
     5  H    0.000000   0.000003   0.000000   0.000000   0.000000   0.000000
     6  C   -0.000977  -0.171378   0.001685  -0.008339  -0.000217   0.000003
     7  O    0.003079  -0.019521   0.000007   0.000015  -0.000001   0.000000
     8  H   -0.001763  -0.009099  -0.000134  -0.000101   0.000000   0.000000
     9  C   -0.000006   0.001699   0.000000  -0.002127  -0.000003   0.000000
    10  O    0.000000  -0.000032   0.000000   0.000001   0.000000   0.000000
    11  H    0.000000   0.000000   0.000000   0.000000   0.000000   0.000000
    12  C   -0.000276   0.027108   0.000285   0.007292   0.000022   0.000000
    13  O   -0.000017  -0.012224   0.000287   0.002680   0.000011   0.000000
    14  C   -0.010041  -0.030058   0.003384  -0.031984   0.000722   0.000061
    15  O    0.002095  -0.043198  -0.000050   0.005820  -0.000186  -0.000003
    16  C   -0.008757  -2.243279   0.047233   0.597516  -0.020868   0.002863
    17  C   -0.000282   0.554626  -0.089676  -0.598807   0.006436   0.008016
    18  O    0.000000  -0.005142  -0.000703  -0.012806  -0.000003  -0.000002
    19  H    0.000000  -0.004368  -0.000072   0.001543  -0.000010   0.000000
    20  C    0.000814   0.119716  -0.066308  -0.195209   0.022698  -0.024219
    21  O    0.000000  -0.027151   0.001444   0.031407  -0.014324   0.000995
    22  H    0.000000   0.006801   0.000333   0.002812   0.011237  -0.001595
    23  C    0.006082  -1.127601  -0.059841  -0.028439   0.006548   0.000173
    24  O    0.235104   0.007981   0.002022   0.003537  -0.000044  -0.000001
    25  H    0.423892   0.009879  -0.000664  -0.000811  -0.000002   0.000000
    26  C    0.009879   9.392001   0.112379  -0.469383  -0.016453  -0.005281
    27  O   -0.000664   0.112379   8.213909   0.201403  -0.075804   0.000016
    28  C   -0.000811  -0.469383   0.201403   5.631731   0.248445   0.007677
    29  O   -0.000002  -0.016453  -0.075804   0.248445   8.089215   0.266516
    30  H    0.000000  -0.005281   0.000016   0.007677   0.266516   0.421076
    31  H    0.000000   0.000000   0.000000   0.000000   0.000000   0.000000
    32  H    0.000000   0.000115   0.000000   0.000056   0.000000   0.000000
    33  H    0.000000  -0.000085   0.000000  -0.000023   0.000000   0.000000
    34  H    0.000000  -0.000542   0.000000  -0.000066   0.000000   0.000000
    35  H    0.000000  -0.000202   0.000000  -0.000004   0.000000   0.000000
    36  H    0.000000  -0.000252   0.000000   0.000000   0.000000   0.000000
    37  H   -0.000001   0.001986  -0.000003   0.000015   0.000000   0.000000
    38  H    0.000004   0.012196   0.000128  -0.000453  -0.000002   0.000000
    39  H   -0.016905  -0.058280  -0.005113  -0.003698  -0.000171   0.000000
    40  H    0.002073  -0.320594   0.004232   0.004802  -0.000179   0.000000
    41  H   -0.000200   0.198453  -0.024949   0.038979  -0.001362   0.000023
    42  H   -0.000018   0.060058   0.006660  -0.000195  -0.000620   0.000004
    43  H    0.000000   0.080551   0.000873  -0.018621   0.000427   0.000008
    44  H    0.000000   0.017219   0.001495   0.046822  -0.002969   0.000032
    45  H    0.000000  -0.014227  -0.045762   0.467646  -0.026796  -0.009189
             31         32         33         34         35         36
     1  O    0.266375  -0.000044   0.001057   0.001837  -0.029376  -0.002532
     2  C   -0.010377  -0.018158   0.004180   0.122705   0.435064   0.002896
     3  C   -0.006084   0.005174  -0.010575  -0.077884  -0.079185   0.334182
     4  O   -0.000399   0.000007   0.000000   0.000047  -0.005250  -0.037747
     5  H   -0.001519   0.000000   0.000000   0.000003  -0.000211  -0.005809
     6  C   -0.005826  -0.004885   0.014093  -0.026323  -0.023027  -0.171650
     7  O   -0.000028  -0.000009   0.000006   0.000168   0.000412   0.000661
     8  H    0.000000   0.000000   0.000000   0.000003   0.000003  -0.000084
     9  C    0.002645   0.419905   0.614969   0.042413  -0.046287   0.002180
    10  O   -0.000144  -0.029482  -0.057016  -0.000819  -0.001599  -0.000053
    11  H   -0.000018  -0.009895  -0.002275  -0.000197  -0.000023   0.000000
    12  C    0.011573  -0.037312  -0.263798   0.071262  -0.101218   0.030079
    13  O   -0.000347   0.000959  -0.003067  -0.033359   0.002689   0.001191
    14  C   -0.000023   0.000808   0.001748   0.134887   0.094270   0.079290
    15  O    0.000001  -0.000030  -0.000293  -0.001714  -0.000327   0.000176
    16  C    0.000100   0.002539  -0.004531  -0.002535  -0.001366  -0.003339
    17  C   -0.000020  -0.000224   0.002137   0.005674   0.000879   0.000034
    18  O    0.000000  -0.000170  -0.000156  -0.000459   0.000021   0.000019
    19  H    0.000000   0.000235   0.000053   0.000150  -0.000011  -0.000002
    20  C    0.000000  -0.000791   0.000188   0.000646   0.000014  -0.000044
    21  O    0.000000  -0.000002   0.000000  -0.000001   0.000000   0.000000
    22  H    0.000000   0.000000   0.000000   0.000000   0.000000   0.000000
    23  C    0.000000   0.000002   0.000004   0.000304   0.000115   0.000508
    24  O    0.000000   0.000000   0.000000   0.000002   0.000004   0.000030
    25  H    0.000000   0.000000   0.000000   0.000000   0.000000   0.000000
    26  C    0.000000   0.000115  -0.000085  -0.000542  -0.000202  -0.000252
    27  O    0.000000   0.000000   0.000000   0.000000   0.000000   0.000000
    28  C    0.000000   0.000056  -0.000023  -0.000066  -0.000004   0.000000
    29  O    0.000000   0.000000   0.000000   0.000000   0.000000   0.000000
    30  H    0.000000   0.000000   0.000000   0.000000   0.000000   0.000000
    31  H    0.417486   0.000011  -0.000120  -0.000203  -0.015213  -0.000128
    32  H    0.000011   0.571143  -0.047686  -0.007619   0.000014   0.000005
    33  H   -0.000120  -0.047686   0.601407   0.007478   0.003721  -0.000001
    34  H   -0.000203  -0.007619   0.007478   0.644996   0.007933   0.001885
    35  H   -0.015213   0.000014   0.003721   0.007933   0.637759   0.007591
    36  H   -0.000128   0.000005  -0.000001   0.001885   0.007591   0.627273
    37  H    0.000011   0.000001  -0.000009  -0.000044   0.001060   0.007416
    38  H    0.000001  -0.000015  -0.000004   0.003919  -0.000001   0.001403
    39  H    0.000000   0.000000   0.000000   0.000000   0.000000   0.000000
    40  H    0.000000   0.000000   0.000000   0.000000   0.000000   0.000000
    41  H    0.000000   0.000000   0.000000   0.000000   0.000000   0.000000
    42  H    0.000000  -0.000001   0.000000  -0.000002   0.000000   0.000000
    43  H    0.000000   0.000000   0.000000   0.000000   0.000000   0.000000
    44  H    0.000000   0.000000   0.000000   0.000000   0.000000   0.000000
    45  H    0.000000   0.000000   0.000000   0.000000   0.000000   0.000000
             37         38         39         40         41         42
     1  O   -0.000397   0.000018   0.000000   0.000000   0.000000  -0.000001
     2  C   -0.016672  -0.014127   0.000004   0.000012  -0.000174  -0.001643
     3  C   -0.070552  -0.032024   0.000072  -0.000147   0.000424   0.002970
     4  O   -0.002572  -0.000238   0.000000   0.000000   0.000000   0.000001
     5  H   -0.000110   0.000004   0.000000   0.000000   0.000000   0.000000
     6  C    0.348662   0.027023   0.004133  -0.007867  -0.003102   0.012379
     7  O   -0.041751  -0.001733  -0.000435   0.001193  -0.000045  -0.000659
     8  H   -0.003089  -0.000342   0.000279  -0.000479  -0.000008  -0.000059
     9  C    0.009503   0.019433  -0.000002   0.000019   0.000075   0.000473
    10  O    0.000009   0.000042   0.000000   0.000000   0.000000   0.000001
    11  H    0.000000   0.000000   0.000000   0.000000   0.000000   0.000000
    12  C    0.057431   0.059534   0.000022   0.000219   0.000487   0.001821
    13  O    0.006218  -0.037512   0.000025   0.000008  -0.000247  -0.002833
    14  C    0.001870   0.301951   0.001165   0.007437   0.033216  -0.015837
    15  O   -0.013630  -0.043430   0.000567   0.002794   0.001147  -0.016749
    16  C   -0.033544  -0.054410   0.022324   0.060790   0.000675   0.127481
    17  C   -0.002334   0.016308   0.004014  -0.017074  -0.059606   0.047156
    18  O    0.000142  -0.001955   0.000009   0.000088   0.000118  -0.003065
    19  H   -0.000054   0.000171   0.000000   0.000000   0.000039   0.000573
    20  C    0.000001   0.007284   0.001005  -0.000022  -0.011634   0.045173
    21  O    0.000000   0.000003  -0.000011   0.000008   0.000133  -0.000323
    22  H    0.000000   0.000000   0.000000   0.000000   0.000005   0.000004
    23  C    0.000595  -0.004122   0.385601   0.626246   0.069302  -0.024317
    24  O   -0.000275   0.000004  -0.013450  -0.066887   0.002038   0.000316
    25  H   -0.000001   0.000004  -0.016905   0.002073  -0.000200  -0.000018
    26  C    0.001986   0.012196  -0.058280  -0.320594   0.198453   0.060058
    27  O   -0.000003   0.000128  -0.005113   0.004232  -0.024949   0.006660
    28  C    0.000015  -0.000453  -0.003698   0.004802   0.038979  -0.000195
    29  O    0.000000  -0.000002  -0.000171  -0.000179  -0.001362  -0.000620
    30  H    0.000000   0.000000   0.000000   0.000000   0.000023   0.000004
    31  H    0.000011   0.000001   0.000000   0.000000   0.000000   0.000000
    32  H    0.000001  -0.000015   0.000000   0.000000   0.000000  -0.000001
    33  H   -0.000009  -0.000004   0.000000   0.000000   0.000000   0.000000
    34  H   -0.000044   0.003919   0.000000   0.000000   0.000000  -0.000002
    35  H    0.001060  -0.000001   0.000000   0.000000   0.000000   0.000000
    36  H    0.007416   0.001403   0.000000   0.000000   0.000000   0.000000
    37  H    0.609879   0.005693   0.000000   0.000001  -0.000002   0.000007
    38  H    0.005693   0.604690   0.000002   0.000068  -0.000003   0.006733
    39  H    0.000000   0.000002   0.577423  -0.037331  -0.002109   0.000176
    40  H    0.000001   0.000068  -0.037331   0.578217   0.006399   0.004559
    41  H   -0.000002  -0.000003  -0.002109   0.006399   0.616237   0.006122
    42  H    0.000007   0.006733   0.000176   0.004559   0.006122   0.621487
    43  H   -0.000004  -0.000008   0.000001  -0.000006   0.002601   0.007143
    44  H    0.000000  -0.000004  -0.000001  -0.000032  -0.000058   0.002356
    45  H    0.000000   0.000000  -0.000029  -0.000006   0.002569  -0.000026
             43         44         45
     1  O    0.000000   0.000000   0.000000
     2  C    0.000757   0.000137  -0.000001
     3  C   -0.000162  -0.000016   0.000005
     4  O    0.000000   0.000000   0.000000
     5  H    0.000000   0.000000   0.000000
     6  C    0.008581   0.000735  -0.000113
     7  O   -0.000011   0.000000   0.000000
     8  H    0.000000   0.000000   0.000000
     9  C   -0.000170  -0.000195  -0.000001
    10  O    0.000000   0.000000   0.000000
    11  H    0.000000   0.000000   0.000000
    12  C   -0.000901   0.000491   0.000027
    13  O   -0.000428   0.000118   0.000011
    14  C   -0.008091  -0.008939   0.000980
    15  O   -0.001849   0.000523   0.000235
    16  C   -0.113463   0.076202   0.051252
    17  C    0.324629  -0.216885  -0.021872
    18  O   -0.037818   0.005334   0.000374
    19  H   -0.002787  -0.000177  -0.000001
    20  C   -0.013201   0.352149  -0.144694
    21  O   -0.001368  -0.026376   0.002908
    22  H   -0.000235  -0.001418  -0.000301
    23  C    0.008298   0.006489   0.000114
    24  O   -0.000022   0.000018   0.000028
[...]
 00016756,0.00002904,-0.00007559,0.00015646,0.00028526,0.00038929,0.000
 78528,-0.00029048,-0.00385077,-0.01636314,-0.00369681,0.01141796,-0.34
 666223,0.01385692,-0.02909009,-0.01232134,0.00154255,-0.00438200,0.001
 74196,-0.00004566,0.00120841,-0.00044976,-0.00013394,0.00003049,-0.000
 54450,-0.00042296,0.00096145,0.00052257,-0.00015593,0.00009097,0.00004
 631,0.00005410,-0.00007624,-0.00002975,0.00136868,0.00066794,0.0002735
 3,0.00014428,-0.00019818,0.00005753,-0.00003554,-0.00003097,-0.0123033
 6,-0.00035495,-0.00163590,0.00214451,0.00078492,0.00005615,-0.00014490
 ,0.00001436,-0.00011455,0.00005966,0.00000513,-0.00010405,0.00001349,0
 .00000241,-0.00001142,0.00000197,-0.00000438,-0.00000563,-0.00000811,0
 .00001461,-0.00000340,0.00001780,-0.00000089,-0.00001098,0.00005553,-0
 .00001127,0.00002756,0.00001051,0.00000314,-0.00001093,0.00002431,0.00
 000209,0.00003420,0.00007485,0.00016743,-0.00027337,0.00097194,0.00016
 628,0.00176586,0.00048549,0.00012263,0.00008497,0.00104669,-0.00083408
 ,0.00012925,0.00022202,-0.00094146,-0.00098818,0.37851627,0.00000091,-
 0.00001000,0.00002905,-0.00000013,0.00001924,-0.00002406,0.00003941,0.
 00001712,-0.00001992,-0.00000648,-0.00002663,0.00000863,-0.00000087,0.
 00000742,-0.00000469,-0.00011225,0.00005684,0.00002768,0.00011112,-0.0
 0008882,-0.00011625,-0.00012363,0.00000890,0.00010573,0.00001692,-0.00
 002358,-0.00000985,-0.00000902,0.00002264,0.00002082,0.00000650,-0.000
 00473,-0.00000265,-0.00000486,0.00001823,-0.00003933,0.00024452,-0.000
 00901,0.00014906,-0.00075721,0.00094191,-0.00126665,-0.01272318,0.0003
 1011,0.00516834,0.01704261,-0.04385081,-0.00034098,0.03599479,-0.00447
 830,0.00659439,-0.00266815,0.00269985,-0.00005606,0.00034537,-0.000000
 98,-0.00019156,0.00160138,0.00105649,-0.00112935,-0.00070704,-0.000067
 78,-0.00013671,-0.00008652,0.00005542,0.00001042,-0.00264067,0.0011563
 4,0.00029680,0.00041966,0.00004406,-0.00027032,-0.00001630,-0.00004246
 ,-0.00000639,-0.02518305,-0.00215386,-0.00482152,0.00145212,0.00097333
 ,0.00204230,0.00023664,-0.00034273,0.00007819,-0.00005422,0.00010261,0
 .00004294,-0.00001197,0.00002167,-0.00001169,0.00000268,-0.00000039,-0
 .00000408,0.00000690,-0.00001207,0.00000074,-0.00001011,0.00000004,0.0
 0000655,-0.00001668,0.00001707,-0.00000324,-0.00000237,-0.00000525,0.0
 0000329,0.00000620,0.00000377,0.00001753,0.00007093,0.00000157,-0.0000
 2156,0.00039063,-0.00005437,-0.00004032,0.00028598,0.00026842,0.000124
 57,0.00083076,-0.00032741,0.00004228,-0.00110697,-0.00263951,-0.003049
 00,-0.01364699,0.05228253,-0.00000735,-0.00001379,-0.00005395,-0.00000
 735,0.00001073,0.00002623,-0.00007831,0.00001090,0.00003700,0.00000255
 ,0.00001142,-0.00002750,0.00000223,-0.00000362,0.00000730,-0.00001948,
 0.00022442,-0.00015655,-0.00016201,0.00007029,-0.00002284,0.00012694,-
 0.00016084,-0.00002754,-0.00003077,0.00005844,-0.00003765,-0.00000376,
 -0.00004377,-0.00000190,0.00000186,0.00000193,-0.00000960,0.00003800,-
 0.00007730,-0.00004041,-0.00067571,-0.00039631,-0.00052595,0.00612618,
 -0.00025715,0.00559251,0.03940515,0.00566395,-0.01698252,-0.03386636,-
 0.00139152,-0.04391362,-0.00900798,0.00071854,-0.00001029,0.00074485,0
 .00055279,0.00118339,0.00029307,0.00039010,-0.00025349,-0.00143846,0.0
 0041056,0.00039239,0.00040662,-0.00013032,-0.00005993,-0.00004534,-0.0
 0001792,0.00000482,-0.00062996,0.00165962,0.00066678,0.00021936,0.0000
 3745,0.00006609,-0.00001295,0.00001287,0.00003495,-0.02502688,-0.00153
 982,-0.00268259,0.00086516,0.00044885,0.00210693,-0.00031627,0.0000394
 9,-0.00021732,0.00008206,0.00002953,-0.00016463,0.00001617,0.00001344,
 0.00000628,-0.00000314,0.00000567,0.00000509,-0.00000791,-0.00001378,-
 0.00000023,0.00000202,0.00000252,0.00000096,-0.00002817,-0.00002067,-0
 .00005792,-0.00000292,0.00000145,0.00000616,-0.00002437,-0.00000047,-0
 .00005934,-0.00030763,-0.00011836,0.00007801,-0.00154040,-0.00001012,0
 .00015847,0.00015226,0.00026661,-0.00000320,0.00075659,-0.00030526,0.0
 0031838,-0.00090136,-0.00282419,-0.00322539,0.02483989,-0.00538233,0.0
 5786686,0.00000640,0.00002874,-0.00007268,-0.00003454,-0.00003451,0.00
 005189,-0.00000414,-0.00003451,0.00003015,0.00002439,0.00005895,-0.000
 04466,0.,-0.00001405,0.00000815,-0.00000938,-0.00008653,-0.00001031,0.
 00004202,0.00012414,0.00004053,-0.00005482,-0.00005675,-0.00008254,-0.
 00002705,-0.00000543,0.00012856,-0.00000077,-0.00004511,-0.00011524,-0
 .00001233,0.00002078,0.00002454,0.00003156,0.00006921,0.00015607,-0.00
 003323,0.00037746,-0.00032996,0.00013437,-0.00039781,-0.00017438,0.001
 58388,-0.00002117,-0.00034936,-0.01374578,0.00264486,-0.00044739,-0.33
 921643,-0.00213009,-0.04123515,0.00029117,-0.00780147,-0.01201490,-0.0
 0028448,-0.00106537,0.00056560,-0.02158713,0.00176543,0.00143938,0.002
 72495,0.00042875,-0.00114322,0.00016294,0.00005622,-0.00010494,0.00060
 268,0.00034015,0.00006411,-0.00000086,-0.00001193,0.00007985,-0.000002
 87,0.00001752,0.00000303,-0.00056676,-0.00115797,-0.00068975,0.0002589
 2,0.00061497,0.00052435,-0.00148477,-0.00109130,-0.00143093,0.00078511
 ,-0.00006434,0.00017622,-0.00004503,0.00009794,0.00019661,-0.00000885,
 -0.00000206,0.00001048,0.00003449,0.00005605,-0.00000448,0.00000453,-0
 .00000031,-0.00000325,-0.00000141,-0.00001072,0.00000203,0.00000834,-0
 .00000143,-0.00000824,0.00000539,-0.00000019,0.00000229,0.00001410,0.0
 0001620,-0.00002855,0.00002838,-0.00000504,0.00021484,0.00000936,0.000
 09509,0.00000674,0.00015267,-0.00037332,-0.00000457,0.00103256,0.00068
 530,0.00057009,0.00036877,0.00163833,-0.00030249,0.36824122,0.00000130
 ,0.00002841,-0.00006233,-0.00003266,-0.00003657,0.00003614,0.00000646,
 -0.00002751,-0.00000404,0.00000569,0.00004546,-0.00001841,0.00000290,-
 0.00001360,0.00000544,-0.00011496,-0.00003726,-0.00002765,-0.00003419,
 0.00008503,0.00004753,0.00004010,-0.00001698,-0.00005316,-0.00003490,-
 0.00001990,0.00013569,-0.00000208,-0.00004157,-0.00011126,-0.00001252,
 0.00001942,0.00002063,0.00007587,0.00008839,0.00014920,0.00002775,0.00
 047299,-0.00037663,0.00013582,-0.00022030,-0.00004584,-0.00140723,0.00
 205556,-0.00162260,0.03693329,-0.00658262,0.00505290,-0.00256733,-0.03
 819188,0.00625037,-0.02681806,-0.01015002,-0.02306715,-0.00065201,-0.0
 0048020,0.00090308,-0.01269937,0.00117108,0.00132699,-0.00000956,0.000
 98231,-0.00107613,0.00004656,0.00012502,-0.00018312,0.00028265,-0.0000
 4153,0.00011401,-0.00010151,-0.00002989,0.00007449,-0.00000809,0.00001
 159,0.00000038,0.00175880,0.00182235,0.00094916,-0.00029679,-0.0000919
 6,-0.00027919,0.00042875,-0.00010410,-0.00078615,0.00009606,-0.0001010
 0,0.00017040,0.00001616,0.00006832,0.00004470,-0.00000608,-0.00000090,
 0.00000625,0.00003150,0.00006359,0.00000573,0.00000877,0.00000968,-0.0
 0001185,-0.00001777,-0.00001576,-0.00000532,0.00000003,-0.00000063,-0.
 00000095,-0.00000409,0.00000272,-0.00000377,-0.00001628,-0.00001865,0.
 00002781,-0.00020444,-0.00000004,-0.00013855,-0.00012843,0.00000350,-0
 .00002466,-0.00034823,0.00000574,-0.00008387,-0.00091463,-0.00020797,-
 0.00027352,0.00192092,-0.00573170,0.00188035,0.00527613,0.05511226,0.0
 0001001,0.00003052,-0.00005940,-0.00004549,-0.00003538,0.00003879,-0.0
 0000525,-0.00005006,0.00001334,0.00002080,0.00005018,-0.00001988,-0.00
 000130,-0.00001322,0.00000653,-0.00001658,-0.00002254,0.00003823,0.000
 03416,0.00007486,0.00001984,-0.00003604,-0.00000633,-0.00002655,-0.000
 06347,-0.00003528,0.00015943,0.00001277,-0.00003433,-0.00012356,-0.000
 01629,0.00001955,0.00002748,0.00003221,0.00008264,0.00012125,0.0000947
 0,0.00050668,-0.00042473,-0.00018174,-0.00055124,-0.00059473,0.0003339
 4,-0.00114428,0.00147191,-0.01306469,0.00315096,-0.00012538,-0.0426212
 6,0.00676877,-0.04381153,-0.03012185,-0.01955521,-0.02245752,-0.001417
 04,-0.00089580,0.00068278,0.03438141,0.00180348,-0.00075213,-0.0012530
 5,-0.00173225,0.00212472,-0.00003290,-0.00038464,0.00025720,0.00011497
 ,0.00013613,-0.00002977,0.00000522,-0.00000550,0.00002518,0.00000557,0
 .00000012,-0.00000284,0.00061408,-0.00097459,-0.00005021,-0.00023037,-
 0.00018540,-0.00018989,0.00155290,0.00029609,0.00101989,-0.00043430,0.
 00004755,0.00008794,-0.00008738,-0.00005482,-0.00003686,-0.00000830,-0
 .00000212,0.00000522,0.00003864,0.00007532,0.00000244,0.00002143,0.000
 00242,-0.00001917,0.00000709,-0.00001701,0.00000851,0.00000922,-0.0000
 0207,-0.00001021,0.00000531,0.00000126,0.00000426,0.00002408,0.0000275
 3,-0.00002573,0.00014255,0.00002374,0.00007918,0.00004826,0.00005374,0
 .00001025,0.00008121,-0.00011469,-0.00001657,0.00029587,0.00014770,0.0
 0033691,-0.00060516,0.00187852,-0.00011609,0.05050143,0.00896806,0.067
 78185,0.00000326,-0.00000619,-0.00000905,0.00000042,0.00000512,0.00001
 100,-0.00001329,-0.00000421,0.00001514,0.00001124,0.00000178,-0.000014
 89,-0.00000234,0.00000100,0.00000349,0.00001010,-0.00000103,0.00001743
 ,0.00002402,-0.00000390,-0.00001508,-0.00001742,-0.00000503,0.00000867
 ,-0.00001816,0.00000712,0.00000298,0.00001836,-0.00000633,-0.00000131,
 -0.00001009,0.00000215,0.00000092,-0.00002961,-0.00000532,0.00001166,0
 .00004868,-0.00006116,-0.00000886,-0.00015092,0.00002177,0.00011588,0.
 00067738,-0.00009489,0.00002213,-0.00099026,0.00130626,-0.00050012,-0.
 01640458,-0.00359304,-0.00008219,0.00177519,0.00084853,0.00042645,0.00
 002703,0.00009284,-0.00018131,-0.35064148,-0.02395244,-0.02690989,-0.0
 0756861,0.01222918,-0.00492063,-0.00048579,0.00040043,0.00042301,-0.00
 009244,-0.00005511,-0.00000387,0.00005817,0.00002616,-0.00002344,-0.00
 001017,-0.00000684,0.00000019,0.00010067,-0.00005726,-0.00018032,0.001
 24923,-0.00117789,0.00044054,-0.01038682,0.00011214,-0.00000951,0.0015
 7883,0.00004685,0.00033270,0.00031235,0.00029875,0.00032838,-0.0000021
 7,0.00000225,0.00000250,-0.00001167,0.00000306,-0.00000155,0.00001357,
 -0.00000016,-0.00000883,0.00001611,-0.00000582,0.00000606,0.00000640,0
 .00000052,-0.00000558,0.00000582,-0.00000205,0.00000130,0.00000899,0.0
 0000779,-0.00000763,0.00003270,-0.00002185,0.00002061,0.00000526,0.000
 00093,0.00001128,0.00005355,-0.00004268,0.00002090,0.00009369,0.000191
 07,0.00003357,0.00090645,-0.00070481,0.00023443,-0.00027488,-0.0007893
 9,0.00225157,0.37971784,0.00000067,-0.00000422,0.00001068,0.00000194,0
 .00000446,-0.00000700,-0.00000068,0.00000773,-0.00000300,-0.00000054,-
 0.00000834,0.00000431,-0.00000047,0.00000267,-0.00000168,-0.00000115,0
 .00000531,-0.00000513,0.00000906,-0.00000940,-0.00000341,-0.00000857,-
 0.00000112,-0.00000171,0.00000610,0.00000367,-0.00002117,-0.00000410,0
 .00000587,0.00001812,0.00000579,-0.00000340,-0.00000516,-0.00000372,-0
 .00000821,-0.00001617,0.00001867,-0.00004729,0.00003791,-0.00001293,0.
 00007841,0.00002353,0.00026266,0.00000725,-0.00010710,-0.00131638,0.00
 036110,-0.00007864,-0.00834404,0.00067437,-0.00060857,0.00075811,0.000
 48597,0.00070699,-0.00008662,0.00001372,-0.00013837,-0.02389728,-0.039
 50506,-0.00482331,0.04011191,-0.01601119,0.00922009,0.00094265,0.00004
 048,-0.00067501,-0.00007808,0.00002998,-0.00001792,0.00002840,-0.00001
 582,-0.00000546,-0.00000254,0.00000100,0.00000488,-0.00014351,-0.00020
 364,0.00000756,0.00137563,0.00140295,0.00060019,-0.02578182,-0.0006757
 1,-0.00354910,0.00149262,0.00098511,0.00178817,-0.00001224,0.00013533,
 0.00040484,0.00000088,0.00000035,-0.00000195,-0.00000046,-0.00000835,0
 .00000101,-0.00000240,-0.00000286,0.00000259,0.00000157,0.00000391,0.0
 0000099,0.00000017,-0.00000067,0.00000019,0.00000022,-0.00000041,0.000
 00112,0.00000277,0.00000120,-0.00000346,0.00001562,-0.00000215,0.00001
 500,0.00000835,-0.00000658,0.00000170,0.00003752,-0.00003803,0.0000230
 3,0.00013117,0.00005493,-0.00000007,0.00016882,-0.00009621,0.00021204,
 -0.00045908,-0.00021278,0.00176235,0.01558064,0.05528293,-0.00000326,-
 0.00000730,-0.00000345,0.00000137,0.00000740,0.00000011,0.00000983,0.0
 0001198,0.00000801,-0.00000506,-0.00000625,-0.00000837,0.00000169,0.00
 000258,-0.00000089,-0.00001148,-0.00001707,-0.00001418,-0.00000946,0.0
 0000351,-0.00000380,0.00000579,-0.00001156,-0.00000102,0.00001069,0.00
 001192,-0.00001848,-0.00000929,-0.00000650,0.00000953,0.00000513,-0.00
 000045,-0.00000669,0.00002545,-0.00000151,0.00001362,-0.00000641,-0.00
 010226,0.00001308,0.00004523,0.00016314,0.00013981,-0.00057472,0.00003
 513,-0.00031957,0.00142762,-0.00187866,0.00110661,0.03378039,0.0053235
 3,0.00133337,-0.00251915,-0.00083512,0.00218904,-0.00010916,0.00023099
 ,0.00022639,-0.02459173,-0.00476029,-0.04737542,-0.01130066,0.00655538
 ,0.00115726,-0.00113458,-0.00006654,-0.00017396,-0.00002657,0.00000970
 ,0.00009216,0.00000435,-0.00002110,0.00001512,-0.00000462,-0.00000037,
 0.00000374,0.00045844,0.00021467,-0.00049768,0.00146924,-0.00000227,0.
 00065976,-0.02735313,-0.00442647,-0.00394530,0.00090912,0.00120669,0.0
 0251824,-0.00001362,0.00030386,0.00048034,0.00000038,0.00000187,-0.000
 00014,0.,-0.00000801,0.00000298,-0.00000492,-0.00000014,0.00000410,-0.
 00001006,0.00000503,-0.00000633,-0.00000264,-0.00000101,0.00000305,-0.
 00000238,0.00000076,-0.00000171,-0.00000434,-0.00000614,0.00000840,-0.
 00003387,0.00000561,-0.00005306,-0.00001345,0.00003720,0.00000396,-0.0
 0000074,0.00002495,0.00000368,-0.00014578,0.00002409,-0.00010563,-0.00
 058989,0.00035820,-0.00002955,0.00295175,0.00195208,-0.00510307,0.0285
 9130,-0.00165531,0.05089905,0.00000045,-0.00000808,-0.00001923,-0.0000
 0457,0.00000824,0.00001205,-0.00000314,-0.00000331,0.00001892,0.000007
 30,0.00000214,-0.00002274,-0.00000066,0.00000118,0.00000368,-0.0000203
 0,0.00001298,0.00000419,0.00001460,-0.00001840,-0.00004507,-0.00000074
 ,0.00000748,0.00005487,-0.00001018,0.00001350,0.00000309,0.00000613,-0
 .00001409,-0.00000680,-0.00000453,0.00000340,-0.00000027,0.00000536,0.
 00000461,0.00002699,0.00001075,-0.00006180,-0.00006374,0.00000625,0.00
 006442,0.00011179,0.00003327,-0.00004938,-0.00025108,0.00001941,0.0002
 4591,0.00025203,-0.00072598,-0.00039006,0.00028726,0.00036810,0.000124
 97,0.00013234,-0.00000828,-0.00000874,-0.00006621,-0.00924056,0.002851
 48,-0.00405554,0.00257290,0.00004369,0.00177910,-0.00104115,-0.0008100
 5,0.00004539,0.00025488,-0.00010959,-0.00012420,-0.00000440,0.00016584
 ,-0.00010192,-0.00002190,-0.00001732,-0.00002379,0.00033652,0.00013659
 ,-0.00001189,0.00183040,0.00852032,-0.00313129,-0.32967841,0.01864869,
 -0.08388345,-0.02052462,0.00009466,0.00557204,0.00034822,0.00004039,0.
 00018548,-0.00000279,0.00000289,0.00000331,-0.00000317,0.00000091,-0.0
 0000023,0.00000592,-0.00000053,-0.00000306,0.00000354,-0.00000169,-0.0
 0000133,0.00000424,-0.00000130,-0.00000280,0.00000295,-0.00000056,0.00
 000013,0.00000516,-0.00000056,0.00000016,0.00000745,-0.00000534,-0.000
 00659,0.00000614,-0.00004621,0.00000666,-0.00000046,-0.00009790,0.0000
 7985,-0.00005267,0.00055370,-0.00104862,0.00003461,-0.00015085,0.00013
 193,0.00084730,0.00012508,-0.00039693,0.00035537,-0.00080533,-0.001216
 81,0.35426131,0.00000409,0.00001664,0.00001829,-0.00000176,-0.00001935
 ,-0.00000838,-0.00000251,0.00000186,-0.00002105,-0.00000188,0.00000790
 ,0.00002354,-0.00000069,-0.00000355,-0.00000329,0.00002761,-0.00005128
 ,-0.00001270,-0.00000683,0.00006290,0.00009078,-0.00001583,-0.00003764
 ,-0.00012787,0.00000062,-0.00002111,0.00001618,0.00000371,0.00001469,-
 0.00000612,-0.00000312,-0.00000080,0.00000543,-0.00001979,0.00000889,-
 0.00001291,0.00000200,0.00015842,0.00005549,-0.00010667,-0.00010327,-0
 .00017571,0.00003539,0.00034856,0.00047684,-0.00032180,-0.00090157,0.0
 0014522,-0.00120867,-0.00033727,0.00125346,0.00043102,0.00009865,-0.00
 048039,0.00011681,-0.00018991,0.00007688,-0.02086675,0.00173228,-0.009
 45696,0.00050171,0.00323476,0.00045080,-0.00074076,-0.00040133,0.00034
 890,-0.00022904,0.00016725,0.00016295,-0.00011052,-0.00039533,0.000225
 91,0.00000780,0.00003063,0.00006096,0.00379063,0.00163077,-0.00384273,
 0.03313875,-0.02150579,0.01818758,0.01884569,-0.04146692,0.00365027,-0
 .00273110,0.00492901,0.00013472,0.00015042,0.00001603,-0.00048869,0.00
 000146,-0.00000396,-0.00000280,0.00000466,0.00000837,-0.00000113,-0.00
 000095,0.00000159,0.00000062,0.00000254,-0.00000321,0.00000251,-0.0000
 0134,0.00000214,0.00000086,-0.00000055,-0.00000076,0.00000071,-0.00000
 247,0.00000485,-0.00000481,0.00000712,0.00000036,0.00000780,0.00001587
 ,0.00007408,-0.00000092,-0.00015607,0.00014826,-0.00008404,-0.00133241
 ,0.00015901,0.00032783,-0.00002373,-0.00011897,-0.00002641,0.00045830,
 0.00020187,-0.00009145,-0.00058898,-0.00272728,-0.00267596,-0.02907196
 ,0.05522953,-0.00000251,-0.00000489,-0.00003739,-0.00000511,0.00000554
 ,0.00002476,0.00000029,-0.00000566,0.00003043,0.00000663,0.00001322,-0
 .00003614,0.00000124,-0.00000179,0.00000501,-0.00002195,-0.00001671,-0
 .00001107,0.00000918,0.00000890,-0.00003804,-0.00000167,-0.00000882,0.
 00004252,-0.00000766,0.00001928,0.00001878,-0.00000032,-0.00002460,-0.
 00002440,-0.00000287,0.00000599,0.00000325,0.00002084,0.00001538,0.000
 05543,-0.00000311,-0.00005605,-0.00012232,0.00005968,0.00006957,0.0001
 8858,0.00006046,0.00004809,-0.00043587,-0.00006955,-0.00015304,0.00001
 043,-0.00203999,0.00023455,0.00162096,0.00072544,-0.00005583,-0.000117
 33,0.00002071,-0.00002371,0.00003877,-0.02601105,0.00056989,-0.0053113
 8,0.00238038,0.00138000,0.00169054,-0.00013571,-0.00046421,0.00025408,
 0.00013349,-0.00000097,0.00003073,0.00005707,0.00016675,-0.00010160,-0
 .00000595,-0.00001902,-0.00001622,-0.00169216,-0.00078700,0.00264677,-
 0.01055792,0.01087327,-0.00246473,-0.09086841,0.00201243,-0.07298352,0
 .03882739,-0.00292826,-0.00593348,0.00186109,0.00057058,0.00381027,-0.
 00000341,0.00000245,0.00000599,0.00000049,0.00000558,-0.00000133,0.000
 00336,-0.00000078,-0.00000250,-0.00000063,-0.00000167,-0.00000211,0.00
 000313,-0.00000123,-0.00000312,0.00000059,-0.00000007,-0.00000146,0.00
 000235,0.00000057,-0.00000020,0.00000169,-0.00001013,-0.00000193,0.000
 00359,-0.00004236,0.00000278,0.00011823,-0.00010818,0.00001454,0.00077
 975,-0.00004548,-0.00023935,0.00018233,-0.00005751,0.00012140,0.000848
 31,0.00013475,-0.00032727,-0.00045001,-0.00311859,-0.00322312,0.085772
 29,-0.00820024,0.08081987\\0.01728854,-0.01743801,-0.01226182,-0.04320
 149,0.02548522,-0.00444043,0.05099069,0.01034310,0.03590417,-0.0096950
 7,-0.00566140,0.00501134,-0.00822739,-0.00107884,-0.03316924,-0.029168
 97,-0.03236785,-0.00176627,0.00274583,0.01415848,-0.02172113,0.0014633
 5,-0.00656520,0.02203147,-0.02425527,0.02761326,-0.01324381,0.01062809
 ,0.00406782,0.00881387,0.00182414,-0.03599856,-0.00160996,0.04326908,-
 0.02154124,0.01619371,-0.02169553,0.01868758,-0.00624547,0.00082328,0.
 01321579,0.00568940,-0.00962645,-0.00306368,0.03256315,0.00698344,0.00
 140178,0.02204061,-0.01972913,-0.00956472,0.00714625,0.00978936,-0.024
 26968,-0.00569202,0.00798917,0.02243343,-0.01182182,-0.00480119,0.0273
 4623,0.01287534,0.00603803,-0.01034304,-0.03920816,-0.00268518,0.00940
 267,0.02806607,0.01755648,-0.01377674,-0.01232889,-0.01508543,-0.01487
 593,-0.01139939,-0.00091191,0.03066040,0.01722048,-0.00561227,0.014954
 18,0.01004317,-0.00108135,-0.01047974,0.00863989,0.02843322,-0.0323923
 0,-0.00588368,-0.00953590,0.02005175,0.01701085,-0.00239615,-0.0022722
 8,-0.00212762,-0.00133043,0.00183118,-0.00177280,0.00418258,0.00450687
 ,-0.01935101,-0.02310847,0.00144908,-0.00319700,0.02522694,-0.00208955
 ,-0.00237557,-0.02443222,0.00274170,-0.00042268,0.02508174,-0.00719219
 ,-0.00198278,-0.02372304,0.00254706,-0.00389996,0.02129614,0.00120577,
 -0.00576684,0.00034418,-0.00484698,-0.01822605,0.02034952,0.00199384,0
 .00115327,-0.02141370,0.00067434,-0.00013153,0.02187105,-0.00255692,0.
 00150573,-0.02392044,-0.00042058,-0.00616836,0.02086077,-0.00021698,-0
 .00130032,-0.01939864,0.00224088,-0.00439418\\\@


 ARTHROPOD AXIOM: A COMPUTER SYSTEM IS LIKE A SPIDER'S WEB.
 YOU CANNOT PULL ON ONE END WITHOUT MAKING THE OTHER END MOVE.
     -- GREG WETTSTEIN
 Job cpu time:  1 days  7 hours 22 minutes  1.9 seconds.
 File lengths (MBytes):  RWF=   1769 Int=      0 D2E=      0 Chk=     28 Scr=      1
 Normal termination of Gaussian 09 at Fri Mar 25 22:46:04 2016.
Gaussian '09 finished on node021 at Fri Mar 25 22:46:04 EDT 2016.
