Gaussian '09 started on node016 at Thu Jan 21 05:03:58 EST 2016.
 Entering Gaussian System, Link 0=/usr/local/gaussian/g09/g09
 Initial command:
 /usr/local/gaussian/g09/l1.exe /home/srmcgrat/thesis/gaussian/cellobiose/450/9000/gaussian28625/Gau-28661.inp -scrdir=/home/srmcgrat/thesis/gaussian/cellobiose/450/9000/gaussian28625/
 Entering Link 1 = /usr/local/gaussian/g09/l1.exe PID=     28663.
  
 Copyright (c) 1988,1990,1992,1993,1995,1998,2003,2009,2010,
            Gaussian, Inc.  All Rights Reserved.
  
 This is part of the Gaussian(R) 09 program.  It is based on
 the Gaussian(R) 03 system (copyright 2003, Gaussian, Inc.),
 the Gaussian(R) 98 system (copyright 1998, Gaussian, Inc.),
 the Gaussian(R) 94 system (copyright 1995, Gaussian, Inc.),
 the Gaussian 92(TM) system (copyright 1992, Gaussian, Inc.),
 the Gaussian 90(TM) system (copyright 1990, Gaussian, Inc.),
 the Gaussian 88(TM) system (copyright 1988, Gaussian, Inc.),
 the Gaussian 86(TM) system (copyright 1986, Carnegie Mellon
 University), and the Gaussian 82(TM) system (copyright 1983,
 Carnegie Mellon University). Gaussian is a federally registered
 trademark of Gaussian, Inc.
  
 This software contains proprietary and confidential information,
 including trade secrets, belonging to Gaussian, Inc.
  
 This software is provided under written license and may be
 used, copied, transmitted, or stored only in accord with that
 written license.
  
 The following legend is applicable only to US Government
 contracts under FAR:
  
                    RESTRICTED RIGHTS LEGEND
  
 Use, reproduction and disclosure by the US Government is
 subject to restrictions as set forth in subparagraphs (a)
 and (c) of the Commercial Computer Software - Restricted
 Rights clause in FAR 52.227-19.
  
 Gaussian, Inc.
 340 Quinnipiac St., Bldg. 40, Wallingford CT 06492
  
  
 ---------------------------------------------------------------
 Warning -- This program may not be used in any manner that
 competes with the business of Gaussian, Inc. or will provide
 assistance to any competitor of Gaussian, Inc.  The licensee
 of this program is prohibited from giving any competitor of
 Gaussian, Inc. access to this program.  By using this program,
 the user acknowledges that Gaussian, Inc. is engaged in the
 business of creating and licensing software in the field of
 computational chemistry and represents and warrants to the
 licensee that it is not a competitor of Gaussian, Inc. and that
 it will not use this program in any manner prohibited above.
 ---------------------------------------------------------------
  

 Cite this work as:
 Gaussian 09, Revision B.01,
 M. J. Frisch, G. W. Trucks, H. B. Schlegel, G. E. Scuseria, 
 M. A. Robb, J. R. Cheeseman, G. Scalmani, V. Barone, B. Mennucci, 
 G. A. Petersson, H. Nakatsuji, M. Caricato, X. Li, H. P. Hratchian, 
 A. F. Izmaylov, J. Bloino, G. Zheng, J. L. Sonnenberg, M. Hada, 
 M. Ehara, K. Toyota, R. Fukuda, J. Hasegawa, M. Ishida, T. Nakajima, 
 Y. Honda, O. Kitao, H. Nakai, T. Vreven, J. A. Montgomery, Jr., 
 J. E. Peralta, F. Ogliaro, M. Bearpark, J. J. Heyd, E. Brothers, 
 K. N. Kudin, V. N. Staroverov, T. Keith, R. Kobayashi, J. Normand, 
 K. Raghavachari, A. Rendell, J. C. Burant, S. S. Iyengar, J. Tomasi, 
 M. Cossi, N. Rega, J. M. Millam, M. Klene, J. E. Knox, J. B. Cross, 
 V. Bakken, C. Adamo, J. Jaramillo, R. Gomperts, R. E. Stratmann, 
 O. Yazyev, A. J. Austin, R. Cammi, C. Pomelli, J. W. Ochterski, 
 R. L. Martin, K. Morokuma, V. G. Zakrzewski, G. A. Voth, 
 P. Salvador, J. J. Dannenberg, S. Dapprich, A. D. Daniels, 
 O. Farkas, J. B. Foresman, J. V. Ortiz, J. Cioslowski, 
 and D. J. Fox, Gaussian, Inc., Wallingford CT, 2010.
 
 ******************************************
 Gaussian 09:  EM64L-G09RevB.01 12-Aug-2010
                21-Jan-2016 
 ******************************************
 ------------------------------------------------
 # freq=raman b3lyp/6-31+g(d,p) geom=connectivity
 ------------------------------------------------
 1/10=4,30=1,38=1,57=2/1,3;
 2/12=2,17=6,18=5,40=1/2;
 3/5=1,6=6,7=111,11=2,16=1,25=1,30=1,71=2,74=-5/1,2,3;
 4//1;
 5/5=2,38=5,98=1/2;
 8/6=4,10=90,11=11/1;
 10/13=10,15=4/2;
 11/6=3,8=1,9=11,15=111,16=1/1,2,10;
 10/6=1/2;
 6/7=2,8=2,9=2,10=2,18=1,28=1/1;
 7/8=1,10=1,25=1/1,2,3,16;
 1/10=4,30=1/3;
 99//99;
 ------------
 450 9000.com
 ------------
 Symbolic Z-matrix:
 Charge =  0 Multiplicity = 1
 O                     9.942     8.071     11.508 
 C                     10.859    7.998     12.609 
 C                     11.322    9.392     12.999 
 O                     12.05     10.16     12.029 
 H                     11.782    9.997     11.08 
 C                     12.083    9.396     14.314 
 O                     12.1      10.663    14.987 
 H                     12.564    11.4      14.495 
 C                     9.947     5.776     13.261 
 O                     10.953    4.756     13.161 
 H                     10.527    3.899     12.873 
 C                     10.187    7.205     13.719 
 O                     11.118    7.152     14.81 
 C                     11.451    8.45      15.323 
 O                     12.077    8.165     16.582 
 C                     11.382    8.35      17.824 
 C                     10.807    7.004     18.237 
 O                     9.885     6.43      17.3 
 H                     10.299    6.405     16.39 
 C                     10.338    7.272     19.657 
 O                     9.706     6.102     20.197 
 H                     8.943     5.793     19.629 
 C                     12.825    10.313    18.456 
 O                     13.57     11.027    19.453 
 H                     14.363    10.581    19.867 
 C                     12.394    8.9       18.814 
 O                     11.706    8.973     20.071 
 C                     11.426    7.684     20.635 
 O                     10.696    7.941     21.844 
 H                     11.31259   8.09399   22.56373 
 H                     12.25774   7.01537   20.71268 
 H                     9.6109    8.0562    19.6217 
 H                     11.62924   6.32291   18.30734 
 H                     10.58838   9.05522   17.69083 
 H                     13.24269   8.25238   18.88616 
 H                     11.94564   10.87982   18.23165 
 H                     13.42319   10.26158   17.57032 
 H                     10.43357   8.12555   10.68521 
 H                     9.50665   5.84982   12.28861 
 H                     9.19392   5.3823    13.9112 
 H                     9.27137   7.66926   14.02064 
 H                     11.71759   7.44691   12.28647 
 H                     10.42474   9.94514   13.18298 
 H                     13.09088   9.08648   14.1316 
 H                     10.51641   8.90693   15.57331 
 

 GradGradGradGradGradGradGradGradGradGradGradGradGradGradGradGradGradGrad
 Berny optimization.
 Initialization pass.
 Trust Radius=3.00D-01 FncErr=1.00D-07 GrdErr=1.00D-07
 Number of steps in this run=      2 maximum allowed number of steps=      2.
 GradGradGradGradGradGradGradGradGradGradGradGradGradGradGradGradGradGrad

                          Input orientation:                          
 ---------------------------------------------------------------------
 Center     Atomic      Atomic             Coordinates (Angstroms)
 Number     Number       Type             X           Y           Z
 ---------------------------------------------------------------------
      1          8           0        9.942000    8.071000   11.508000
      2          6           0       10.859000    7.998000   12.609000
      3          6           0       11.322000    9.392000   12.999000
      4          8           0       12.050000   10.160000   12.029000
      5          1           0       11.782000    9.997000   11.080000
      6          6           0       12.083000    9.396000   14.314000
      7          8           0       12.100000   10.663000   14.987000
      8          1           0       12.564000   11.400000   14.495000
      9          6           0        9.947000    5.776000   13.261000
     10          8           0       10.953000    4.756000   13.161000
     11          1           0       10.527000    3.899000   12.873000
     12          6           0       10.187000    7.205000   13.719000
     13          8           0       11.118000    7.152000   14.810000
     14          6           0       11.451000    8.450000   15.323000
     15          8           0       12.077000    8.165000   16.582000
     16          6           0       11.382000    8.350000   17.824000
     17          6           0       10.807000    7.004000   18.237000
     18          8           0        9.885000    6.430000   17.300000
     19          1           0       10.299000    6.405000   16.390000
     20          6           0       10.338000    7.272000   19.657000
     21          8           0        9.706000    6.102000   20.197000
     22          1           0        8.943000    5.793000   19.629000
     23          6           0       12.825000   10.313000   18.456000
     24          8           0       13.570000   11.027000   19.453000
     25          1           0       14.363000   10.581000   19.867000
     26          6           0       12.394000    8.900000   18.814000
     27          8           0       11.706000    8.973000   20.071000
     28          6           0       11.426000    7.684000   20.635000
     29          8           0       10.696000    7.941000   21.844000
     30          1           0       11.312592    8.093994   22.563727
     31          1           0       12.257742    7.015366   20.712675
     32          1           0        9.610896    8.056202   19.621697
     33          1           0       11.629236    6.322912   18.307339
     34          1           0       10.588383    9.055221   17.690828
     35          1           0       13.242691    8.252376   18.886157
     36          1           0       11.945636   10.879822   18.231651
     37          1           0       13.423186   10.261577   17.570320
     38          1           0       10.433566    8.125554   10.685208
     39          1           0        9.506653    5.849823   12.288609
     40          1           0        9.193915    5.382299   13.911202
     41          1           0        9.271372    7.669264   14.020636
     42          1           0       11.717591    7.446912   12.286472
     43          1           0       10.424736    9.945143   13.182981
     44          1           0       13.090884    9.086485   14.131601
     45          1           0       10.516411    8.906933   15.573310
 ---------------------------------------------------------------------
                    Distance matrix (angstroms):
                    1          2          3          4          5
     1  O    0.000000
     2  C    1.434719   0.000000
     3  C    2.423329   1.519771   0.000000
     4  O    3.013142   2.535572   1.435517   0.000000
     5  H    2.697825   2.680629   2.064022   0.999497   0.000000
     6  C    3.770032   2.521826   1.519329   2.409566   3.303113
     7  O    4.845500   3.781163   2.484526   3.000879   3.976095
     8  H    5.184524   4.247073   2.795111   2.807660   3.773878
     9  C    2.887916   2.488801   3.877464   5.015963   5.093214
    10  O    3.839760   3.290001   4.653483   5.629214   5.699639
    11  H    4.428435   4.120888   5.551662   6.498614   6.478849
    12  C    2.387154   1.520701   2.567020   3.880579   4.159761
    13  O    3.623636   2.372172   2.887722   4.201268   4.737913
    14  C    4.120066   2.814350   2.510972   3.759433   4.528335
    15  O    5.505682   4.158863   3.861793   4.970972   5.806484
    16  C    6.484080   5.252967   4.936597   6.107729   6.953714
    17  C    6.867762   5.715341   5.779655   7.074224   7.818652
    18  O    6.020249   5.041109   5.416365   6.810548   7.416906
    19  H    5.170776   4.140919   4.633312   6.015343   6.580110
    20  C    8.197647   7.104423   7.056318   8.334139   9.114587
    21  O    8.912428   7.905819   8.077547   9.416896  10.129190
    22  H    8.493405   7.603518   7.910079   9.299685   9.940771
    23  C    7.849392   6.588762   5.734640   6.475366   7.456077
    24  O    9.220810   7.960195   7.027151   7.627442   8.623513
    25  H    9.783569   8.463360   7.604658   8.182998   9.176818
    26  C    7.750947   6.455374   5.933420   6.909570   7.835350
    27  O    8.789213   7.572944   7.094801   8.136404   9.049444
    28  C    9.254953   8.052128   7.825380   8.976814   9.837415
    29  O   10.364281   9.236614   8.985060  10.153399  11.012276
    30  H   11.140384   9.965518   9.652404  10.760698  11.649796
    31  H    9.550030   8.282005   8.125564   9.237862  10.094796
    32  H    8.120464   7.123137   6.969387   8.247681   9.024466
    33  H    7.220359   5.989178   6.139394   7.370063   8.109050
    34  H    6.293955   5.197685   4.760763   5.950896   6.783415
    35  H    8.084841   6.719329   6.296540   7.216796   8.131015
    36  H    7.557217   6.410919   5.475690   6.245152   7.207792
    37  H    7.325913   6.026071   5.105694   5.709832   6.699832
    38  H    0.960000   1.974396   2.783313   2.925339   2.340181
    39  H    2.394265   2.558546   4.043162   5.011351   4.882317
    40  H    3.682950   3.363053   4.630179   5.875911   6.000779
    41  H    2.631440   2.149732   2.866468   4.229794   4.513198
    42  H    2.036720   1.070000   2.108923   2.745475   2.821821
    43  H    2.559494   2.075911   1.070000   2.004824   2.503475
    44  H    4.222554   2.912803   2.122517   2.580079   3.443034
    45  H    4.189926   3.119401   2.740682   4.060075   4.793725
                    6          7          8          9         10
     6  C    0.000000
     7  O    1.434750   0.000000
     8  H    2.068849   1.000264   0.000000
     9  C    4.333094   5.612241   6.324620   0.000000
    10  O    4.912831   6.288285   6.965459   1.436118   0.000000
    11  H    5.891912   7.259134   7.940104   2.002517   0.999434
    12  C    2.957925   4.150320   4.883680   1.519673   2.625970
    13  O    2.492544   3.650038   4.498405   2.379920   2.913287
    14  C    1.520665   2.330551   3.259885   3.696503   4.309047
    15  O    2.580547   2.963876   3.880459   4.612295   4.958619
    16  C    3.729024   3.730156   4.667105   5.431912   5.902918
    17  C    4.768623   5.061880   6.034437   5.196938   5.553431
    18  O    4.748111   5.307964   6.304440   4.092075   4.590667
    19  H    4.054444   4.831415   5.802695   3.210948   3.684204
    20  C    6.008665   6.034271   6.974360   6.580252   6.993318
    21  O    7.149144   7.326531   8.291548   6.947838   7.271315
    22  H    7.147757   7.431804   8.420692   6.446684   6.852043
    23  C    4.306694   3.561192   4.115727   7.473639   7.900738
    24  O    5.592911   4.715777   5.072763   8.890444   9.260853
    25  H    6.118695   5.379804   5.724120   9.285920   9.514681
    26  C    4.537922   4.223806   4.993262   6.825174   7.155811
    27  O    5.784817   5.372001   6.141520   7.725994   8.130080
    28  C    6.581613   6.420952   7.266588   7.759110   8.040994
    29  O    7.793696   7.509923   8.334381   8.883474   9.252284
    30  H    8.387296   8.039067   8.809089   9.683938   9.984126
    31  H    6.829422   6.790690   7.614348   7.899558   7.989674
    32  H    6.006497   5.871240   6.795943   6.765409   7.377885
    33  H    5.059301   5.484764   6.417518   5.347389   5.421929
    34  H    3.708501   3.490076   4.428812   5.548697   6.255845
    35  H    4.853594   4.724434   5.445220   6.973980   7.088353
    36  H    4.191490   3.255549   3.823025   7.399387   8.012367
    37  H    3.626147   2.930103   3.389956   7.125623   7.473640
    38  H    4.183634   5.265078   5.456671   3.520207   4.213461
    39  H    4.828576   6.097003   6.709695   1.070000   2.012321
    40  H    4.961739   6.122783   6.921778   1.070000   2.012321
    41  H    3.312542   4.230538   4.998481   2.148946   3.471880
    42  H    2.836078   4.216907   4.606616   2.622335   2.930939
    43  H    2.081010   2.564432   2.900768   4.197151   5.216009
    44  H    1.070000   2.049136   2.400420   4.647716   4.926024
    45  H    2.068635   2.436244   3.401581   3.933669   4.820798
                   11         12         13         14         15
    11  H    0.000000
    12  C    3.429424   0.000000
    13  O    3.831874   1.435218   0.000000
    14  C    5.250512   2.391764   1.434874   0.000000
    15  O    5.861564   3.562368   2.255179   1.434637   0.000000
    16  C    6.712289   4.426068   3.254089   2.503949   1.435205
    17  C    6.204186   4.564770   3.444264   3.316180   2.387435
    18  O    5.139694   3.676328   2.870831   3.231298   2.886280
    19  H    4.324501   2.790481   1.930070   2.578298   2.509133
    20  C    7.578622   5.940297   4.910826   4.627095   3.643789
    21  O    7.692089   6.588813   5.667099   5.684541   4.790181
    22  H    7.193040   6.202369   5.458962   5.647243   4.973183
    23  C    8.808524   6.249630   5.118504   3.895425   2.947081
    24  O   10.166840   7.676661   6.525747   5.309236   4.320039
    25  H   10.405770   8.162981   6.918187   5.802486   4.674834
    26  C    7.986938   5.805420   4.551450   3.644013   2.371189
    27  O    8.885197   6.766172   5.598206   4.783519   3.600504
    28  C    8.682342   7.042416   5.857347   5.367003   4.133034
    29  O    9.840994   8.174130   7.090681   6.584265   5.444812
    30  H   10.588924   8.960271   7.813162   7.250794   6.030789
    31  H    8.612068   7.296261   6.013257   5.635389   4.291481
    32  H    7.979129   5.991517   5.122634   4.692532   3.915772
    33  H    6.051637   4.889885   3.630445   3.669135   2.563313
    34  H    7.057043   4.399983   3.493124   2.591720   2.058634
    35  H    7.904740   6.093747   4.726541   3.993156   2.583720
    36  H    8.914009   6.079568   5.127313   3.822166   3.179444
    37  H    8.422297   5.886275   4.754232   3.495966   2.680416
    38  H    4.760139   3.179954   4.293037   4.759154   6.121649
    39  H    2.277791   2.084562   3.263360   4.443978   5.513614
    40  H    2.248367   2.084562   2.764377   4.061821   4.815471
    41  H    4.136249   1.070000   2.073811   2.656403   3.831173
    42  H    3.788034   2.110300   2.610493   3.209012   4.369941
    43  H    6.054948   2.802181   3.305973   2.805058   4.177585
    44  H    5.921789   3.484648   2.845124   2.124562   2.807410
    45  H    5.689568   2.538416   2.006076   1.070000   2.000840
                   16         17         18         19         20
    16  C    0.000000
    17  C    1.520825   0.000000
    18  O    2.490378   1.434409   0.000000
    19  H    2.648069   2.007056   1.000060   0.000000
    20  C    2.368947   1.519271   2.543545   3.380310   0.000000
    21  O    3.673365   2.422273   2.920999   3.864804   1.435244
    22  H    3.967996   2.622724   2.591790   3.564323   2.033286
    23  C    2.516951   3.881980   5.005759   5.091316   4.107950
    24  O    3.821952   5.029648   6.272722   6.437724   4.958575
    25  H    4.247066   5.300657   6.623653   6.785617   5.214806
    26  C    1.518797   2.538959   3.832516   4.060767   2.754663
    27  O    2.354169   2.837026   4.178676   4.703619   2.221761
    28  C    2.889154   2.568261   3.881935   4.574494   1.519859
    29  O    4.098570   3.728369   4.856828   5.680055   2.314885
    30  H    4.747143   4.490465   5.702080   6.480353   3.174046
    31  H    3.300397   2.869451   4.197488   4.784845   2.205838
    32  H    2.540638   2.110730   2.847797   3.693755   1.070000
    33  H    2.098530   1.070000   2.017067   2.335049   2.095147
    34  H    1.070000   2.133918   2.745775   2.966407   2.666158
    35  H    2.144733   2.812905   4.136549   4.278891   3.161102
    36  H    2.623712   4.039619   4.991504   5.111470   4.199106
    37  H    2.808010   4.230922   5.222338   5.101655   4.776000
    38  H    7.205016   7.643749   6.850642   5.960123   9.012810
    39  H    6.356758   6.197289   5.059031   4.213958   7.550292
    40  H    5.376332   4.893310   3.613755   2.900270   6.155818
    41  H    4.402696   4.536348   3.559008   2.875459   5.750140
    42  H    5.620712   6.036069   5.433963   4.465078   7.500569
    43  H    4.999989   5.859996   5.440348   4.778430   7.004723
    44  H    4.134792   5.138791   5.231956   4.481668   6.434342
    45  H    2.474879   3.286463   3.084694   2.640818   4.402427
                   21         22         23         24         25
    21  O    0.000000
    22  H    1.000137   0.000000
    23  C    5.521935   6.072582   0.000000
    24  O    6.303940   6.988194   1.434862   0.000000
    25  H    6.469775   7.235882   2.104326   0.999580   0.000000
    26  C    4.119082   4.714560   1.520031   2.513051   2.794912
    27  O    3.501217   4.235792   2.378232   2.841714   3.112383
    28  C    2.377597   3.279208   3.690106   4.143611   4.196237
    29  O    2.659818   3.548681   4.651620   4.847696   4.932040
    30  H    3.485767   4.418389   4.907625   4.834773   4.771008
    31  H    2.758903   3.695408   4.035933   4.404772   4.226231
    32  H    2.039344   2.359708   4.096639   4.952636   5.386768
    33  H    2.705265   3.040306   4.168063   5.216085   5.295028
    34  H    3.972532   4.135925   2.677677   3.985374   4.616434
    35  H    4.341729   5.008761   2.146083   2.850786   2.763989
    36  H    5.630822   6.069940   1.070000   2.037624   2.933821
    37  H    6.165955   6.654202   1.070000   2.037624   2.502003
    38  H    9.751836   9.362372   8.419565   9.753450  10.284696
    39  H    7.914922   7.362220   8.304703   9.728435  10.168587
    40  H    6.347555   5.738017   7.625731   9.040149   9.445499
    41  H    6.386915   5.923001   6.268179   7.698258   8.281477
    42  H    8.272347   8.021626   6.892306   8.222382   8.618880
    43  H    8.030118   7.809417   5.805283   7.097622   7.783980
    44  H    7.560004   7.633701   4.502828   5.684403   6.061902
    45  H    5.468357   5.349843   3.951773   5.373182   6.002876
                   26         27         28         29         30
    26  C    0.000000
    27  O    1.434825   0.000000
    28  C    2.394101   1.434579   0.000000
    29  O    3.603302   2.286625   1.435489   0.000000
    30  H    3.984914   2.672285   1.975081   0.960000   0.000000
    31  H    2.678690   2.132721   1.070000   2.139096   2.341610
    32  H    3.018284   2.330634   2.111852   2.475753   3.398932
    33  H    2.735498   3.184236   2.704047   3.999639   4.621021
    34  H    2.132103   2.630788   3.354101   4.301384   5.019320
    35  H    1.070000   2.069921   2.584931   3.915537   4.156307
    36  H    2.111837   2.660188   4.032293   4.821548   5.189264
    37  H    2.111837   3.295840   4.474921   5.575568   5.838419
    38  H    8.397638   9.509487  10.008909  11.163403  11.911041
    39  H    7.760225   8.669312   8.758444   9.853582  10.671259
    40  H    6.830241   7.559551   7.449126   8.469503   9.311727
    41  H    5.851654   6.650868   6.956468   7.956659   8.793826
    42  H    6.721429   7.932714   8.356982   9.624661  10.305566
    43  H    6.056294   7.073295   7.851617   8.894011   9.602783
    44  H    4.737645   6.099774   6.858061   8.156513   8.674567
    45  H    3.745325   4.652817   5.286173   6.347191   7.082422
                   31         32         33         34         35
    31  H    0.000000
    32  H    3.046206   0.000000
    33  H    2.580728   2.967411   0.000000
    34  H    4.009904   2.383647   2.988139   0.000000
    35  H    2.415883   3.710720   2.580910   3.019722   0.000000
    36  H    4.602924   3.918683   4.568508   2.337477   3.002366
    37  H    4.665892   4.858537   4.390277   3.083168   2.408505
    38  H   10.252328   8.974544   7.923132   7.068731   8.669649
    39  H    8.938226   7.658536   6.399553   6.374064   7.953482
    40  H    7.636359   6.319287   5.112882   5.451648   7.027097
    41  H    7.357267   5.624667   5.074249   4.138321   6.307510
    42  H    8.454519   7.656038   6.125522   5.750551   6.821329
    43  H    8.284914   6.759253   6.389869   4.597763   6.582746
    44  H    6.949403   6.581258   5.216372   4.351045   4.829553
    45  H    5.746594   4.234754   3.923067   2.123924   4.340046
                   36         37         38         39         40
    36  H    0.000000
    37  H    1.732841   0.000000
    38  H    8.174421   7.804178   0.000000
    39  H    8.159001   7.918288   2.934112   0.000000
    40  H    7.514054   7.421807   4.412394   1.717321   0.000000
    41  H    5.932287   6.046313   3.561457   2.523022   2.290891
    42  H    6.868918   6.224985   2.161787   2.727443   3.642981
    43  H    5.354982   5.323493   3.090284   4.291204   4.781712
    44  H    4.619314   3.649117   4.456720   5.169073   5.381072
    45  H    3.605795   3.777890   4.950854   4.599435   4.115172
                   41         42         43         44         45
    41  H    0.000000
    42  H    3.006784   0.000000
    43  H    2.685432   2.952349   0.000000
    44  H    4.075476   2.824648   2.957283   0.000000
    45  H    2.343660   3.791806   2.607673   2.956125   0.000000
 Stoichiometry    C12H22O11
 Framework group  C1[X(C12H22O11)]
 Deg. of freedom   129
 Full point group                 C1      NOp   1
 Largest Abelian subgroup         C1      NOp   1
 Largest concise Abelian subgroup C1      NOp   1
                         Standard orientation:                         
 ---------------------------------------------------------------------
 Center     Atomic      Atomic             Coordinates (Angstroms)
 Number     Number       Type             X           Y           Z
 ---------------------------------------------------------------------
      1          8           0        4.965650   -0.330150   -0.930522
      2          6           0        3.809859   -0.027277   -0.136270
      3          6           0        3.324292    1.381899   -0.433174
      4          8           0        4.205660    2.477203   -0.142989
      5          1           0        5.177218    2.274959   -0.262012
      6          6           0        1.962146    1.659623    0.179843
      7          8           0        1.230655    2.719498   -0.452686
      8          1           0        1.654944    3.623414   -0.393998
      9          6           0        3.326274   -2.452952    0.140094
     10          8           0        3.405959   -2.840801    1.520550
     11          1           0        3.762100   -3.772614    1.581836
     12          6           0        2.786360   -1.127342   -0.370448
     13          8           0        1.638648   -0.799500    0.426502
     14          6           0        1.043801    0.453580    0.059335
     15          8           0       -0.239811    0.418255    0.699080
     16          6           0       -1.439336    0.147406   -0.040917
     17          6           0       -1.748732   -1.334326    0.106235
     18          8           0       -0.725597   -2.214291   -0.379961
     19          1           0        0.154513   -1.966256    0.025015
     20          6           0       -3.144830   -1.435806   -0.484356
     21          8           0       -3.585226   -2.801798   -0.477906
     22          1           0       -2.953054   -3.401071   -0.969337
     23          6           0       -2.259082    2.512092    0.226139
     24          8           0       -3.336641    3.422842    0.487348
     25          1           0       -3.781831    3.391821    1.381778
     26          6           0       -2.520243    1.046545    0.533482
     27          8           0       -3.729918    0.680634   -0.145867
     28          6           0       -4.212418   -0.618620    0.224470
     29          8           0       -5.380079   -0.841526   -0.580212
     30          1           0       -6.146227   -0.460664   -0.144825
     31          1           0       -4.314566   -0.799317    1.274144
     32          1           0       -3.097421   -1.106660   -1.501368
     33          1           0       -1.842340   -1.529950    1.154028
     34          1           0       -1.286178    0.382653   -1.073439
     35          1           0       -2.619025    0.892803    1.587762
     36          1           0       -2.002750    2.591891   -0.809634
     37          1           0       -1.414412    2.825337    0.803468
     38          1           0        5.749863    0.018472   -0.500322
     39          1           0        4.321645   -2.531777   -0.244516
     40          1           0        2.747698   -3.211384   -0.344602
     41          1           0        2.525771   -1.193440   -1.406124
     42          1           0        4.099209   -0.062978    0.893245
     43          1           0        3.175535    1.410770   -1.492390
     44          1           0        2.090386    1.896483    1.215387
     45          1           0        0.835990    0.375653   -0.987394
 ---------------------------------------------------------------------
 Rotational constants (GHZ):      0.3957118      0.1444678      0.1112762
 Standard basis: 6-31+G(d,p) (6D, 7F)
 There are   547 symmetry adapted basis functions of A   symmetry.
 Integral buffers will be    131072 words long.
 Raffenetti 2 integral format.
 Two-electron integral symmetry is turned on.
   547 basis functions,   890 primitive gaussians,   547 cartesian basis functions
    91 alpha electrons       91 beta electrons
       nuclear repulsion energy      2275.6140425359 Hartrees.
 NAtoms=   45 NActive=   45 NUniq=   45 SFac= 1.00D+00 NAtFMM=   50 NAOKFM=F Big=F
 One-electron integrals computed using PRISM.
 NBasis=   547 RedAO= T  NBF=   547
 NBsUse=   547 1.00D-06 NBFU=   547
 Harris functional with IExCor=  402 diagonalized for initial guess.
 ExpMin= 4.38D-02 ExpMax= 5.48D+03 ExpMxC= 8.25D+02 IAcc=2 IRadAn=         0 AccDes= 0.00D+00
 HarFok:  IExCor=  402 AccDes= 0.00D+00 IRadAn=         0 IDoV= 1
 ScaDFX=  1.000000  1.000000  1.000000  1.000000
 FoFCou: FMM=F IPFlag=           0 FMFlag=      100000 FMFlg1=           0
         NFxFlg=           0 DoJE=T BraDBF=F KetDBF=T FulRan=T
         Omega=  0.000000  0.000000  1.000000  0.000000  0.000000 ICntrl=     500 IOpCl=  0
         NMat0=    1 NMatS0=    1 NMatT0=    0 NMatD0=    1 NMtDS0=    0 NMtDT0=    0
         I1Cent=           4 NGrid=           0.
 Petite list used in FoFCou.
 Initial guess orbital symmetries:
       Occupied  (A) (A) (A) (A) (A) (A) (A) (A) (A) (A) (A) (A)
                 (A) (A) (A) (A) (A) (A) (A) (A) (A) (A) (A) (A)
                 (A) (A) (A) (A) (A) (A) (A) (A) (A) (A) (A) (A)
                 (A) (A) (A) (A) (A) (A) (A) (A) (A) (A) (A) (A)
                 (A) (A) (A) (A) (A) (A) (A) (A) (A) (A) (A) (A)
                 (A) (A) (A) (A) (A) (A) (A) (A) (A) (A) (A) (A)
                 (A) (A) (A) (A) (A) (A) (A) (A) (A) (A) (A) (A)
                 (A) (A) (A) (A) (A) (A) (A)
       Virtual   (A) (A) (A) (A) (A) (A) (A) (A) (A) (A) (A) (A)
                 (A) (A) (A) (A) (A) (A) (A) (A) (A) (A) (A) (A)
                 (A) (A) (A) (A) (A) (A) (A) (A) (A) (A) (A) (A)
                 (A) (A) (A) (A) (A) (A) (A) (A) (A) (A) (A) (A)
                 (A) (A) (A) (A) (A) (A) (A) (A) (A) (A) (A) (A)
                 (A) (A) (A) (A) (A) (A) (A) (A) (A) (A) (A) (A)
                 (A) (A) (A) (A) (A) (A) (A) (A) (A) (A) (A) (A)
                 (A) (A) (A) (A) (A) (A) (A) (A) (A) (A) (A) (A)
                 (A) (A) (A) (A) (A) (A) (A) (A) (A) (A) (A) (A)
                 (A) (A) (A) (A) (A) (A) (A) (A) (A) (A) (A) (A)
                 (A) (A) (A) (A) (A) (A) (A) (A) (A) (A) (A) (A)
                 (A) (A) (A) (A) (A) (A) (A) (A) (A) (A) (A) (A)
                 (A) (A) (A) (A) (A) (A) (A) (A) (A) (A) (A) (A)
                 (A) (A) (A) (A) (A) (A) (A) (A) (A) (A) (A) (A)
                 (A) (A) (A) (A) (A) (A) (A) (A) (A) (A) (A) (A)
                 (A) (A) (A) (A) (A) (A) (A) (A) (A) (A) (A) (A)
                 (A) (A) (A) (A) (A) (A) (A) (A) (A) (A) (A) (A)
                 (A) (A) (A) (A) (A) (A) (A) (A) (A) (A) (A) (A)
                 (A) (A) (A) (A) (A) (A) (A) (A) (A) (A) (A) (A)
                 (A) (A) (A) (A) (A) (A) (A) (A) (A) (A) (A) (A)
                 (A) (A) (A) (A) (A) (A) (A) (A) (A) (A) (A) (A)
                 (A) (A) (A) (A) (A) (A) (A) (A) (A) (A) (A) (A)
                 (A) (A) (A) (A) (A) (A) (A) (A) (A) (A) (A) (A)
                 (A) (A) (A) (A) (A) (A) (A) (A) (A) (A) (A) (A)
                 (A) (A) (A) (A) (A) (A) (A) (A) (A) (A) (A) (A)
                 (A) (A) (A) (A) (A) (A) (A) (A) (A) (A) (A) (A)
                 (A) (A) (A) (A) (A) (A) (A) (A) (A) (A) (A) (A)
                 (A) (A) (A) (A) (A) (A) (A) (A) (A) (A) (A) (A)
                 (A) (A) (A) (A) (A) (A) (A) (A) (A) (A) (A) (A)
                 (A) (A) (A) (A) (A) (A) (A) (A) (A) (A) (A) (A)
                 (A) (A) (A) (A) (A) (A) (A) (A) (A) (A) (A) (A)
                 (A) (A) (A) (A) (A) (A) (A) (A) (A) (A) (A) (A)
                 (A) (A) (A) (A) (A) (A) (A) (A) (A) (A) (A) (A)
                 (A) (A) (A) (A) (A) (A) (A) (A) (A) (A) (A) (A)
                 (A) (A) (A) (A) (A) (A) (A) (A) (A) (A) (A) (A)
                 (A) (A) (A) (A) (A) (A) (A) (A) (A) (A) (A) (A)
                 (A) (A) (A) (A) (A) (A) (A) (A) (A) (A) (A) (A)
                 (A) (A) (A) (A) (A) (A) (A) (A) (A) (A) (A) (A)
 The electronic state of the initial guess is 1-A.
 Requested convergence on RMS density matrix=1.00D-08 within 128 cycles.
 Requested convergence on MAX density matrix=1.00D-06.
 Requested convergence on             energy=1.00D-06.
 No special actions if energy rises.
 SCF Done:  E(RB3LYP) =  -1297.91819576     A.U. after   14 cycles
             Convg  =    0.2726D-08             -V/T =  2.0088
 Range of M.O.s used for correlation:     1   547
 NBasis=   547 NAE=    91 NBE=    91 NFC=     0 NFV=     0
 NROrb=    547 NOA=    91 NOB=    91 NVA=   456 NVB=   456

 **** Warning!!: The largest alpha MO coefficient is  0.68959562D+02

          Differentiating once with respect to electric field.
                with respect to dipole field.
          Electric field/nuclear overlap derivatives assumed to be zero.
          There are     3 degrees of freedom in the 1st order CPHF.  IDoFFX=0.
      3 vectors produced by pass  0 Test12= 1.38D-12 3.33D-08 XBig12= 1.19D+02 1.54D+00.
 AX will form     3 AO Fock derivatives at one time.
      3 vectors produced by pass  1 Test12= 1.38D-12 3.33D-08 XBig12= 2.38D+01 4.04D-01.
      3 vectors produced by pass  2 Test12= 1.38D-12 3.33D-08 XBig12= 9.34D+00 2.14D-01.
      3 vectors produced by pass  3 Test12= 1.38D-12 3.33D-08 XBig12= 9.73D-01 7.46D-02.
      3 vectors produced by pass  4 Test12= 1.38D-12 3.33D-08 XBig12= 2.87D-01 3.58D-02.
      3 vectors produced by pass  5 Test12= 1.38D-12 3.33D-08 XBig12= 5.24D-02 1.77D-02.
      3 vectors produced by pass  6 Test12= 1.38D-12 3.33D-08 XBig12= 1.86D-02 1.06D-02.
      3 vectors produced by pass  7 Test12= 1.38D-12 3.33D-08 XBig12= 2.34D-03 5.70D-03.
      3 vectors produced by pass  8 Test12= 1.38D-12 3.33D-08 XBig12= 5.78D-04 1.89D-03.
      3 vectors produced by pass  9 Test12= 1.38D-12 3.33D-08 XBig12= 1.29D-04 9.39D-04.
      3 vectors produced by pass 10 Test12= 1.38D-12 3.33D-08 XBig12= 2.01D-05 5.81D-04.
      3 vectors produced by pass 11 Test12= 1.38D-12 3.33D-08 XBig12= 6.89D-06 3.01D-04.
      3 vectors produced by pass 12 Test12= 1.38D-12 3.33D-08 XBig12= 8.08D-07 1.17D-04.
      3 vectors produced by pass 13 Test12= 1.38D-12 3.33D-08 XBig12= 1.37D-07 4.81D-05.
      3 vectors produced by pass 14 Test12= 1.38D-12 3.33D-08 XBig12= 2.08D-08 2.69D-05.
      3 vectors produced by pass 15 Test12= 1.38D-12 3.33D-08 XBig12= 3.89D-09 1.03D-05.
      3 vectors produced by pass 16 Test12= 1.38D-12 3.33D-08 XBig12= 6.49D-10 4.02D-06.
      3 vectors produced by pass 17 Test12= 1.38D-12 3.33D-08 XBig12= 6.74D-11 9.23D-07.
      3 vectors produced by pass 18 Test12= 1.38D-12 3.33D-08 XBig12= 1.98D-11 3.10D-07.
      3 vectors produced by pass 19 Test12= 1.38D-12 3.33D-08 XBig12= 9.01D-12 2.41D-07.
      3 vectors produced by pass 20 Test12= 1.38D-12 3.33D-08 XBig12= 3.07D-12 1.14D-07.
      2 vectors produced by pass 21 Test12= 1.38D-12 3.33D-08 XBig12= 7.74D-13 6.09D-08.
      1 vectors produced by pass 22 Test12= 1.38D-12 3.33D-08 XBig12= 3.27D-13 5.60D-08.
 Inverted reduced A of dimension    66 with in-core refinement.
 End of Minotr Frequency-dependent properties file   721 does not exist.
 End of Minotr Frequency-dependent properties file   722 does not exist.
 Symmetrizing basis deriv contribution to polar:
 IMax=3 JMax=2 DiffMx= 0.00D+00
 G2DrvN: will do    23 centers at a time, making    2 passes doing MaxLOS=2.
 Calling FoFCou, ICntrl=  3107 FMM=F I1Cent=   0 AccDes= 0.00D+00.
 Calling FoFCou, ICntrl=  3107 FMM=F I1Cent=   0 AccDes= 0.00D+00.
 FoFDir/FoFCou used for L=0 through L=2.
 End of G2Drv Frequency-dependent properties file   721 does not exist.
 End of G2Drv Frequency-dependent properties file   722 does not exist.
          IDoAtm=111111111111111111111111111111111111111111111
          Differentiating once with respect to electric field.
                with respect to dipole field.
          Differentiating once with respect to nuclear coordinates.
          There are   138 degrees of freedom in the 1st order CPHF.  IDoFFX=5.
 Will reuse    3 saved solutions.
    135 vectors produced by pass  0 Test12= 4.15D-14 1.00D-09 XBig12= 2.42D-01 7.46D-02.
 AX will form    68 AO Fock derivatives at one time.
    135 vectors produced by pass  1 Test12= 4.15D-14 1.00D-09 XBig12= 2.40D-02 1.67D-02.
    132 vectors produced by pass  2 Test12= 4.15D-14 1.00D-09 XBig12= 2.67D-04 1.88D-03.
    132 vectors produced by pass  3 Test12= 4.15D-14 1.00D-09 XBig12= 7.02D-07 1.10D-04.
    132 vectors produced by pass  4 Test12= 4.15D-14 1.00D-09 XBig12= 1.01D-09 2.15D-06.
    130 vectors produced by pass  5 Test12= 4.15D-14 1.00D-09 XBig12= 4.14D-12 1.25D-07.
     76 vectors produced by pass  6 Test12= 4.15D-14 1.00D-09 XBig12= 9.49D-14 2.33D-08.
 Inverted reduced A of dimension   872 with in-core refinement.
 Isotropic polarizability for W=    0.000000      187.46 Bohr**3.
 End of Minotr Frequency-dependent properties file   721 does not exist.
 End of Minotr Frequency-dependent properties file   722 does not exist.

 **********************************************************************

            Population analysis using the SCF density.

 **********************************************************************

 Orbital symmetries:
       Occupied  (A) (A) (A) (A) (A) (A) (A) (A) (A) (A) (A) (A)
                 (A) (A) (A) (A) (A) (A) (A) (A) (A) (A) (A) (A)
                 (A) (A) (A) (A) (A) (A) (A) (A) (A) (A) (A) (A)
                 (A) (A) (A) (A) (A) (A) (A) (A) (A) (A) (A) (A)
                 (A) (A) (A) (A) (A) (A) (A) (A) (A) (A) (A) (A)
                 (A) (A) (A) (A) (A) (A) (A) (A) (A) (A) (A) (A)
                 (A) (A) (A) (A) (A) (A) (A) (A) (A) (A) (A) (A)
                 (A) (A) (A) (A) (A) (A) (A)
       Virtual   (A) (A) (A) (A) (A) (A) (A) (A) (A) (A) (A) (A)
                 (A) (A) (A) (A) (A) (A) (A) (A) (A) (A) (A) (A)
                 (A) (A) (A) (A) (A) (A) (A) (A) (A) (A) (A) (A)
                 (A) (A) (A) (A) (A) (A) (A) (A) (A) (A) (A) (A)
                 (A) (A) (A) (A) (A) (A) (A) (A) (A) (A) (A) (A)
                 (A) (A) (A) (A) (A) (A) (A) (A) (A) (A) (A) (A)
                 (A) (A) (A) (A) (A) (A) (A) (A) (A) (A) (A) (A)
                 (A) (A) (A) (A) (A) (A) (A) (A) (A) (A) (A) (A)
                 (A) (A) (A) (A) (A) (A) (A) (A) (A) (A) (A) (A)
                 (A) (A) (A) (A) (A) (A) (A) (A) (A) (A) (A) (A)
                 (A) (A) (A) (A) (A) (A) (A) (A) (A) (A) (A) (A)
                 (A) (A) (A) (A) (A) (A) (A) (A) (A) (A) (A) (A)
                 (A) (A) (A) (A) (A) (A) (A) (A) (A) (A) (A) (A)
                 (A) (A) (A) (A) (A) (A) (A) (A) (A) (A) (A) (A)
                 (A) (A) (A) (A) (A) (A) (A) (A) (A) (A) (A) (A)
                 (A) (A) (A) (A) (A) (A) (A) (A) (A) (A) (A) (A)
                 (A) (A) (A) (A) (A) (A) (A) (A) (A) (A) (A) (A)
                 (A) (A) (A) (A) (A) (A) (A) (A) (A) (A) (A) (A)
                 (A) (A) (A) (A) (A) (A) (A) (A) (A) (A) (A) (A)
                 (A) (A) (A) (A) (A) (A) (A) (A) (A) (A) (A) (A)
                 (A) (A) (A) (A) (A) (A) (A) (A) (A) (A) (A) (A)
                 (A) (A) (A) (A) (A) (A) (A) (A) (A) (A) (A) (A)
                 (A) (A) (A) (A) (A) (A) (A) (A) (A) (A) (A) (A)
                 (A) (A) (A) (A) (A) (A) (A) (A) (A) (A) (A) (A)
                 (A) (A) (A) (A) (A) (A) (A) (A) (A) (A) (A) (A)
                 (A) (A) (A) (A) (A) (A) (A) (A) (A) (A) (A) (A)
                 (A) (A) (A) (A) (A) (A) (A) (A) (A) (A) (A) (A)
                 (A) (A) (A) (A) (A) (A) (A) (A) (A) (A) (A) (A)
                 (A) (A) (A) (A) (A) (A) (A) (A) (A) (A) (A) (A)
                 (A) (A) (A) (A) (A) (A) (A) (A) (A) (A) (A) (A)
                 (A) (A) (A) (A) (A) (A) (A) (A) (A) (A) (A) (A)
                 (A) (A) (A) (A) (A) (A) (A) (A) (A) (A) (A) (A)
                 (A) (A) (A) (A) (A) (A) (A) (A) (A) (A) (A) (A)
                 (A) (A) (A) (A) (A) (A) (A) (A) (A) (A) (A) (A)
                 (A) (A) (A) (A) (A) (A) (A) (A) (A) (A) (A) (A)
                 (A) (A) (A) (A) (A) (A) (A) (A) (A) (A) (A) (A)
                 (A) (A) (A) (A) (A) (A) (A) (A) (A) (A) (A) (A)
                 (A) (A) (A) (A) (A) (A) (A) (A) (A) (A) (A) (A)
 The electronic state is 1-A.
 Alpha  occ. eigenvalues --  -19.19693 -19.19558 -19.19499 -19.18177 -19.17821
 Alpha  occ. eigenvalues --  -19.17497 -19.16744 -19.16290 -19.15909 -19.15371
 Alpha  occ. eigenvalues --  -19.14134 -10.31529 -10.29846 -10.27835 -10.27047
 Alpha  occ. eigenvalues --  -10.27031 -10.26753 -10.25080 -10.25071 -10.24832
 Alpha  occ. eigenvalues --  -10.23925 -10.23468 -10.23017  -1.10029  -1.07644
 Alpha  occ. eigenvalues --   -1.07090  -1.05147  -1.04062  -1.03318  -1.02888
 Alpha  occ. eigenvalues --   -1.01981  -1.01444  -1.00201  -0.99554  -0.82491
 Alpha  occ. eigenvalues --   -0.81984  -0.79004  -0.77954  -0.72341  -0.69780
 Alpha  occ. eigenvalues --   -0.68035  -0.65210  -0.63435  -0.62303  -0.61727
 Alpha  occ. eigenvalues --   -0.60664  -0.57359  -0.56203  -0.55559  -0.54277
 Alpha  occ. eigenvalues --   -0.53518  -0.53242  -0.53105  -0.52389  -0.51380
 Alpha  occ. eigenvalues --   -0.50197  -0.49626  -0.48793  -0.47797  -0.46680
 Alpha  occ. eigenvalues --   -0.46058  -0.45527  -0.44860  -0.43716  -0.43341
 Alpha  occ. eigenvalues --   -0.42904  -0.42304  -0.40995  -0.40334  -0.39082
 Alpha  occ. eigenvalues --   -0.38872  -0.37236  -0.36649  -0.36072  -0.35767
 Alpha  occ. eigenvalues --   -0.35617  -0.34886  -0.33983  -0.33268  -0.32938
 Alpha  occ. eigenvalues --   -0.31859  -0.31152  -0.30907  -0.30437  -0.30071
 Alpha  occ. eigenvalues --   -0.29286  -0.28871  -0.28312  -0.27386  -0.26181
 Alpha  occ. eigenvalues --   -0.25718
 Alpha virt. eigenvalues --   -0.04051  -0.02104  -0.00835  -0.00246   0.00387
 Alpha virt. eigenvalues --    0.01354   0.01686   0.02064   0.02439   0.02783
 Alpha virt. eigenvalues --    0.03429   0.04272   0.04740   0.05042   0.05859
 Alpha virt. eigenvalues --    0.06505   0.06514   0.06837   0.07505   0.08007
 Alpha virt. eigenvalues --    0.08417   0.08721   0.09369   0.09504   0.10045
 Alpha virt. eigenvalues --    0.10373   0.11110   0.11275   0.11526   0.11902
 Alpha virt. eigenvalues --    0.12110   0.12404   0.13178   0.13366   0.13704
 Alpha virt. eigenvalues --    0.14231   0.14267   0.14727   0.15023   0.15126
 Alpha virt. eigenvalues --    0.15311   0.15731   0.16235   0.16633   0.16994
 Alpha virt. eigenvalues --    0.17292   0.17478   0.17856   0.18142   0.18810
 Alpha virt. eigenvalues --    0.18968   0.19232   0.19587   0.19807   0.20240
 Alpha virt. eigenvalues --    0.20450   0.20613   0.20912   0.21375   0.21676
 Alpha virt. eigenvalues --    0.21901   0.22073   0.22285   0.22597   0.23104
 Alpha virt. eigenvalues --    0.23429   0.23699   0.24000   0.24190   0.24543
 Alpha virt. eigenvalues --    0.24747   0.24973   0.25599   0.25971   0.26143
 Alpha virt. eigenvalues --    0.26421   0.26492   0.27030   0.27335   0.27402
 Alpha virt. eigenvalues --    0.27654   0.28037   0.28135   0.28523   0.28934
 Alpha virt. eigenvalues --    0.29341   0.29638   0.29785   0.30178   0.30441
 Alpha virt. eigenvalues --    0.30926   0.31163   0.31497   0.31763   0.32259
 Alpha virt. eigenvalues --    0.32774   0.33111   0.33448   0.33773   0.34139
 Alpha virt. eigenvalues --    0.34373   0.34761   0.35322   0.35642   0.35844
 Alpha virt. eigenvalues --    0.36623   0.36817   0.37051   0.37067   0.37484
 Alpha virt. eigenvalues --    0.38069   0.38272   0.38591   0.39071   0.39604
 Alpha virt. eigenvalues --    0.39748   0.40222   0.40715   0.41036   0.41513
 Alpha virt. eigenvalues --    0.41685   0.42125   0.42918   0.43552   0.43691
 Alpha virt. eigenvalues --    0.44083   0.44643   0.45780   0.46172   0.46664
 Alpha virt. eigenvalues --    0.46849   0.47496   0.49000   0.49102   0.50039
 Alpha virt. eigenvalues --    0.51457   0.53583   0.55623   0.61636   0.64089
 Alpha virt. eigenvalues --    0.65523   0.66743   0.67983   0.69603   0.70535
 Alpha virt. eigenvalues --    0.71418   0.71981   0.73196   0.74260   0.75121
 Alpha virt. eigenvalues --    0.76560   0.77044   0.77478   0.77986   0.78545
 Alpha virt. eigenvalues --    0.79789   0.80326   0.81357   0.82754   0.83297
 Alpha virt. eigenvalues --    0.84704   0.85918   0.87241   0.88091   0.88870
 Alpha virt. eigenvalues --    0.91503   0.92293   0.93692   0.94972   0.95880
 Alpha virt. eigenvalues --    0.96273   0.98179   0.98473   0.98902   1.00075
 Alpha virt. eigenvalues --    1.00514   1.01251   1.02061   1.03641   1.04486
 Alpha virt. eigenvalues --    1.04817   1.05542   1.05793   1.06454   1.06855
 Alpha virt. eigenvalues --    1.07260   1.07904   1.08416   1.09578   1.10079
 Alpha virt. eigenvalues --    1.11166   1.11874   1.12370   1.13843   1.15185
 Alpha virt. eigenvalues --    1.15754   1.17188   1.17394   1.20086   1.20360
 Alpha virt. eigenvalues --    1.21770   1.23388   1.23851   1.24291   1.24961
 Alpha virt. eigenvalues --    1.25507   1.26064   1.26978   1.27482   1.28399
 Alpha virt. eigenvalues --    1.28684   1.29217   1.30087   1.30322   1.30868
 Alpha virt. eigenvalues --    1.31676   1.31802   1.32853   1.33454   1.34692
 Alpha virt. eigenvalues --    1.35485   1.35628   1.36537   1.37070   1.37676
 Alpha virt. eigenvalues --    1.39298   1.40255   1.40740   1.41435   1.42786
 Alpha virt. eigenvalues --    1.44085   1.44771   1.46145   1.48164   1.48914
 Alpha virt. eigenvalues --    1.50052   1.50885   1.52076   1.52637   1.53614
 Alpha virt. eigenvalues --    1.54165   1.54977   1.55809   1.56366   1.57329
 Alpha virt. eigenvalues --    1.58143   1.58774   1.59225   1.60031   1.61591
 Alpha virt. eigenvalues --    1.62374   1.63136   1.63821   1.64313   1.65534
 Alpha virt. eigenvalues --    1.65954   1.66161   1.66582   1.68058   1.68590
 Alpha virt. eigenvalues --    1.69105   1.69468   1.70038   1.71908   1.73116
 Alpha virt. eigenvalues --    1.73692   1.76348   1.76566   1.77340   1.78196
 Alpha virt. eigenvalues --    1.78680   1.79608   1.79876   1.80692   1.82049
 Alpha virt. eigenvalues --    1.83250   1.83643   1.84586   1.85733   1.86365
 Alpha virt. eigenvalues --    1.86871   1.87941   1.88804   1.89613   1.90003
 Alpha virt. eigenvalues --    1.90423   1.91092   1.92700   1.93664   1.93892
 Alpha virt. eigenvalues --    1.96005   1.96340   1.98106   1.98761   1.99305
 Alpha virt. eigenvalues --    2.00308   2.00611   2.02058   2.02720   2.03461
 Alpha virt. eigenvalues --    2.04507   2.05892   2.06764   2.07468   2.08211
 Alpha virt. eigenvalues --    2.09204   2.09557   2.10332   2.10762   2.11118
 Alpha virt. eigenvalues --    2.12763   2.13014   2.13330   2.15494   2.16494
 Alpha virt. eigenvalues --    2.16896   2.18395   2.19642   2.19982   2.21138
 Alpha virt. eigenvalues --    2.21838   2.23353   2.23783   2.26207   2.27091
 Alpha virt. eigenvalues --    2.28920   2.29475   2.31355   2.31941   2.33799
 Alpha virt. eigenvalues --    2.34499   2.35828   2.36147   2.37068   2.37395
 Alpha virt. eigenvalues --    2.38177   2.38937   2.40691   2.41473   2.43352
 Alpha virt. eigenvalues --    2.43703   2.45718   2.46328   2.48551   2.49242
 Alpha virt. eigenvalues --    2.50034   2.51972   2.53052   2.54273   2.55351
 Alpha virt. eigenvalues --    2.55850   2.56426   2.57656   2.58752   2.59618
 Alpha virt. eigenvalues --    2.60266   2.61011   2.61142   2.62750   2.63743
 Alpha virt. eigenvalues --    2.65121   2.66282   2.67165   2.67885   2.69032
 Alpha virt. eigenvalues --    2.69414   2.70045   2.70226   2.72587   2.73642
 Alpha virt. eigenvalues --    2.74879   2.76373   2.77521   2.77842   2.80200
 Alpha virt. eigenvalues --    2.81027   2.82650   2.82758   2.84857   2.85457
 Alpha virt. eigenvalues --    2.86197   2.86757   2.87570   2.88611   2.89924
 Alpha virt. eigenvalues --    2.90468   2.92116   2.92829   2.93484   2.94614
 Alpha virt. eigenvalues --    2.94877   2.96481   2.97340   2.98530   2.99459
 Alpha virt. eigenvalues --    3.01294   3.02501   3.03952   3.04398   3.06764
 Alpha virt. eigenvalues --    3.07668   3.07915   3.10665   3.12418   3.14808
 Alpha virt. eigenvalues --    3.16918   3.18213   3.22835   3.23719   3.33088
 Alpha virt. eigenvalues --    3.34977   3.37077   3.38664   3.41505   3.41959
 Alpha virt. eigenvalues --    3.42244   3.42719   3.43631   3.45751   3.47550
 Alpha virt. eigenvalues --    3.48400   3.50189   3.50806   3.52005   3.52741
 Alpha virt. eigenvalues --    3.54251   3.55792   3.58564   3.59279   3.61647
 Alpha virt. eigenvalues --    3.64201   3.66291   3.67415   4.28585   4.30427
 Alpha virt. eigenvalues --    4.32576   4.33269   4.35947   4.43699   4.46279
 Alpha virt. eigenvalues --    4.47250   4.50117   4.51586   4.52672   4.54745
 Alpha virt. eigenvalues --    4.55491   4.59564   4.64451   4.66411   4.73160
 Alpha virt. eigenvalues --    4.79232   4.81817   4.83555   4.84787   4.92026
 Alpha virt. eigenvalues --    4.93962
          Condensed to atoms (all electrons):
              1          2          3          4          5          6
     1  O    8.312971   0.250126  -0.059667  -0.002536   0.014719   0.030626
     2  C    0.250126  10.528275  -1.580332   0.019185  -0.066445  -2.097372
     3  C   -0.059667  -1.580332   7.690362   0.078524   0.066952  -0.186935
     4  O   -0.002536   0.019185   0.078524   8.292654   0.206461   0.002295
     5  H    0.014719  -0.066445   0.066952   0.206461   0.434377  -0.035280
     6  C    0.030626  -2.097372  -0.186935   0.002295  -0.035280  13.773211
     7  O   -0.001308   0.023677  -0.062190  -0.000798   0.000449   0.119681
     8  H   -0.000063   0.020083  -0.047687   0.006370  -0.000173   0.017858
     9  C   -0.062471  -0.019413  -0.311693   0.003728  -0.001203   0.140867
    10  O    0.006863   0.052364  -0.015922  -0.000058  -0.000004   0.009754
    11  H    0.000640  -0.002279   0.000523  -0.000007   0.000000  -0.002471
    12  C   -0.174505  -2.257501   0.203226   0.028876   0.018275   0.406752
    13  O    0.006615  -0.063300   0.026065  -0.001703  -0.000141   0.029980
    14  C    0.032093   0.977292  -0.393889  -0.020921   0.019718  -4.470379
    15  O    0.000459   0.001849  -0.017264  -0.000437   0.000048  -0.033264
    16  C    0.001878   0.180491   0.175593  -0.002459   0.000422  -0.775595
    17  C   -0.000395  -0.167780   0.046256   0.001056   0.000047  -0.135982
    18  O    0.000107   0.004471  -0.001129  -0.000015   0.000000  -0.002717
    19  H   -0.000047   0.005451   0.000262   0.000002   0.000000   0.001936
    20  C    0.000201  -0.000600   0.015954   0.000006   0.000002  -0.213126
    21  O    0.000000   0.000056  -0.000151   0.000000   0.000000   0.001361
    22  H    0.000000   0.000069  -0.000016   0.000000   0.000000   0.000275
    23  C   -0.000017   0.005086  -0.014129   0.000406  -0.000050  -0.189232
    24  O    0.000000  -0.000076  -0.000561   0.000002   0.000000   0.004509
    25  H    0.000000  -0.000003   0.000005   0.000000   0.000000   0.001527
    26  C    0.000005  -0.057793  -0.007241  -0.000651   0.000020  -0.258438
    27  O    0.000000  -0.000076   0.000394  -0.000001   0.000000  -0.005264
    28  C    0.000002   0.004980  -0.002430   0.000007   0.000000   0.049496
    29  O    0.000000   0.000023  -0.000028   0.000000   0.000000   0.000249
    30  H    0.000000   0.000000   0.000000   0.000000   0.000000   0.000018
    31  H    0.000000   0.000011  -0.000008   0.000000   0.000000   0.000480
    32  H    0.000000   0.000067  -0.000107   0.000000   0.000000   0.001168
    33  H    0.000000   0.000696  -0.000556   0.000000   0.000000   0.006026
    34  H   -0.000003  -0.000446  -0.001828   0.000007   0.000000   0.001822
    35  H    0.000000   0.000265  -0.000854   0.000000   0.000000   0.005443
    36  H    0.000000   0.000256  -0.002364   0.000002   0.000000   0.008704
    37  H    0.000000   0.000126   0.003953  -0.000003   0.000000  -0.024818
    38  H    0.229659   0.012704  -0.051758   0.002782   0.001409   0.003819
    39  H   -0.003842  -0.025484   0.001962   0.000063   0.000000   0.008729
    40  H   -0.000065  -0.023230  -0.003754   0.000030   0.000000   0.001937
    41  H    0.008821   0.032165  -0.036360  -0.000714  -0.000004  -0.031560
    42  H   -0.043646   0.456590  -0.117075  -0.000966  -0.000118  -0.031881
    43  H   -0.009234   0.068513   0.454678  -0.064364  -0.000936  -0.356547
    44  H   -0.000881  -0.006736  -0.017146   0.000795   0.000045   0.289068
    45  H   -0.000225  -0.053351   0.019591  -0.000491   0.000002  -0.142821
              7          8          9         10         11         12
     1  O   -0.001308  -0.000063  -0.062471   0.006863   0.000640  -0.174505
     2  C    0.023677   0.020083  -0.019413   0.052364  -0.002279  -2.257501
     3  C   -0.062190  -0.047687  -0.311693  -0.015922   0.000523   0.203226
     4  O   -0.000798   0.006370   0.003728  -0.000058  -0.000007   0.028876
     5  H    0.000449  -0.000173  -0.001203  -0.000004   0.000000   0.018275
     6  C    0.119681   0.017858   0.140867   0.009754  -0.002471   0.406752
     7  O    8.291053   0.210478   0.001098  -0.000018   0.000000   0.011406
     8  H    0.210478   0.394362   0.000623   0.000000   0.000000  -0.002631
     9  C    0.001098   0.000623   6.563944   0.378323  -0.076259  -1.076388
    10  O   -0.000018   0.000000   0.378323   8.291120   0.209767  -0.281666
    11  H    0.000000   0.000000  -0.076259   0.209767   0.431957   0.089133
    12  C    0.011406  -0.002631  -1.076388  -0.281666   0.089133   9.626549
    13  O    0.007326  -0.000737   0.045364   0.012210  -0.001033  -0.224154
    14  C    0.033204   0.021928  -0.358019  -0.008289   0.005812  -0.523122
    15  O   -0.007067   0.000536  -0.000887  -0.003162   0.000017  -0.018894
    16  C   -0.022569   0.000503  -0.067771  -0.010199   0.000685  -0.031373
    17  C    0.008020  -0.000617   0.044287   0.006840  -0.000572  -0.076735
    18  O    0.000292  -0.000007  -0.003092   0.000131   0.000005  -0.002130
    19  H   -0.000131   0.000000  -0.000505  -0.001038  -0.000008   0.007614
    20  C   -0.000209  -0.000154  -0.009260   0.000240   0.000003  -0.030677
    21  O    0.000002   0.000000   0.000285  -0.000001   0.000000   0.000922
    22  H    0.000000   0.000000  -0.000131   0.000000   0.000000   0.000161
    23  C   -0.021398   0.000625   0.000725   0.000048  -0.000001   0.021232
    24  O    0.001126  -0.000037   0.000016   0.000000   0.000000  -0.000154
    25  H    0.000059   0.000000   0.000001   0.000000   0.000000   0.000004
    26  C   -0.014380   0.002167   0.010477   0.000183  -0.000015   0.032659
    27  O   -0.000164   0.000002   0.000004   0.000001   0.000000   0.001239
    28  C    0.000974   0.000003  -0.001346  -0.000068   0.000002   0.000140
    29  O   -0.000002   0.000000  -0.000002   0.000000   0.000000   0.000074
    30  H    0.000000   0.000000   0.000000   0.000000   0.000000  -0.000003
    31  H    0.000001   0.000000   0.000011   0.000000   0.000000   0.000029
    32  H    0.000026   0.000000   0.000151   0.000000   0.000000   0.001015
    33  H    0.000049   0.000000   0.000462   0.000006   0.000000   0.001019
    34  H    0.000338  -0.000002   0.000566   0.000001   0.000000   0.009243
    35  H    0.000121   0.000000   0.000117   0.000000   0.000000   0.000578
    36  H    0.001209  -0.000002   0.000052   0.000000   0.000000   0.000754
    37  H   -0.001387  -0.000005  -0.000047   0.000000   0.000000  -0.000146
    38  H   -0.000071   0.000000  -0.007472  -0.000004  -0.000010   0.059546
    39  H    0.000004   0.000000   0.555128  -0.060730  -0.005172  -0.172821
    40  H   -0.000007   0.000000   0.500500  -0.059713  -0.007657  -0.094705
    41  H    0.000026   0.000001   0.000356   0.006421  -0.000091   0.208966
    42  H   -0.000212   0.000002   0.048215   0.005808  -0.000114  -0.159866
    43  H    0.001804  -0.000392   0.013321   0.000033   0.000000  -0.050194
    44  H   -0.047386  -0.004893   0.011163  -0.000040   0.000000   0.024721
    45  H    0.005958  -0.000001   0.023874  -0.000087   0.000000   0.039730
             13         14         15         16         17         18
     1  O    0.006615   0.032093   0.000459   0.001878  -0.000395   0.000107
     2  C   -0.063300   0.977292   0.001849   0.180491  -0.167780   0.004471
     3  C    0.026065  -0.393889  -0.017264   0.175593   0.046256  -0.001129
     4  O   -0.001703  -0.020921  -0.000437  -0.002459   0.001056  -0.000015
     5  H   -0.000141   0.019718   0.000048   0.000422   0.000047   0.000000
     6  C    0.029980  -4.470379  -0.033264  -0.775595  -0.135982  -0.002717
     7  O    0.007326   0.033204  -0.007067  -0.022569   0.008020   0.000292
     8  H   -0.000737   0.021928   0.000536   0.000503  -0.000617  -0.000007
     9  C    0.045364  -0.358019  -0.000887  -0.067771   0.044287  -0.003092
    10  O    0.012210  -0.008289  -0.003162  -0.010199   0.006840   0.000131
    11  H   -0.001033   0.005812   0.000017   0.000685  -0.000572   0.000005
    12  C   -0.224154  -0.523122  -0.018894  -0.031373  -0.076735  -0.002130
    13  O    8.584190   0.116587  -0.078626  -0.011851   0.032428   0.009509
    14  C    0.116587  11.026046   0.257413  -0.964436   0.342961   0.014243
    15  O   -0.078626   0.257413   8.346419   0.008942  -0.077472  -0.002542
    16  C   -0.011851  -0.964436   0.008942  17.048391  -3.941717  -0.191479
    17  C    0.032428   0.342961  -0.077472  -3.941717  10.346548   0.407465
    18  O    0.009509   0.014243  -0.002542  -0.191479   0.407465   8.249386
    19  H    0.017671  -0.021386   0.021372  -0.052206   0.021105   0.192145
    20  C   -0.021900  -0.641915   0.048127  -2.821276  -0.409257  -0.152719
    21  O    0.000475  -0.000254  -0.001066   0.031719  -0.158224   0.006312
    22  H   -0.000025   0.002975  -0.000112   0.034863  -0.106343   0.016495
    23  C    0.012249   0.076140  -0.017707  -0.132905  -0.315487   0.002637
    24  O   -0.000061   0.007596  -0.001744  -0.029916   0.001782   0.000151
    25  H    0.000000  -0.001425  -0.000132   0.044190   0.005207   0.000000
    26  C   -0.036080  -0.630617   0.049138  -4.651788   0.449218   0.031309
    27  O    0.000749   0.003266   0.008017  -0.206661  -0.013655   0.001348
    28  C    0.002418   0.105297  -0.009947   1.545281  -0.643116   0.031396
    29  O    0.000007   0.005299   0.000323   0.030882  -0.022104  -0.000419
    30  H    0.000000   0.000371   0.000001   0.008831   0.000610  -0.000003
    31  H    0.000006   0.005631   0.000267   0.104994   0.022125  -0.000356
    32  H    0.000321   0.004743  -0.000238   0.175285  -0.100784   0.002353
    33  H    0.002940   0.048763  -0.004551  -0.060816   0.478326  -0.051811
    34  H    0.001823   0.055989  -0.053601   0.323640  -0.011354   0.001437
    35  H   -0.000351   0.064379   0.008446  -0.001440   0.038689  -0.000548
    36  H    0.000209   0.031256  -0.001198   0.127918   0.015955   0.000123
    37  H   -0.000216  -0.001607   0.000189   0.011816  -0.018372  -0.000036
    38  H   -0.000965  -0.003283   0.000017   0.000037  -0.000018  -0.000003
    39  H    0.010066  -0.009718  -0.000142  -0.001192   0.000863   0.000024
    40  H   -0.004995  -0.005812   0.000576  -0.000135   0.000649  -0.000377
    41  H   -0.045045   0.075148  -0.000337   0.014902   0.006172   0.000273
    42  H    0.013913   0.065119  -0.001142   0.000360   0.001820   0.000043
    43  H    0.004850   0.150358  -0.001433   0.010221   0.002610   0.000043
    44  H    0.009153  -0.036294  -0.007065   0.021866   0.005303   0.000028
    45  H   -0.073536   0.308673  -0.067879   0.053829   0.026354  -0.000905
             19         20         21         22         23         24
     1  O   -0.000047   0.000201   0.000000   0.000000  -0.000017   0.000000
     2  C    0.005451  -0.000600   0.000056   0.000069   0.005086  -0.000076
     3  C    0.000262   0.015954  -0.000151  -0.000016  -0.014129  -0.000561
     4  O    0.000002   0.000006   0.000000   0.000000   0.000406   0.000002
     5  H    0.000000   0.000002   0.000000   0.000000  -0.000050   0.000000
     6  C    0.001936  -0.213126   0.001361   0.000275  -0.189232   0.004509
     7  O   -0.000131  -0.000209   0.000002   0.000000  -0.021398   0.001126
     8  H    0.000000  -0.000154   0.000000   0.000000   0.000625  -0.000037
     9  C   -0.000505  -0.009260   0.000285  -0.000131   0.000725   0.000016
    10  O   -0.001038   0.000240  -0.000001   0.000000   0.000048   0.000000
    11  H   -0.000008   0.000003   0.000000   0.000000  -0.000001   0.000000
    12  C    0.007614  -0.030677   0.000922   0.000161   0.021232  -0.000154
    13  O    0.017671  -0.021900   0.000475  -0.000025   0.012249  -0.000061
    14  C   -0.021386  -0.641915  -0.000254   0.002975   0.076140   0.007596
    15  O    0.021372   0.048127  -0.001066  -0.000112  -0.017707  -0.001744
    16  C   -0.052206  -2.821276   0.031719   0.034863  -0.132905  -0.029916
    17  C    0.021105  -0.409257  -0.158224  -0.106343  -0.315487   0.001782
    18  O    0.192145  -0.152719   0.006312   0.016495   0.002637   0.000151
    19  H    0.357103   0.034900   0.000353  -0.000193  -0.003239   0.000001
    20  C    0.034900   9.997477   0.403856   0.024634   0.071116  -0.005104
    21  O    0.000353   0.403856   8.265986   0.216922   0.001899  -0.000073
    22  H   -0.000193   0.024634   0.216922   0.412265   0.000224   0.000001
    23  C   -0.003239   0.071116   0.001899   0.000224   6.060208   0.185939
    24  O    0.000001  -0.005104  -0.000073   0.000001   0.185939   8.225941
    25  H    0.000000  -0.004986   0.000001   0.000000  -0.023105   0.246492
    26  C    0.011569   1.543969   0.011948  -0.009128  -0.678734   0.015448
    27  O   -0.000060  -0.105696   0.003734  -0.000245  -0.035360   0.001743
    28  C   -0.003565  -1.246289  -0.244003   0.053776  -0.011284  -0.011482
    29  O    0.000018   0.006018  -0.018031  -0.000373  -0.009137   0.000171
    30  H    0.000000   0.008656  -0.002386   0.000035   0.001228   0.000081
    31  H    0.000004  -0.224442   0.014412  -0.000163  -0.000618  -0.000139
    32  H   -0.000199   0.179703  -0.047539  -0.004503   0.019293  -0.000088
    33  H   -0.006152  -0.228789   0.002463  -0.000197   0.011676   0.000056
    34  H   -0.000238  -0.061912  -0.000181   0.000025   0.000805   0.000721
    35  H    0.000023  -0.073664   0.000035  -0.000002  -0.003376  -0.002445
    36  H    0.000000  -0.023688   0.000019   0.000000   0.507683  -0.048946
    37  H    0.000000   0.012313  -0.000016   0.000000   0.433744  -0.063676
    38  H    0.000000   0.000000   0.000000   0.000000  -0.000003   0.000000
    39  H   -0.000037   0.000022   0.000000   0.000000   0.000001   0.000000
    40  H    0.001108  -0.000365   0.000000   0.000000  -0.000008   0.000000
    41  H   -0.000027   0.001769   0.000000   0.000000  -0.000084   0.000000
    42  H   -0.000010   0.000031   0.000000   0.000000   0.000088   0.000000
    43  H   -0.000001   0.000196   0.000000   0.000000   0.000136   0.000000
    44  H   -0.000004   0.000826   0.000000   0.000000   0.002852   0.000001
    45  H   -0.000197   0.014313   0.000009   0.000000  -0.000490   0.000021
             25         26         27         28         29         30
     1  O    0.000000   0.000005   0.000000   0.000002   0.000000   0.000000
     2  C   -0.000003  -0.057793  -0.000076   0.004980   0.000023   0.000000
     3  C    0.000005  -0.007241   0.000394  -0.002430  -0.000028   0.000000
     4  O    0.000000  -0.000651  -0.000001   0.000007   0.000000   0.000000
     5  H    0.000000   0.000020   0.000000   0.000000   0.000000   0.000000
     6  C    0.001527  -0.258438  -0.005264   0.049496   0.000249   0.000018
     7  O    0.000059  -0.014380  -0.000164   0.000974  -0.000002   0.000000
     8  H    0.000000   0.002167   0.000002   0.000003   0.000000   0.000000
     9  C    0.000001   0.010477   0.000004  -0.001346  -0.000002   0.000000
    10  O    0.000000   0.000183   0.000001  -0.000068   0.000000   0.000000
    11  H    0.000000  -0.000015   0.000000   0.000002   0.000000   0.000000
    12  C    0.000004   0.032659   0.001239   0.000140   0.000074  -0.000003
    13  O    0.000000  -0.036080   0.000749   0.002418   0.000007   0.000000
    14  C   -0.001425  -0.630617   0.003266   0.105297   0.005299   0.000371
    15  O   -0.000132   0.049138   0.008017  -0.009947   0.000323   0.000001
    16  C    0.044190  -4.651788  -0.206661   1.545281   0.030882   0.008831
    17  C    0.005207   0.449218  -0.013655  -0.643116  -0.022104   0.000610
    18  O    0.000000   0.031309   0.001348   0.031396  -0.000419  -0.000003
    19  H    0.000000   0.011569  -0.000060  -0.003565   0.000018   0.000000
    20  C   -0.004986   1.543969  -0.105696  -1.246289   0.006018   0.008656
    21  O    0.000001   0.011948   0.003734  -0.244003  -0.018031  -0.002386
    22  H    0.000000  -0.009128  -0.000245   0.053776  -0.000373   0.000035
    23  C   -0.023105  -0.678734  -0.035360  -0.011284  -0.009137   0.001228
    24  O    0.246492   0.015448   0.001743  -0.011482   0.000171   0.000081
    25  H    0.419683  -0.027365  -0.005838   0.000291   0.000046   0.000000
    26  C   -0.027365  11.466071   0.310331  -1.035650  -0.047165  -0.015017
    27  O   -0.005838   0.310331   8.450652   0.031432  -0.051109  -0.006981
    28  C    0.000291  -1.035650   0.031432   6.101244   0.219490   0.021028
    29  O    0.000046  -0.047165  -0.051109   0.219490   8.216961   0.216314
    30  H    0.000000  -0.015017  -0.006981   0.021028   0.216314   0.426329
    31  H   -0.000008  -0.044929  -0.054729   0.451760  -0.037172  -0.007959
    32  H    0.000000  -0.038469  -0.001165   0.036344  -0.001570   0.000273
    33  H   -0.000001  -0.026797   0.008138   0.046448   0.000115  -0.000002
    34  H    0.000001  -0.078153   0.007989   0.035258  -0.000571   0.000003
    35  H    0.002425   0.193310  -0.043580   0.040277   0.000256  -0.000018
    36  H    0.006060  -0.326406   0.000021   0.013446  -0.000044   0.000001
    37  H   -0.003205  -0.042033   0.007028  -0.005754   0.000029   0.000000
    38  H    0.000000   0.000004   0.000000   0.000000   0.000000   0.000000
    39  H    0.000000   0.000027   0.000000  -0.000002   0.000000   0.000000
    40  H    0.000000  -0.000039   0.000000  -0.000007   0.000000   0.000000
    41  H    0.000000   0.002012   0.000000  -0.000067   0.000000   0.000000
    42  H    0.000000  -0.000083   0.000000  -0.000005   0.000000   0.000000
    43  H    0.000000  -0.000732   0.000000  -0.000002   0.000000   0.000000
    44  H    0.000000  -0.004650   0.000003  -0.000043   0.000000   0.000000
    45  H    0.000000   0.034240   0.000191  -0.000048  -0.000008   0.000000
             31         32         33         34         35         36
     1  O    0.000000   0.000000   0.000000  -0.000003   0.000000   0.000000
     2  C    0.000011   0.000067   0.000696  -0.000446   0.000265   0.000256
     3  C   -0.000008  -0.000107  -0.000556  -0.001828  -0.000854  -0.002364
     4  O    0.000000   0.000000   0.000000   0.000007   0.000000   0.000002
     5  H    0.000000   0.000000   0.000000   0.000000   0.000000   0.000000
     6  C    0.000480   0.001168   0.006026   0.001822   0.005443   0.008704
     7  O    0.000001   0.000026   0.000049   0.000338   0.000121   0.001209
     8  H    0.000000   0.000000   0.000000  -0.000002   0.000000  -0.000002
     9  C    0.000011   0.000151   0.000462   0.000566   0.000117   0.000052
    10  O    0.000000   0.000000   0.000006   0.000001   0.000000   0.000000
    11  H    0.000000   0.000000   0.000000   0.000000   0.000000   0.000000
    12  C    0.000029   0.001015   0.001019   0.009243   0.000578   0.000754
    13  O    0.000006   0.000321   0.002940   0.001823  -0.000351   0.000209
    14  C    0.005631   0.004743   0.048763   0.055989   0.064379   0.031256
    15  O    0.000267  -0.000238  -0.004551  -0.053601   0.008446  -0.001198
    16  C    0.104994   0.175285  -0.060816   0.323640  -0.001440   0.127918
    17  C    0.022125  -0.100784   0.478326  -0.011354   0.038689   0.015955
    18  O   -0.000356   0.002353  -0.051811   0.001437  -0.000548   0.000123
    19  H    0.000004  -0.000199  -0.006152  -0.000238   0.000023   0.000000
    20  C   -0.224442   0.179703  -0.228789  -0.061912  -0.073664  -0.023688
    21  O    0.014412  -0.047539   0.002463  -0.000181   0.000035   0.000019
    22  H   -0.000163  -0.004503  -0.000197   0.000025  -0.000002   0.000000
    23  C   -0.000618   0.019293   0.011676   0.000805  -0.003376   0.507683
    24  O   -0.000139  -0.000088   0.000056   0.000721  -0.002445  -0.048946
    25  H   -0.000008   0.000000  -0.000001   0.000001   0.002425   0.006060
    26  C   -0.044929  -0.038469  -0.026797  -0.078153   0.193310  -0.326406
    27  O   -0.054729  -0.001165   0.008138   0.007989  -0.043580   0.000021
    28  C    0.451760   0.036344   0.046448   0.035258   0.040277   0.013446
    29  O   -0.037172  -0.001570   0.000115  -0.000571   0.000256  -0.000044
    30  H   -0.007959   0.000273  -0.000002   0.000003  -0.000018   0.000001
    31  H    0.622954   0.004340   0.002508  -0.000070   0.006080  -0.000004
    32  H    0.004340   0.612136   0.006710   0.003504  -0.000022  -0.000027
    33  H    0.002508   0.006710   0.619118   0.006292   0.003090   0.000007
    34  H   -0.000070   0.003504   0.006292   0.605488   0.005676   0.006593
    35  H    0.006080  -0.000022   0.003090   0.005676   0.630708   0.006605
    36  H   -0.000004  -0.000027   0.000007   0.006593   0.006605   0.576421
    37  H    0.000009   0.000000  -0.000013  -0.000118  -0.006926  -0.042916
    38  H    0.000000   0.000000   0.000000   0.000000   0.000000   0.000000
    39  H    0.000000   0.000000   0.000000   0.000000   0.000000   0.000000
    40  H    0.000000   0.000000   0.000000   0.000000   0.000000   0.000000
    41  H    0.000000   0.000000  -0.000004  -0.000021   0.000000   0.000000
    42  H    0.000000   0.000000   0.000000   0.000000   0.000000   0.000000
    43  H    0.000000   0.000000   0.000000  -0.000003   0.000000   0.000000
    44  H    0.000000   0.000000  -0.000002   0.000009  -0.000004  -0.000007
    45  H    0.000000  -0.000017  -0.000038   0.011702  -0.000022  -0.000012
             37         38         39         40         41         42
     1  O    0.000000   0.229659  -0.003842  -0.000065   0.008821  -0.043646
     2  C    0.000126   0.012704  -0.025484  -0.023230   0.032165   0.456590
     3  C    0.003953  -0.051758   0.001962  -0.003754  -0.036360  -0.117075
     4  O   -0.000003   0.002782   0.000063   0.000030  -0.000714  -0.000966
     5  H    0.000000   0.001409   0.000000   0.000000  -0.000004  -0.000118
     6  C   -0.024818   0.003819   0.008729   0.001937  -0.031560  -0.031881
     7  O   -0.001387  -0.000071   0.000004  -0.000007   0.000026  -0.000212
     8  H   -0.000005   0.000000   0.000000   0.000000   0.000001   0.000002
     9  C   -0.000047  -0.007472   0.555128   0.500500   0.000356   0.048215
    10  O    0.000000  -0.000004  -0.060730  -0.059713   0.006421   0.005808
    11  H    0.000000  -0.000010  -0.005172  -0.007657  -0.000091  -0.000114
    12  C   -0.000146   0.059546  -0.172821  -0.094705   0.208966  -0.159866
    13  O   -0.000216  -0.000965   0.010066  -0.004995  -0.045045   0.013913
    14  C   -0.001607  -0.003283  -0.009718  -0.005812   0.075148   0.065119
    15  O    0.000189   0.000017  -0.000142   0.000576  -0.000337  -0.001142
    16  C    0.011816   0.000037  -0.001192  -0.000135   0.014902   0.000360
    17  C   -0.018372  -0.000018   0.000863   0.000649   0.006172   0.001820
    18  O   -0.000036  -0.000003   0.000024  -0.000377   0.000273   0.000043
    19  H    0.000000   0.000000  -0.000037   0.001108  -0.000027  -0.000010
    20  C    0.012313   0.000000   0.000022  -0.000365   0.001769   0.000031
    21  O   -0.000016   0.000000   0.000000   0.000000   0.000000   0.000000
    22  H    0.000000   0.000000   0.000000   0.000000   0.000000   0.000000
    23  C    0.433744  -0.000003   0.000001  -0.000008  -0.000084   0.000088
    24  O   -0.063676   0.000000   0.000000   0.000000   0.000000   0.000000
    25  H   -0.003205   0.000000   0.000000   0.000000   0.000000   0.000000
    26  C   -0.042033   0.000004   0.000027  -0.000039   0.002012  -0.000083
    27  O    0.007028   0.000000   0.000000   0.000000   0.000000   0.000000
    28  C   -0.005754   0.000000  -0.000002  -0.000007  -0.000067  -0.000005
    29  O    0.000029   0.000000   0.000000   0.000000   0.000000   0.000000
    30  H    0.000000   0.000000   0.000000   0.000000   0.000000   0.000000
    31  H    0.000009   0.000000   0.000000   0.000000   0.000000   0.000000
    32  H    0.000000   0.000000   0.000000   0.000000   0.000000   0.000000
    33  H   -0.000013   0.000000   0.000000   0.000000  -0.000004   0.000000
    34  H   -0.000118   0.000000   0.000000   0.000000  -0.000021   0.000000
    35  H   -0.006926   0.000000   0.000000   0.000000   0.000000   0.000000
    36  H   -0.042916   0.000000   0.000000   0.000000   0.000000   0.000000
    37  H    0.586559   0.000000   0.000000   0.000000   0.000000   0.000000
    38  H    0.000000   0.412171  -0.000488   0.000015  -0.000249  -0.011247
    39  H    0.000000  -0.000488   0.594568  -0.050168   0.002220   0.000134
    40  H    0.000000   0.000015  -0.050168   0.620950  -0.006637   0.000385
    41  H    0.000000  -0.000249   0.002220  -0.006637   0.595884   0.005750
    42  H    0.000000  -0.011247   0.000134   0.000385   0.005750   0.600157
    43  H    0.000000  -0.000015  -0.000005   0.000009   0.003193   0.006947
    44  H    0.000093   0.000011   0.000000   0.000001   0.000005   0.002069
    45  H    0.000054   0.000002  -0.000002   0.000013   0.010135   0.000218
             43         44         45
     1  O   -0.009234  -0.000881  -0.000225
     2  C    0.068513  -0.006736  -0.053351
     3  C    0.454678  -0.017146   0.019591
     4  O   -0.064364   0.000795  -0.000491
     5  H   -0.000936   0.000045   0.000002
     6  C   -0.356547   0.289068  -0.142821
     7  O    0.001804  -0.047386   0.005958
     8  H   -0.000392  -0.004893  -0.000001
     9  C    0.013321   0.011163   0.023874
    10  O    0.000033  -0.000040  -0.000087
    11  H    0.000000   0.000000   0.000000
    12  C   -0.050194   0.024721   0.039730
    13  O    0.004850   0.009153  -0.073536
    14  C    0.150358  -0.036294   0.308673
    15  O   -0.001433  -0.007065  -0.067879
    16  C    0.010221   0.021866   0.053829
    17  C    0.002610   0.005303   0.026354
    18  O    0.000043   0.000028  -0.000905
    19  H   -0.000001  -0.000004  -0.000197
    20  C    0.000196   0.000826   0.014313
    21  O    0.000000   0.000000   0.000009
    22  H    0.000000   0.000000   0.000000
    23  C    0.000136   0.002852  -0.000490
    24  O    0.000000   0.000001   0.000021
    25  H    0.000000   0.000000   0.000000
    26  C   -0.000732  -0.004650   0.034240
    27  O    0.000000   0.000003   0.000191
    28  C   -0.000002  -0.000043  -0.000048
    29  O    0.000000   0.000000  -0.000008
    30  H    0.000000   0.000000   0.000000
    31  H    0.000000   0.000000   0.000000
    32  H    0.000000   0.000000  -0.000017
    33  H    0.000000  -0.000002  -0.000038
    34  H   -0.000003   0.000009   0.011702
    35  H    0.000000  -0.000004  -0.000022
    36  H    0.000000  -0.000007  -0.000012
    37  H    0.000000   0.000093   0.000054
    38  H   -0.000015   0.000011   0.000002
    39  H   -0.000005   0.000000  -0.000002
    40  H    0.000009   0.000001   0.000013
    41  H    0.003193   0.000005   0.010135
    42  H    0.006947   0.002069   0.000218
    43  H    0.607324   0.006435   0.003676
    44  H    0.006435   0.592230   0.007157
    45  H    0.003676   0.007157   0.684128
 Mulliken atomic charges:
              1
     1  O   -0.536879
     2  C   -0.222654
     3  C    0.148774
     4  O   -0.547129
     5  H    0.341409
     6  C    0.076091
     7  O   -0.539086
     8  H    0.381859
     9  C   -0.347697
    10  O   -0.539113
    11  H    0.357144
    12  C    0.383802
    13  O   -0.382408
    14  C    0.233071
    15  O   -0.344245
    16  C    0.020245
    17  C   -0.112713
    18  O   -0.561440
    19  H    0.416603
    20  C   -0.088303
    21  O   -0.490844
    22  H    0.358713
    23  C    0.040326
    24  O   -0.527294
    25  H    0.340074
    26  C   -0.131751
    27  O   -0.305696
    28  C    0.424317
    29  O   -0.508538
    30  H    0.348589
    31  H    0.134977
    32  H    0.147296
    33  H    0.134820
    34  H    0.129568
    35  H    0.126729
    36  H    0.142320
    37  H    0.155381
    38  H    0.353408
    39  H    0.155993
    40  H    0.131501
    41  H    0.146981
    42  H    0.158713
    43  H    0.149511
    44  H    0.151315
    45  H    0.096263
 Sum of Mulliken atomic charges =   0.00000
 Mulliken charges with hydrogens summed into heavy atoms:
              1
     1  O   -0.183471
     2  C   -0.063941
     3  C    0.298285
     4  O   -0.205721
     6  C    0.227406
     7  O   -0.157227
     9  C   -0.060203
    10  O   -0.181969
    12  C    0.530783
    13  O   -0.382408
    14  C    0.329333
    15  O   -0.344245
    16  C    0.149813
    17  C    0.022107
    18  O   -0.144837
    20  C    0.058994
    21  O   -0.132131
    23  C    0.338027
    24  O   -0.187220
    26  C   -0.005023
    27  O   -0.305696
    28  C    0.559294
    29  O   -0.159949
 Sum of Mulliken charges with hydrogens summed into heavy atoms =   0.00000
 APT atomic charges:
              1
     1  O   -0.635944
     2  C    0.380551
     3  C    0.395966
     4  O   -0.645766
     5  H    0.252319
     6  C    0.366960
     7  O   -0.619057
     8  H    0.274446
     9  C    0.415148
    10  O   -0.599736
    11  H    0.267618
    12  C    0.486249
    13  O   -0.828729
    14  C    0.942889
    15  O   -0.906687
    16  C    0.473722
    17  C    0.362705
    18  O   -0.721425
    19  H    0.393290
    20  C    0.448872
    21  O   -0.650040
    22  H    0.256407
    23  C    0.496835
    24  O   -0.653406
    25  H    0.253611
    26  C    0.409459
    27  O   -0.789013
    28  C    0.874715
    29  O   -0.636786
    30  H    0.259130
    31  H   -0.058901
    32  H   -0.041688
    33  H   -0.052763
    34  H   -0.035500
    35  H   -0.058832
    36  H   -0.004541
    37  H   -0.029040
    38  H    0.245783
    39  H   -0.021292
    40  H   -0.059538
    41  H   -0.032464
    42  H   -0.035612
    43  H   -0.047544
    44  H   -0.032846
    45  H   -0.059527
 Sum of APT charges=   0.00000
 APT Atomic charges with hydrogens summed into heavy atoms:
              1
[...]
 035668,0.00013477,-0.00005261,-0.00009812,-0.01361635,0.00696754,0.006
 88920,0.00216345,-0.00005389,-0.00121289,-0.00018910,-0.00013240,0.000
 17918,0.00009421,-0.00000766,-0.00000541,-0.00002787,0.00002044,0.0000
 1123,0.00000405,0.00000116,-0.00001023,0.00004441,-0.00001665,-0.00004
 656,-0.00006644,-0.00000717,0.00006769,-0.00000803,0.00000420,0.000005
 07,0.00000983,-0.00000403,-0.00000644,-0.00000765,0.00000471,0.0000018
 4,-0.00000162,0.00000593,0.00000681,-0.00000031,-0.00000380,-0.0000064
 6,-0.00000058,0.00000064,0.00000193,-0.00000476,0.00000156,0.00000462,
 0.00000782,0.00000021,-0.00001117,-0.00000519,-0.00000189,0.00000644,0
 .00000419,-0.00000302,-0.00000698,-0.00000074,0.00000108,0.00000113,0.
 00000182,0.00000002,0.00000052,0.00000148,-0.00000304,-0.00000239,0.00
 000818,-0.00000077,0.00000730,0.00000528,-0.00000748,-0.00000151,0.000
 00285,-0.00000132,0.00000198,0.00000058,-0.00000057,0.00000010,0.00000
 294,0.00000087,-0.00000123,0.00063364,-0.00040207,0.00022368,-0.000215
 11,-0.00005066,-0.00010094,0.00012148,0.00019020,-0.00022200,-0.000499
 41,-0.00150251,0.00158871,0.26392792,0.00128489,0.00249351,0.00249259,
 0.13100654,-0.13237832,-0.05291809,0.02685107,-0.02170734,-0.01488927,
 -0.00079343,0.00458440,0.00117842,0.00028901,-0.00082744,0.00072630,0.
 00144325,-0.00006589,0.00117099,-0.00092053,0.00000355,-0.00046894,0.0
 0014311,-0.00002445,0.00001817,-0.00103526,0.00085017,0.00012192,0.000
 22784,-0.00011384,0.00006053,0.00010055,0.00002142,-0.00008842,-0.0167
 0776,0.00890845,0.00873879,-0.00002152,0.00049832,-0.00152249,-0.00006
 761,-0.00051463,-0.00016296,0.00003893,0.00007365,-0.00007769,-0.00002
 308,0.00002877,0.00002268,-0.00002197,-0.00003456,-0.00003800,0.000067
 40,-0.00000668,0.00003620,-0.00010040,0.00003382,-0.00000634,0.0000069
 5,0.00000309,0.00000473,0.00000316,0.00000369,-0.00000120,0.00000016,0
 .00000238,-0.00000409,0.00001020,0.00000015,0.00001717,-0.00001003,0.0
 0000189,-0.00001409,0.00000095,-0.00000082,-0.00000125,0.00000296,-0.0
 0000522,0.00000047,0.00000163,0.00001103,-0.00001050,-0.00000545,-0.00
 001194,0.00000383,0.00000208,0.00000347,-0.00000023,0.,-0.00000077,0.0
 0000109,0.00000045,0.00000155,0.00000021,-0.00000142,-0.00000083,-0.00
 000095,0.00001225,0.00000531,0.00000773,-0.00000364,-0.00000567,0.0000
 0498,-0.00000070,0.00000373,-0.00000381,-0.00000685,0.00000160,0.00000
 775,0.00001127,-0.00000533,0.00000145,0.00068949,0.00071496,0.00048631
 ,0.00004646,-0.00002079,-0.00017168,0.00019381,0.00029389,-0.00014810,
 -0.00154492,-0.00147352,0.00323505,-0.13803519,0.14386153,-0.03745909,
 0.01711981,-0.00400199,0.08610788,-0.05423370,-0.07769617,0.01111995,-
 0.00617610,-0.00174499,-0.00157832,0.00019895,0.00153438,-0.00039211,-
 0.00004467,-0.00003861,0.00090876,-0.00006333,0.00041259,-0.00033870,0
 .00016394,-0.00007742,0.00007997,0.00000345,0.00006318,-0.00037427,-0.
 00095571,0.00083362,-0.00029178,0.00042927,0.00015291,-0.00022126,0.00
 001391,0.00007524,0.02232198,-0.01210670,-0.00930185,-0.00055660,0.000
 16900,0.00225336,0.00020159,-0.00041294,-0.00026780,-0.00004296,0.0000
 7857,-0.00013579,-0.00001887,-0.00002351,0.00001184,0.00004375,0.00001
 923,0.00004599,-0.00010370,0.00002822,-0.00003808,0.00014478,-0.000037
 69,-0.00001937,-0.00001078,-0.00000916,0.00001001,0.00000398,0.0000166
 2,-0.00001491,-0.00000178,-0.00000788,0.00000915,0.00002096,0.00000991
 ,0.00000648,-0.00001972,-0.00001062,-0.00001349,0.00000446,0.00000136,
 -0.00000152,0.00002009,-0.00000558,0.00001187,-0.00000934,0.00000625,-
 0.00002224,0.00001126,-0.00000603,0.00002128,0.00000001,0.00000052,-0.
 00001788,0.00000051,-0.00000327,0.00000244,-0.00000242,0.00000069,-0.0
 0000163,-0.00000231,0.00000422,0.00000362,-0.00002110,0.00000081,-0.00
 001884,-0.00000556,0.00001130,0.00000794,-0.00000661,0.00000500,-0.000
 00441,-0.00000399,0.00000241,0.00000331,0.00000220,-0.00000381,-0.0000
 0075,-0.00134914,0.00058149,0.00336216,0.00004232,0.00038261,0.0001996
 7,-0.00017387,-0.00035771,0.00001472,0.00121486,0.00275807,-0.00336797
 ,-0.07731192,0.05447357,0.08799715,0.00166449,-0.00004601,0.00098840,0
 .00703319,-0.00582059,-0.00342494,-0.25439457,0.14113578,0.03553165,-0
 .02001151,-0.00379695,0.01935012,-0.00153340,0.00004460,-0.00040946,-0
 .01881148,0.01387163,-0.00183313,0.00324368,-0.00066840,0.00230696,-0.
 00055465,-0.00005307,-0.00015719,0.00022459,0.00023012,-0.00028172,-0.
 00002191,-0.00008784,-0.00001595,-0.00000562,-0.00000203,0.00001967,0.
 00049368,0.00062807,0.00007259,0.00027597,-0.00001319,0.00006827,-0.00
 176029,-0.00069562,0.00133197,0.00058245,-0.00018248,-0.00048605,-0.00
 010702,0.00018802,0.00002217,0.00000445,-0.00003033,-0.00009006,0.0000
 3648,-0.00002378,0.00003577,-0.00002753,0.00002529,0.00000726,0.000001
 09,0.00003361,0.00000903,0.00000964,-0.00000628,-0.00000601,-0.0000032
 6,0.00000578,-0.00000311,-0.00004716,0.00001138,-0.00000230,0.00003101
 ,-0.00000276,0.00001289,-0.00000413,-0.00000116,0.00000904,0.00000823,
 0.00000869,0.00000097,0.00000942,-0.00001548,-0.00000887,-0.00000837,0
 .00000276,-0.00000728,0.00000322,-0.00000413,0.00000618,-0.00000112,0.
 00000285,-0.00000174,0.00000273,-0.00000139,0.00000150,0.00000459,-0.0
 0000456,-0.00000346,0.00000573,-0.00001085,0.00000845,0.00002513,-0.00
 001711,-0.00002825,0.00000756,-0.00001031,0.00001261,0.00001759,-0.000
 00607,-0.00001950,-0.00001153,0.00001576,-0.00000215,0.00000220,-0.000
 21190,-0.00013552,-0.00000764,-0.00002328,0.00004096,0.00003969,0.0000
 4384,0.00004897,0.00016825,0.00031276,-0.00021268,-0.00010194,-0.00222
 692,-0.00136622,0.28353514,-0.00053923,0.00391141,0.00212602,0.0282678
 9,-0.02562434,-0.00666013,0.14329128,-0.13090472,-0.02843964,-0.023374
 75,0.00691918,0.01323882,-0.00098307,0.00049908,-0.00004405,0.00034175
 ,0.00035174,-0.00175628,-0.00112258,0.00109559,0.00053722,-0.00035549,
 0.00001098,-0.00001247,-0.00014214,-0.00002814,-0.00017088,-0.00013603
 ,0.00012532,0.00012722,-0.00006838,0.00003419,0.00003218,0.00155821,0.
 00142017,-0.00091814,-0.00053728,-0.00014810,0.00049981,0.00093649,-0.
 00040892,-0.00051336,-0.00023120,0.00011702,-0.00007535,0.00001965,-0.
 00003705,0.00005970,0.00000009,-0.00001495,-0.00000348,-0.00003575,0.0
 0003723,0.00002648,0.00005342,-0.00001589,-0.00006864,0.00000442,-0.00
 000825,0.00000473,-0.00000114,0.00000938,-0.00000563,0.00000255,-0.000
 00518,0.00000037,0.00000390,0.00000863,-0.00000480,-0.00000702,-0.0000
 0960,0.00000355,0.00000275,0.00000203,-0.00000221,0.00001355,0.0000172
 7,0.00000916,-0.00000936,-0.00000584,-0.00000829,0.00000509,0.00000094
 ,0.00000854,-0.00000144,0.00000028,-0.00000401,0.00000040,-0.00000075,
 0.00000054,-0.00000185,0.00000020,-0.00000102,-0.00000245,0.00000313,0
 .00000265,-0.00000542,0.00000311,-0.00000466,-0.00000207,0.00001299,0.
 00000837,-0.00000543,-0.00000233,-0.00000466,0.00000552,0.00000367,-0.
 00000443,-0.00000484,0.00000448,-0.00000178,0.00004673,-0.00003745,0.0
 0020958,0.00005319,0.00002322,0.00001571,-0.00002915,-0.00011442,0.000
 03423,-0.00080775,-0.00021736,0.00068292,-0.00250500,-0.00517805,-0.00
 203706,-0.14270673,0.14794616,0.00097973,0.00128837,0.00111432,0.00826
 911,-0.01029843,-0.00006566,0.03402986,-0.02825748,-0.04678773,0.03357
 121,0.00038583,-0.01671618,0.00208206,-0.00071356,-0.00028752,-0.02895
 040,0.01658151,0.00087934,0.00246002,0.00074118,0.00287618,-0.00026530
 ,-0.00023223,-0.00024165,-0.00017164,-0.00010360,0.00013051,-0.0000307
 9,0.00006249,0.00002859,-0.00000371,0.00001232,-0.00000651,-0.00041118
 ,0.00036461,-0.00006182,0.00021888,0.00021821,-0.00040797,-0.00170490,
 -0.00040323,0.00191846,0.00043614,-0.00021458,-0.00038522,-0.00001721,
 0.00007421,0.00007039,0.00001163,-0.00001943,-0.00003302,0.00002096,0.
 00000078,-0.00001039,-0.00003017,-0.00000443,0.00002316,-0.00000679,0.
 00001688,0.00001301,0.00000920,0.00000814,-0.00001347,-0.00000324,-0.0
 0000079,0.00000206,-0.00001785,0.00002450,0.00002394,-0.00000163,-0.00
 002147,-0.00000822,0.00000415,0.00000361,0.00000605,0.00000803,0.00000
 534,0.00001947,0.00000561,-0.00000508,-0.00003016,-0.00000312,-0.00000
 579,0.00001627,0.00000327,-0.00000187,-0.00001164,-0.00000012,0.000000
 31,0.00000158,0.00000071,0.00000032,0.00000016,0.00000174,-0.00000031,
 -0.00000153,-0.00000255,-0.00000484,0.00000477,0.00002269,-0.00000622,
 -0.00003594,0.00000163,-0.00000772,0.00000910,0.00001538,-0.00000433,-
 0.00001698,-0.00000547,0.00002358,-0.00000249,0.00018922,-0.00001761,-
 0.00004773,0.00002250,0.00001125,0.00001530,-0.00002130,-0.00008272,0.
 00000563,-0.00009765,-0.00002342,0.00029119,-0.00052480,-0.00185230,-0
 .00027010,-0.04807277,0.02267079,0.06324291,0.00017271,-0.00061368,-0.
 00044859,-0.00035119,0.00173028,0.00019748,-0.01935914,0.00443160,0.00
 261961,0.00258954,-0.00074753,0.00112615,0.00030149,-0.00007866,0.0001
 5038,-0.33020822,0.07916767,0.04726988,0.00769641,0.00193373,0.0002018
 6,0.00079430,0.00037958,0.00037201,-0.00011215,0.00009713,0.00005488,0
 .00008903,-0.00007492,-0.00002993,0.00001797,0.00000305,0.00000650,-0.
 00001452,-0.00000545,0.00006801,0.00095459,-0.00094204,-0.00061862,-0.
 01547550,0.00426506,0.00373450,0.00152289,-0.00049978,-0.00021728,0.00
 009231,0.00012210,0.00006339,0.00002688,0.00000549,-0.00011491,0.00004
 325,-0.00009366,0.00002252,-0.00004040,0.00005707,0.00001452,0.0000131
 0,0.00004141,-0.00000154,-0.00000052,-0.00001909,0.00000239,-0.0000013
 9,0.00000785,-0.00000566,-0.00006265,-0.00000180,0.00001572,0.00003110
 ,-0.00000067,0.00001277,-0.00000367,0.00000065,0.00000715,-0.00002739,
 -0.00001286,0.00000301,0.00000997,-0.00001761,0.00002663,-0.00000929,0
 .00001851,-0.00002227,0.00000074,-0.00000616,0.00001756,-0.00000139,0.
 00000415,-0.00000270,0.00000326,-0.00000240,0.00000264,0.00000630,-0.0
 0000678,-0.00000395,0.00000471,-0.00002175,0.00002423,0.00005137,-0.00
 003319,-0.00017247,0.00001428,-0.00000977,0.00002498,0.00002309,-0.000
 01178,-0.00002091,0.00000509,0.00003273,-0.00000543,-0.00008070,0.0000
 0086,-0.00003193,0.00001103,-0.00000779,0.00000143,0.00001936,-0.00002
 656,-0.00001260,0.00016398,0.00009086,-0.00000643,0.00011173,-0.000796
 43,-0.00045815,-0.00092779,-0.00063254,-0.00257488,0.35211563,0.000209
 21,0.00023033,0.00019048,-0.00003293,-0.00037489,0.00065217,0.00207396
 ,0.00344391,0.00191259,0.00009531,0.00012198,-0.00075127,-0.00011273,-
 0.00000073,-0.00009985,0.07605825,-0.06290629,-0.00902499,0.02933925,-
 0.02716137,-0.01841348,0.00147868,0.00105953,-0.00010500,-0.00001456,0
 .00007070,0.00005438,0.00002339,-0.00005067,-0.00001325,0.00001298,0.0
 0000131,-0.00000449,-0.00017487,-0.00000073,-0.00002848,0.00182029,0.0
 0127052,-0.00055787,-0.02433270,0.00815886,0.00443470,0.00172775,0.000
 23842,-0.00133233,0.00003041,0.00027392,0.00002922,-0.00003763,-0.0000
 4257,-0.00021344,0.00006774,-0.00013708,0.00010957,-0.00005422,0.00012
 300,0.00004598,0.00001775,0.00001981,0.00000320,0.00000827,0.00001370,
 0.00000415,0.00000525,0.00000243,-0.00001276,0.00008864,-0.00004966,0.
 00004465,-0.00005315,0.00004494,-0.00007048,-0.00000369,-0.00000685,-0
 .00001366,-0.00001344,-0.00008490,-0.00001182,0.00001388,0.00005846,-0
 .00001478,-0.00002305,-0.00004074,0.00000364,0.00000853,0.00001467,0.0
 0000361,-0.00000008,-0.00000431,0.00000296,0.00000163,0.00000513,0.000
 00043,0.00000130,-0.00000343,-0.00000504,0.00001385,-0.00001247,0.0000
 1897,0.00006673,-0.00012774,-0.00005340,0.00001363,0.00003994,0.000008
 10,-0.00008438,0.00000533,0.00009591,0.00008546,-0.00004854,0.00001417
 ,0.00003956,0.00003441,-0.00001598,-0.00000398,-0.00001681,-0.00000885
 ,0.00000114,-0.00001883,-0.00000717,0.00011138,-0.00003207,0.00003835,
 -0.00014429,0.00005155,-0.00011285,0.00001325,0.00024488,-0.00035717,-
 0.08622429,0.07841344,0.00015153,-0.00062408,-0.00065794,0.00019049,0.
 00153505,0.00090762,-0.03184702,0.00853574,0.00286227,0.00151252,-0.00
 117769,0.00315572,0.00010228,-0.00015353,0.00041524,0.04625698,-0.0101
 2822,-0.05080617,0.01450322,-0.01471198,-0.00554744,-0.00019839,0.0007
 0946,0.00021777,-0.00007561,0.00001523,0.00009720,0.00002053,-0.000028
 70,-0.00000547,0.00000059,0.00000553,0.00000484,-0.00037979,0.00007129
 ,-0.00056346,-0.00126291,0.00049907,0.00067699,0.02596279,-0.00571858,
 -0.00457696,-0.00163487,-0.00053123,0.00247650,0.00017879,-0.00043872,
 -0.00041398,-0.00003358,0.00004391,0.00024750,-0.00006410,0.00012258,-
 0.00006663,0.00005245,-0.00009428,-0.00000845,-0.00001566,-0.00006082,
 -0.00001921,-0.00002463,-0.00001038,0.00002597,0.00000409,-0.00000475,
 0.00000508,0.00012552,-0.00006312,-0.00012858,-0.00003885,0.00005563,0
 .00004763,0.00000052,-0.00000483,-0.00003235,-0.00002843,0.00004248,-0
 .00004335,-0.00003499,-0.00000429,0.00007382,0.00003068,0.00002923,-0.
 00002059,-0.00001648,-0.00000019,0.00001399,0.00000223,-0.00000206,-0.
 00000400,-0.00000447,-0.00000087,-0.00000234,-0.00000681,0.00000443,0.
 00000561,-0.00000834,0.00004136,-0.00002519,-0.00019512,0.00013124,0.0
 0011761,-0.00002975,0.00002396,-0.00005895,-0.00006165,0.00001537,0.00
 007851,0.00000071,-0.00009584,-0.00000721,-0.00006328,-0.00008603,-0.0
 0005560,0.00001245,0.00003807,0.00000953,-0.00000769,-0.00005034,0.000
 00724,-0.00000009,-0.00007999,-0.00013008,0.00006432,-0.00051345,-0.00
 019399,-0.00273479,0.00000497,-0.00488108,-0.05255286,0.02038810,0.059
 40071,0.00018679,0.00006494,0.00004153,-0.00041046,0.00003612,0.000159
 03,-0.00098165,0.00039244,-0.00108968,0.00043937,-0.00031373,0.0000559
 7,0.00008279,-0.00007058,0.00012237,-0.01810387,0.00679451,0.01039224,
 0.00187148,0.00083732,-0.00099078,0.00047770,0.00002193,-0.00037757,0.
 00059729,-0.00000368,0.00034994,-0.00006987,-0.00020227,-0.00012684,0.
 00001599,-0.00004397,-0.00004076,0.00274011,-0.00165363,0.00001044,0.0
 1097242,-0.00511774,-0.00375331,-0.28310858,0.10747572,0.06824376,-0.0
 2155868,0.01372011,-0.01333675,-0.00015213,-0.00053815,0.00489299,0.00
 025134,-0.00004716,-0.00044841,0.00024139,-0.00055174,-0.00001351,-0.0
 0030350,0.00004072,0.00023743,0.00006119,0.00012430,0.00009329,0.00008
 704,0.00005011,-0.00011514,-0.00003389,0.00000802,-0.00000097,-0.00019
 696,0.00017115,-0.00000756,0.00004285,-0.00011315,-0.00001009,0.000022
 21,0.00001858,0.00002795,0.00045527,-0.00031239,0.00013460,-0.00000958
 ,-0.00006392,-0.00035776,-0.00006385,-0.00008848,0.00010922,0.00004109
 ,-0.00000338,-0.00007052,-0.00000367,0.00000292,0.00001177,0.00001310,
 0.00000645,0.00000232,0.00002344,-0.00001112,-0.00003766,-0.00007337,-
 0.00023474,0.00018933,0.00129722,-0.00085587,-0.00134055,0.00020482,0.
 00004320,0.00030374,0.00006649,-0.00006921,-0.00006065,0.00001849,0.00
 008517,-0.00003928,-0.00000580,0.00001394,-0.00001383,-0.00002383,0.00
 005020,0.00000840,-0.00000202,-0.00000815,-0.00001372,0.00033355,0.000
 87235,0.00138382,-0.00004903,-0.00011130,-0.00012873,0.00091069,-0.000
 35879,0.00055373,-0.00021021,-0.00211746,0.00214747,0.30390682,0.00010
 565,0.00032002,-0.00027879,-0.00062022,-0.00048203,-0.00002218,-0.0004
 7536,0.00054647,-0.00050288,0.00016833,-0.00018236,0.00021385,0.000103
 50,-0.00005900,0.00000861,-0.01859699,0.00738397,0.00819845,0.00020063
 ,0.00162220,0.00039225,0.00009297,0.00040738,-0.00008957,-0.00001323,0
 .00007965,0.00022808,-0.00009991,0.00002612,-0.00004038,-0.00009759,0.
 00004706,-0.00005058,0.00400859,0.00025737,0.00323334,0.02222955,-0.03
 901400,-0.02104574,0.10369025,-0.08643854,-0.02638989,0.01096902,0.000
 48268,0.00508699,-0.00049777,0.00030865,-0.00143754,0.00027309,0.00000
 937,0.00057468,-0.00046528,0.00073244,-0.00014013,0.00083722,-0.000832
 41,-0.00105586,-0.00004469,-0.00005992,-0.00000029,-0.00000462,0.00000
 493,-0.00002198,-0.00001416,-0.00002000,0.00003111,0.00001113,0.000024
 95,-0.00005760,-0.00001748,-0.00001877,0.00001697,0.00000721,0.0000047
 0,-0.00000229,-0.00020466,0.00018102,-0.00002034,0.00000144,-0.0000035
 6,0.00009324,0.00004897,0.00005277,0.00001440,-0.00001358,-0.00001302,
 -0.00002439,0.00000173,-0.00000201,0.00000003,-0.00000796,-0.00000582,
 -0.00000443,-0.00000951,0.00001528,0.00002117,-0.00004003,0.00006085,-
 0.00012392,-0.00044628,0.00009020,0.00056183,-0.00009116,-0.00004475,-
 0.00012884,-0.00000965,0.00002168,0.00001199,-0.00002255,-0.00003160,0
 .00001717,-0.00004436,-0.00001796,-0.00006185,-0.00002502,-0.00009428,
 -0.00005427,-0.00003443,-0.00002090,0.00001008,-0.00144881,0.00057641,
 -0.00048801,-0.00005683,-0.00007977,0.00012911,0.00009504,-0.00004094,
 0.00014438,-0.00150259,-0.00282050,0.00227129,-0.11793960,0.11702593,-
 0.00015151,0.00000698,-0.00020343,-0.00009115,0.00003270,-0.00007605,0
 .00134138,-0.00074225,0.00082915,-0.00051024,0.00019957,0.00018517,-0.
 00009372,-0.00004178,-0.00000264,0.02698257,-0.00556997,-0.00653084,-0
 .00194963,-0.00098616,0.00087030,-0.00035228,-0.00012941,0.00009246,-0
 .00004841,-0.00000206,0.00005285,-0.00004412,0.00001478,-0.00001746,-0
 .00006091,0.00002262,-0.00003729,0.00270447,-0.00134790,0.00186098,0.0
 0656928,-0.01715008,-0.00414108,0.07423813,-0.02964782,-0.06235903,-0.
 03675086,0.01880845,-0.01515207,-0.00608064,0.00294559,0.00303690,-0.0
 0010902,0.00011195,-0.00048228,0.00008947,-0.00000544,0.00036380,0.000
 04398,0.00017644,-0.00029302,0.00005977,0.00001445,0.00001331,0.000039
 05,0.00002271,-0.00000029,0.00000823,0.00000579,-0.00001707,-0.0000020
 4,0.00005622,0.00009355,-0.00000874,-0.00003816,-0.00005020,0.00001548
 ,0.00001268,0.00000613,-0.00021443,-0.00009334,-0.00000758,0.00017536,
 -0.00004450,-0.00018921,-0.00007146,-0.00009467,0.00005649,0.00002920,
 0.00001763,-0.00002613,-0.00000243,-0.00000148,0.00000903,0.00000443,0
 .00000316,0.00001153,0.00002988,-0.00001403,-0.00005143,0.00013108,-0.
 00022567,0.00002466,0.00099689,-0.00104274,0.00013407,0.00026025,-0.00
 009454,0.00001699,0.00000090,-0.00004761,0.00001194,0.00005608,0.00004
 625,-0.00005563,-0.00001169,0.00002208,-0.00000359,0.00000149,-0.00006
 197,-0.00002309,0.00000052,0.00000031,0.00001003,-0.00076821,0.0003851
 3,0.00009130,-0.00003772,0.00008292,0.00021690,-0.00058230,0.00043742,
 -0.00036939,0.00126092,0.00317306,-0.00259832,-0.06709729,0.03078270,0
 .08469955\\0.00587212,-0.00446942,-0.00284714,-0.00452372,-0.00906687,
 0.02377279,0.01525449,-0.00958435,-0.00585989,-0.00618075,0.01392709,0
 .02207408,-0.00116744,-0.00235019,-0.03248608,-0.02615379,-0.00641545,
 -0.01103387,-0.00456252,-0.01970856,0.01077599,0.01270488,0.02993826,-
 0.00702420,0.02900849,0.02586301,0.00475236,-0.01285908,0.00363811,0.0
 0013648,-0.00860559,-0.03100384,-0.00931999,-0.05769069,0.01584264,0.0
 0630029,-0.00295648,-0.00540871,0.00405692,0.02687663,0.02027438,-0.04
 095452,-0.02324149,-0.01626926,0.04187045,-0.01078612,0.01451056,0.034
 86611,-0.02246550,-0.01058476,0.00094534,0.00374721,-0.01281887,-0.003
 07541,0.00181571,-0.00323404,-0.02292125,0.04165602,0.06541178,0.00196
 593,0.02152704,0.01765454,0.00999849,-0.02590968,-0.01327883,-0.012164
 56,-0.02384040,0.00870302,-0.01223960,-0.01006896,0.00234699,-0.016198
 41,0.02800959,-0.00300802,0.02145057,0.02116569,-0.01530124,-0.0169871
 9,-0.03628549,-0.00543385,-0.01510680,0.06690825,-0.04433174,0.0077167
 6,-0.02051757,0.01177378,0.01763897,-0.00574323,-0.00227207,-0.0045874
 3,-0.01614932,0.00732254,-0.00527223,0.00975424,-0.01643659,-0.0062080
 0,-0.01735551,0.01366516,-0.00097083,0.01402805,-0.01373937,0.00182042
 ,-0.01650831,0.01341000,-0.00094254,0.01001720,-0.01446317,-0.00228227
 ,-0.00578893,0.00183216,0.01755210,-0.00119515,0.00212272,0.00444772,0
 .01262393,-0.00661683,0.01478267,0.01583885,0.00500680,-0.01321259,0.0
 1936668,-0.00392072,-0.00393438,-0.01603479,0.01392262,0.00299613,0.01
 989415,-0.01065863,-0.00489226,-0.01977013,0.00615170,0.00516191,0.020
 29142,-0.01294251,-0.00456101\\\@


 THERE ARE PEOPLE SO ADDICTED TO EXAGERATING THEY
 CAN'T TELL THE TRUTH WITHOUT LYING. -- FORTUNE COOKIE
 Job cpu time:  0 days 12 hours 46 minutes  6.6 seconds.
 File lengths (MBytes):  RWF=   1322 Int=      0 D2E=      0 Chk=     19 Scr=      1
 Normal termination of Gaussian 09 at Thu Jan 21 17:50:18 2016.
Gaussian '09 finished on node016 at Thu Jan 21 17:50:18 EST 2016.
