Gaussian '09 started on node029 at Mon Feb  8 13:53:38 EST 2016.
 Entering Gaussian System, Link 0=/usr/local/gaussian/g09/g09
 Initial command:
 /usr/local/gaussian/g09/l1.exe /home/srmcgrat/thesis/gaussian/cellobiose/290/6000/1/2dfp/gaussian7023/Gau-7059.inp -scrdir=/home/srmcgrat/thesis/gaussian/cellobiose/290/6000/1/2dfp/gaussian7023/
 Entering Link 1 = /usr/local/gaussian/g09/l1.exe PID=      7061.
  
 Copyright (c) 1988,1990,1992,1993,1995,1998,2003,2009,2010,
            Gaussian, Inc.  All Rights Reserved.
  
 This is part of the Gaussian(R) 09 program.  It is based on
 the Gaussian(R) 03 system (copyright 2003, Gaussian, Inc.),
 the Gaussian(R) 98 system (copyright 1998, Gaussian, Inc.),
 the Gaussian(R) 94 system (copyright 1995, Gaussian, Inc.),
 the Gaussian 92(TM) system (copyright 1992, Gaussian, Inc.),
 the Gaussian 90(TM) system (copyright 1990, Gaussian, Inc.),
 the Gaussian 88(TM) system (copyright 1988, Gaussian, Inc.),
 the Gaussian 86(TM) system (copyright 1986, Carnegie Mellon
 University), and the Gaussian 82(TM) system (copyright 1983,
 Carnegie Mellon University). Gaussian is a federally registered
 trademark of Gaussian, Inc.
  
 This software contains proprietary and confidential information,
 including trade secrets, belonging to Gaussian, Inc.
  
 This software is provided under written license and may be
 used, copied, transmitted, or stored only in accord with that
 written license.
  
 The following legend is applicable only to US Government
 contracts under FAR:
  
                    RESTRICTED RIGHTS LEGEND
  
 Use, reproduction and disclosure by the US Government is
 subject to restrictions as set forth in subparagraphs (a)
 and (c) of the Commercial Computer Software - Restricted
 Rights clause in FAR 52.227-19.
  
 Gaussian, Inc.
 340 Quinnipiac St., Bldg. 40, Wallingford CT 06492
  
  
 ---------------------------------------------------------------
 Warning -- This program may not be used in any manner that
 competes with the business of Gaussian, Inc. or will provide
 assistance to any competitor of Gaussian, Inc.  The licensee
 of this program is prohibited from giving any competitor of
 Gaussian, Inc. access to this program.  By using this program,
 the user acknowledges that Gaussian, Inc. is engaged in the
 business of creating and licensing software in the field of
 computational chemistry and represents and warrants to the
 licensee that it is not a competitor of Gaussian, Inc. and that
 it will not use this program in any manner prohibited above.
 ---------------------------------------------------------------
  

 Cite this work as:
 Gaussian 09, Revision B.01,
 M. J. Frisch, G. W. Trucks, H. B. Schlegel, G. E. Scuseria, 
 M. A. Robb, J. R. Cheeseman, G. Scalmani, V. Barone, B. Mennucci, 
 G. A. Petersson, H. Nakatsuji, M. Caricato, X. Li, H. P. Hratchian, 
 A. F. Izmaylov, J. Bloino, G. Zheng, J. L. Sonnenberg, M. Hada, 
 M. Ehara, K. Toyota, R. Fukuda, J. Hasegawa, M. Ishida, T. Nakajima, 
 Y. Honda, O. Kitao, H. Nakai, T. Vreven, J. A. Montgomery, Jr., 
 J. E. Peralta, F. Ogliaro, M. Bearpark, J. J. Heyd, E. Brothers, 
 K. N. Kudin, V. N. Staroverov, T. Keith, R. Kobayashi, J. Normand, 
 K. Raghavachari, A. Rendell, J. C. Burant, S. S. Iyengar, J. Tomasi, 
 M. Cossi, N. Rega, J. M. Millam, M. Klene, J. E. Knox, J. B. Cross, 
 V. Bakken, C. Adamo, J. Jaramillo, R. Gomperts, R. E. Stratmann, 
 O. Yazyev, A. J. Austin, R. Cammi, C. Pomelli, J. W. Ochterski, 
 R. L. Martin, K. Morokuma, V. G. Zakrzewski, G. A. Voth, 
 P. Salvador, J. J. Dannenberg, S. Dapprich, A. D. Daniels, 
 O. Farkas, J. B. Foresman, J. V. Ortiz, J. Cioslowski, 
 and D. J. Fox, Gaussian, Inc., Wallingford CT, 2010.
 
 ******************************************
 Gaussian 09:  EM64L-G09RevB.01 12-Aug-2010
                 8-Feb-2016 
 ******************************************
 --------------------------------------------------
 # freq=raman b3lyp/6-31+g(2df,p) geom=connectivity
 --------------------------------------------------
 1/10=4,30=1,38=1,57=2/1,3;
 2/12=2,17=6,18=5,40=1/2;
 3/5=1,6=6,7=114,11=2,16=1,25=1,30=1,71=2,74=-5/1,2,3;
 4//1;
 5/5=2,38=5,98=1/2;
 8/6=4,10=90,11=11/1;
 10/13=10,15=4/2;
 11/6=3,8=1,9=11,15=111,16=1/1,2,10;
 10/6=1/2;
 6/7=2,8=2,9=2,10=2,18=1,28=1/1;
 7/8=1,10=1,25=1/1,2,3,16;
 1/10=4,30=1/3;
 99//99;
 ------------
 290 6000.com
 ------------
 Symbolic Z-matrix:
 Charge =  0 Multiplicity = 1
 O                     7.686     7.602     12.267 
 C                     8.238     8.109     13.491 
 C                     7.637     9.421     13.968 
 O                     7.983     10.373    12.951 
 H                     7.498     10.061    12.134 
 C                     8.098     9.856     15.349 
 O                     7.44      10.983    15.945 
 H                     7.888     11.19     16.815 
 C                     8.687     5.754     14.344 
 O                     8.294     5.082     13.138 
 H                     8.356     4.086     13.188 
 C                     8.093     7.122     14.637 
 O                     8.673     7.463     15.905 
 C                     8.038     8.683     16.315 
 O                     8.856     8.958     17.461 
 C                     8.448     8.55      18.775 
 C                     9.021     7.238     19.285 
 O                     8.906     6.202     18.298 
 H                     9.091     6.472     17.353 
 C                     8.258     6.891     20.553 
 O                     8.676     5.648     21.134 
 H                     8.037     5.36      21.848 
 C                     7.961     10.972    19.501 
 O                     8.562     11.697    18.417 
 H                     8.284     12.655    18.483 
 C                     8.633     9.645     19.812 
 O                     8.095     9.316     21.101 
 C                     8.479     8.011     21.557 
 O                     7.587     7.803     22.662 
 H                     8.39841   7.35575   11.67249 
 H                     8.09719   7.65257   23.46117 
 H                     9.49436   8.01685   21.8945 
 H                     9.28354   8.27042   13.33069 
 H                     6.57215   9.31771   13.9863 
 H                     7.044     6.98489   14.79734 
 H                     8.44159   5.11319   15.165 
 H                     7.02836   8.49565   16.61572 
 H                     9.12962   10.12332   15.25307 
 H                     7.39181   8.39254   18.70742 
 H                     10.05413   7.37779   19.52583 
 H                     7.21451   6.83205   20.32375 
 H                     9.68258   9.82089   19.92312 
 H                     7.99534   11.58349   20.37838 
 H                     6.93631   10.78431   19.25672 
 H                     9.75121   5.86269   14.3206 
 

 GradGradGradGradGradGradGradGradGradGradGradGradGradGradGradGradGradGrad
 Berny optimization.
 Initialization pass.
 Trust Radius=3.00D-01 FncErr=1.00D-07 GrdErr=1.00D-07
 Number of steps in this run=      2 maximum allowed number of steps=      2.
 GradGradGradGradGradGradGradGradGradGradGradGradGradGradGradGradGradGrad

                          Input orientation:                          
 ---------------------------------------------------------------------
 Center     Atomic      Atomic             Coordinates (Angstroms)
 Number     Number       Type             X           Y           Z
 ---------------------------------------------------------------------
      1          8           0        7.686000    7.602000   12.267000
      2          6           0        8.238000    8.109000   13.491000
      3          6           0        7.637000    9.421000   13.968000
      4          8           0        7.983000   10.373000   12.951000
      5          1           0        7.498000   10.061000   12.134000
      6          6           0        8.098000    9.856000   15.349000
      7          8           0        7.440000   10.983000   15.945000
      8          1           0        7.888000   11.190000   16.815000
      9          6           0        8.687000    5.754000   14.344000
     10          8           0        8.294000    5.082000   13.138000
     11          1           0        8.356000    4.086000   13.188000
     12          6           0        8.093000    7.122000   14.637000
     13          8           0        8.673000    7.463000   15.905000
     14          6           0        8.038000    8.683000   16.315000
     15          8           0        8.856000    8.958000   17.461000
     16          6           0        8.448000    8.550000   18.775000
     17          6           0        9.021000    7.238000   19.285000
     18          8           0        8.906000    6.202000   18.298000
     19          1           0        9.091000    6.472000   17.353000
     20          6           0        8.258000    6.891000   20.553000
     21          8           0        8.676000    5.648000   21.134000
     22          1           0        8.037000    5.360000   21.848000
     23          6           0        7.961000   10.972000   19.501000
     24          8           0        8.562000   11.697000   18.417000
     25          1           0        8.284000   12.655000   18.483000
     26          6           0        8.633000    9.645000   19.812000
     27          8           0        8.095000    9.316000   21.101000
     28          6           0        8.479000    8.011000   21.557000
     29          8           0        7.587000    7.803000   22.662000
     30          1           0        8.398405    7.355746   11.672494
     31          1           0        8.097193    7.652568   23.461170
     32          1           0        9.494362    8.016853   21.894500
     33          1           0        9.283536    8.270415   13.330689
     34          1           0        6.572155    9.317707   13.986305
     35          1           0        7.044005    6.984889   14.797341
     36          1           0        8.441591    5.113190   15.164998
     37          1           0        7.028362    8.495646   16.615716
     38          1           0        9.129619   10.123319   15.253066
     39          1           0        7.391809    8.392542   18.707416
     40          1           0       10.054131    7.377791   19.525828
     41          1           0        7.214512    6.832055   20.323746
     42          1           0        9.682579    9.820887   19.923123
     43          1           0        7.995344   11.583490   20.378383
     44          1           0        6.936306   10.784310   19.256715
     45          1           0        9.751208    5.862694   14.320598
 ---------------------------------------------------------------------
                    Distance matrix (angstroms):
                    1          2          3          4          5
     1  O    0.000000
     2  C    1.435245   0.000000
     3  C    2.490896   1.519893   0.000000
     4  O    2.869583   2.341436   1.435378   0.000000
     5  H    2.469760   2.489850   1.947428   1.000029   0.000000
     6  C    3.840441   2.554168   1.519509   2.455793   3.276927
     7  O    5.001936   3.862486   2.527287   3.103383   3.921373
     8  H    5.796452   4.545771   3.361216   3.950571   4.830994
     9  C    2.954832   2.544648   3.832853   4.875574   4.984784
    10  O    2.734722   3.048028   4.466259   5.303430   5.141213
    11  H    3.695862   4.036120   5.439447   6.302513   6.127618
    12  C    2.452132   1.519378   2.437396   3.663836   3.905990
    13  O    3.772073   2.536521   2.942623   4.203607   4.727650
    14  C    4.204613   2.888677   2.492760   3.765053   4.435228
    15  O    5.494112   4.106534   3.728455   4.806709   5.606933
    16  C    6.620681   5.306528   4.952132   6.120337   6.876664
    17  C    7.153114   5.911190   5.911974   7.143194   7.837452
    18  O    6.310417   5.214415   5.542673   6.843945   7.407377
    19  H    5.396139   4.280470   4.718998   5.985238   6.531197
    20  C    8.336096   7.166294   7.081579   8.366024   9.028071
    21  O    9.133559   8.041381   8.164962   9.474564  10.092683
    22  H    9.846082   8.799821   8.873901  10.212233  10.805171
    23  C    7.985191   6.662852   5.755403   6.577369   7.437539
    24  O    7.440356   6.102802   5.082263   5.653793   6.579109
    25  H    8.032999   6.751911   5.591296   5.991757   6.903364
    26  C    7.873861   6.516929   5.932498   6.930065   7.772578
    27  O    9.008032   7.706452   7.148460   8.219020   9.017678
    28  C    9.332750   8.070195   7.764663   8.938025   9.693183
    29  O   10.397414   9.199167   8.843419  10.053121  10.767788
    30  H    0.960000   1.974864   3.180308   3.303174   2.888272
    31  H   11.201834   9.981606   9.667441  10.857139  11.595877
    32  H    9.804644   8.497397   8.261406   9.371331  10.170121
    33  H    2.032323   1.070000   2.107390   2.501284   2.797570
    34  H    2.672136   2.116918   1.070000   2.043522   2.200160
    35  H    2.682463   2.096611   2.640850   3.971144   4.094137
    36  H    3.894031   3.437818   4.542840   5.725180   5.878616
    37  H    4.488031   3.372917   2.870039   4.226812   4.770396
    38  H    4.166254   2.820876   2.091066   2.583909   3.520602
    39  H    6.495419   5.292205   4.855915   6.116212   6.782686
    40  H    7.638645   6.344458   6.395833   7.515932   8.268769
    41  H    8.107174   7.025990   6.875801   8.215002   8.807860
    42  H    8.217421   6.810989   6.309342   7.197492   8.093237
    43  H    9.041155   7.717966   6.774790   7.525387   8.398522
    44  H    7.716557   6.488078   5.506368   6.405216   7.181347
    45  H    3.392275   2.832652   4.154003   5.034403   5.242511
                    6          7          8          9         10
     6  C    0.000000
     7  O    1.434681   0.000000
     8  H    1.993191   1.000226   0.000000
     9  C    4.264194   5.608979   6.024478   0.000000
    10  O    5.264790   6.590172   7.140926   1.435433   0.000000
    11  H    6.166797   7.483897   7.990054   2.056240   0.999180
    12  C    2.825195   4.128510   4.618910   1.519904   2.539489
    13  O    2.523135   3.729918   3.915974   2.314649   3.670026
    14  C    1.520751   2.405100   2.560771   3.589580   4.808957
    15  O    2.416922   2.898954   2.517174   4.473239   5.833314
    16  C    3.683152   3.865806   3.335386   5.244854   6.620159
    17  C    4.816425   5.261196   4.796133   5.169845   6.554577
    18  O    4.764576   5.526638   5.302429   3.985321   5.315500
    19  H    4.056294   5.005735   4.898589   3.119747   4.509272
    20  C    5.991531   6.216691   5.708848   6.326807   7.632562
    21  O    7.176878   7.544246   7.070252   6.790836   8.025104
    22  H    7.902831   8.174347   7.703388   7.542397   8.718224
    23  C    4.301550   3.593981   2.695821   7.372194   8.677025
    24  O    3.607936   2.807038   1.810450   7.205845   8.467461
    25  H    4.206061   3.154261   2.255053   8.057142   9.269275
    26  C    4.499902   4.262298   3.453123   6.711320   8.091858
    27  O    5.777293   5.458228   4.682363   7.661290   9.020850
    28  C    6.487561   6.434815   5.739502   7.560733   8.915875
    29  O    7.612877   7.433175   6.763858   8.636986   9.930270
    30  H    4.456255   5.685932   6.434857   3.128230   2.707126
    31  H    8.406094   8.247212   7.531850   9.331411  10.640226
    32  H    6.940883   6.958088   6.200853   7.923534   9.312923
    33  H    2.827216   4.194206   4.755199   2.777589   3.343995
    34  H    2.115396   2.713456   3.638468   4.159390   4.650332
    35  H    3.107815   4.178376   4.739856   2.102389   2.817248
    36  H    4.758798   6.005519   6.321122   1.070000   2.032603
    37  H    2.144588   2.608877   2.835178   3.927899   5.034811
    38  H    1.070000   2.018077   2.262535   4.484781   5.530520
    39  H    3.730868   3.787313   3.413681   5.261067   6.541562
    40  H    5.235825   5.714328   5.154964   5.599740   7.012351
    41  H    5.888370   6.037765   5.635297   6.252023   7.474151
    42  H    4.840943   4.712232   3.841277   6.975483   8.391847
    43  H    5.318783   4.508201   3.586649   8.418736   9.735590
    44  H    4.181092   3.355688   2.651844   7.245945   8.473390
    45  H    4.442656   5.847896   6.170395   1.070000   2.032603
                   11         12         13         14         15
    11  H    0.000000
    12  C    3.374325   0.000000
    13  O    4.345884   1.435446   0.000000
    14  C    5.568812   2.292472   1.435174   0.000000
    15  O    6.499609   3.453700   2.165560   1.434596   0.000000
    16  C    7.151946   4.391839   3.077189   2.497477   1.435104
    17  C    6.895704   4.741154   3.405309   3.446043   2.512489
    18  O    5.558062   3.861384   2.714933   3.292579   2.880730
    19  H    4.855970   2.965664   1.803749   2.659845   2.499417
    20  C    7.881678   5.922807   4.701416   4.606551   3.767036
    21  O    8.104391   6.687569   5.535041   5.730709   4.947669
    22  H    8.759020   7.423362   6.336115   6.454178   5.732550
    23  C    9.350240   6.204710   5.074568   3.923780   3.003135
    24  O    9.236460   5.953065   4.924350   3.711762   2.915903
    25  H   10.073230   6.741089   5.809842   4.531835   3.878076
    26  C    8.651970   5.782539   4.475195   3.675388   2.459451
    27  O    9.488761   6.826195   5.546721   4.828016   3.735891
    28  C    9.244507   6.987540   5.681817   5.303266   4.220919
    29  O   10.206083   8.069723   6.852156   6.423567   5.476750
    30  H    3.604136   2.989349   4.242760   4.841937   6.023572
    31  H   10.877749   8.840108   7.580449   7.220322   6.187244
    32  H    9.620324   7.445528   6.070873   5.804788   4.577028
    33  H    4.288358   2.107767   2.766179   3.260015   4.208922
    34  H    5.584815   2.749092   3.396304   2.823894   4.173589
    35  H    3.565791   1.070000   2.027098   2.484934   3.777774
    36  H    2.229566   2.106090   2.474421   3.772126   4.497324
    37  H    5.740804   2.633567   2.067923   1.070000   2.066043
    38  H    6.427457   3.234506   2.776835   2.096152   2.511535
    39  H    7.066819   4.321370   3.218546   2.495112   2.004283
    40  H    7.340818   5.273718   3.876233   4.009710   2.862882
    41  H    7.730633   5.761501   4.695807   4.491567   3.925486
    42  H    8.944866   6.144416   4.766990   4.125285   2.736760
    43  H   10.394423   7.271720   6.119543   4.992569   4.018090
    44  H    9.149436   6.007680   5.028041   3.779275   3.200816
    45  H    2.527059   2.106090   2.496766   3.855755   4.499382
                   16         17         18         19         20
    16  C    0.000000
    17  C    1.519794   0.000000
    18  O    2.439344   1.435510   0.000000
    19  H    2.598772   2.079490   1.000075   0.000000
    20  C    2.439194   1.520001   2.445332   3.333084   0.000000
    21  O    3.746794   2.462910   2.898743   3.891936   1.434341
    22  H    4.448410   3.326276   3.750550   4.748946   2.017381
    23  C    2.574943   3.887546   5.009305   5.112808   4.224864
    24  O    3.169348   4.565828   5.507043   5.358410   5.268069
    25  H    4.118639   5.525420   6.485547   6.337005   6.124481
    26  C    1.519414   2.494378   3.771071   4.040343   2.876495
    27  O    2.474195   2.910913   4.267496   4.809143   2.491485
    28  C    2.833903   2.460341   3.751785   4.518482   1.520282
    29  O    4.050691   3.712103   4.831921   5.676183   2.393714
    30  H    7.202381   7.638831   6.744339   5.790410   8.893767
    31  H    4.784208   4.297172   5.423711   6.300090   3.010532
    32  H    3.333227   2.764087   4.071201   4.813990   2.143772
    33  H    5.515143   6.048853   5.393983   4.410255   7.424034
    34  H    5.199978   6.196628   5.809060   5.077132   7.200866
    35  H    4.499172   4.910363   4.041603   3.314308   5.883044
    36  H    4.984358   4.671718   3.349162   2.656210   5.676696
    37  H    2.584731   3.560527   3.408286   2.982147   4.425958
    38  H    3.917136   4.959169   4.969745   4.212285   6.268724
    39  H    1.070000   2.078661   2.694229   2.900030   2.532014
    40  H    2.125435   1.070000   2.051402   2.543474   2.125590
    41  H    2.621344   2.123013   2.713255   3.532164   1.070000
    42  H    2.111285   2.741568   4.042331   4.262692   3.318193
    43  H    3.460895   4.596818   5.841038   6.039928   4.703078
    44  H    2.740330   4.113765   5.079015   5.182939   4.311043
    45  H    5.362990   5.202880   4.080347   3.162687   6.490757
                   21         22         23         24         25
    21  O    0.000000
    22  H    1.000530   0.000000
    23  C    5.614525   6.083480   0.000000
    24  O    6.632155   7.225300   1.435925   0.000000
    25  H    7.501967   8.037491   1.993274   0.999702   0.000000
    26  C    4.210171   4.781395   1.519616   2.482291   3.308798
    27  O    3.713876   4.026327   2.306576   3.618163   4.247183
    28  C    2.408632   2.703303   3.641838   4.842839   5.572633
    29  O    2.857399   2.614067   4.491587   5.842421   6.441409
    30  H    9.618397  10.375671   8.634473   8.022569   8.630074
    31  H    3.125545   2.803892   5.169152   6.482062   7.059845
    32  H    2.619073   3.030666   4.100358   5.148377   5.883512
    33  H    8.254563   9.086746   6.864430   6.175164   6.838857
    34  H    8.305568   8.922750   5.922621   5.408473   5.855613
    35  H    6.678617   7.303294   6.233967   6.132718   6.875451
    36  H    5.997496   6.699786   7.304624   7.344152   8.240926
    37  H    5.589158   6.182752   3.914972   3.980620   4.729017
    38  H    7.404028   8.208299   4.486744   3.578986   4.190102
    39  H    3.882005   4.413145   2.758144   3.517546   4.360610
    40  H    2.734527   3.678693   4.159345   4.702289   5.663020
    41  H    2.048035   2.273056   4.286409   5.396211   6.199907
    42  H    4.460091   5.129580   2.113547   2.654035   3.473064
    43  H    6.021984   6.394790   1.070000   2.044751   2.196345
    44  H    5.738677   6.111417   1.070000   2.044751   2.431953
    45  H    6.901059   7.736472   7.493091   7.227299   8.100229
                   26         27         28         29         30
    26  C    0.000000
    27  O    1.434993   0.000000
    28  C    2.395558   1.434718   0.000000
    29  O    3.550997   2.232477   1.435254   0.000000
    30  H    8.458562   9.634904   9.906529  11.028493   0.000000
    31  H    4.192054   2.887458   1.974871   0.960000  11.796259
    32  H    2.780218   2.067762   1.070000   2.067079  10.301825
    33  H    6.657332   7.929918   8.269629   9.495792   2.090380
    34  H    6.188128   7.275847   7.915742   8.865209   3.540933
    35  H    5.894735   6.802557   6.986065   7.925718   3.425873
    36  H    6.493733   7.281474   7.018290   8.010646   4.150723
    37  H    3.756609   4.682784   5.172574   6.111414   5.254697
    38  H    4.610781   5.993374   6.680178   7.915545   4.584171
    39  H    2.080700   2.660168   3.073709   4.003048   7.181805
    40  H    2.691049   3.174274   2.647197   4.012868   8.026006
    41  H    3.191654   2.747611   2.123619   2.559084   8.747573
    42  H    1.070000   2.040272   2.719163   3.995593   8.706257
    43  H    2.117814   2.381936   3.792855   4.435511   9.686526
    44  H    2.117814   2.626765   3.919498   4.572480   8.450633
    45  H    6.761045   7.787310   7.655015   8.833322   3.327421
                   31         32         33         34         35
    31  H    0.000000
    32  H    2.130549   0.000000
    33  H   10.218405   8.570158   0.000000
    34  H    9.740201   8.530596   2.979638   0.000000
    35  H    8.753111   7.578844   2.969705   2.514451   0.000000
    36  H    8.682945   7.404444   3.747216   4.749955   2.364672
    37  H    6.979500   5.846021   3.990982   2.792439   2.364132
    38  H    8.633857   6.977025   2.674411   2.965521   3.795683
    39  H    4.862438   3.836584   5.701117   4.880232   4.170269
    40  H    4.403638   2.516416   6.306373   6.824497   5.619059
    41  H    3.360922   3.011434   7.433208   6.837708   5.531147
    42  H    4.442166   2.678860   6.784053   6.721141   6.424843
    43  H    4.996609   4.155306   7.893408   6.929495   7.293847
    44  H    5.369629   4.600041   6.851783   5.482769   5.859455
    45  H    9.459888   7.878475   2.644949   4.706936   2.969100
                   36         37         38         39         40
    36  H    0.000000
    37  H    3.942436   0.000000
    38  H    5.057917   2.986874   0.000000
    39  H    4.940134   2.125543   4.236521   0.000000
    40  H    5.171610   4.344379   5.162281   2.964368   0.000000
    41  H    5.574308   4.068375   6.341282   2.253681   2.999657
    42  H    6.807512   4.442980   4.712395   2.960699   2.502921
    43  H    8.321256   4.962610   5.448628   3.652196   4.759554
    44  H    7.153295   3.495902   4.612671   2.495950   4.625757
    45  H    1.729123   4.428757   4.405541   5.586687   5.429706
                   41         42         43         44         45
    41  H    0.000000
    42  H    3.896790   0.000000
    43  H    4.815477   2.482094   0.000000
    44  H    4.103203   2.985682   1.737351   0.000000
    45  H    6.588800   6.860050   8.515123   7.517395   0.000000
 Stoichiometry    C12H22O11
 Framework group  C1[X(C12H22O11)]
 Deg. of freedom   129
 Full point group                 C1      NOp   1
 Largest Abelian subgroup         C1      NOp   1
 Largest concise Abelian subgroup C1      NOp   1
                         Standard orientation:                         
 ---------------------------------------------------------------------
 Center     Atomic      Atomic             Coordinates (Angstroms)
 Number     Number       Type             X           Y           Z
 ---------------------------------------------------------------------
      1          8           0       -5.013816   -0.486108    0.475773
      2          6           0       -3.755649   -0.076486   -0.080244
      3          6           0       -3.252161    1.273425    0.403817
      4          8           0       -4.223351    2.217744   -0.070904
      5          1           0       -5.065957    1.982316    0.413500
      6          6           0       -1.842625    1.615595   -0.048993
      7          8           0       -1.228622    2.783476    0.514357
      8          1           0       -0.337964    2.916521    0.079063
      9          6           0       -2.972300   -2.490699   -0.262375
     10          8           0       -4.213216   -3.080966    0.152574
     11          1           0       -4.196416   -4.079237    0.191729
     12          6           0       -2.650404   -1.079938    0.202645
     13          8           0       -1.353245   -0.839608   -0.363152
     14          6           0       -0.921014    0.424372    0.161496
     15          8           0        0.259576    0.579024   -0.638726
     16          6           0        1.544630    0.172434   -0.145935
     17          6           0        2.026125   -1.206135   -0.567225
     18          8           0        1.000024   -2.193312   -0.384778
     19          1           0        0.071543   -1.913291   -0.629034
     20          6           0        3.256016   -1.514895    0.270889
     21          8           0        3.805901   -2.811524   -0.000615
     22          1           0        4.488473   -3.056419    0.688720
     23          6           0        2.339635    2.606743    0.123199
     24          8           0        1.301680    3.301820   -0.584897
     25          1           0        1.392491    4.280327   -0.401375
     26          6           0        2.624997    1.209648   -0.402089
     27          8           0        3.883703    0.895488    0.211235
     28          6           0        4.305454   -0.455389   -0.024717
     29          8           0        5.373303   -0.607754    0.922087
     30          1           0       -5.593522   -0.783678   -0.229204
     31          1           0        6.182596   -0.834143    0.457983
     32          1           0        4.675289   -0.562449   -1.023046
     33          1           0       -3.876608   -0.016012   -1.141664
     34          1           0       -3.271615    1.277219    1.473634
     35          1           0       -2.528669   -1.115897    1.265089
     36          1           0       -2.182693   -3.129431    0.074437
     37          1           0       -0.659575    0.330016    1.194766
     38          1           0       -1.895991    1.780728   -1.104826
     39          1           0        1.437752    0.124234    0.917622
     40          1           0        2.304690   -1.178708   -1.599964
     41          1           0        2.991532   -1.461255    1.306298
     42          1           0        2.775803    1.275451   -1.459362
     43          1           0        3.238688    3.183388    0.059289
     44          1           0        2.056198    2.530947    1.152188
     45          1           0       -2.957767   -2.488896   -1.332275
 ---------------------------------------------------------------------
 Rotational constants (GHZ):      0.4085483      0.1471258      0.1115474
 Standard basis: 6-31+G(2df,p) (6D, 7F)
 There are   846 symmetry adapted basis functions of A   symmetry.
 Integral buffers will be    131072 words long.
 Raffenetti 2 integral format.
 Two-electron integral symmetry is turned on.
   846 basis functions,  1258 primitive gaussians,   915 cartesian basis functions
    91 alpha electrons       91 beta electrons
       nuclear repulsion energy      2290.9631676390 Hartrees.
 NAtoms=   45 NActive=   45 NUniq=   45 SFac= 1.00D+00 NAtFMM=   50 NAOKFM=F Big=F
 One-electron integrals computed using PRISM.
 NBasis=   846 RedAO= T  NBF=   846
 NBsUse=   846 1.00D-06 NBFU=   846
 Harris functional with IExCor=  402 diagonalized for initial guess.
 ExpMin= 4.38D-02 ExpMax= 5.48D+03 ExpMxC= 8.25D+02 IAcc=2 IRadAn=         0 AccDes= 0.00D+00
 HarFok:  IExCor=  402 AccDes= 0.00D+00 IRadAn=         0 IDoV= 1
 ScaDFX=  1.000000  1.000000  1.000000  1.000000
 FoFCou: FMM=F IPFlag=           0 FMFlag=      100000 FMFlg1=           0
         NFxFlg=           0 DoJE=T BraDBF=F KetDBF=T FulRan=T
         Omega=  0.000000  0.000000  1.000000  0.000000  0.000000 ICntrl=     500 IOpCl=  0
         NMat0=    1 NMatS0=    1 NMatT0=    0 NMatD0=    1 NMtDS0=    0 NMtDT0=    0
         I1Cent=           4 NGrid=           0.
 Petite list used in FoFCou.
 Initial guess orbital symmetries:
       Occupied  (A) (A) (A) (A) (A) (A) (A) (A) (A) (A) (A) (A)
                 (A) (A) (A) (A) (A) (A) (A) (A) (A) (A) (A) (A)
                 (A) (A) (A) (A) (A) (A) (A) (A) (A) (A) (A) (A)
                 (A) (A) (A) (A) (A) (A) (A) (A) (A) (A) (A) (A)
                 (A) (A) (A) (A) (A) (A) (A) (A) (A) (A) (A) (A)
                 (A) (A) (A) (A) (A) (A) (A) (A) (A) (A) (A) (A)
                 (A) (A) (A) (A) (A) (A) (A) (A) (A) (A) (A) (A)
                 (A) (A) (A) (A) (A) (A) (A)
       Virtual   (A) (A) (A) (A) (A) (A) (A) (A) (A) (A) (A) (A)
                 (A) (A) (A) (A) (A) (A) (A) (A) (A) (A) (A) (A)
                 (A) (A) (A) (A) (A) (A) (A) (A) (A) (A) (A) (A)
                 (A) (A) (A) (A) (A) (A) (A) (A) (A) (A) (A) (A)
                 (A) (A) (A) (A) (A) (A) (A) (A) (A) (A) (A) (A)
                 (A) (A) (A) (A) (A) (A) (A) (A) (A) (A) (A) (A)
                 (A) (A) (A) (A) (A) (A) (A) (A) (A) (A) (A) (A)
                 (A) (A) (A) (A) (A) (A) (A) (A) (A) (A) (A) (A)
                 (A) (A) (A) (A) (A) (A) (A) (A) (A) (A) (A) (A)
                 (A) (A) (A) (A) (A) (A) (A) (A) (A) (A) (A) (A)
                 (A) (A) (A) (A) (A) (A) (A) (A) (A) (A) (A) (A)
                 (A) (A) (A) (A) (A) (A) (A) (A) (A) (A) (A) (A)
                 (A) (A) (A) (A) (A) (A) (A) (A) (A) (A) (A) (A)
                 (A) (A) (A) (A) (A) (A) (A) (A) (A) (A) (A) (A)
                 (A) (A) (A) (A) (A) (A) (A) (A) (A) (A) (A) (A)
                 (A) (A) (A) (A) (A) (A) (A) (A) (A) (A) (A) (A)
                 (A) (A) (A) (A) (A) (A) (A) (A) (A) (A) (A) (A)
                 (A) (A) (A) (A) (A) (A) (A) (A) (A) (A) (A) (A)
                 (A) (A) (A) (A) (A) (A) (A) (A) (A) (A) (A) (A)
                 (A) (A) (A) (A) (A) (A) (A) (A) (A) (A) (A) (A)
                 (A) (A) (A) (A) (A) (A) (A) (A) (A) (A) (A) (A)
                 (A) (A) (A) (A) (A) (A) (A) (A) (A) (A) (A) (A)
                 (A) (A) (A) (A) (A) (A) (A) (A) (A) (A) (A) (A)
                 (A) (A) (A) (A) (A) (A) (A) (A) (A) (A) (A) (A)
                 (A) (A) (A) (A) (A) (A) (A) (A) (A) (A) (A) (A)
                 (A) (A) (A) (A) (A) (A) (A) (A) (A) (A) (A) (A)
                 (A) (A) (A) (A) (A) (A) (A) (A) (A) (A) (A) (A)
                 (A) (A) (A) (A) (A) (A) (A) (A) (A) (A) (A) (A)
                 (A) (A) (A) (A) (A) (A) (A) (A) (A) (A) (A) (A)
                 (A) (A) (A) (A) (A) (A) (A) (A) (A) (A) (A) (A)
                 (A) (A) (A) (A) (A) (A) (A) (A) (A) (A) (A) (A)
                 (A) (A) (A) (A) (A) (A) (A) (A) (A) (A) (A) (A)
                 (A) (A) (A) (A) (A) (A) (A) (A) (A) (A) (A) (A)
                 (A) (A) (A) (A) (A) (A) (A) (A) (A) (A) (A) (A)
                 (A) (A) (A) (A) (A) (A) (A) (A) (A) (A) (A) (A)
                 (A) (A) (A) (A) (A) (A) (A) (A) (A) (A) (A) (A)
                 (A) (A) (A) (A) (A) (A) (A) (A) (A) (A) (A) (A)
                 (A) (A) (A) (A) (A) (A) (A) (A) (A) (A) (A) (A)
                 (A) (A) (A) (A) (A) (A) (A) (A) (A) (A) (A) (A)
                 (A) (A) (A) (A) (A) (A) (A) (A) (A) (A) (A) (A)
                 (A) (A) (A) (A) (A) (A) (A) (A) (A) (A) (A) (A)
                 (A) (A) (A) (A) (A) (A) (A) (A) (A) (A) (A) (A)
                 (A) (A) (A) (A) (A) (A) (A) (A) (A) (A) (A) (A)
                 (A) (A) (A) (A) (A) (A) (A) (A) (A) (A) (A) (A)
                 (A) (A) (A) (A) (A) (A) (A) (A) (A) (A) (A) (A)
                 (A) (A) (A) (A) (A) (A) (A) (A) (A) (A) (A) (A)
                 (A) (A) (A) (A) (A) (A) (A) (A) (A) (A) (A) (A)
                 (A) (A) (A) (A) (A) (A) (A) (A) (A) (A) (A) (A)
                 (A) (A) (A) (A) (A) (A) (A) (A) (A) (A) (A) (A)
                 (A) (A) (A) (A) (A) (A) (A) (A) (A) (A) (A) (A)
                 (A) (A) (A) (A) (A) (A) (A) (A) (A) (A) (A) (A)
                 (A) (A) (A) (A) (A) (A) (A) (A) (A) (A) (A) (A)
                 (A) (A) (A) (A) (A) (A) (A) (A) (A) (A) (A) (A)
                 (A) (A) (A) (A) (A) (A) (A) (A) (A) (A) (A) (A)
                 (A) (A) (A) (A) (A) (A) (A) (A) (A) (A) (A) (A)
                 (A) (A) (A) (A) (A) (A) (A) (A) (A) (A) (A) (A)
                 (A) (A) (A) (A) (A) (A) (A) (A) (A) (A) (A) (A)
                 (A) (A) (A) (A) (A) (A) (A) (A) (A) (A) (A) (A)
                 (A) (A) (A) (A) (A) (A) (A) (A) (A) (A) (A) (A)
                 (A) (A) (A) (A) (A) (A) (A) (A) (A) (A) (A) (A)
                 (A) (A) (A) (A) (A) (A) (A) (A) (A) (A) (A) (A)
                 (A) (A) (A) (A) (A) (A) (A) (A) (A) (A) (A) (A)
                 (A) (A) (A) (A) (A) (A) (A) (A) (A) (A) (A)
 The electronic state of the initial guess is 1-A.
 Requested convergence on RMS density matrix=1.00D-08 within 128 cycles.
 Requested convergence on MAX density matrix=1.00D-06.
 Requested convergence on             energy=1.00D-06.
 No special actions if energy rises.
 SCF Done:  E(RB3LYP) =  -1298.01773901     A.U. after   13 cycles
             Convg  =    0.3046D-08             -V/T =  2.0066
 Range of M.O.s used for correlation:     1   846
 NBasis=   846 NAE=    91 NBE=    91 NFC=     0 NFV=     0
 NROrb=    846 NOA=    91 NOB=    91 NVA=   755 NVB=   755

 **** Warning!!: The largest alpha MO coefficient is  0.70639958D+02

          Differentiating once with respect to electric field.
                with respect to dipole field.
          Electric field/nuclear overlap derivatives assumed to be zero.
          There are     3 degrees of freedom in the 1st order CPHF.  IDoFFX=0.
      3 vectors produced by pass  0 Test12= 2.29D-12 3.33D-08 XBig12= 1.24D+02 1.49D+00.
 AX will form     3 AO Fock derivatives at one time.
      3 vectors produced by pass  1 Test12= 2.29D-12 3.33D-08 XBig12= 2.44D+01 3.55D-01.
      3 vectors produced by pass  2 Test12= 2.29D-12 3.33D-08 XBig12= 1.01D+01 2.21D-01.
      3 vectors produced by pass  3 Test12= 2.29D-12 3.33D-08 XBig12= 1.10D+00 8.30D-02.
      3 vectors produced by pass  4 Test12= 2.29D-12 3.33D-08 XBig12= 2.96D-01 4.71D-02.
      3 vectors produced by pass  5 Test12= 2.29D-12 3.33D-08 XBig12= 6.45D-02 2.24D-02.
      3 vectors produced by pass  6 Test12= 2.29D-12 3.33D-08 XBig12= 1.82D-02 1.69D-02.
      3 vectors produced by pass  7 Test12= 2.29D-12 3.33D-08 XBig12= 3.04D-03 1.06D-02.
      3 vectors produced by pass  8 Test12= 2.29D-12 3.33D-08 XBig12= 4.34D-04 3.05D-03.
      3 vectors produced by pass  9 Test12= 2.29D-12 3.33D-08 XBig12= 1.35D-04 1.62D-03.
      3 vectors produced by pass 10 Test12= 2.29D-12 3.33D-08 XBig12= 3.58D-05 5.93D-04.
      3 vectors produced by pass 11 Test12= 2.29D-12 3.33D-08 XBig12= 1.06D-05 3.40D-04.
      3 vectors produced by pass 12 Test12= 2.29D-12 3.33D-08 XBig12= 9.80D-07 1.30D-04.
      3 vectors produced by pass 13 Test12= 2.29D-12 3.33D-08 XBig12= 3.08D-07 4.53D-05.
      3 vectors produced by pass 14 Test12= 2.29D-12 3.33D-08 XBig12= 6.50D-08 1.90D-05.
      3 vectors produced by pass 15 Test12= 2.29D-12 3.33D-08 XBig12= 1.95D-08 1.10D-05.
      3 vectors produced by pass 16 Test12= 2.29D-12 3.33D-08 XBig12= 1.79D-09 3.19D-06.
      3 vectors produced by pass 17 Test12= 2.29D-12 3.33D-08 XBig12= 1.51D-10 7.75D-07.
      3 vectors produced by pass 18 Test12= 2.29D-12 3.33D-08 XBig12= 2.23D-11 2.34D-07.
      3 vectors produced by pass 19 Test12= 2.29D-12 3.33D-08 XBig12= 1.49D-11 2.75D-07.
      3 vectors produced by pass 20 Test12= 2.29D-12 3.33D-08 XBig12= 6.35D-12 1.58D-07.
      2 vectors produced by pass 21 Test12= 2.29D-12 3.33D-08 XBig12= 3.71D-12 1.28D-07.
      2 vectors produced by pass 22 Test12= 2.29D-12 3.33D-08 XBig12= 1.35D-12 8.84D-08.
 Inverted reduced A of dimension    67 with in-core refinement.
 End of Minotr Frequency-dependent properties file   721 does not exist.
 End of Minotr Frequency-dependent properties file   722 does not exist.
 Symmetrizing basis deriv contribution to polar:
 IMax=3 JMax=2 DiffMx= 0.00D+00
 G2DrvN: will do     8 centers at a time, making    6 passes doing MaxLOS=3.
 Calling FoFCou, ICntrl=  3107 FMM=F I1Cent=   0 AccDes= 0.00D+00.
 Calling FoFCou, ICntrl=  3107 FMM=F I1Cent=   0 AccDes= 0.00D+00.
 Calling FoFCou, ICntrl=  3107 FMM=F I1Cent=   0 AccDes= 0.00D+00.
 Calling FoFCou, ICntrl=  3107 FMM=F I1Cent=   0 AccDes= 0.00D+00.
 Calling FoFCou, ICntrl=  3107 FMM=F I1Cent=   0 AccDes= 0.00D+00.
 Calling FoFCou, ICntrl=  3107 FMM=F I1Cent=   0 AccDes= 0.00D+00.
 FoFDir/FoFCou used for L=0 through L=3.
 End of G2Drv Frequency-dependent properties file   721 does not exist.
 End of G2Drv Frequency-dependent properties file   722 does not exist.
          IDoAtm=111111111111111111111111111111111111111111111
          Differentiating once with respect to electric field.
                with respect to dipole field.
          Differentiating once with respect to nuclear coordinates.
          There are   138 degrees of freedom in the 1st order CPHF.  IDoFFX=5.
 Will reuse    3 saved solutions.
    135 vectors produced by pass  0 Test12= 6.87D-14 1.00D-09 XBig12= 1.67D-01 9.21D-02.
 AX will form    27 AO Fock derivatives at one time.
    135 vectors produced by pass  1 Test12= 6.87D-14 1.00D-09 XBig12= 2.52D-02 1.04D-02.
    132 vectors produced by pass  2 Test12= 6.87D-14 1.00D-09 XBig12= 1.63D-04 1.43D-03.
    132 vectors produced by pass  3 Test12= 6.87D-14 1.00D-09 XBig12= 9.11D-07 7.85D-05.
    132 vectors produced by pass  4 Test12= 6.87D-14 1.00D-09 XBig12= 2.10D-09 3.08D-06.
    132 vectors produced by pass  5 Test12= 6.87D-14 1.00D-09 XBig12= 5.15D-12 1.42D-07.
     93 vectors produced by pass  6 Test12= 6.87D-14 1.00D-09 XBig12= 2.68D-13 2.63D-08.
      1 vectors produced by pass  7 Test12= 6.87D-14 1.00D-09 XBig12= 1.17D-15 1.45D-09.
 Inverted reduced A of dimension   892 with in-core refinement.
 Isotropic polarizability for W=    0.000000      192.01 Bohr**3.
 End of Minotr Frequency-dependent properties file   721 does not exist.
 End of Minotr Frequency-dependent properties file   722 does not exist.

 **********************************************************************

            Population analysis using the SCF density.

 **********************************************************************

 Orbital symmetries:
       Occupied  (A) (A) (A) (A) (A) (A) (A) (A) (A) (A) (A) (A)
                 (A) (A) (A) (A) (A) (A) (A) (A) (A) (A) (A) (A)
                 (A) (A) (A) (A) (A) (A) (A) (A) (A) (A) (A) (A)
                 (A) (A) (A) (A) (A) (A) (A) (A) (A) (A) (A) (A)
                 (A) (A) (A) (A) (A) (A) (A) (A) (A) (A) (A) (A)
                 (A) (A) (A) (A) (A) (A) (A) (A) (A) (A) (A) (A)
                 (A) (A) (A) (A) (A) (A) (A) (A) (A) (A) (A) (A)
                 (A) (A) (A) (A) (A) (A) (A)
       Virtual   (A) (A) (A) (A) (A) (A) (A) (A) (A) (A) (A) (A)
                 (A) (A) (A) (A) (A) (A) (A) (A) (A) (A) (A) (A)
                 (A) (A) (A) (A) (A) (A) (A) (A) (A) (A) (A) (A)
                 (A) (A) (A) (A) (A) (A) (A) (A) (A) (A) (A) (A)
                 (A) (A) (A) (A) (A) (A) (A) (A) (A) (A) (A) (A)
                 (A) (A) (A) (A) (A) (A) (A) (A) (A) (A) (A) (A)
                 (A) (A) (A) (A) (A) (A) (A) (A) (A) (A) (A) (A)
                 (A) (A) (A) (A) (A) (A) (A) (A) (A) (A) (A) (A)
                 (A) (A) (A) (A) (A) (A) (A) (A) (A) (A) (A) (A)
                 (A) (A) (A) (A) (A) (A) (A) (A) (A) (A) (A) (A)
                 (A) (A) (A) (A) (A) (A) (A) (A) (A) (A) (A) (A)
                 (A) (A) (A) (A) (A) (A) (A) (A) (A) (A) (A) (A)
                 (A) (A) (A) (A) (A) (A) (A) (A) (A) (A) (A) (A)
                 (A) (A) (A) (A) (A) (A) (A) (A) (A) (A) (A) (A)
                 (A) (A) (A) (A) (A) (A) (A) (A) (A) (A) (A) (A)
                 (A) (A) (A) (A) (A) (A) (A) (A) (A) (A) (A) (A)
                 (A) (A) (A) (A) (A) (A) (A) (A) (A) (A) (A) (A)
                 (A) (A) (A) (A) (A) (A) (A) (A) (A) (A) (A) (A)
                 (A) (A) (A) (A) (A) (A) (A) (A) (A) (A) (A) (A)
                 (A) (A) (A) (A) (A) (A) (A) (A) (A) (A) (A) (A)
                 (A) (A) (A) (A) (A) (A) (A) (A) (A) (A) (A) (A)
                 (A) (A) (A) (A) (A) (A) (A) (A) (A) (A) (A) (A)
                 (A) (A) (A) (A) (A) (A) (A) (A) (A) (A) (A) (A)
                 (A) (A) (A) (A) (A) (A) (A) (A) (A) (A) (A) (A)
                 (A) (A) (A) (A) (A) (A) (A) (A) (A) (A) (A) (A)
                 (A) (A) (A) (A) (A) (A) (A) (A) (A) (A) (A) (A)
                 (A) (A) (A) (A) (A) (A) (A) (A) (A) (A) (A) (A)
                 (A) (A) (A) (A) (A) (A) (A) (A) (A) (A) (A) (A)
                 (A) (A) (A) (A) (A) (A) (A) (A) (A) (A) (A) (A)
                 (A) (A) (A) (A) (A) (A) (A) (A) (A) (A) (A) (A)
                 (A) (A) (A) (A) (A) (A) (A) (A) (A) (A) (A) (A)
                 (A) (A) (A) (A) (A) (A) (A) (A) (A) (A) (A) (A)
                 (A) (A) (A) (A) (A) (A) (A) (A) (A) (A) (A) (A)
                 (A) (A) (A) (A) (A) (A) (A) (A) (A) (A) (A) (A)
                 (A) (A) (A) (A) (A) (A) (A) (A) (A) (A) (A) (A)
                 (A) (A) (A) (A) (A) (A) (A) (A) (A) (A) (A) (A)
                 (A) (A) (A) (A) (A) (A) (A) (A) (A) (A) (A) (A)
                 (A) (A) (A) (A) (A) (A) (A) (A) (A) (A) (A) (A)
                 (A) (A) (A) (A) (A) (A) (A) (A) (A) (A) (A) (A)
                 (A) (A) (A) (A) (A) (A) (A) (A) (A) (A) (A) (A)
                 (A) (A) (A) (A) (A) (A) (A) (A) (A) (A) (A) (A)
                 (A) (A) (A) (A) (A) (A) (A) (A) (A) (A) (A) (A)
                 (A) (A) (A) (A) (A) (A) (A) (A) (A) (A) (A) (A)
                 (A) (A) (A) (A) (A) (A) (A) (A) (A) (A) (A) (A)
                 (A) (A) (A) (A) (A) (A) (A) (A) (A) (A) (A) (A)
                 (A) (A) (A) (A) (A) (A) (A) (A) (A) (A) (A) (A)
                 (A) (A) (A) (A) (A) (A) (A) (A) (A) (A) (A) (A)
                 (A) (A) (A) (A) (A) (A) (A) (A) (A) (A) (A) (A)
                 (A) (A) (A) (A) (A) (A) (A) (A) (A) (A) (A) (A)
                 (A) (A) (A) (A) (A) (A) (A) (A) (A) (A) (A) (A)
                 (A) (A) (A) (A) (A) (A) (A) (A) (A) (A) (A) (A)
                 (A) (A) (A) (A) (A) (A) (A) (A) (A) (A) (A) (A)
                 (A) (A) (A) (A) (A) (A) (A) (A) (A) (A) (A) (A)
                 (A) (A) (A) (A) (A) (A) (A) (A) (A) (A) (A) (A)
                 (A) (A) (A) (A) (A) (A) (A) (A) (A) (A) (A) (A)
                 (A) (A) (A) (A) (A) (A) (A) (A) (A) (A) (A) (A)
                 (A) (A) (A) (A) (A) (A) (A) (A) (A) (A) (A) (A)
                 (A) (A) (A) (A) (A) (A) (A) (A) (A) (A) (A) (A)
                 (A) (A) (A) (A) (A) (A) (A) (A) (A) (A) (A) (A)
                 (A) (A) (A) (A) (A) (A) (A) (A) (A) (A) (A) (A)
                 (A) (A) (A) (A) (A) (A) (A) (A) (A) (A) (A) (A)
                 (A) (A) (A) (A) (A) (A) (A) (A) (A) (A) (A) (A)
                 (A) (A) (A) (A) (A) (A) (A) (A) (A) (A) (A)
 The electronic state is 1-A.
 Alpha  occ. eigenvalues --  -19.19023 -19.18573 -19.17825 -19.17397 -19.17285
 Alpha  occ. eigenvalues --  -19.16847 -19.16223 -19.15831 -19.15174 -19.14511
 Alpha  occ. eigenvalues --  -19.13492 -10.30572 -10.30127 -10.25633 -10.25442
 Alpha  occ. eigenvalues --  -10.25073 -10.25048 -10.24925 -10.24924 -10.24922
 Alpha  occ. eigenvalues --  -10.24720 -10.24569 -10.23809  -1.10274  -1.08837
 Alpha  occ. eigenvalues --   -1.05176  -1.04946  -1.03499  -1.03188  -1.02442
 Alpha  occ. eigenvalues --   -1.02044  -1.01884  -1.00841  -0.99910  -0.82152
 Alpha  occ. eigenvalues --   -0.80752  -0.79488  -0.78134  -0.71555  -0.69889
 Alpha  occ. eigenvalues --   -0.67473  -0.64720  -0.63109  -0.62411  -0.61373
 Alpha  occ. eigenvalues --   -0.60164  -0.56117  -0.55609  -0.54896  -0.54608
 Alpha  occ. eigenvalues --   -0.54343  -0.53307  -0.52680  -0.51833  -0.51400
 Alpha  occ. eigenvalues --   -0.50515  -0.50139  -0.49239  -0.48423  -0.46590
 Alpha  occ. eigenvalues --   -0.45601  -0.44859  -0.44574  -0.43836  -0.43211
 Alpha  occ. eigenvalues --   -0.42127  -0.41992  -0.41494  -0.40499  -0.39805
 Alpha  occ. eigenvalues --   -0.38948  -0.37704  -0.37262  -0.35843  -0.35379
 Alpha  occ. eigenvalues --   -0.35061  -0.34807  -0.33978  -0.33530  -0.32923
 Alpha  occ. eigenvalues --   -0.32616  -0.31546  -0.30777  -0.30438  -0.29917
 Alpha  occ. eigenvalues --   -0.29408  -0.28644  -0.28458  -0.28120  -0.26689
 Alpha  occ. eigenvalues --   -0.26518
 Alpha virt. eigenvalues --   -0.01659  -0.01530  -0.01334  -0.00081   0.00445
 Alpha virt. eigenvalues --    0.01029   0.01894   0.02166   0.02809   0.03297
 Alpha virt. eigenvalues --    0.03597   0.04180   0.04633   0.05416   0.05724
 Alpha virt. eigenvalues --    0.06141   0.06330   0.07268   0.07854   0.08301
 Alpha virt. eigenvalues --    0.08702   0.08920   0.09004   0.09731   0.10159
 Alpha virt. eigenvalues --    0.10633   0.10860   0.11497   0.11698   0.12158
 Alpha virt. eigenvalues --    0.12621   0.12814   0.13150   0.13415   0.13923
 Alpha virt. eigenvalues --    0.14162   0.14241   0.14606   0.14947   0.15343
 Alpha virt. eigenvalues --    0.15471   0.16188   0.16858   0.17029   0.17188
 Alpha virt. eigenvalues --    0.17343   0.17817   0.17952   0.18156   0.18561
 Alpha virt. eigenvalues --    0.18877   0.19353   0.19616   0.19822   0.20109
 Alpha virt. eigenvalues --    0.20464   0.20655   0.20913   0.21368   0.21584
 Alpha virt. eigenvalues --    0.21946   0.22213   0.22534   0.22715   0.23045
 Alpha virt. eigenvalues --    0.23529   0.23778   0.24096   0.24326   0.24861
 Alpha virt. eigenvalues --    0.25152   0.25288   0.25419   0.25682   0.26117
 Alpha virt. eigenvalues --    0.26215   0.26498   0.26831   0.26957   0.27414
 Alpha virt. eigenvalues --    0.27628   0.27787   0.28199   0.28645   0.28875
 Alpha virt. eigenvalues --    0.29067   0.29640   0.30087   0.30433   0.30751
 Alpha virt. eigenvalues --    0.30959   0.31288   0.31391   0.31723   0.32073
 Alpha virt. eigenvalues --    0.32199   0.32951   0.33063   0.33490   0.33694
 Alpha virt. eigenvalues --    0.34234   0.34653   0.34834   0.35219   0.35986
 Alpha virt. eigenvalues --    0.36123   0.36303   0.37119   0.37186   0.37562
 Alpha virt. eigenvalues --    0.37760   0.37914   0.38684   0.38918   0.39272
 Alpha virt. eigenvalues --    0.39819   0.40002   0.40255   0.40637   0.41347
 Alpha virt. eigenvalues --    0.41611   0.41985   0.43157   0.43430   0.43574
 Alpha virt. eigenvalues --    0.44139   0.44942   0.45636   0.46268   0.46450
 Alpha virt. eigenvalues --    0.47501   0.48120   0.48280   0.48669   0.49818
 Alpha virt. eigenvalues --    0.50356   0.50632   0.54001   0.56099   0.58631
 Alpha virt. eigenvalues --    0.59220   0.59767   0.59854   0.60699   0.61661
 Alpha virt. eigenvalues --    0.62191   0.64187   0.64494   0.65732   0.65921
 Alpha virt. eigenvalues --    0.66320   0.67250   0.67980   0.68910   0.69093
 Alpha virt. eigenvalues --    0.70028   0.71246   0.71739   0.72182   0.73234
 Alpha virt. eigenvalues --    0.74262   0.74449   0.75378   0.75888   0.76532
 Alpha virt. eigenvalues --    0.77348   0.77790   0.79179   0.79783   0.80693
 Alpha virt. eigenvalues --    0.81057   0.81980   0.82886   0.83251   0.84664
 Alpha virt. eigenvalues --    0.85582   0.87445   0.87861   0.88806   0.89409
 Alpha virt. eigenvalues --    0.89463   0.90083   0.90848   0.91439   0.91661
 Alpha virt. eigenvalues --    0.91960   0.92503   0.93425   0.93690   0.93841
 Alpha virt. eigenvalues --    0.94234   0.94430   0.94740   0.95030   0.95684
 Alpha virt. eigenvalues --    0.95983   0.97023   0.97482   0.97894   0.98304
 Alpha virt. eigenvalues --    0.99333   1.00038   1.00527   1.01134   1.01986
 Alpha virt. eigenvalues --    1.02544   1.03241   1.03834   1.04811   1.05507
 Alpha virt. eigenvalues --    1.06029   1.06167   1.06492   1.07459   1.08159
 Alpha virt. eigenvalues --    1.08261   1.09099   1.09535   1.10658   1.11072
 Alpha virt. eigenvalues --    1.11391   1.11929   1.12452   1.12861   1.13811
 Alpha virt. eigenvalues --    1.14666   1.15026   1.15333   1.16263   1.17027
 Alpha virt. eigenvalues --    1.17332   1.17553   1.18103   1.18807   1.19117
 Alpha virt. eigenvalues --    1.19962   1.20885   1.21246   1.21899   1.22103
 Alpha virt. eigenvalues --    1.22779   1.22842   1.23485   1.23661   1.24366
 Alpha virt. eigenvalues --    1.24775   1.25942   1.26461   1.26496   1.27148
 Alpha virt. eigenvalues --    1.27770   1.28395   1.29168   1.29550   1.30914
 Alpha virt. eigenvalues --    1.31608   1.32393   1.32627   1.33332   1.33993
 Alpha virt. eigenvalues --    1.34695   1.35279   1.35924   1.36116   1.36827
 Alpha virt. eigenvalues --    1.37020   1.37768   1.38240   1.39030   1.39479
 Alpha virt. eigenvalues --    1.40574   1.40911   1.41723   1.42433   1.43274
 Alpha virt. eigenvalues --    1.43743   1.44382   1.44857   1.45581   1.46406
 Alpha virt. eigenvalues --    1.47343   1.48182   1.48682   1.49137   1.50325
 Alpha virt. eigenvalues --    1.51470   1.51801   1.53500   1.53604   1.54427
 Alpha virt. eigenvalues --    1.55295   1.55595   1.56685   1.58844   1.59486
 Alpha virt. eigenvalues --    1.60409   1.60727   1.61744   1.62727   1.63775
 Alpha virt. eigenvalues --    1.64287   1.65319   1.66838   1.67127   1.67342
 Alpha virt. eigenvalues --    1.68937   1.69212   1.70398   1.70778   1.71932
 Alpha virt. eigenvalues --    1.72616   1.72753   1.74456   1.75279   1.76599
 Alpha virt. eigenvalues --    1.76979   1.78011   1.78403   1.78756   1.79372
 Alpha virt. eigenvalues --    1.81542   1.82934   1.84012   1.84551   1.86034
 Alpha virt. eigenvalues --    1.86701   1.87268   1.87737   1.88844   1.89233
 Alpha virt. eigenvalues --    1.90752   1.91707   1.93736   1.94645   1.95282
 Alpha virt. eigenvalues --    1.95530   1.96414   1.98102   1.99735   2.00658
 Alpha virt. eigenvalues --    2.01499   2.02470   2.03441   2.04214   2.05410
 Alpha virt. eigenvalues --    2.06947   2.08774   2.10152   2.10978   2.14078
 Alpha virt. eigenvalues --    2.14471   2.15753   2.19084   2.19236   2.20187
 Alpha virt. eigenvalues --    2.21001   2.21446   2.21594   2.23360   2.24050
 Alpha virt. eigenvalues --    2.26936   2.30105   2.30633   2.31248   2.32254
 Alpha virt. eigenvalues --    2.33409   2.34963   2.38199   2.38678   2.43057
 Alpha virt. eigenvalues --    2.43300   2.45628   2.45871   2.47296   2.48605
 Alpha virt. eigenvalues --    2.50551   2.51515   2.52686   2.53487   2.54626
 Alpha virt. eigenvalues --    2.56598   2.57301   2.58762   2.59631   2.59677
 Alpha virt. eigenvalues --    2.60669   2.61140   2.63553   2.64753   2.65520
 Alpha virt. eigenvalues --    2.66065   2.68458   2.69610   2.71321   2.72445
 Alpha virt. eigenvalues --    2.73576   2.74159   2.76124   2.76962   2.78300
 Alpha virt. eigenvalues --    2.79871   2.80693   2.81233   2.82597   2.83470
 Alpha virt. eigenvalues --    2.84094   2.85305   2.86647   2.87266   2.88701
 Alpha virt. eigenvalues --    2.89521   2.90239   2.91258   2.92151   2.92704
 Alpha virt. eigenvalues --    2.93040   2.93964   2.96221   2.97764   2.98998
 Alpha virt. eigenvalues --    2.99727   3.00314   3.00485   3.02267   3.03419
 Alpha virt. eigenvalues --    3.03700   3.04081   3.04546   3.05363   3.06953
 Alpha virt. eigenvalues --    3.08022   3.09446   3.09498   3.10078   3.11444
 Alpha virt. eigenvalues --    3.12802   3.13616   3.15575   3.15980   3.18396
 Alpha virt. eigenvalues --    3.18618   3.20142   3.21842   3.22417   3.23273
 Alpha virt. eigenvalues --    3.24857   3.25565   3.26820   3.27734   3.28420
 Alpha virt. eigenvalues --    3.28772   3.30053   3.31407   3.33605   3.33957
 Alpha virt. eigenvalues --    3.34915   3.35345   3.38235   3.38812   3.40015
 Alpha virt. eigenvalues --    3.41507   3.41741   3.42493   3.42971   3.43360
 Alpha virt. eigenvalues --    3.45027   3.46590   3.47780   3.48935   3.50514
 Alpha virt. eigenvalues --    3.51918   3.53869   3.56897   3.58355   3.59366
 Alpha virt. eigenvalues --    3.61457   3.62003   3.64005   3.66054   3.66737
 Alpha virt. eigenvalues --    3.68437   3.71413   3.72494   3.74022   3.74565
 Alpha virt. eigenvalues --    3.75919   3.77711   3.78269   3.78880   3.80543
 Alpha virt. eigenvalues --    3.82110   3.82655   3.84557   3.85213   3.86183
 Alpha virt. eigenvalues --    3.87397   3.88009   3.89673   3.90578   3.91565
 Alpha virt. eigenvalues --    3.92894   3.93775   3.97820   4.01157   4.01866
 Alpha virt. eigenvalues --    4.03438   4.05505   4.08578   4.09940   4.14513
 Alpha virt. eigenvalues --    4.15330   4.16555   4.17188   4.18104   4.18509
 Alpha virt. eigenvalues --    4.19375   4.22190   4.23710   4.24424   4.25403
 Alpha virt. eigenvalues --    4.26456   4.28463   4.29167   4.29955   4.31164
 Alpha virt. eigenvalues --    4.32318   4.33084   4.33331   4.34303   4.35455
 Alpha virt. eigenvalues --    4.35913   4.36831   4.37994   4.38766   4.39738
 Alpha virt. eigenvalues --    4.40629   4.41109   4.41493   4.42114   4.43444
 Alpha virt. eigenvalues --    4.43671   4.44759   4.45256   4.46522   4.47796
 Alpha virt. eigenvalues --    4.48373   4.49096   4.49323   4.50427   4.50823
 Alpha virt. eigenvalues --    4.51541   4.52618   4.53453   4.54847   4.55354
 Alpha virt. eigenvalues --    4.55790   4.56251   4.57628   4.58013   4.58228
 Alpha virt. eigenvalues --    4.58799   4.60232   4.60624   4.61327   4.62171
 Alpha virt. eigenvalues --    4.63099   4.63283   4.64580   4.64845   4.65233
 Alpha virt. eigenvalues --    4.65715   4.67053   4.67989   4.68493   4.69347
 Alpha virt. eigenvalues --    4.70080   4.70578   4.70907   4.71623   4.72193
 Alpha virt. eigenvalues --    4.73555   4.74148   4.74379   4.75587   4.76123
 Alpha virt. eigenvalues --    4.76369   4.77149   4.78270   4.78766   4.79309
 Alpha virt. eigenvalues --    4.79492   4.80290   4.81380   4.82191   4.83209
 Alpha virt. eigenvalues --    4.83283   4.84246   4.85034   4.85218   4.85706
 Alpha virt. eigenvalues --    4.87115   4.87827   4.88449   4.88830   4.90128
 Alpha virt. eigenvalues --    4.90197   4.92512   4.93604   4.94532   4.95676
 Alpha virt. eigenvalues --    4.96960   4.97960   4.99383   5.00343   5.01424
 Alpha virt. eigenvalues --    5.01703   5.04501   5.07056   5.09559   5.10520
 Alpha virt. eigenvalues --    5.11139   5.12178   5.13339   5.15140   5.17184
 Alpha virt. eigenvalues --    5.18208   5.19831   5.20668   5.20714   5.22536
 Alpha virt. eigenvalues --    5.22852   5.24047   5.26766   5.28305   5.28820
 Alpha virt. eigenvalues --    5.30867   5.31437   5.32279   5.33864   5.34619
 Alpha virt. eigenvalues --    5.36183   5.36853   5.37493   5.38407   5.39649
 Alpha virt. eigenvalues --    5.40115   5.40688   5.41524   5.42910   5.43189
 Alpha virt. eigenvalues --    5.43864   5.44419   5.45089   5.46055   5.47387
 Alpha virt. eigenvalues --    5.48189   5.49655   5.50044   5.51685   5.52968
 Alpha virt. eigenvalues --    5.53296   5.53922   5.56099   5.56427   5.57552
 Alpha virt. eigenvalues --    5.59337   5.59496   5.60903   5.63369   5.64717
 Alpha virt. eigenvalues --    5.67532   5.67863   5.70539   5.71238   5.75718
 Alpha virt. eigenvalues --    5.77140   5.78227   5.79583   5.82822   5.84780
 Alpha virt. eigenvalues --    5.85592   5.87170   5.87826   5.89306   5.89642
 Alpha virt. eigenvalues --    5.90661   5.91258   5.91940   5.92689   5.95090
 Alpha virt. eigenvalues --    5.96061   5.97025   5.97750   5.98531   5.99324
 Alpha virt. eigenvalues --    6.01564   6.02998   6.05259   6.05645   6.05795
 Alpha virt. eigenvalues --    6.06015   6.09288   6.10205   6.11578   6.13442
 Alpha virt. eigenvalues --    6.14352   6.16664   6.18282   6.20274   6.22766
 Alpha virt. eigenvalues --    6.24769   6.25169   6.31623   6.36171   6.38026
 Alpha virt. eigenvalues --    6.54075   6.60162   6.94099   7.03426   7.10378
 Alpha virt. eigenvalues --    7.12601   7.19438   7.23157   7.27692   7.29577
 Alpha virt. eigenvalues --    7.32923   7.36270   7.42976   7.52007   7.63096
 Alpha virt. eigenvalues --    7.85677   8.14471  12.01120  12.17571  12.24058
 Alpha virt. eigenvalues --   12.30794  12.44432  12.58697  12.83964  12.90018
 Alpha virt. eigenvalues --   12.94480  13.07487  13.27482  13.35978  13.42799
 Alpha virt. eigenvalues --   13.46219  13.53091  13.54171  13.57979  13.63211
 Alpha virt. eigenvalues --   13.66813  13.76894  13.96238  14.09578  14.28471
          Condensed to atoms (all electrons):
              1          2          3          4          5          6
     1  O    8.025720   0.336188  -0.098941  -0.010280   0.014658  -0.005309
     2  C    0.336188   6.435495  -0.043339  -0.030783  -0.069268  -0.774486
     3  C   -0.098941  -0.043339   6.481209   0.220445   0.014966  -0.171579
     4  O   -0.010280  -0.030783   0.220445   8.074838   0.248026  -0.058178
     5  H    0.014658  -0.069268   0.014966   0.248026   0.413995   0.027229
     6  C   -0.005309  -0.774486  -0.171579  -0.058178   0.027229   8.372067
     7  O   -0.000036   0.001099  -0.097455   0.003412  -0.000514   0.339309
     8  H    0.000006  -0.000366   0.015920  -0.000253   0.000010   0.001415
     9  C    0.006882  -0.258414  -0.372517   0.010187  -0.002949   0.553766
    10  O   -0.030483   0.031114   0.008467   0.000086  -0.000040  -0.002011
    11  H    0.004021  -0.007029   0.000010   0.000001   0.000000   0.000113
    12  C   -0.088627  -0.466379  -0.029601   0.012197   0.008693   0.304141
    13  O   -0.000133  -0.067633  -0.004204  -0.002076   0.000107  -0.014038
    14  C    0.008189   0.493749   0.169496   0.002350   0.003844  -2.305823
    15  O   -0.000098  -0.006517   0.006024   0.000346  -0.000002   0.005018
    16  C    0.001796   0.070259  -0.096213  -0.002039   0.000494  -0.340867
    17  C    0.000404  -0.027591  -0.005708   0.000009   0.000028   0.121158
    18  O    0.000007   0.006738  -0.001442  -0.000016   0.000000   0.008505
    19  H   -0.000007  -0.000363   0.002690   0.000002   0.000000   0.003987
    20  C    0.000042   0.005495  -0.008838  -0.000077   0.000001   0.099702
    21  O    0.000000   0.000030   0.000025   0.000000   0.000000   0.000059
    22  H    0.000000  -0.000001   0.000002   0.000000   0.000000  -0.000023
    23  C    0.000081   0.012776  -0.032052  -0.000199   0.000010  -0.110927
    24  O    0.000003  -0.002527  -0.005676  -0.000056  -0.000001  -0.004130
    25  H    0.000000   0.000164   0.001354   0.000004   0.000000  -0.001024
    26  C   -0.000100  -0.008360  -0.004423   0.000669  -0.000018  -0.094490
    27  O    0.000000  -0.000035   0.000305   0.000000   0.000000   0.001745
    28  C    0.000000  -0.000578   0.001890   0.000011   0.000000  -0.024363
    29  O    0.000000   0.000006   0.000002   0.000000   0.000000  -0.000314
    30  H    0.281044   0.015024   0.003334  -0.001263  -0.001045  -0.000651
    31  H    0.000000   0.000000   0.000000   0.000000   0.000000   0.000007
    32  H    0.000000   0.000004   0.000003   0.000000   0.000000  -0.000134
    33  H   -0.017936   0.342641  -0.041425   0.000074  -0.000257  -0.007413
    34  H    0.000363  -0.028291   0.280188  -0.016529  -0.006765  -0.080557
    35  H    0.003058   0.094292  -0.054395   0.000567   0.000001  -0.029590
    36  H   -0.000243   0.001044   0.004622   0.000012   0.000000  -0.002589
    37  H    0.000018  -0.010500  -0.047370  -0.000006   0.000008   0.060947
    38  H   -0.000249   0.009348  -0.113542   0.000116  -0.000081   0.381178
    39  H   -0.000001  -0.001641   0.002165   0.000002   0.000000   0.026826
    40  H    0.000000   0.000214   0.000154   0.000000   0.000000   0.007877
    41  H    0.000000   0.000212  -0.000005   0.000000   0.000000   0.000897
    42  H    0.000000  -0.000094   0.000212   0.000000   0.000000  -0.005327
    43  H    0.000000  -0.000014   0.000032   0.000000   0.000000   0.001065
    44  H    0.000000   0.000051  -0.000254  -0.000001   0.000000  -0.006406
    45  H   -0.000117  -0.004836  -0.013202  -0.000046   0.000000   0.017389
              7          8          9         10         11         12
     1  O   -0.000036   0.000006   0.006882  -0.030483   0.004021  -0.088627
     2  C    0.001099  -0.000366  -0.258414   0.031114  -0.007029  -0.466379
     3  C   -0.097455   0.015920  -0.372517   0.008467   0.000010  -0.029601
     4  O    0.003412  -0.000253   0.010187   0.000086   0.000001   0.012197
     5  H   -0.000514   0.000010  -0.002949  -0.000040   0.000000   0.008693
     6  C    0.339309   0.001415   0.553766  -0.002011   0.000113   0.304141
     7  O    8.107442   0.251274  -0.000176  -0.000001   0.000000   0.008020
     8  H    0.251274   0.324149  -0.000040   0.000000   0.000000  -0.003395
     9  C   -0.000176  -0.000040   8.043941   0.131348  -0.022651  -1.721173
    10  O   -0.000001   0.000000   0.131348   8.195317   0.243289  -0.014403
    11  H    0.000000   0.000000  -0.022651   0.243289   0.413951   0.023415
    12  C    0.008020  -0.003395  -1.721173  -0.014403   0.023415   9.383036
    13  O    0.003070  -0.000573  -0.020462   0.001292  -0.000775   0.064235
    14  C   -0.099565  -0.050340  -0.923567   0.005773  -0.003204  -1.152040
    15  O    0.003443   0.010089  -0.002556   0.000088  -0.000002  -0.029348
    16  C    0.036858   0.021772  -0.146774  -0.001260  -0.000147   0.030279
    17  C    0.002857   0.000477  -0.034888   0.000126  -0.000007  -0.199574
    18  O   -0.000039  -0.000017  -0.002168  -0.000111   0.000003  -0.003139
    19  H   -0.000041  -0.000002   0.005530   0.000021  -0.000004  -0.021711
    20  C    0.001746   0.000613   0.009204   0.000022   0.000013  -0.018522
    21  O   -0.000006   0.000000   0.000203   0.000000   0.000000   0.000099
    22  H    0.000000   0.000000  -0.000003   0.000000   0.000000   0.000004
    23  C    0.028457   0.001775  -0.003167  -0.000016   0.000000  -0.016623
    24  O   -0.037540   0.011399   0.000074   0.000000   0.000000   0.002318
    25  H    0.001229  -0.003326  -0.000015   0.000000   0.000000  -0.000272
    26  C   -0.033363  -0.015140  -0.000264  -0.000022   0.000000   0.078901
    27  O    0.000141  -0.000090  -0.000103   0.000000   0.000000  -0.000524
    28  C    0.000025  -0.000085  -0.000916  -0.000001   0.000000   0.003431
    29  O   -0.000003   0.000000  -0.000015   0.000000   0.000000   0.000023
    30  H   -0.000015   0.000000   0.001320   0.000666  -0.000139  -0.028332
    31  H    0.000000   0.000000   0.000000   0.000000   0.000000  -0.000002
    32  H    0.000000   0.000000   0.000005   0.000000   0.000000   0.000028
    33  H    0.000452   0.000002  -0.042590  -0.002307  -0.000010  -0.076923
    34  H    0.002668  -0.000075   0.011066  -0.000095   0.000000   0.039349
    35  H    0.000301   0.000002   0.043750   0.000063  -0.000201   0.018350
    36  H   -0.000011   0.000000   0.378762  -0.015138  -0.010743  -0.026325
    37  H   -0.001558  -0.000038   0.023760   0.000084   0.000000   0.081237
    38  H   -0.032029  -0.004404   0.017026   0.000022   0.000000   0.069027
    39  H   -0.001584  -0.000059  -0.000575   0.000001   0.000000  -0.001949
    40  H   -0.000010   0.000000  -0.000308   0.000000   0.000000  -0.001597
    41  H    0.000005   0.000000  -0.000100   0.000000   0.000000  -0.000017
    42  H   -0.000103  -0.000013   0.000031   0.000000   0.000000   0.000631
    43  H   -0.000610   0.000385  -0.000001   0.000000   0.000000   0.000050
    44  H    0.001843  -0.000545  -0.000007   0.000000   0.000000   0.000286
    45  H    0.000013   0.000000   0.659986  -0.056070   0.001269  -0.288581
             13         14         15         16         17         18
     1  O   -0.000133   0.008189  -0.000098   0.001796   0.000404   0.000007
     2  C   -0.067633   0.493749  -0.006517   0.070259  -0.027591   0.006738
     3  C   -0.004204   0.169496   0.006024  -0.096213  -0.005708  -0.001442
     4  O   -0.002076   0.002350   0.000346  -0.002039   0.000009  -0.000016
     5  H    0.000107   0.003844  -0.000002   0.000494   0.000028   0.000000
     6  C   -0.014038  -2.305823   0.005018  -0.340867   0.121158   0.008505
     7  O    0.003070  -0.099565   0.003443   0.036858   0.002857  -0.000039
     8  H   -0.000573  -0.050340   0.010089   0.021772   0.000477  -0.000017
     9  C   -0.020462  -0.923567  -0.002556  -0.146774  -0.034888  -0.002168
    10  O    0.001292   0.005773   0.000088  -0.001260   0.000126  -0.000111
    11  H   -0.000775  -0.003204  -0.000002  -0.000147  -0.000007   0.000003
    12  C    0.064235  -1.152040  -0.029348   0.030279  -0.199574  -0.003139
    13  O    7.917122   0.258409  -0.015862  -0.004958   0.033462  -0.026798
    14  C    0.258409  10.009464   0.208254  -0.426376  -0.444115   0.010331
    15  O   -0.015862   0.208254   7.825045   0.191245   0.022181  -0.004004
    16  C   -0.004958  -0.426376   0.191245  11.522367  -2.435763   0.011181
    17  C    0.033462  -0.444115   0.022181  -2.435763   8.484998   0.267566
    18  O   -0.026798   0.010331  -0.004004   0.011181   0.267566   8.073547
    19  H    0.023615  -0.010645   0.013331  -0.065523   0.029026   0.247955
    20  C   -0.017064  -0.043953   0.013281  -1.074782   0.456234  -0.113327
    21  O   -0.000390   0.006664  -0.000228   0.034787  -0.177392   0.006626
    22  H    0.000000  -0.000576  -0.000002  -0.013996   0.034482  -0.000559
    23  C    0.003477  -0.042673   0.008531   0.141966  -0.213496   0.007676
    24  O   -0.001750   0.107667  -0.024487  -0.019821  -0.003046   0.000050
    25  H   -0.000007  -0.007206   0.001709  -0.015786  -0.000420  -0.000001
    26  C   -0.019076  -0.283326  -0.097423  -2.554471   0.365046  -0.008384
    27  O    0.000351   0.000740   0.002392   0.052231   0.027950  -0.000713
    28  C    0.001207  -0.007244   0.004138   0.567018  -0.184447  -0.008757
    29  O    0.000033  -0.002094  -0.000098  -0.020507   0.001371   0.000250
    30  H   -0.000612  -0.002114  -0.000004   0.000064  -0.000052  -0.000001
    31  H    0.000000   0.000007  -0.000004   0.002726   0.005610  -0.000017
    32  H    0.000009   0.000369   0.000164   0.042298  -0.037567   0.000818
    33  H    0.002849   0.101850   0.000087  -0.001859   0.001313   0.000024
    34  H    0.002973   0.041176   0.000460  -0.003827   0.000461   0.000027
    35  H   -0.038364   0.201704  -0.000831  -0.002472   0.008145  -0.000442
    36  H   -0.000593  -0.003339  -0.000241   0.006049  -0.001708  -0.000368
    37  H   -0.039376   0.189219  -0.027353  -0.002966   0.006052  -0.001622
    38  H    0.006546  -0.057764  -0.011040  -0.016594  -0.001239   0.000123
    39  H   -0.005967  -0.054078  -0.022147   0.147084   0.006393  -0.001105
    40  H   -0.001714   0.004398  -0.002515  -0.073998   0.282511  -0.020205
    41  H   -0.000012  -0.011237   0.000995   0.071763  -0.154012   0.007063
    42  H   -0.000304   0.025232  -0.003768   0.036788  -0.084710   0.000419
    43  H    0.000022   0.007417   0.000284   0.016463  -0.000453   0.000009
    44  H    0.000052   0.001315   0.002835   0.078502  -0.006998   0.000055
    45  H   -0.006797  -0.000359  -0.000449  -0.006795   0.003012  -0.000261
             19         20         21         22         23         24
     1  O   -0.000007   0.000042   0.000000   0.000000   0.000081   0.000003
     2  C   -0.000363   0.005495   0.000030  -0.000001   0.012776  -0.002527
     3  C    0.002690  -0.008838   0.000025   0.000002  -0.032052  -0.005676
     4  O    0.000002  -0.000077   0.000000   0.000000  -0.000199  -0.000056
     5  H    0.000000   0.000001   0.000000   0.000000   0.000010  -0.000001
     6  C    0.003987   0.099702   0.000059  -0.000023  -0.110927  -0.004130
     7  O   -0.000041   0.001746  -0.000006   0.000000   0.028457  -0.037540
     8  H   -0.000002   0.000613   0.000000   0.000000   0.001775   0.011399
     9  C    0.005530   0.009204   0.000203  -0.000003  -0.003167   0.000074
    10  O    0.000021   0.000022   0.000000   0.000000  -0.000016   0.000000
    11  H   -0.000004   0.000013   0.000000   0.000000   0.000000   0.000000
    12  C   -0.021711  -0.018522   0.000099   0.000004  -0.016623   0.002318
    13  O    0.023615  -0.017064  -0.000390   0.000000   0.003477  -0.001750
    14  C   -0.010645  -0.043953   0.006664  -0.000576  -0.042673   0.107667
    15  O    0.013331   0.013281  -0.000228  -0.000002   0.008531  -0.024487
    16  C   -0.065523  -1.074782   0.034787  -0.013996   0.141966  -0.019821
    17  C    0.029026   0.456234  -0.177392   0.034482  -0.213496  -0.003046
    18  O    0.247955  -0.113327   0.006626  -0.000559   0.007676   0.000050
    19  H    0.348248   0.011987  -0.000646   0.000015  -0.002368   0.000013
    20  C    0.011987   6.851891   0.266157  -0.017821   0.045100  -0.005818
    21  O   -0.000646   0.266157   8.076595   0.250203   0.000799   0.000007
    22  H    0.000015  -0.017821   0.250203   0.412810  -0.000035   0.000000
    23  C   -0.002368   0.045100   0.000799  -0.000035   6.267375  -0.020305
    24  O    0.000013  -0.005818   0.000007   0.000000  -0.020305   8.241451
    25  H    0.000000   0.000481   0.000000   0.000000  -0.017235   0.252656
    26  C    0.008176   0.019406   0.001767   0.006518  -0.626962   0.059468
    27  O    0.000078  -0.085441  -0.000128  -0.000233  -0.117200   0.005318
    28  C    0.003438  -0.539261  -0.009047  -0.019317  -0.075096   0.007279
    29  O    0.000008  -0.065725   0.009787   0.007596   0.004711  -0.000041
    30  H    0.000000   0.000000   0.000000   0.000000   0.000000   0.000000
    31  H    0.000000  -0.022640  -0.002623  -0.000926  -0.000204   0.000000
    32  H    0.000002  -0.099985   0.003527  -0.000021   0.001420   0.000033
    33  H   -0.000005   0.000024   0.000000   0.000000   0.000100   0.000007
    34  H    0.000000  -0.000040   0.000000   0.000000   0.000276   0.000029
    35  H    0.000212   0.000684  -0.000002   0.000000   0.000422   0.000000
    36  H    0.000814  -0.000944   0.000000   0.000000   0.000003   0.000000
    37  H    0.000231   0.009123   0.000004   0.000000   0.003458  -0.000207
    38  H   -0.000017   0.000291   0.000000   0.000000   0.001797   0.000317
    39  H    0.000247   0.070426  -0.000119   0.000007   0.000361   0.000350
    40  H   -0.001467   0.019942  -0.000491  -0.000141   0.012148   0.000012
    41  H   -0.000073   0.303545  -0.013575  -0.006739   0.010287   0.000014
    42  H    0.000019  -0.010771   0.000041   0.000002   0.084195   0.003252
    43  H    0.000000   0.000053  -0.000006   0.000000   0.366076  -0.021737
    44  H   -0.000001  -0.000116  -0.000001   0.000000   0.567557  -0.053574
    45  H    0.000135   0.000290   0.000000   0.000000  -0.000008   0.000000
             25         26         27         28         29         30
     1  O    0.000000  -0.000100   0.000000   0.000000   0.000000   0.281044
     2  C    0.000164  -0.008360  -0.000035  -0.000578   0.000006   0.015024
     3  C    0.001354  -0.004423   0.000305   0.001890   0.000002   0.003334
     4  O    0.000004   0.000669   0.000000   0.000011   0.000000  -0.001263
     5  H    0.000000  -0.000018   0.000000   0.000000   0.000000  -0.001045
     6  C   -0.001024  -0.094490   0.001745  -0.024363  -0.000314  -0.000651
     7  O    0.001229  -0.033363   0.000141   0.000025  -0.000003  -0.000015
     8  H   -0.003326  -0.015140  -0.000090  -0.000085   0.000000   0.000000
     9  C   -0.000015  -0.000264  -0.000103  -0.000916  -0.000015   0.001320
    10  O    0.000000  -0.000022   0.000000  -0.000001   0.000000   0.000666
    11  H    0.000000   0.000000   0.000000   0.000000   0.000000  -0.000139
    12  C   -0.000272   0.078901  -0.000524   0.003431   0.000023  -0.028332
    13  O   -0.000007  -0.019076   0.000351   0.001207   0.000033  -0.000612
    14  C   -0.007206  -0.283326   0.000740  -0.007244  -0.002094  -0.002114
    15  O    0.001709  -0.097423   0.002392   0.004138  -0.000098  -0.000004
    16  C   -0.015786  -2.554471   0.052231   0.567018  -0.020507   0.000064
    17  C   -0.000420   0.365046   0.027950  -0.184447   0.001371  -0.000052
    18  O   -0.000001  -0.008384  -0.000713  -0.008757   0.000250  -0.000001
    19  H    0.000000   0.008176   0.000078   0.003438   0.000008   0.000000
    20  C    0.000481   0.019406  -0.085441  -0.539261  -0.065725   0.000000
    21  O    0.000000   0.001767  -0.000128  -0.009047   0.009787   0.000000
    22  H    0.000000   0.006518  -0.000233  -0.019317   0.007596   0.000000
    23  C   -0.017235  -0.626962  -0.117200  -0.075096   0.004711   0.000000
    24  O    0.252656   0.059468   0.005318   0.007279  -0.000041   0.000000
    25  H    0.403667   0.031320  -0.000961  -0.000962  -0.000003   0.000000
    26  C    0.031320   9.805913   0.105374  -0.463890  -0.001194   0.000000
    27  O   -0.000961   0.105374   7.922771   0.232160  -0.052930   0.000000
    28  C   -0.000962  -0.463890   0.232160   5.706548   0.309694   0.000000
    29  O   -0.000003  -0.001194  -0.052930   0.309694   8.040293   0.000000
    30  H    0.000000   0.000000   0.000000   0.000000   0.000000   0.386071
    31  H    0.000000  -0.003017   0.002122   0.004977   0.267663   0.000000
    32  H    0.000000   0.012021  -0.044803   0.414132  -0.019189   0.000000
    33  H    0.000000  -0.000466   0.000000  -0.000004   0.000000  -0.011973
    34  H    0.000000  -0.000607   0.000000   0.000001   0.000000  -0.000115
    35  H    0.000000  -0.001928   0.000000  -0.000061   0.000000  -0.000204
    36  H    0.000000   0.000192   0.000000   0.000053   0.000000   0.000010
    37  H    0.000006   0.016094   0.000210  -0.000916   0.000000   0.000002
    38  H   -0.000004  -0.003055   0.000000   0.000014   0.000000   0.000015
    39  H   -0.000011   0.055345   0.006323  -0.002895  -0.000634   0.000000
    40  H    0.000000   0.036468   0.001471  -0.031261   0.000502   0.000000
    41  H    0.000000   0.026094  -0.001296   0.013556   0.002308   0.000000
    42  H   -0.000201   0.176637  -0.028173   0.046780  -0.001580   0.000000
    43  H   -0.009488  -0.012881  -0.009947  -0.002998  -0.000217   0.000000
    44  H   -0.000867  -0.287294   0.003403   0.004772  -0.000136   0.000000
    45  H    0.000000  -0.000371   0.000000  -0.000019   0.000000  -0.000082
             31         32         33         34         35         36
     1  O    0.000000   0.000000  -0.017936   0.000363   0.003058  -0.000243
     2  C    0.000000   0.000004   0.342641  -0.028291   0.094292   0.001044
     3  C    0.000000   0.000003  -0.041425   0.280188  -0.054395   0.004622
     4  O    0.000000   0.000000   0.000074  -0.016529   0.000567   0.000012
     5  H    0.000000   0.000000  -0.000257  -0.006765   0.000001   0.000000
     6  C    0.000007  -0.000134  -0.007413  -0.080557  -0.029590  -0.002589
     7  O    0.000000   0.000000   0.000452   0.002668   0.000301  -0.000011
     8  H    0.000000   0.000000   0.000002  -0.000075   0.000002   0.000000
     9  C    0.000000   0.000005  -0.042590   0.011066   0.043750   0.378762
    10  O    0.000000   0.000000  -0.002307  -0.000095   0.000063  -0.015138
    11  H    0.000000   0.000000  -0.000010   0.000000  -0.000201  -0.010743
    12  C   -0.000002   0.000028  -0.076923   0.039349   0.018350  -0.026325
    13  O    0.000000   0.000009   0.002849   0.002973  -0.038364  -0.000593
    14  C    0.000007   0.000369   0.101850   0.041176   0.201704  -0.003339
    15  O   -0.000004   0.000164   0.000087   0.000460  -0.000831  -0.000241
    16  C    0.002726   0.042298  -0.001859  -0.003827  -0.002472   0.006049
    17  C    0.005610  -0.037567   0.001313   0.000461   0.008145  -0.001708
    18  O   -0.000017   0.000818   0.000024   0.000027  -0.000442  -0.000368
    19  H    0.000000   0.000002  -0.000005   0.000000   0.000212   0.000814
    20  C   -0.022640  -0.099985   0.000024  -0.000040   0.000684  -0.000944
    21  O   -0.002623   0.003527   0.000000   0.000000  -0.000002   0.000000
    22  H   -0.000926  -0.000021   0.000000   0.000000   0.000000   0.000000
    23  C   -0.000204   0.001420   0.000100   0.000276   0.000422   0.000003
    24  O    0.000000   0.000033   0.000007   0.000029   0.000000   0.000000
    25  H    0.000000   0.000000   0.000000   0.000000   0.000000   0.000000
    26  C   -0.003017   0.012021  -0.000466  -0.000607  -0.001928   0.000192
    27  O    0.002122  -0.044803   0.000000   0.000000   0.000000   0.000000
    28  C    0.004977   0.414132  -0.000004   0.000001  -0.000061   0.000053
    29  O    0.267663  -0.019189   0.000000   0.000000   0.000000   0.000000
    30  H    0.000000   0.000000  -0.011973  -0.000115  -0.000204   0.000010
    31  H    0.408609  -0.008707   0.000000   0.000000   0.000000   0.000000
    32  H   -0.008707   0.591282   0.000000   0.000000   0.000000   0.000000
    33  H    0.000000   0.000000   0.605676   0.005943   0.006900  -0.000054
    34  H    0.000000   0.000000   0.005943   0.605786   0.002104   0.000007
    35  H    0.000000   0.000000   0.006900   0.002104   0.631277  -0.007158
    36  H    0.000000   0.000000  -0.000054   0.000007  -0.007158   0.574134
    37  H    0.000000   0.000000  -0.000030   0.001465   0.002242  -0.000021
    38  H    0.000000   0.000000   0.001829   0.006705  -0.000059   0.000000
    39  H    0.000005  -0.000027   0.000000  -0.000001  -0.000022  -0.000002
    40  H    0.000014   0.002327   0.000000   0.000000   0.000000   0.000000
    41  H   -0.000006   0.005219   0.000000   0.000000   0.000000   0.000000
    42  H    0.000020   0.002206   0.000000   0.000000   0.000000   0.000000
    43  H    0.000000  -0.000035   0.000000   0.000000   0.000000   0.000000
    44  H    0.000000  -0.000012   0.000000   0.000000   0.000000   0.000000
    45  H    0.000000   0.000000   0.002790  -0.000005   0.006547  -0.046618
             37         38         39         40         41         42
[...]
 0142,-0.00000619,-0.00001112,0.00002675,0.00004579,-0.00006888,-0.0000
 9387,0.00021473,0.00010488,-0.00008360,0.00062836,0.00015205,-0.001236
 99,-0.00705941,-0.00165760,-0.00181177,-0.00012634,0.00073436,-0.00006
 476,0.00047183,0.00017521,0.00009679,-0.00010124,0.00002190,-0.0000515
 4,0.00017772,0.00019761,0.00029409,0.00007003,-0.00031054,-0.00003984,
 -0.00000517,0.00006190,-0.00000687,-0.01812044,-0.00136936,-0.00308945
 ,0.00207536,-0.00022923,-0.00025791,0.00018332,-0.00010209,0.00000036,
 -0.33487045,-0.04686360,-0.04459823,-0.01215464,-0.00541109,0.01392516
 ,-0.00008485,0.00210899,-0.00098122,0.00021433,-0.00023513,0.00042379,
 -0.00000522,-0.00000149,0.00000309,-0.00002174,-0.00011484,0.00002718,
 0.00015312,-0.00130782,0.00076243,0.00000694,-0.00000056,-0.00000655,0
 .00000937,0.00000353,0.00000597,0.00000819,0.00000073,-0.00000046,-0.0
 0000213,0.00000233,-0.00000138,0.00007771,0.00002341,0.00016518,0.0000
 1501,0.00000024,-0.00003257,0.00077309,-0.00071606,-0.00034885,0.00091
 723,-0.00068074,0.00034902,0.00007026,0.00013622,-0.00014254,0.3663483
 3,-0.00000274,0.00000040,-0.00002642,-0.00000191,-0.00000856,0.0000244
 2,0.00000365,0.00002081,0.00003763,-0.00000857,0.00001877,-0.00003488,
 0.00000432,-0.00000195,-0.00000135,0.00009908,-0.00017693,-0.00009622,
 -0.00008553,0.00011144,0.00010964,0.00010147,-0.00001810,-0.00010976,-
 0.00000896,0.00001933,0.00000852,0.00000301,-0.00001904,-0.00001653,-0
 .00000174,0.00000174,0.00000003,0.00001148,0.00001681,0.00005826,0.000
 05697,-0.00002927,-0.00005709,0.00006394,0.00019187,-0.00001141,0.0009
 6260,0.00058227,0.00039100,-0.02735257,-0.00684041,-0.00665743,-0.0021
 9826,0.00157765,-0.00064817,0.00086758,-0.00006282,0.00025328,-0.00008
 614,0.00008614,-0.00001977,-0.00008189,-0.00022009,-0.00000769,0.00011
 792,-0.00015950,0.00007350,0.00000132,0.00000230,-0.00000559,0.0329475
 4,0.00236754,0.00524043,-0.00191503,0.00215207,-0.00109111,-0.00001903
 ,0.00033815,-0.00027329,-0.04602063,-0.05407122,-0.00870405,-0.0112942
 5,-0.00031790,0.00583963,-0.00260600,0.00133254,-0.00103211,0.00039947
 ,-0.00011889,0.00030859,-0.00000293,0.00000112,0.00000401,0.00000205,-
 0.00008978,0.00009335,0.00045347,0.00017952,0.00004496,0.00000134,0.00
 000180,-0.00000337,-0.00000034,-0.00000539,-0.00000537,0.00000307,0.00
 000030,-0.00000027,-0.00000286,0.00000323,-0.00000096,0.00016117,-0.00
 000481,0.00009786,-0.00002266,0.00003535,-0.00001124,-0.00052928,-0.00
 329799,-0.00307087,0.00077078,-0.00034678,0.00014997,0.00023972,0.0001
 0460,0.00000556,0.05281753,0.06048538,0.00000396,-0.00000746,-0.000032
 13,-0.00001296,0.00000568,0.00001990,0.00000481,-0.00001544,0.00004107
 ,0.00000948,0.00001509,-0.00003646,-0.00000115,-0.00000030,0.00000436,
 0.00006275,0.00001184,0.00001697,0.00007576,0.00004121,-0.00006439,-0.
 00013569,-0.00006190,0.00000254,-0.00000521,0.00001651,0.00002422,0.00
 000539,-0.00001611,-0.00002005,-0.00000330,0.00000344,0.00000260,-0.00
 001522,0.00004752,0.00007147,0.00014140,-0.00000597,0.00001477,-0.0003
 3481,0.00026804,-0.00000018,0.00132064,0.00069440,0.00206853,-0.025886
 14,-0.00794801,-0.00219961,-0.00075990,0.00161919,-0.00004887,0.000671
 80,-0.00018086,0.00003855,-0.00014430,0.00003172,0.00003099,-0.0003019
 5,0.00027485,-0.00059879,-0.00003239,0.00027491,0.00030919,-0.00000547
 ,-0.00009470,-0.00003216,-0.00887360,-0.00177365,0.00025130,0.00040992
 ,-0.00054908,0.00037001,0.00007512,-0.00010252,0.00000414,-0.04711473,
 -0.00767703,-0.04500278,0.04232727,0.01230988,-0.01322040,0.00343063,-
 0.00402632,0.00270140,-0.00044820,0.00029178,-0.00086403,-0.00000556,0
 .00000064,0.00000514,-0.00007896,0.00027598,-0.00009891,-0.00107170,0.
 00004092,-0.00010737,0.00000533,0.00000003,-0.00000620,0.00000753,0.00
 000178,0.00000502,0.00000781,0.00000393,0.00000291,-0.00000140,0.00000
 524,-0.00000135,0.00026802,0.00004489,0.00005018,0.00000379,0.00002153
 ,-0.00006078,-0.00034909,-0.00373829,-0.00312706,0.00056566,-0.0002699
 9,0.00042960,0.00007338,0.00001552,-0.00013858,0.03618673,0.00814316,0
 .05885680,-0.00000229,0.00000758,0.00000314,0.00001092,-0.00000901,0.0
 0001074,-0.00002891,0.00002872,0.00001703,0.00000388,0.00000974,-0.000
 00676,-0.00000012,-0.00000105,0.00000019,0.00010896,-0.00005823,0.0000
 7239,0.00039876,0.00045210,0.00030969,-0.00082132,-0.00070156,-0.00059
 332,0.00000390,0.00000418,-0.00000472,0.00000073,-0.00000101,0.0000010
 0,-0.00000030,0.00000007,-0.00000059,-0.00000832,-0.00000111,0.0000231
 3,0.00007493,-0.00002776,-0.00002143,-0.00030158,0.00004912,0.00008610
 ,0.00015942,-0.00025251,-0.00001235,-0.00140824,0.00182482,-0.00211826
 ,0.00067523,0.00025271,0.00077577,-0.00013463,0.00046709,0.00002530,0.
 00000944,-0.00000174,-0.00008829,-0.00005816,-0.00003191,0.00008716,0.
 00001933,-0.00006524,-0.00003804,0.00000467,0.00001635,-0.00000715,-0.
 04833015,-0.01174711,-0.01871881,0.00001262,0.00547874,0.02219461,0.00
 110484,0.00099997,-0.00080263,0.00070228,0.01438055,0.01397447,0.00038
 104,-0.00245002,0.00100116,-0.00014055,0.00017939,-0.00000340,-0.00008
 847,-0.00005951,0.00012738,0.00000135,0.00000036,0.00000079,0.00000358
 ,-0.00001564,-0.00001410,0.00001038,0.00001206,0.00000822,0.00000032,0
 .00000022,-0.00000139,0.00000553,0.00000058,0.00000369,0.00000311,0.00
 000380,0.00000074,-0.00000261,-0.00000046,-0.00000049,0.00007189,0.000
 05468,0.00001383,0.00001381,-0.00001274,-0.00003175,0.00030814,0.00034
 087,0.00009083,-0.00000917,-0.00010160,0.00001921,0.00001411,0.0000078
 7,-0.00001424,0.00064435,-0.00073621,0.00054714,0.04686726,-0.00001253
 ,0.00002410,-0.00004397,0.00000408,-0.00004718,0.00005908,-0.00002627,
 0.00007380,0.00004720,-0.00001159,0.00004663,-0.00005020,0.00000779,-0
 .00000572,-0.00000194,0.00020008,-0.00036726,-0.00011664,0.00038455,0.
 00065719,0.00070495,-0.00089947,-0.00075924,-0.00094309,-0.00000219,0.
 00002937,0.00003816,-0.00000813,-0.00003951,-0.00005835,0.00000027,0.0
 0000732,0.00000546,0.00004355,0.00001392,0.00010104,-0.00004051,0.0000
 1938,-0.00026304,0.00022052,0.00009624,0.00056274,-0.00025162,0.000349
 34,-0.00017225,0.00326698,-0.00395765,0.00394673,-0.00062852,0.0000951
 3,-0.00181228,0.00027306,-0.00116796,-0.00016849,-0.00007099,0.0000344
 5,0.00029772,0.00006131,0.00020776,-0.00052288,-0.00002865,0.00011502,
 0.00025694,-0.00000340,-0.00005179,-0.00000374,-0.00777509,-0.15410683
 ,-0.15517785,-0.00389777,0.00805022,0.02738709,0.00005921,0.00323100,0
 .00082422,-0.00275165,-0.01898043,-0.02329201,0.00011805,0.00163061,-0
 .00081290,-0.00003477,-0.00010787,0.00023827,-0.00002314,0.00010050,0.
 00021106,-0.00000185,-0.00000065,0.00000985,-0.00001488,-0.00007052,0.
 00000488,-0.00005602,0.00006912,-0.00004518,-0.00000007,0.00000134,-0.
 00000235,0.00000055,-0.00000507,-0.00000542,-0.00000768,-0.00000205,-0
 .00000960,0.00000522,0.00001818,-0.00000338,0.00000811,-0.00001052,-0.
 00000957,-0.00002960,-0.00000383,-0.00001872,0.00008183,0.00032699,0.0
 0021818,0.00009980,-0.00002116,0.00007965,0.00000293,-0.00000011,0.000
 01930,0.00006849,0.00121246,0.00009479,0.01099423,0.16472009,0.0000024
 3,-0.00005678,-0.00006745,-0.00002504,0.00007617,0.00000822,0.00006026
 ,-0.00009922,0.00005916,0.00000261,-0.00000318,-0.00006198,0.00000183,
 -0.00000193,0.00001405,-0.00028520,0.00041730,0.00019187,-0.00041077,-
 0.00070988,-0.00101843,0.00109554,0.00090524,0.00159912,-0.00000147,0.
 00003248,0.00001694,-0.00000501,-0.00003475,-0.00001898,0.00000230,0.0
 0000455,0.00000044,0.00002896,0.00003661,0.00002196,0.00006007,-0.0001
 8530,0.00002744,-0.00008674,0.00018611,-0.00005617,0.00000572,-0.00029
 933,0.00012634,-0.00013353,0.00157935,-0.00067585,0.00007940,0.0001437
 4,0.00031080,-0.00004489,0.00019020,0.00011808,-0.00001721,0.00005429,
 -0.00010562,-0.00006573,0.00005335,-0.00017789,0.00000168,0.00007047,0
 .00005749,-0.00000564,-0.00001748,0.00000074,-0.01597386,-0.15089622,-
 0.24481138,0.00685643,-0.00238436,-0.03361270,0.00055614,-0.00065021,0
 .00022918,-0.00039038,0.00321597,0.00424633,-0.00056628,0.00216434,0.0
 0054529,0.00009258,0.00017299,0.00060076,0.00004781,-0.00004971,-0.000
 06218,-0.00000847,0.00000468,0.00000986,0.00000072,0.00001233,0.000012
 69,0.00000293,0.00000415,0.00000019,0.00000048,-0.00000362,-0.00000094
 ,-0.00000361,0.00000585,-0.00000213,-0.00000306,0.00000250,-0.00000109
 ,-0.00000217,-0.00001017,0.00000070,0.00000417,0.00000664,0.00000623,0
 .00003975,-0.00000673,0.00002133,0.00001797,0.00011000,-0.00000229,0.0
 0000434,-0.00002357,0.00000670,0.00001524,0.00000124,0.00000313,0.0003
 6811,-0.00034532,0.00041465,0.00945331,0.15281298,0.27682232,0.0000025
 1,0.00000747,-0.00001451,-0.00000077,-0.00000892,0.00002279,-0.0000316
 8,0.00002660,0.00003662,0.00001781,0.00002112,-0.00003280,-0.00000338,
 0.00000055,0.00000272,0.00005633,-0.00004265,0.00014886,0.00049246,0.0
 0056847,0.00022676,-0.00091789,-0.00083657,-0.00083338,-0.00000668,0.0
 0001038,0.00000357,0.00000807,-0.00000931,-0.00001041,-0.00000458,0.00
 000122,0.00000108,-0.00000589,0.00001214,0.00005241,0.00013039,-0.0000
 5256,-0.00006365,-0.00044869,0.00014201,0.00021537,0.00038422,-0.00014
 451,0.00028248,0.00050204,-0.00152840,-0.00057038,0.00039962,0.0000303
 9,-0.00002872,0.00005691,0.00007946,0.00004381,-0.00003978,0.00002482,
 -0.00002730,-0.00011636,-0.00001046,-0.00009326,0.00005056,0.00000706,
 0.00005051,-0.00001355,-0.00000346,-0.00001242,-0.32334301,-0.04636721
 ,-0.07949479,-0.01270450,-0.01102199,0.00992478,-0.00076864,0.00031405
 ,0.00042664,-0.01950276,-0.00127979,-0.00544542,0.00156805,0.00013861,
 -0.00017018,0.00025177,-0.00000716,-0.00003629,0.00009434,0.00014758,-
 0.00015885,-0.00000289,-0.00000094,0.00000390,0.00001453,0.00001442,-0
 .00000226,0.00004275,-0.00018405,0.00013269,0.00000516,-0.00000094,-0.
 00000525,0.00001317,0.00000552,0.00000881,0.00000670,0.00000502,-0.000
 00105,-0.00000245,0.00000285,-0.00000122,0.00013626,0.00006994,0.00001
 087,0.00003884,-0.00002918,-0.00005785,0.00070859,0.00095658,0.0006302
 1,0.00016604,-0.00024022,0.00008679,0.00005521,0.00004605,-0.00000144,
 -0.00043612,0.00288425,-0.00062847,-0.00028068,0.00067836,-0.00077219,
 0.35342276,0.00000278,0.00002312,0.00003686,0.00000890,-0.00002488,-0.
 00001308,-0.00002748,0.00003190,-0.00003219,0.00001098,-0.00000590,0.0
 0003456,-0.00000605,0.00000373,-0.00000397,0.00005907,-0.00009385,-0.0
 0004921,0.00029159,0.00013117,0.00041326,-0.00069558,-0.00029164,-0.00
 079756,-0.00000035,-0.00002083,-0.00001029,0.00000371,0.00002177,0.000
 01461,-0.00000141,-0.00000301,0.00000017,-0.00001605,-0.00001978,-0.00
 003681,-0.00004972,0.00009951,0.00001934,0.00013684,-0.00017344,-0.000
 23300,-0.00033321,0.00021264,-0.00039926,0.00132316,0.00263600,0.00088
 388,0.00019315,-0.00000110,0.00034521,-0.00016459,0.00000252,-0.000173
 07,0.00002825,-0.00006020,0.00004648,0.00002992,0.00005869,0.00002071,
 -0.00002317,-0.00000031,-0.00004933,0.00000243,0.00001547,0.00000735,-
 0.04674845,-0.05324968,-0.01888991,-0.02186645,-0.00714886,0.00882358,
 -0.00150094,-0.00010715,-0.00015786,0.03276822,0.00092975,0.00839602,-
 0.00078454,0.00149272,-0.00176883,-0.00005126,0.00012062,-0.00007169,-
 0.00009329,-0.00012442,0.00007604,0.00000326,-0.00000286,-0.00000497,0
 .00000174,-0.00000250,-0.00001315,-0.00014110,0.00009538,-0.00008640,0
 .00000146,-0.00000055,0.00000005,0.00000428,0.00000379,0.00000498,0.00
 000247,-0.00000195,0.00000118,0.00000188,0.00000304,-0.00000001,-0.000
 00972,-0.00002698,-0.00003916,0.00001427,-0.00002740,-0.00002064,-0.00
 085111,-0.00020398,-0.00018019,-0.00029445,0.00000852,-0.00012525,-0.0
 0003947,-0.00004412,0.00001856,0.00252461,-0.00505331,0.00191611,-0.01
 929008,-0.00142175,-0.00648453,0.05557587,0.06221895,0.00000219,0.0000
 1992,0.00005637,0.00001881,-0.00002568,-0.00002397,-0.00004556,0.00004
 744,-0.00005944,-0.00000394,-0.00002551,0.00005900,-0.00000524,0.00000
 297,-0.00000682,0.00013073,-0.00018661,-0.00006645,-0.00042545,-0.0000
 0765,0.00034548,0.00105549,0.00041140,0.00014381,0.00000284,-0.0000288
 0,-0.00002043,0.00000564,0.00003229,0.00002978,-0.00000201,-0.00000462
 ,-0.00000150,-0.00003168,-0.00002393,-0.00006231,-0.00005111,0.0001324
 1,0.00009644,0.00007093,-0.00012236,-0.00018798,-0.00009783,0.00008127
 ,0.00017130,0.00091434,-0.00028815,-0.00013195,0.00008900,-0.00005793,
 0.00004630,-0.00001823,0.00012746,0.00001639,0.00001499,-0.00002574,-0
 .00001053,-0.00007297,-0.00004073,0.00002974,0.00002873,0.00004433,-0.
 00004078,-0.00001386,0.00000348,-0.00000144,-0.08336809,-0.01939397,-0
 .06530217,0.03620169,0.01540983,-0.00306545,0.00084043,-0.00050325,0.0
 0023372,-0.00581264,-0.00119631,0.00071324,0.00025958,-0.00011794,0.00
 072631,-0.00000365,-0.00000764,0.00013446,0.00010351,0.00003187,-0.000
 08785,0.00000586,0.00000044,-0.00000902,-0.00000160,-0.00000649,0.0000
 1069,0.00009077,-0.00005384,0.00000922,-0.00000230,0.00000333,0.000002
 74,-0.00000409,-0.00000696,-0.00000561,0.00000502,-0.00000224,0.000004
 36,-0.00000090,-0.00000114,0.00000124,-0.00002315,-0.00006678,-0.00001
 282,-0.00005476,0.00005274,0.00004195,0.00007530,0.00028068,0.00028989
 ,0.00002621,-0.00006509,-0.00000363,0.00001523,0.00003275,0.00000989,0
 .00029737,0.00135014,-0.00007166,-0.02636855,-0.00438734,-0.00479441,0
 .07615269,0.00857930,0.07079288,0.00026217,0.00021521,-0.00005487,0.00
 051300,-0.00116820,0.00044135,0.00034121,0.00000192,-0.00010385,0.0000
 5029,0.00024578,-0.00003611,-0.00001856,-0.00003013,0.00002556,-0.0000
 6647,-0.00006306,-0.00007969,0.00005799,-0.00001904,0.00004291,-0.0000
 2170,-0.00000072,-0.00001654,-0.34811457,-0.02643274,0.02181732,-0.004
 71037,-0.00911456,-0.01263084,-0.00092357,0.00059996,-0.00064390,-0.02
 000875,-0.00019110,0.00237741,0.00205784,-0.00080957,-0.00000400,0.000
 40868,0.00008844,0.00000956,0.00012152,0.00017004,0.00023618,-0.000036
 37,0.00003913,-0.00003382,0.00000532,0.00009776,0.00006237,0.00021103,
 -0.00013196,-0.00006058,-0.00040300,0.00014903,0.00015074,-0.00003104,
 -0.00002866,-0.00000350,0.00002079,0.00000692,-0.00000293,-0.00000654,
 -0.00000595,-0.00000461,-0.00001188,0.00000118,-0.00000787,0.00001937,
 0.00000120,0.00001259,-0.00000728,-0.00000015,-0.00000215,-0.00001620,
 -0.00001789,0.00001529,0.00001584,-0.00000518,0.00000396,-0.00001466,0
 .00002354,0.00000884,0.00001719,-0.00000410,-0.00002255,-0.00024682,-0
 .00008491,-0.00015490,-0.00000224,-0.00000053,0.00000344,0.00000518,0.
 00000045,0.00000297,0.00037918,0.00087274,-0.00072206,0.00015176,-0.00
 023421,-0.00002845,-0.00000981,0.00326683,0.00039005,-0.00738409,0.000
 11638,0.00110382,0.00016172,-0.00028349,-0.00019606,0.00003824,0.00005
 409,0.00001330,0.00001734,-0.00000461,-0.00000289,0.00000389,0.0000059
 9,0.00002118,0.00001063,-0.00000113,-0.00000399,0.00000886,0.00000382,
 0.00000588,0.00000071,-0.00000259,0.00000045,0.00000520,-0.00000035,0.
 00000025,0.37714896,-0.00014583,0.00021393,0.00052729,0.00069998,0.002
 77243,-0.00113247,-0.00000829,0.00005854,-0.00014872,-0.00015401,-0.00
 007217,0.00011836,0.00002493,-0.00004037,-0.00003043,0.00005444,0.0001
 1614,-0.00003424,-0.00004334,-0.00001473,0.00002830,0.00000649,0.00001
 467,0.00000864,-0.02702675,-0.04685725,0.00879010,-0.01836465,-0.00488
 469,-0.01313471,-0.00179038,-0.00011595,-0.00029406,0.03541867,-0.0020
 1442,-0.00375438,-0.00115184,0.00232206,0.00189034,0.00054216,0.000216
 00,0.00031254,-0.00020263,-0.00005140,-0.00011799,-0.00002126,-0.00001
 733,0.00006901,0.00004009,0.00000607,-0.00001490,0.00007628,0.00000803
 ,-0.00000390,-0.00014186,0.00000720,0.00001603,-0.00001488,-0.00001595
 ,0.00000480,0.00000851,0.00001642,-0.00000723,-0.00000365,-0.00000428,
 -0.00000313,0.00000401,0.00000684,-0.00000101,-0.00000632,-0.00000933,
 -0.00000279,0.00000254,0.00000302,-0.00000094,0.00000111,0.00000869,0.
 00001530,0.00000035,0.00000229,-0.00001787,-0.00000052,-0.00000537,0.0
 0001738,0.00000815,0.00000209,-0.00001571,0.00004538,-0.00023687,0.000
 15506,-0.00000091,-0.00000034,0.00000237,0.00000032,0.00000171,-0.0000
 0037,-0.00077583,-0.00028136,0.00030914,-0.00024818,0.00008378,0.00004
 914,0.00223684,-0.00536765,-0.00188744,-0.02143805,-0.00045347,0.00252
 584,-0.00027718,-0.00007097,0.00002952,-0.00003117,-0.00004844,-0.0000
 0874,0.00000862,-0.00000310,0.00001161,-0.00000235,0.00001334,0.000006
 66,0.00000117,-0.00000335,-0.00000061,-0.00000089,-0.00000084,-0.00000
 295,-0.00000129,-0.00000309,-0.00000123,-0.00000246,0.00000118,0.00000
 261,0.03267445,0.05469831,0.00018722,0.00027281,0.00015213,-0.00093217
 ,-0.00033802,-0.00004908,0.00004118,0.00009549,0.00003005,0.00002384,-
 0.00009473,0.00002101,-0.00001964,0.00001388,-0.00002009,-0.00000242,0
 .00006323,0.00008590,-0.00001652,-0.00001671,-0.00006137,0.00001773,0.
 00000667,0.00003238,0.02263931,0.00920777,-0.04114218,-0.03700291,-0.0
 1638506,-0.01392134,-0.00212448,0.00032500,-0.00033401,0.00296913,-0.0
 0002023,0.00154994,0.00035807,-0.00011757,0.00076104,0.00033920,0.0002
 6467,-0.00001163,-0.00013827,0.00000622,-0.00012984,0.00002634,-0.0000
 2394,0.00004331,-0.00002141,-0.00006406,-0.00003710,-0.00019287,0.0000
 7453,0.00002844,0.00040135,-0.00007857,-0.00015866,0.00001908,0.000016
 89,0.00001206,-0.00001464,0.00000354,-0.00001027,0.00000351,0.00000254
 ,0.00000538,0.00000181,-0.00000665,0.00001324,-0.00001037,0.00000038,-
 0.00002595,0.00000311,0.00000223,0.00000379,0.00000350,0.00000805,0.00
 000281,-0.00000827,0.00001120,-0.00001363,0.00000488,-0.00002098,0.000
 00959,-0.00000379,0.00000460,0.00000185,-0.00020591,-0.00008506,-0.000
 09174,0.00000050,0.00000003,0.00000033,-0.00000316,-0.00000008,-0.0000
 0291,0.00006405,0.00001466,0.00017393,0.00000633,0.00001653,-0.0000279
 1,-0.00028953,-0.00121240,0.00010559,0.02594623,0.00243195,0.00064743,
 -0.00010646,-0.00007871,-0.00003909,-0.00000290,-0.00001621,0.00000569
 ,-0.00001152,0.00000291,0.00000470,-0.00000347,-0.00001435,-0.00002326
 ,-0.00000871,0.00000242,0.00000356,-0.00000468,-0.00000369,-0.00000460
 ,-0.00000073,0.00000087,-0.00000252,-0.00000226,0.00000212,0.00000104,
 -0.01192926,0.00572581,0.05241198\\0.01235440,-0.01935230,-0.01546770,
 -0.01381907,0.00806391,-0.02138505,0.00419271,-0.01548518,0.03280133,0
 .01909602,-0.00168164,0.01532171,-0.01666273,-0.01088861,-0.02426041,-
 0.01561609,-0.00703239,-0.01054533,0.00266665,0.01312229,0.00271978,0.
 00369998,0.00568952,0.01732434,-0.00234671,0.02452007,0.00874258,0.007
 52071,0.01568626,0.00800890,-0.00112845,-0.03581593,-0.00861887,0.0042
 5752,0.04590408,0.01630732,0.01823486,-0.02572144,0.04743040,-0.044488
 93,0.01531098,-0.04659570,-0.00196395,-0.01984239,-0.01006570,0.024020
 45,-0.00215183,0.01124790,-0.00136620,0.01881827,0.03467735,0.00174833
 ,0.00211320,0.00105719,0.00432788,-0.00646441,-0.03105248,-0.00783445,
 0.01135316,-0.00572881,0.01026895,0.00207470,-0.01306167,-0.01744679,-
 0.01559957,0.02512969,-0.00236945,-0.00456325,0.01204861,0.00304025,-0
 .02640231,0.00059694,-0.00897955,0.03121314,0.00056887,-0.00481950,-0.
 01803077,-0.00158431,-0.00578687,0.02178604,0.01518428,0.04026615,-0.0
 1404302,-0.02104035,-0.01085640,0.00517322,0.00848069,-0.00086400,0.00
 259625,-0.00273457,-0.00126994,-0.00185481,-0.00172311,-0.01905066,-0.
 00056968,-0.00539197,-0.01888258,-0.00630159,0.00135257,0.02238123,0.0
 0238053,-0.00106005,0.02261468,0.00281833,-0.00214632,0.00260458,0.007
 71332,-0.01722778,0.01967230,0.00535451,-0.00505708,-0.02152006,-0.001
 84659,0.00262347,0.02227953,0.00396849,0.00056365,-0.02186598,-0.00069
 409,-0.00459888,0.01835042,-0.00036961,0.00384049,-0.02226334,-0.00465
 605,-0.00124557,-0.00094708,-0.00600627,-0.01595248,0.01972126,0.00334
 297,0.00224643,-0.02117008,-0.00362953,-0.00173031\\\@


 THE BEST WAY TO CONVINCE A FOOL THAT HE IS WRONG 
 IS TO LET HIM HAVE HIS OWN WAY.

                                         JOSH BILLINGS
 Job cpu time:  3 days 22 hours 58 minutes 18.3 seconds.
 File lengths (MBytes):  RWF=   2351 Int=      0 D2E=      0 Chk=     43 Scr=      1
 Normal termination of Gaussian 09 at Fri Feb 12 12:54:06 2016.
Gaussian '09 finished on node029 at Fri Feb 12 12:54:06 EST 2016.
