Gaussian '09 started on node027 at Sat Mar 26 08:12:19 EDT 2016.
 Entering Gaussian System, Link 0=/usr/local/gaussian/g09/g09
 Initial command:
 /usr/local/gaussian/g09/l1.exe /home/srmcgrat/thesis/gaussian/cellobiose/423K/8937ps/1/2dp/gaussian23129/Gau-23165.inp -scrdir=/home/srmcgrat/thesis/gaussian/cellobiose/423K/8937ps/1/2dp/gaussian23129/
 Entering Link 1 = /usr/local/gaussian/g09/l1.exe PID=     23167.
  
 Copyright (c) 1988,1990,1992,1993,1995,1998,2003,2009,2010,
            Gaussian, Inc.  All Rights Reserved.
  
 This is part of the Gaussian(R) 09 program.  It is based on
 the Gaussian(R) 03 system (copyright 2003, Gaussian, Inc.),
 the Gaussian(R) 98 system (copyright 1998, Gaussian, Inc.),
 the Gaussian(R) 94 system (copyright 1995, Gaussian, Inc.),
 the Gaussian 92(TM) system (copyright 1992, Gaussian, Inc.),
 the Gaussian 90(TM) system (copyright 1990, Gaussian, Inc.),
 the Gaussian 88(TM) system (copyright 1988, Gaussian, Inc.),
 the Gaussian 86(TM) system (copyright 1986, Carnegie Mellon
 University), and the Gaussian 82(TM) system (copyright 1983,
 Carnegie Mellon University). Gaussian is a federally registered
 trademark of Gaussian, Inc.
  
 This software contains proprietary and confidential information,
 including trade secrets, belonging to Gaussian, Inc.
  
 This software is provided under written license and may be
 used, copied, transmitted, or stored only in accord with that
 written license.
  
 The following legend is applicable only to US Government
 contracts under FAR:
  
                    RESTRICTED RIGHTS LEGEND
  
 Use, reproduction and disclosure by the US Government is
 subject to restrictions as set forth in subparagraphs (a)
 and (c) of the Commercial Computer Software - Restricted
 Rights clause in FAR 52.227-19.
  
 Gaussian, Inc.
 340 Quinnipiac St., Bldg. 40, Wallingford CT 06492
  
  
 ---------------------------------------------------------------
 Warning -- This program may not be used in any manner that
 competes with the business of Gaussian, Inc. or will provide
 assistance to any competitor of Gaussian, Inc.  The licensee
 of this program is prohibited from giving any competitor of
 Gaussian, Inc. access to this program.  By using this program,
 the user acknowledges that Gaussian, Inc. is engaged in the
 business of creating and licensing software in the field of
 computational chemistry and represents and warrants to the
 licensee that it is not a competitor of Gaussian, Inc. and that
 it will not use this program in any manner prohibited above.
 ---------------------------------------------------------------
  

 Cite this work as:
 Gaussian 09, Revision B.01,
 M. J. Frisch, G. W. Trucks, H. B. Schlegel, G. E. Scuseria, 
 M. A. Robb, J. R. Cheeseman, G. Scalmani, V. Barone, B. Mennucci, 
 G. A. Petersson, H. Nakatsuji, M. Caricato, X. Li, H. P. Hratchian, 
 A. F. Izmaylov, J. Bloino, G. Zheng, J. L. Sonnenberg, M. Hada, 
 M. Ehara, K. Toyota, R. Fukuda, J. Hasegawa, M. Ishida, T. Nakajima, 
 Y. Honda, O. Kitao, H. Nakai, T. Vreven, J. A. Montgomery, Jr., 
 J. E. Peralta, F. Ogliaro, M. Bearpark, J. J. Heyd, E. Brothers, 
 K. N. Kudin, V. N. Staroverov, T. Keith, R. Kobayashi, J. Normand, 
 K. Raghavachari, A. Rendell, J. C. Burant, S. S. Iyengar, J. Tomasi, 
 M. Cossi, N. Rega, J. M. Millam, M. Klene, J. E. Knox, J. B. Cross, 
 V. Bakken, C. Adamo, J. Jaramillo, R. Gomperts, R. E. Stratmann, 
 O. Yazyev, A. J. Austin, R. Cammi, C. Pomelli, J. W. Ochterski, 
 R. L. Martin, K. Morokuma, V. G. Zakrzewski, G. A. Voth, 
 P. Salvador, J. J. Dannenberg, S. Dapprich, A. D. Daniels, 
 O. Farkas, J. B. Foresman, J. V. Ortiz, J. Cioslowski, 
 and D. J. Fox, Gaussian, Inc., Wallingford CT, 2010.
 
 ******************************************
 Gaussian 09:  EM64L-G09RevB.01 12-Aug-2010
                26-Mar-2016 
 ******************************************
 -------------------------------------------------
 # freq=raman b3lyp/6-31+g(2d,p) geom=connectivity
 -------------------------------------------------
 1/10=4,30=1,38=1,57=2/1,3;
 2/12=2,17=6,18=5,40=1/2;
 3/5=1,6=6,7=112,11=2,16=1,25=1,30=1,71=2,74=-5/1,2,3;
 4//1;
 5/5=2,38=5,98=1/2;
 8/6=4,10=90,11=11/1;
 10/13=10,15=4/2;
 11/6=3,8=1,9=11,15=111,16=1/1,2,10;
 10/6=1/2;
 6/7=2,8=2,9=2,10=2,18=1,28=1/1;
 7/8=1,10=1,25=1/1,2,3,16;
 1/10=4,30=1/3;
 99//99;
 -----------------
 423 8937/8937.com
 -----------------
 Symbolic Z-matrix:
 Charge =  0 Multiplicity = 1
 O                     8.346     7.641     12.204 
 C                     8.953     8.002     13.454 
 C                     8.365     9.328     13.909 
 O                     8.515     10.417    12.987 
 H                     8.258     10.08     12.082 
 C                     8.756     9.665     15.338 
 O                     8.3       10.905    15.898 
 H                     8.485     10.942    16.88 
 C                     8.808     5.485     14.276 
 O                     8.471     4.793     13.064 
 H                     8.51      3.801     13.185 
 C                     8.46      6.955     14.439 
 O                     8.861     7.266     15.781 
 C                     8.351     8.521     16.254 
 O                     9.072     8.787     17.466 
 C                     8.432     8.391     18.687 
 C                     9.067     7.112     19.209 
 O                     8.762     6.098     18.24 
 H                     8.784     6.42      17.293 
 C                     8.452     6.716     20.541 
 O                     9.038     5.539     21.116 
 H                     8.653     5.305     22.009 
 C                     7.998     10.809    19.337 
 O                     8.865     11.543    18.46 
 H                     8.526     12.484    18.471 
 C                     8.601     9.474     19.74 
 O                     8.027     9.054     20.987 
 C                     8.584     7.854     21.541 
 O                     7.898     7.479     22.744 
 H                     8.53993   7.26657   23.42547 
 H                     9.03093   7.45436   11.55775 
 H                     8.33843   4.95869   15.08061 
 H                     9.86618   5.3951    14.40664 
 H                     7.39173   7.01218   14.41829 
 H                     10.02094   8.02965   13.39372 
 H                     7.30983   9.15533   13.95017 
 H                     9.82513   9.70496   15.35392 
 H                     7.29398   8.49104   16.4174 
 H                     7.81977   11.39052   20.21732 
 H                     7.0666    10.63457   18.84005 
 H                     9.64971   9.62083   19.89344 
 H                     7.39015   8.22584   18.50764 
 H                     10.12595   7.23148   19.30516 
 H                     7.41047   6.52757   20.38414 
 H                     9.61915   8.01354   21.75987 
 

 GradGradGradGradGradGradGradGradGradGradGradGradGradGradGradGradGradGrad
 Berny optimization.
 Initialization pass.
 Trust Radius=3.00D-01 FncErr=1.00D-07 GrdErr=1.00D-07
 Number of steps in this run=      2 maximum allowed number of steps=      2.
 GradGradGradGradGradGradGradGradGradGradGradGradGradGradGradGradGradGrad

                          Input orientation:                          
 ---------------------------------------------------------------------
 Center     Atomic      Atomic             Coordinates (Angstroms)
 Number     Number       Type             X           Y           Z
 ---------------------------------------------------------------------
      1          8           0        8.346000    7.641000   12.204000
      2          6           0        8.953000    8.002000   13.454000
      3          6           0        8.365000    9.328000   13.909000
      4          8           0        8.515000   10.417000   12.987000
      5          1           0        8.258000   10.080000   12.082000
      6          6           0        8.756000    9.665000   15.338000
      7          8           0        8.300000   10.905000   15.898000
      8          1           0        8.485000   10.942000   16.880000
      9          6           0        8.808000    5.485000   14.276000
     10          8           0        8.471000    4.793000   13.064000
     11          1           0        8.510000    3.801000   13.185000
     12          6           0        8.460000    6.955000   14.439000
     13          8           0        8.861000    7.266000   15.781000
     14          6           0        8.351000    8.521000   16.254000
     15          8           0        9.072000    8.787000   17.466000
     16          6           0        8.432000    8.391000   18.687000
     17          6           0        9.067000    7.112000   19.209000
     18          8           0        8.762000    6.098000   18.240000
     19          1           0        8.784000    6.420000   17.293000
     20          6           0        8.452000    6.716000   20.541000
     21          8           0        9.038000    5.539000   21.116000
     22          1           0        8.653000    5.305000   22.009000
     23          6           0        7.998000   10.809000   19.337000
     24          8           0        8.865000   11.543000   18.460000
     25          1           0        8.526000   12.484000   18.471000
     26          6           0        8.601000    9.474000   19.740000
     27          8           0        8.027000    9.054000   20.987000
     28          6           0        8.584000    7.854000   21.541000
     29          8           0        7.898000    7.479000   22.744000
     30          1           0        8.539926    7.266571   23.425473
     31          1           0        9.030933    7.454364   11.557754
     32          1           0        8.338426    4.958690   15.080610
     33          1           0        9.866182    5.395095   14.406645
     34          1           0        7.391730    7.012179   14.418286
     35          1           0       10.020943    8.029647   13.393723
     36          1           0        7.309827    9.155327   13.950168
     37          1           0        9.825135    9.704962   15.353923
     38          1           0        7.293975    8.491036   16.417405
     39          1           0        7.819765   11.390523   20.217320
     40          1           0        7.066597   10.634567   18.840047
     41          1           0        9.649713    9.620825   19.893437
     42          1           0        7.390150    8.225835   18.507644
     43          1           0       10.125951    7.231482   19.305160
     44          1           0        7.410467    6.527573   20.384139
     45          1           0        9.619153    8.013537   21.759874
 ---------------------------------------------------------------------
                    Distance matrix (angstroms):
                    1          2          3          4          5
     1  O    0.000000
     2  C    1.435712   0.000000
     3  C    2.398615   1.520212   0.000000
     4  O    2.889260   2.498431   1.434749   0.000000
     5  H    2.443634   2.585245   1.978606   0.999321   0.000000
     6  C    3.753216   2.520681   1.519372   2.480078   3.319904
     7  O    4.929650   3.850578   2.539148   2.959441   3.904388
     8  H    5.725461   4.538733   3.383229   3.928355   4.880100
     9  C    3.025717   2.651791   3.885819   5.106074   5.121539
    10  O    2.977638   3.268349   4.614270   5.624699   5.381641
    11  H    3.966719   4.232849   5.576103   6.618964   6.380122
    12  C    2.340687   1.519698   2.433322   3.754567   3.919423
    13  O    3.633288   2.442353   2.828824   4.225512   4.686663
    14  C    4.144505   2.910630   2.480014   3.780873   4.454741
    15  O    5.434063   4.089808   3.666712   4.798811   5.596597
    16  C    6.526805   5.273239   4.869470   6.049923   6.819752
    17  C    7.061849   5.824528   5.787353   7.066896   7.762579
    18  O    6.243973   5.154366   5.417386   6.805055   7.350599
    19  H    5.251724   4.155623   4.481460   5.881327   6.389585
    20  C    8.388828   7.220136   7.128361   8.412151   9.105428
    21  O    9.182647   8.048592   8.170086   9.494686  10.141116
    22  H   10.084105   8.975067   9.048617  10.370539  11.022794
    23  C    7.812619   6.587941   5.638372   6.383060   7.296168
    24  O    7.391380   6.132411   5.086042   5.598581   6.571735
    25  H    7.922268   6.740990   5.549604   5.860620   6.831571
    26  C    7.759910   6.465639   5.837600   6.819065   7.689594
    27  O    8.901653   7.662263   7.091361   8.129939   8.966887
    28  C    9.342461   8.096767   7.776121   8.929986   9.722861
    29  O   10.550761   9.364329   9.038480  10.208407  10.980576
    30  H   11.229392  10.007085   9.738755  10.903556  11.690562
    31  H    0.960000   1.975279   3.079340   3.329586   2.786794
    32  H    3.933158   3.505039   4.523742   5.848720   5.935145
    33  H    3.493807   2.921880   4.238978   5.390789   5.471613
    34  H    2.491808   2.084984   2.563134   3.860456   3.952237
    35  H    2.090914   1.070000   2.166421   2.851797   3.005417
    36  H    2.532971   2.067936   1.070000   1.992976   2.290001
    37  H    4.045960   2.696369   2.088515   2.797459   3.647197
    38  H    4.425166   3.431222   2.853016   4.119213   4.716979
    39  H    8.862795   7.649105   6.659293   7.328617   8.251845
    40  H    7.391579   6.284777   5.263857   6.033520   6.884634
    41  H    8.046540   6.676253   6.127782   7.044170   7.947720
    42  H    6.402469   5.294518   4.828315   6.045163   6.743885
    43  H    7.332285   6.017107   6.051023   7.256847   7.986071
    44  H    8.308407   7.251219   7.119056   8.430024   9.069926
    45  H    9.647509   8.332552   8.058345   9.162920   9.989206
                    6          7          8          9         10
     6  C    0.000000
     7  O    1.434969   0.000000
     8  H    2.020380   0.999959   0.000000
     9  C    4.313113   5.680260   6.055080   0.000000
    10  O    5.384114   6.739239   7.236868   1.435750   0.000000
    11  H    6.251593   7.607318   8.040369   2.028532   1.000113
    12  C    2.870526   4.213880   4.674963   1.519399   2.562224
    13  O    2.441818   3.683847   3.855146   2.332337   3.694580
    14  C    1.520466   2.410973   2.504211   3.652209   4.908002
    15  O    2.323602   2.746003   2.309110   4.598804   5.974181
    16  C    3.597757   3.757145   3.126605   5.295577   6.675721
    17  C    4.647491   5.092922   4.520162   5.200836   6.594998
    18  O    4.598383   5.367090   5.038915   4.011381   5.345903
    19  H    3.788513   4.721812   4.550654   3.158653   4.541975
    20  C    5.988341   6.255260   5.591340   6.394710   7.720351
    21  O    7.105539   7.521045   6.887809   6.844079   8.106338
    22  H    7.970097   8.296320   7.623033   7.736647   8.961489
    23  C    4.227919   3.453569   2.508328   7.390182   8.704396
    24  O    3.644948   2.700021   1.732628   7.362640   8.650697
    25  H    4.220823   3.027317   2.216016   8.164775   9.401604
    26  C    4.408867   4.110879   3.216843   6.768328   8.154608
    27  O    5.728522   5.422052   4.543320   7.641024   9.007063
    28  C    6.464249   6.421270   5.592000   7.644774   9.013435
    29  O    7.769401   7.665950   6.835454   8.747066  10.062074
    30  H    8.438386   8.364124   7.506997   9.325165  10.652860
    31  H    4.387796   5.592753   6.386544   3.364068   3.108884
    32  H    4.731804   6.002350   6.249743   1.070000   2.027744
    33  H    4.509103   5.919131   6.228427   1.070000   2.027744
    34  H    3.121629   4.262460   4.764322   2.087664   2.814902
    35  H    2.838076   4.183384   4.795315   2.953789   3.603737
    36  H    2.068154   2.799258   3.627278   3.977686   4.600381
    37  H    1.070000   2.015477   2.378053   4.472646   5.586125
    38  H    2.163521   2.666288   2.764012   3.989252   5.128955
    39  H    5.259442   4.372972   3.432406   8.435111   9.753020
    40  H    4.007303   3.201571   2.438886   7.097961   8.334205
    41  H    4.642486   4.408440   3.490396   7.026317   8.446210
    42  H    3.739436   3.849155   3.350444   5.237298   6.525784
    43  H    4.851508   5.332689   4.726739   5.484491   6.901966
    44  H    6.092407   6.330764   5.737663   6.352120   7.597231
    45  H    6.686765   6.668005   5.803048   7.941022   9.343893
                   11         12         13         14         15
    11  H    0.000000
    12  C    3.394515   0.000000
    13  O    4.343805   1.434742   0.000000
    14  C    5.632268   2.399680   1.434871   0.000000
    15  O    6.595680   3.590752   2.279734   1.435110   0.000000
    16  C    7.165625   4.484237   3.145553   2.437817   1.434314
    17  C    6.896488   4.811029   3.437635   3.351114   2.417374
    18  O    5.558124   3.908101   2.724097   3.159754   2.815297
    19  H    4.879539   2.921732   1.734298   2.383529   2.390724
    20  C    7.912732   6.106684   4.809094   4.652590   3.758865
    21  O    8.136350   6.849925   5.610355   5.744853   4.886017
    22  H    8.952399   7.750139   6.532746   6.599537   5.739228
    23  C    9.339235   6.249573   5.093403   3.855443   2.956789
    24  O    9.374978   6.114099   5.046760   3.776654   2.937077
    25  H   10.165458   6.843334   5.880123   4.544346   3.869877
    26  C    8.669443   5.870762   4.540545   3.622555   2.421753
    27  O    9.417988   6.889818   5.567310   4.773924   3.682493
    28  C    9.287358   7.159747   5.796557   5.333999   4.208831
    29  O   10.260444   8.340470   7.032504   6.588708   5.562951
    30  H   10.811029   8.992228   7.651212   7.282809   6.173340
    31  H    4.033159   2.979414   4.230858   4.863614   6.056812
    32  H    2.227784   2.100404   2.467247   3.750607   4.569920
    33  H    2.423383   2.100404   2.529729   3.934435   4.636313
    34  H    3.617070   1.070000   2.019943   2.562535   3.906643
    35  H    4.495327   2.164258   2.761832   3.348331   4.249414
    36  H    5.540281   2.530472   3.054118   2.606540   3.949935
    37  H    6.425774   3.203587   2.657158   2.094034   2.422960
    38  H    5.824396   2.762807   2.088370   1.070000   2.085310
    39  H   10.369706   7.312506   6.146283   4.921817   3.989510
    40  H    8.986691   5.903389   4.891308   3.578337   3.053383
    41  H    8.953906   6.186511   4.804103   4.017682   2.630868
    42  H    7.011688   4.394709   3.243342   2.467644   2.056343
    43  H    7.199712   5.150859   3.744462   3.758042   2.629250
    44  H    7.776296   6.052181   4.882439   4.681496   4.047374
    45  H    9.617908   7.487278   6.072935   5.672775   4.397155
                   16         17         18         19         20
    16  C    0.000000
    17  C    1.520378   0.000000
    18  O    2.359355   1.435333   0.000000
    19  H    2.439668   2.056699   1.000488   0.000000
    20  C    2.498668   1.519627   2.402629   3.278314   0.000000
    21  O    3.794889   2.472209   2.942793   3.931413   1.435044
    22  H    4.539595   3.358072   3.853063   4.847787   2.046056
    23  C    2.541177   3.850578   4.897002   4.905003   4.290499
    24  O    3.189690   4.498396   5.450416   5.254862   5.272671
    25  H    4.099773   5.449377   6.394533   6.182746   6.128638
    26  C    1.519954   2.465393   3.697742   3.917680   2.875824
    27  O    2.427673   2.830945   4.101728   4.599635   2.417806
    28  C    2.908056   2.494409   3.743237   4.487968   1.520680
    29  O    4.192392   3.741320   4.789538   5.623156   2.396308
    30  H    4.871254   4.252098   5.320151   6.195440   2.937863
    31  H    7.215411   7.658986   6.823815   5.833003   9.032112
    32  H    4.979513   4.712872   3.385142   2.688611   5.737324
    33  H    5.417911   5.162274   4.050667   3.248476   6.432341
    34  H    4.604914   5.076164   4.161594   3.248550   6.220894
    35  H    5.538420   5.964020   5.366805   4.396061   7.434435
    36  H    4.927580   5.909158   5.464312   4.563959   7.119967
    37  H    3.844051   4.707424   4.740240   3.954107   6.142082
    38  H    2.540899   3.583065   3.347173   2.697411   4.636357
    39  H    3.422550   4.569252   5.727862   5.847008   4.728177
    40  H    2.630844   4.067704   4.880050   4.806808   4.490852
    41  H    2.109688   2.664998   3.991514   4.213907   3.208094
    42  H    1.070000   2.131750   2.545838   2.584419   2.746209
    43  H    2.143846   1.070000   2.068746   2.551102   2.143627
    44  H    2.719590   2.113435   2.570702   3.384273   1.070000
    45  H    3.315775   2.761268   4.097988   4.815579   2.128733
                   21         22         23         24         25
    21  O    0.000000
    22  H    1.000215   0.000000
    23  C    5.658564   6.153261   0.000000
    24  O    6.567517   7.180041   1.435122   0.000000
    25  H    7.449241   8.004475   1.958153   1.000261   0.000000
    26  C    4.191488   4.746749   1.519290   2.447214   3.267428
    27  O    3.659780   3.935907   2.409018   3.644598   4.283008
    28  C    2.397074   2.592525   3.732698   4.814586   5.555643
    29  O    2.777334   2.415890   4.765139   5.983631   6.610820
    30  H    2.926814   2.422177   5.436736   6.561207   7.195037
    31  H    9.748268  10.676663   8.534471   8.024056   8.564179
    32  H    6.103449   6.944168   7.242849   7.419615   8.255920
    33  H    6.761808   7.699074   7.557041   7.431607   8.280558
    34  H    7.052648   7.881891   6.243169   6.247745   6.903034
    35  H    8.173314   9.138816   6.865832   6.272720   6.917721
    36  H    8.210575   9.031827   5.676810   5.334616   5.744307
    37  H    7.153765   8.063723   4.519096   3.734697   4.373440
    38  H    5.816608   6.577515   3.793764   3.994346   4.656061
    39  H    6.044175   6.398281   1.070000   2.050351   2.178093
    40  H    5.918716   6.400252   1.070000   2.050351   2.384628
    41  H    4.304666   4.908706   2.109393   2.522949   3.388780
    42  H    4.091212   4.731339   2.780297   3.630569   4.407206
    43  H    2.706894   3.632034   4.162671   4.570939   5.553793
    44  H    2.040039   2.383012   4.446607   5.565293   6.354804
    45  H    2.622145   2.886467   4.038944   4.890299   5.656564
                   26         27         28         29         30
    26  C    0.000000
    27  O    1.435578   0.000000
    28  C    2.422455   1.434282   0.000000
    29  O    3.673996   2.363116   1.434723   0.000000
    30  H    4.296415   3.066618   1.974399   0.960000   0.000000
    31  H    8.438774   9.616516  10.001232  11.243497  11.879356
    32  H    6.493603   7.194024   7.083767   8.079200   8.660464
    33  H    6.832483   7.750564   7.654360   8.816342   9.305946
    34  H    5.986947   6.908010   7.270710   8.354146   9.083638
    35  H    6.661653   7.917257   8.274889   9.604050  10.169154
    36  H    5.940609   7.074009   7.806260   8.971482   9.739709
    37  H    4.559553   5.948832   6.576200   7.954998   8.529211
    38  H    3.703265   4.662130   5.321767   6.435438   7.222515
    39  H    2.123964   2.468744   3.852685   4.657279   5.274264
    40  H    2.123964   2.833721   4.162837   5.088191   5.877093
    41  H    1.070000   2.037246   2.640432   3.972609   4.387416
    42  H    2.131379   2.690473   3.280974   4.331557   5.140741
    43  H    2.746534   3.248962   2.786418   4.104955   4.415166
    44  H    3.242486   2.669529   2.115399   2.590722   3.327387
    45  H    2.692485   2.053010   1.070000   2.053437   2.120592
                   31         32         33         34         35
    31  H    0.000000
    32  H    4.372467   0.000000
    33  H    3.613088   1.725897   0.000000
    34  H    3.326433   2.356210   2.956012   0.000000
    35  H    2.163758   3.886802   2.826804   2.999622   0.000000
    36  H    3.402811   4.466282   4.569755   2.195205   2.987798
    37  H    4.484065   4.981175   4.412932   3.748060   2.586002
    38  H    5.263831   3.918591   4.499361   2.488584   4.097790
    39  H    9.588970   8.247622   8.596332   7.278867   7.918469
    40  H    8.185603   6.925785   7.412476   5.725328   6.721325
    41  H    8.634816   6.827758   6.928819   6.471538   6.701935
    42  H    7.182500   4.828874   5.564352   4.265655   5.754281
    43  H    7.827581   5.119340   5.237866   5.604069   5.966002
    44  H    9.021636   5.608023   6.560753   5.985533   7.611618
    45  H   10.234350   7.455529   7.809432   7.737121   8.375809
                   36         37         38         39         40
    36  H    0.000000
    37  H    2.932473   0.000000
    38  H    2.555150   3.001896   0.000000
    39  H    6.673330   5.524062   4.808621   0.000000
    40  H    5.114512   4.541669   3.242780   1.742301   0.000000
    41  H    6.404233   4.543681   4.348416   2.566212   2.968129
    42  H    4.651988   4.250050   2.109189   3.622542   2.452992
    43  H    6.348832   4.671281   4.236235   4.842330   4.599670
    44  H    6.950626   6.421020   4.427611   4.882995   4.401121
    45  H    8.223635   6.628692   5.846061   4.125689   4.680890
                   41         42         43         44         45
    41  H    0.000000
    42  H    2.995337   0.000000
    43  H    2.506359   3.018175   0.000000
    44  H    3.850093   2.530957   3.005584   0.000000
    45  H    2.463310   3.948484   2.625657   2.996502   0.000000
 Stoichiometry    C12H22O11
 Framework group  C1[X(C12H22O11)]
 Deg. of freedom   129
 Full point group                 C1      NOp   1
 Largest Abelian subgroup         C1      NOp   1
 Largest concise Abelian subgroup C1      NOp   1
                         Standard orientation:                         
 ---------------------------------------------------------------------
 Center     Atomic      Atomic             Coordinates (Angstroms)
 Number     Number       Type             X           Y           Z
 ---------------------------------------------------------------------
      1          8           0        4.992932   -0.392940   -0.310672
      2          6           0        3.744918   -0.089556    0.330960
      3          6           0        3.252895    1.253200   -0.184759
      4          8           0        4.153683    2.353617    0.005420
      5          1           0        5.061633    2.049544   -0.280603
      6          6           0        1.823165    1.539209    0.242513
      7          8           0        1.230018    2.787342   -0.144111
      8          1           0        0.250384    2.793660    0.056376
      9          6           0        2.974569   -2.613972    0.074284
     10          8           0        4.195753   -3.261881   -0.313404
     11          1           0        4.096504   -4.257025   -0.321418
     12          6           0        2.775035   -1.132698   -0.198818
     13          8           0        1.432981   -0.871224    0.235932
     14          6           0        0.925663    0.396434   -0.205118
     15          8           0       -0.280605    0.600232    0.545165
     16          6           0       -1.502503    0.209132   -0.096133
     17          6           0       -1.987430   -1.110482    0.482673
     18          8           0       -1.001822   -2.086837    0.114585
     19          1           0       -0.061665   -1.745532    0.138940
     20          6           0       -3.319909   -1.505244   -0.132085
     21          8           0       -3.860735   -2.721781    0.403541
     22          1           0       -4.754311   -2.956327    0.020212
     23          6           0       -2.210359    2.630525   -0.401705
     24          8           0       -1.336081    3.340505    0.487756
     25          1           0       -1.372270    4.296443    0.195530
     26          6           0       -2.575622    1.259171    0.140708
     27          8           0       -3.821995    0.840314   -0.435485
     28          6           0       -4.341780   -0.397314    0.069753
     29          8           0       -5.546831   -0.764806   -0.616710
     30          1           0       -6.213774   -1.023222    0.023609
     31          1           0        5.653358   -0.598479    0.355053
     32          1           0        2.174287   -3.134342   -0.409104
     33          1           0        2.861996   -2.758212    1.128525
     34          1           0        2.778258   -1.023064   -1.263182
     35          1           0        3.820848   -0.112687    1.398012
     36          1           0        3.199349    1.131309   -1.246445
     37          1           0        1.822677    1.526641    1.312439
     38          1           0        0.746857    0.414449   -1.259918
     39          1           0       -3.105469    3.200534   -0.538699
     40          1           0       -1.724045    2.512686   -1.347492
     41          1           0       -2.716162    1.351282    1.197432
     42          1           0       -1.335557    0.098943   -1.147269
     43          1           0       -2.069975   -1.044913    1.547467
     44          1           0       -3.174951   -1.639172   -1.183727
     45          1           0       -4.548212   -0.293287    1.114484
 ---------------------------------------------------------------------
 Rotational constants (GHZ):      0.4059975      0.1469880      0.1104610
 Standard basis: 6-31+G(2d,p) (6D, 7F)
 There are   685 symmetry adapted basis functions of A   symmetry.
 Integral buffers will be    131072 words long.
 Raffenetti 2 integral format.
 Two-electron integral symmetry is turned on.
   685 basis functions,  1028 primitive gaussians,   685 cartesian basis functions
    91 alpha electrons       91 beta electrons
       nuclear repulsion energy      2292.0120556263 Hartrees.
 NAtoms=   45 NActive=   45 NUniq=   45 SFac= 1.00D+00 NAtFMM=   50 NAOKFM=F Big=F
 One-electron integrals computed using PRISM.
 NBasis=   685 RedAO= T  NBF=   685
 NBsUse=   685 1.00D-06 NBFU=   685
 Harris functional with IExCor=  402 diagonalized for initial guess.
 ExpMin= 4.38D-02 ExpMax= 5.48D+03 ExpMxC= 8.25D+02 IAcc=2 IRadAn=         0 AccDes= 0.00D+00
 HarFok:  IExCor=  402 AccDes= 0.00D+00 IRadAn=         0 IDoV= 1
 ScaDFX=  1.000000  1.000000  1.000000  1.000000
 FoFCou: FMM=F IPFlag=           0 FMFlag=      100000 FMFlg1=           0
         NFxFlg=           0 DoJE=T BraDBF=F KetDBF=T FulRan=T
         Omega=  0.000000  0.000000  1.000000  0.000000  0.000000 ICntrl=     500 IOpCl=  0
         NMat0=    1 NMatS0=    1 NMatT0=    0 NMatD0=    1 NMtDS0=    0 NMtDT0=    0
         I1Cent=           4 NGrid=           0.
 Petite list used in FoFCou.
 Initial guess orbital symmetries:
       Occupied  (A) (A) (A) (A) (A) (A) (A) (A) (A) (A) (A) (A)
                 (A) (A) (A) (A) (A) (A) (A) (A) (A) (A) (A) (A)
                 (A) (A) (A) (A) (A) (A) (A) (A) (A) (A) (A) (A)
                 (A) (A) (A) (A) (A) (A) (A) (A) (A) (A) (A) (A)
                 (A) (A) (A) (A) (A) (A) (A) (A) (A) (A) (A) (A)
                 (A) (A) (A) (A) (A) (A) (A) (A) (A) (A) (A) (A)
                 (A) (A) (A) (A) (A) (A) (A) (A) (A) (A) (A) (A)
                 (A) (A) (A) (A) (A) (A) (A)
       Virtual   (A) (A) (A) (A) (A) (A) (A) (A) (A) (A) (A) (A)
                 (A) (A) (A) (A) (A) (A) (A) (A) (A) (A) (A) (A)
                 (A) (A) (A) (A) (A) (A) (A) (A) (A) (A) (A) (A)
                 (A) (A) (A) (A) (A) (A) (A) (A) (A) (A) (A) (A)
                 (A) (A) (A) (A) (A) (A) (A) (A) (A) (A) (A) (A)
                 (A) (A) (A) (A) (A) (A) (A) (A) (A) (A) (A) (A)
                 (A) (A) (A) (A) (A) (A) (A) (A) (A) (A) (A) (A)
                 (A) (A) (A) (A) (A) (A) (A) (A) (A) (A) (A) (A)
                 (A) (A) (A) (A) (A) (A) (A) (A) (A) (A) (A) (A)
                 (A) (A) (A) (A) (A) (A) (A) (A) (A) (A) (A) (A)
                 (A) (A) (A) (A) (A) (A) (A) (A) (A) (A) (A) (A)
                 (A) (A) (A) (A) (A) (A) (A) (A) (A) (A) (A) (A)
                 (A) (A) (A) (A) (A) (A) (A) (A) (A) (A) (A) (A)
                 (A) (A) (A) (A) (A) (A) (A) (A) (A) (A) (A) (A)
                 (A) (A) (A) (A) (A) (A) (A) (A) (A) (A) (A) (A)
                 (A) (A) (A) (A) (A) (A) (A) (A) (A) (A) (A) (A)
                 (A) (A) (A) (A) (A) (A) (A) (A) (A) (A) (A) (A)
                 (A) (A) (A) (A) (A) (A) (A) (A) (A) (A) (A) (A)
                 (A) (A) (A) (A) (A) (A) (A) (A) (A) (A) (A) (A)
                 (A) (A) (A) (A) (A) (A) (A) (A) (A) (A) (A) (A)
                 (A) (A) (A) (A) (A) (A) (A) (A) (A) (A) (A) (A)
                 (A) (A) (A) (A) (A) (A) (A) (A) (A) (A) (A) (A)
                 (A) (A) (A) (A) (A) (A) (A) (A) (A) (A) (A) (A)
                 (A) (A) (A) (A) (A) (A) (A) (A) (A) (A) (A) (A)
                 (A) (A) (A) (A) (A) (A) (A) (A) (A) (A) (A) (A)
                 (A) (A) (A) (A) (A) (A) (A) (A) (A) (A) (A) (A)
                 (A) (A) (A) (A) (A) (A) (A) (A) (A) (A) (A) (A)
                 (A) (A) (A) (A) (A) (A) (A) (A) (A) (A) (A) (A)
                 (A) (A) (A) (A) (A) (A) (A) (A) (A) (A) (A) (A)
                 (A) (A) (A) (A) (A) (A) (A) (A) (A) (A) (A) (A)
                 (A) (A) (A) (A) (A) (A) (A) (A) (A) (A) (A) (A)
                 (A) (A) (A) (A) (A) (A) (A) (A) (A) (A) (A) (A)
                 (A) (A) (A) (A) (A) (A) (A) (A) (A) (A) (A) (A)
                 (A) (A) (A) (A) (A) (A) (A) (A) (A) (A) (A) (A)
                 (A) (A) (A) (A) (A) (A) (A) (A) (A) (A) (A) (A)
                 (A) (A) (A) (A) (A) (A) (A) (A) (A) (A) (A) (A)
                 (A) (A) (A) (A) (A) (A) (A) (A) (A) (A) (A) (A)
                 (A) (A) (A) (A) (A) (A) (A) (A) (A) (A) (A) (A)
                 (A) (A) (A) (A) (A) (A) (A) (A) (A) (A) (A) (A)
                 (A) (A) (A) (A) (A) (A) (A) (A) (A) (A) (A) (A)
                 (A) (A) (A) (A) (A) (A) (A) (A) (A) (A) (A) (A)
                 (A) (A) (A) (A) (A) (A) (A) (A) (A) (A) (A) (A)
                 (A) (A) (A) (A) (A) (A) (A) (A) (A) (A) (A) (A)
                 (A) (A) (A) (A) (A) (A) (A) (A) (A) (A) (A) (A)
                 (A) (A) (A) (A) (A) (A) (A) (A) (A) (A) (A) (A)
                 (A) (A) (A) (A) (A) (A) (A) (A) (A) (A) (A) (A)
                 (A) (A) (A) (A) (A) (A) (A) (A) (A) (A) (A) (A)
                 (A) (A) (A) (A) (A) (A) (A) (A) (A) (A) (A) (A)
                 (A) (A) (A) (A) (A) (A) (A) (A) (A) (A) (A) (A)
                 (A) (A) (A) (A) (A) (A)
 The electronic state of the initial guess is 1-A.
 Requested convergence on RMS density matrix=1.00D-08 within 128 cycles.
 Requested convergence on MAX density matrix=1.00D-06.
 Requested convergence on             energy=1.00D-06.
 No special actions if energy rises.
 SCF Done:  E(RB3LYP) =  -1297.99574439     A.U. after   13 cycles
             Convg  =    0.3862D-08             -V/T =  2.0064
 Range of M.O.s used for correlation:     1   685
 NBasis=   685 NAE=    91 NBE=    91 NFC=     0 NFV=     0
 NROrb=    685 NOA=    91 NOB=    91 NVA=   594 NVB=   594

 **** Warning!!: The largest alpha MO coefficient is  0.73444305D+02

          Differentiating once with respect to electric field.
                with respect to dipole field.
          Electric field/nuclear overlap derivatives assumed to be zero.
          There are     3 degrees of freedom in the 1st order CPHF.  IDoFFX=0.
      3 vectors produced by pass  0 Test12= 1.80D-12 3.33D-08 XBig12= 1.22D+02 1.12D+00.
 AX will form     3 AO Fock derivatives at one time.
      3 vectors produced by pass  1 Test12= 1.80D-12 3.33D-08 XBig12= 2.39D+01 3.74D-01.
      3 vectors produced by pass  2 Test12= 1.80D-12 3.33D-08 XBig12= 1.01D+01 1.73D-01.
      3 vectors produced by pass  3 Test12= 1.80D-12 3.33D-08 XBig12= 1.14D+00 8.36D-02.
      3 vectors produced by pass  4 Test12= 1.80D-12 3.33D-08 XBig12= 3.48D-01 4.71D-02.
      3 vectors produced by pass  5 Test12= 1.80D-12 3.33D-08 XBig12= 5.91D-02 2.13D-02.
      3 vectors produced by pass  6 Test12= 1.80D-12 3.33D-08 XBig12= 2.24D-02 1.71D-02.
      3 vectors produced by pass  7 Test12= 1.80D-12 3.33D-08 XBig12= 2.83D-03 8.84D-03.
      3 vectors produced by pass  8 Test12= 1.80D-12 3.33D-08 XBig12= 5.41D-04 2.99D-03.
      3 vectors produced by pass  9 Test12= 1.80D-12 3.33D-08 XBig12= 1.20D-04 1.49D-03.
      3 vectors produced by pass 10 Test12= 1.80D-12 3.33D-08 XBig12= 3.16D-05 5.98D-04.
      3 vectors produced by pass 11 Test12= 1.80D-12 3.33D-08 XBig12= 8.26D-06 4.45D-04.
      3 vectors produced by pass 12 Test12= 1.80D-12 3.33D-08 XBig12= 1.11D-06 1.04D-04.
      3 vectors produced by pass 13 Test12= 1.80D-12 3.33D-08 XBig12= 2.37D-07 3.34D-05.
      3 vectors produced by pass 14 Test12= 1.80D-12 3.33D-08 XBig12= 4.20D-08 1.54D-05.
      3 vectors produced by pass 15 Test12= 1.80D-12 3.33D-08 XBig12= 1.29D-08 7.83D-06.
      3 vectors produced by pass 16 Test12= 1.80D-12 3.33D-08 XBig12= 1.89D-09 3.41D-06.
      3 vectors produced by pass 17 Test12= 1.80D-12 3.33D-08 XBig12= 1.76D-10 9.40D-07.
      3 vectors produced by pass 18 Test12= 1.80D-12 3.33D-08 XBig12= 4.08D-11 3.76D-07.
      3 vectors produced by pass 19 Test12= 1.80D-12 3.33D-08 XBig12= 1.13D-11 2.40D-07.
      2 vectors produced by pass 20 Test12= 1.80D-12 3.33D-08 XBig12= 4.67D-12 1.53D-07.
      2 vectors produced by pass 21 Test12= 1.80D-12 3.33D-08 XBig12= 1.20D-12 8.19D-08.
 Inverted reduced A of dimension    64 with in-core refinement.
 End of Minotr Frequency-dependent properties file   721 does not exist.
 End of Minotr Frequency-dependent properties file   722 does not exist.
 Symmetrizing basis deriv contribution to polar:
 IMax=3 JMax=2 DiffMx= 0.00D+00
 G2DrvN: will do    16 centers at a time, making    3 passes doing MaxLOS=2.
 Calling FoFCou, ICntrl=  3107 FMM=F I1Cent=   0 AccDes= 0.00D+00.
 Calling FoFCou, ICntrl=  3107 FMM=F I1Cent=   0 AccDes= 0.00D+00.
 Calling FoFCou, ICntrl=  3107 FMM=F I1Cent=   0 AccDes= 0.00D+00.
 FoFDir/FoFCou used for L=0 through L=2.
 End of G2Drv Frequency-dependent properties file   721 does not exist.
 End of G2Drv Frequency-dependent properties file   722 does not exist.
          IDoAtm=111111111111111111111111111111111111111111111
          Differentiating once with respect to electric field.
                with respect to dipole field.
          Differentiating once with respect to nuclear coordinates.
          There are   138 degrees of freedom in the 1st order CPHF.  IDoFFX=5.
 Will reuse    3 saved solutions.
    135 vectors produced by pass  0 Test12= 5.41D-14 1.00D-09 XBig12= 1.46D-01 7.97D-02.
 AX will form    45 AO Fock derivatives at one time.
    135 vectors produced by pass  1 Test12= 5.41D-14 1.00D-09 XBig12= 1.92D-02 1.07D-02.
    132 vectors produced by pass  2 Test12= 5.41D-14 1.00D-09 XBig12= 1.54D-04 1.46D-03.
    132 vectors produced by pass  3 Test12= 5.41D-14 1.00D-09 XBig12= 7.62D-07 5.47D-05.
    132 vectors produced by pass  4 Test12= 5.41D-14 1.00D-09 XBig12= 1.98D-09 2.88D-06.
    132 vectors produced by pass  5 Test12= 5.41D-14 1.00D-09 XBig12= 4.51D-12 1.28D-07.
     82 vectors produced by pass  6 Test12= 5.41D-14 1.00D-09 XBig12= 1.85D-13 2.92D-08.
 Inverted reduced A of dimension   880 with in-core refinement.
 Isotropic polarizability for W=    0.000000      191.64 Bohr**3.
 End of Minotr Frequency-dependent properties file   721 does not exist.
 End of Minotr Frequency-dependent properties file   722 does not exist.

 **********************************************************************

            Population analysis using the SCF density.

 **********************************************************************

 Orbital symmetries:
       Occupied  (A) (A) (A) (A) (A) (A) (A) (A) (A) (A) (A) (A)
                 (A) (A) (A) (A) (A) (A) (A) (A) (A) (A) (A) (A)
                 (A) (A) (A) (A) (A) (A) (A) (A) (A) (A) (A) (A)
                 (A) (A) (A) (A) (A) (A) (A) (A) (A) (A) (A) (A)
                 (A) (A) (A) (A) (A) (A) (A) (A) (A) (A) (A) (A)
                 (A) (A) (A) (A) (A) (A) (A) (A) (A) (A) (A) (A)
                 (A) (A) (A) (A) (A) (A) (A) (A) (A) (A) (A) (A)
                 (A) (A) (A) (A) (A) (A) (A)
       Virtual   (A) (A) (A) (A) (A) (A) (A) (A) (A) (A) (A) (A)
                 (A) (A) (A) (A) (A) (A) (A) (A) (A) (A) (A) (A)
                 (A) (A) (A) (A) (A) (A) (A) (A) (A) (A) (A) (A)
                 (A) (A) (A) (A) (A) (A) (A) (A) (A) (A) (A) (A)
                 (A) (A) (A) (A) (A) (A) (A) (A) (A) (A) (A) (A)
                 (A) (A) (A) (A) (A) (A) (A) (A) (A) (A) (A) (A)
                 (A) (A) (A) (A) (A) (A) (A) (A) (A) (A) (A) (A)
                 (A) (A) (A) (A) (A) (A) (A) (A) (A) (A) (A) (A)
                 (A) (A) (A) (A) (A) (A) (A) (A) (A) (A) (A) (A)
                 (A) (A) (A) (A) (A) (A) (A) (A) (A) (A) (A) (A)
                 (A) (A) (A) (A) (A) (A) (A) (A) (A) (A) (A) (A)
                 (A) (A) (A) (A) (A) (A) (A) (A) (A) (A) (A) (A)
                 (A) (A) (A) (A) (A) (A) (A) (A) (A) (A) (A) (A)
                 (A) (A) (A) (A) (A) (A) (A) (A) (A) (A) (A) (A)
                 (A) (A) (A) (A) (A) (A) (A) (A) (A) (A) (A) (A)
                 (A) (A) (A) (A) (A) (A) (A) (A) (A) (A) (A) (A)
                 (A) (A) (A) (A) (A) (A) (A) (A) (A) (A) (A) (A)
                 (A) (A) (A) (A) (A) (A) (A) (A) (A) (A) (A) (A)
                 (A) (A) (A) (A) (A) (A) (A) (A) (A) (A) (A) (A)
                 (A) (A) (A) (A) (A) (A) (A) (A) (A) (A) (A) (A)
                 (A) (A) (A) (A) (A) (A) (A) (A) (A) (A) (A) (A)
                 (A) (A) (A) (A) (A) (A) (A) (A) (A) (A) (A) (A)
                 (A) (A) (A) (A) (A) (A) (A) (A) (A) (A) (A) (A)
                 (A) (A) (A) (A) (A) (A) (A) (A) (A) (A) (A) (A)
                 (A) (A) (A) (A) (A) (A) (A) (A) (A) (A) (A) (A)
                 (A) (A) (A) (A) (A) (A) (A) (A) (A) (A) (A) (A)
                 (A) (A) (A) (A) (A) (A) (A) (A) (A) (A) (A) (A)
                 (A) (A) (A) (A) (A) (A) (A) (A) (A) (A) (A) (A)
                 (A) (A) (A) (A) (A) (A) (A) (A) (A) (A) (A) (A)
                 (A) (A) (A) (A) (A) (A) (A) (A) (A) (A) (A) (A)
                 (A) (A) (A) (A) (A) (A) (A) (A) (A) (A) (A) (A)
                 (A) (A) (A) (A) (A) (A) (A) (A) (A) (A) (A) (A)
                 (A) (A) (A) (A) (A) (A) (A) (A) (A) (A) (A) (A)
                 (A) (A) (A) (A) (A) (A) (A) (A) (A) (A) (A) (A)
                 (A) (A) (A) (A) (A) (A) (A) (A) (A) (A) (A) (A)
                 (A) (A) (A) (A) (A) (A) (A) (A) (A) (A) (A) (A)
                 (A) (A) (A) (A) (A) (A) (A) (A) (A) (A) (A) (A)
                 (A) (A) (A) (A) (A) (A) (A) (A) (A) (A) (A) (A)
                 (A) (A) (A) (A) (A) (A) (A) (A) (A) (A) (A) (A)
                 (A) (A) (A) (A) (A) (A) (A) (A) (A) (A) (A) (A)
                 (A) (A) (A) (A) (A) (A) (A) (A) (A) (A) (A) (A)
                 (A) (A) (A) (A) (A) (A) (A) (A) (A) (A) (A) (A)
                 (A) (A) (A) (A) (A) (A) (A) (A) (A) (A) (A) (A)
                 (A) (A) (A) (A) (A) (A) (A) (A) (A) (A) (A) (A)
                 (A) (A) (A) (A) (A) (A) (A) (A) (A) (A) (A) (A)
                 (A) (A) (A) (A) (A) (A) (A) (A) (A) (A) (A) (A)
                 (A) (A) (A) (A) (A) (A) (A) (A) (A) (A) (A) (A)
                 (A) (A) (A) (A) (A) (A) (A) (A) (A) (A) (A) (A)
                 (A) (A) (A) (A) (A) (A) (A) (A) (A) (A) (A) (A)
                 (A) (A) (A) (A) (A) (A)
 The electronic state is 1-A.
 Alpha  occ. eigenvalues --  -19.19074 -19.19029 -19.18393 -19.18238 -19.17700
 Alpha  occ. eigenvalues --  -19.17226 -19.16183 -19.15597 -19.15353 -19.13438
 Alpha  occ. eigenvalues --  -19.12929 -10.30910 -10.30410 -10.25978 -10.25935
 Alpha  occ. eigenvalues --  -10.25773 -10.25430 -10.25405 -10.24448 -10.24403
 Alpha  occ. eigenvalues --  -10.24299 -10.24256 -10.24186  -1.10592  -1.08725
 Alpha  occ. eigenvalues --   -1.06039  -1.05570  -1.04541  -1.03674  -1.02486
 Alpha  occ. eigenvalues --   -1.02157  -1.01904  -1.00244  -0.99660  -0.82316
 Alpha  occ. eigenvalues --   -0.80944  -0.79213  -0.78462  -0.72024  -0.70236
 Alpha  occ. eigenvalues --   -0.67458  -0.64926  -0.63167  -0.62859  -0.61514
 Alpha  occ. eigenvalues --   -0.60490  -0.56579  -0.56245  -0.55141  -0.54948
 Alpha  occ. eigenvalues --   -0.54073  -0.53929  -0.53003  -0.51680  -0.51272
 Alpha  occ. eigenvalues --   -0.50703  -0.50235  -0.49681  -0.48628  -0.46550
 Alpha  occ. eigenvalues --   -0.46360  -0.45479  -0.44438  -0.44053  -0.43783
 Alpha  occ. eigenvalues --   -0.42493  -0.41923  -0.41149  -0.40416  -0.39444
 Alpha  occ. eigenvalues --   -0.39410  -0.37682  -0.37614  -0.36855  -0.35960
 Alpha  occ. eigenvalues --   -0.35668  -0.34717  -0.33947  -0.33790  -0.33429
 Alpha  occ. eigenvalues --   -0.32993  -0.31774  -0.30732  -0.30044  -0.29798
 Alpha  occ. eigenvalues --   -0.29597  -0.28671  -0.28058  -0.27414  -0.26849
 Alpha  occ. eigenvalues --   -0.26033
 Alpha virt. eigenvalues --   -0.01895  -0.01859  -0.01647  -0.00328   0.00233
 Alpha virt. eigenvalues --    0.01027   0.01822   0.02074   0.03096   0.03598
 Alpha virt. eigenvalues --    0.03818   0.04411   0.04761   0.05402   0.05640
 Alpha virt. eigenvalues --    0.06157   0.06446   0.07260   0.07690   0.08191
 Alpha virt. eigenvalues --    0.08608   0.08858   0.09058   0.10056   0.10202
 Alpha virt. eigenvalues --    0.10437   0.10699   0.11297   0.12053   0.12141
 Alpha virt. eigenvalues --    0.12680   0.12900   0.13136   0.13257   0.13768
 Alpha virt. eigenvalues --    0.14097   0.14222   0.14835   0.14956   0.15177
 Alpha virt. eigenvalues --    0.15316   0.15926   0.16825   0.16949   0.17305
 Alpha virt. eigenvalues --    0.17329   0.17390   0.17914   0.18037   0.18535
 Alpha virt. eigenvalues --    0.18885   0.19068   0.19432   0.19833   0.20186
 Alpha virt. eigenvalues --    0.20665   0.20907   0.21096   0.21398   0.21661
 Alpha virt. eigenvalues --    0.22036   0.22204   0.22714   0.22903   0.23302
 Alpha virt. eigenvalues --    0.23594   0.23660   0.24051   0.24536   0.24700
 Alpha virt. eigenvalues --    0.24934   0.25063   0.25198   0.25832   0.26118
 Alpha virt. eigenvalues --    0.26265   0.26527   0.26565   0.26918   0.27433
 Alpha virt. eigenvalues --    0.27490   0.27726   0.28197   0.28342   0.28707
 Alpha virt. eigenvalues --    0.28767   0.29077   0.29710   0.29882   0.30512
 Alpha virt. eigenvalues --    0.30713   0.31431   0.31804   0.32205   0.32375
 Alpha virt. eigenvalues --    0.32448   0.32762   0.32837   0.33069   0.33706
 Alpha virt. eigenvalues --    0.34410   0.34636   0.34739   0.35207   0.35226
 Alpha virt. eigenvalues --    0.36044   0.36237   0.36663   0.37257   0.37376
 Alpha virt. eigenvalues --    0.37465   0.38046   0.38694   0.39090   0.39129
 Alpha virt. eigenvalues --    0.39957   0.40124   0.40866   0.41232   0.41519
 Alpha virt. eigenvalues --    0.42036   0.42294   0.42674   0.43311   0.43545
 Alpha virt. eigenvalues --    0.44179   0.44940   0.45626   0.45805   0.46016
 Alpha virt. eigenvalues --    0.46858   0.47389   0.47612   0.49710   0.50103
 Alpha virt. eigenvalues --    0.50883   0.52269   0.54083   0.58384   0.59590
 Alpha virt. eigenvalues --    0.60264   0.60682   0.61187   0.61536   0.62483
 Alpha virt. eigenvalues --    0.62933   0.64446   0.65111   0.65545   0.66932
 Alpha virt. eigenvalues --    0.67680   0.68258   0.68520   0.69151   0.70480
 Alpha virt. eigenvalues --    0.70663   0.71723   0.72742   0.73133   0.74210
 Alpha virt. eigenvalues --    0.74884   0.75973   0.76155   0.77100   0.77788
 Alpha virt. eigenvalues --    0.78406   0.79451   0.79773   0.81370   0.81557
 Alpha virt. eigenvalues --    0.82775   0.82955   0.84372   0.84832   0.85279
 Alpha virt. eigenvalues --    0.86102   0.87303   0.88111   0.88777   0.89578
 Alpha virt. eigenvalues --    0.90052   0.90819   0.91003   0.91809   0.92109
 Alpha virt. eigenvalues --    0.92860   0.93384   0.93477   0.93739   0.93845
 Alpha virt. eigenvalues --    0.94486   0.95615   0.95794   0.96314   0.96561
 Alpha virt. eigenvalues --    0.97021   0.97782   0.97959   0.98402   0.98706
 Alpha virt. eigenvalues --    0.99173   0.99768   1.00813   1.01185   1.02346
 Alpha virt. eigenvalues --    1.03139   1.04795   1.05374   1.05812   1.06316
 Alpha virt. eigenvalues --    1.06543   1.06931   1.08006   1.08563   1.09226
 Alpha virt. eigenvalues --    1.09574   1.10277   1.10568   1.11147   1.11539
 Alpha virt. eigenvalues --    1.11745   1.12754   1.13429   1.14103   1.14464
 Alpha virt. eigenvalues --    1.14911   1.15940   1.16462   1.16793   1.17253
 Alpha virt. eigenvalues --    1.17753   1.17946   1.18845   1.19614   1.19666
 Alpha virt. eigenvalues --    1.19939   1.20627   1.21454   1.21832   1.22774
 Alpha virt. eigenvalues --    1.23634   1.23762   1.24744   1.25201   1.25580
 Alpha virt. eigenvalues --    1.25933   1.26700   1.26895   1.27188   1.28315
 Alpha virt. eigenvalues --    1.28795   1.29094   1.29647   1.30238   1.31600
 Alpha virt. eigenvalues --    1.32501   1.33478   1.33871   1.33987   1.34816
 Alpha virt. eigenvalues --    1.35551   1.35802   1.36542   1.37847   1.38490
 Alpha virt. eigenvalues --    1.38646   1.39332   1.40295   1.40627   1.40956
 Alpha virt. eigenvalues --    1.41461   1.42011   1.42456   1.43878   1.44826
 Alpha virt. eigenvalues --    1.45544   1.45818   1.47034   1.47108   1.48431
 Alpha virt. eigenvalues --    1.49511   1.49933   1.50284   1.50789   1.52037
 Alpha virt. eigenvalues --    1.53476   1.53821   1.54642   1.56411   1.56641
 Alpha virt. eigenvalues --    1.57658   1.58515   1.59732   1.60518   1.60849
 Alpha virt. eigenvalues --    1.62202   1.63480   1.64112   1.64501   1.64567
 Alpha virt. eigenvalues --    1.65673   1.65931   1.67577   1.68202   1.69230
 Alpha virt. eigenvalues --    1.70516   1.71614   1.72568   1.73520   1.74900
 Alpha virt. eigenvalues --    1.75816   1.76253   1.76810   1.77696   1.78084
 Alpha virt. eigenvalues --    1.79659   1.80784   1.81912   1.82668   1.83142
 Alpha virt. eigenvalues --    1.84521   1.85535   1.86513   1.88276   1.88481
 Alpha virt. eigenvalues --    1.89547   1.90041   1.91179   1.92936   1.93256
 Alpha virt. eigenvalues --    1.93829   1.96066   1.96706   1.97501   1.99044
 Alpha virt. eigenvalues --    1.99271   2.01234   2.03012   2.03145   2.03685
 Alpha virt. eigenvalues --    2.07569   2.07832   2.08476   2.09329   2.09655
 Alpha virt. eigenvalues --    2.10591   2.12747   2.14836   2.17144   2.18857
 Alpha virt. eigenvalues --    2.19674   2.20323   2.21155   2.23951   2.24959
 Alpha virt. eigenvalues --    2.26529   2.27104   2.28025   2.29853   2.31371
 Alpha virt. eigenvalues --    2.32973   2.34859   2.36632   2.38716   2.39254
 Alpha virt. eigenvalues --    2.40599   2.40785   2.48179   2.51178   2.52752
 Alpha virt. eigenvalues --    2.53272   2.54133   2.55566   2.56619   2.57586
 Alpha virt. eigenvalues --    2.58560   2.60562   2.61413   2.65937   2.67274
 Alpha virt. eigenvalues --    2.69398   2.69506   2.70800   2.71318   2.73515
 Alpha virt. eigenvalues --    2.74722   2.75302   2.77091   2.77589   2.81639
 Alpha virt. eigenvalues --    2.82763   2.83660   2.84485   2.86327   2.87239
 Alpha virt. eigenvalues --    2.88773   2.89712   2.89947   2.91093   2.92165
 Alpha virt. eigenvalues --    2.92860   2.95091   2.96395   2.96688   2.97529
 Alpha virt. eigenvalues --    2.97958   2.98692   2.99729   3.00284   3.00618
 Alpha virt. eigenvalues --    3.01231   3.01660   3.02679   3.03087   3.04382
 Alpha virt. eigenvalues --    3.05341   3.05872   3.06429   3.07368   3.07709
 Alpha virt. eigenvalues --    3.09032   3.09807   3.11306   3.12503   3.14277
 Alpha virt. eigenvalues --    3.15526   3.17601   3.20023   3.21986   3.24441
 Alpha virt. eigenvalues --    3.25472   3.34222   3.35565   3.74826   3.84017
 Alpha virt. eigenvalues --    3.95813   4.06085   4.07103   4.10241   4.11736
 Alpha virt. eigenvalues --    4.12568   4.13749   4.14758   4.15746   4.16719
 Alpha virt. eigenvalues --    4.17128   4.18846   4.20684   4.21153   4.22191
 Alpha virt. eigenvalues --    4.23293   4.24222   4.24628   4.24756   4.26231
 Alpha virt. eigenvalues --    4.26854   4.28196   4.29315   4.29891   4.30281
 Alpha virt. eigenvalues --    4.30598   4.31618   4.32049   4.32132   4.32859
 Alpha virt. eigenvalues --    4.33535   4.34212   4.34585   4.35036   4.35874
 Alpha virt. eigenvalues --    4.36158   4.36621   4.37730   4.38546   4.38959
 Alpha virt. eigenvalues --    4.39744   4.40947   4.41235   4.42202   4.43324
 Alpha virt. eigenvalues --    4.44478   4.46078   4.48037   4.48872   4.50479
 Alpha virt. eigenvalues --    4.51523   4.52123   4.53510   4.54380   4.56559
 Alpha virt. eigenvalues --    4.56840   4.57821   4.59410   4.60591   4.60928
 Alpha virt. eigenvalues --    4.61543   4.62327   4.63215   4.63574   4.64361
 Alpha virt. eigenvalues --    4.64698   4.64987   4.65912   4.66353   4.67234
 Alpha virt. eigenvalues --    4.68228   4.68733   4.69201   4.69903   4.71282
 Alpha virt. eigenvalues --    4.71557   4.72347   4.72886   4.73155   4.74612
 Alpha virt. eigenvalues --    4.75056   4.75488   4.76376   4.77205   4.77483
 Alpha virt. eigenvalues --    4.78130   4.78902   4.79266   4.79754   4.80705
 Alpha virt. eigenvalues --    4.81319   4.82696   4.84004   4.84477   4.86174
 Alpha virt. eigenvalues --    4.87537   4.88920   4.89063   4.89948   4.91859
 Alpha virt. eigenvalues --    4.93513   4.93992   4.96205   4.97120   4.98005
 Alpha virt. eigenvalues --    4.98509   4.98962   5.01850   5.03309   5.07208
 Alpha virt. eigenvalues --    5.08205   5.09708   5.10810   5.15867   5.16031
 Alpha virt. eigenvalues --    5.23188   5.26495   5.29894   5.32569   5.40851
 Alpha virt. eigenvalues --    5.46839   5.85034   6.01069   6.30184   6.65071
 Alpha virt. eigenvalues --    6.74288   6.76275   6.77993   6.80410   6.83845
 Alpha virt. eigenvalues --    6.87336   6.92826   6.96633   6.99168   7.03384
 Alpha virt. eigenvalues --    7.15814  11.83790  12.00402  12.03836  12.12985
 Alpha virt. eigenvalues --   12.30932  12.44027  12.70005  12.79388  12.87688
 Alpha virt. eigenvalues --   12.93214  13.15414  13.22566  13.23480  13.27777
 Alpha virt. eigenvalues --   13.30402  13.35662  13.40592  13.48562  13.51022
 Alpha virt. eigenvalues --   13.59544  13.61521  13.75674  13.90819
          Condensed to atoms (all electrons):
              1          2          3          4          5          6
     1  O    8.231894   0.143096  -0.023308  -0.008319   0.016850   0.025655
     2  C    0.143096   7.256856   0.091199  -0.000736  -0.054806  -1.309026
     3  C   -0.023308   0.091199   6.255234   0.190657   0.010724   0.191366
     4  O   -0.008319  -0.000736   0.190657   8.232085   0.235167  -0.108605
     5  H    0.016850  -0.054806   0.010724   0.235167   0.425092   0.021496
     6  C    0.025655  -1.309026   0.191366  -0.108605   0.021496   7.637290
     7  O   -0.000309   0.010672  -0.134269   0.007959  -0.000294   0.315559
     8  H    0.000002  -0.000106   0.013431  -0.000290   0.000011  -0.000191
     9  C   -0.001077  -0.317619  -0.383948   0.008923  -0.002549   0.359555
    10  O   -0.016226   0.030571   0.008467  -0.000031  -0.000016  -0.003772
    11  H    0.001473  -0.010413  -0.000348   0.000000   0.000000   0.000294
    12  C   -0.081123  -1.208164  -0.299906   0.030231   0.002131   0.739606
    13  O    0.001341  -0.025075  -0.003671  -0.001900  -0.000008  -0.012431
    14  C   -0.011156   0.827200   0.052320   0.001539   0.008104  -1.894196
    15  O   -0.000172  -0.010604  -0.007568   0.000807  -0.000030   0.027811
    16  C    0.000078   0.126695  -0.054641  -0.003554   0.000671  -0.307361
    17  C    0.000138  -0.019506  -0.014160   0.000609   0.000011   0.108338
    18  O    0.000029   0.007243  -0.000138  -0.000009   0.000000  -0.004467
    19  H   -0.000044  -0.005451   0.003949   0.000006   0.000000   0.003977
    20  C    0.000046   0.004323  -0.006580  -0.000038   0.000001   0.068272
    21  O    0.000000  -0.000018  -0.000036   0.000000   0.000000  -0.000284
    22  H    0.000000   0.000001   0.000001   0.000000   0.000000  -0.000020
    23  C   -0.000080   0.012273   0.025921  -0.000469   0.000008  -0.131108
    24  O    0.000003  -0.001194  -0.009669   0.000007  -0.000002   0.008585
    25  H    0.000000   0.000150   0.001042   0.000002   0.000000  -0.002844
    26  C    0.000038  -0.007603  -0.053435   0.000346   0.000005   0.046767
    27  O    0.000000   0.000147  -0.000170   0.000001   0.000000   0.001706
    28  C    0.000000   0.001331  -0.000755   0.000006   0.000000  -0.018454
    29  O    0.000000   0.000015   0.000010   0.000000   0.000000  -0.000327
    30  H    0.000000   0.000000   0.000000   0.000000   0.000000   0.000002
    31  H    0.259755   0.069246  -0.036744   0.000804  -0.001559  -0.000675
    32  H   -0.000112   0.005759  -0.002373   0.000017   0.000000  -0.000007
    33  H    0.001421  -0.018175  -0.005988   0.000007   0.000000   0.010336
    34  H    0.004174   0.069000  -0.049697   0.000913   0.000025  -0.037182
    35  H   -0.006453   0.296994  -0.015958   0.003078   0.000152  -0.022938
    36  H    0.000905  -0.071857   0.274336  -0.025491  -0.004040  -0.112732
    37  H   -0.000104   0.009358  -0.114745   0.002157  -0.000187   0.366918
    38  H   -0.000041   0.004215  -0.038107   0.000100   0.000003   0.023029
    39  H    0.000000  -0.000023   0.000026   0.000000   0.000000   0.001237
    40  H    0.000000   0.000037   0.001153  -0.000001   0.000000  -0.003619
    41  H    0.000000  -0.000164   0.000990   0.000000   0.000000  -0.000849
    42  H   -0.000001  -0.002927   0.004731   0.000004   0.000000   0.017666
    43  H    0.000000  -0.000941   0.001103   0.000000   0.000000   0.005868
    44  H    0.000000   0.000152  -0.000051   0.000000   0.000000  -0.000181
    45  H    0.000000   0.000011  -0.000007   0.000000   0.000000  -0.000311
              7          8          9         10         11         12
     1  O   -0.000309   0.000002  -0.001077  -0.016226   0.001473  -0.081123
     2  C    0.010672  -0.000106  -0.317619   0.030571  -0.010413  -1.208164
     3  C   -0.134269   0.013431  -0.383948   0.008467  -0.000348  -0.299906
     4  O    0.007959  -0.000290   0.008923  -0.000031   0.000000   0.030231
     5  H   -0.000294   0.000011  -0.002549  -0.000016   0.000000   0.002131
     6  C    0.315559  -0.000191   0.359555  -0.003772   0.000294   0.739606
     7  O    8.263791   0.236933   0.001225   0.000007   0.000000   0.026170
     8  H    0.236933   0.342012  -0.000344   0.000000   0.000000  -0.003653
     9  C    0.001225  -0.000344   7.664460   0.049953  -0.008786  -1.293206
    10  O    0.000007   0.000000   0.049953   8.270087   0.231934   0.044186
    11  H    0.000000   0.000000  -0.008786   0.231934   0.435241   0.021981
    12  C    0.026170  -0.003653  -1.293206   0.044186   0.021981   9.535967
    13  O    0.001456  -0.000153  -0.061776  -0.002396  -0.000251  -0.005049
    14  C   -0.057715  -0.050168  -0.772900   0.011505  -0.003431  -1.262871
    15  O   -0.004626   0.017463   0.005447   0.000020   0.000003   0.005237
    16  C    0.005186   0.027427  -0.120398  -0.001029  -0.000154  -0.132038
    17  C    0.001490  -0.002182  -0.016954   0.000305  -0.000026  -0.113046
    18  O   -0.000001  -0.000006   0.004794  -0.000123   0.000002  -0.014284
    19  H   -0.000065  -0.000016  -0.000077   0.000021  -0.000004  -0.006799
    20  C    0.000091   0.001441   0.008058   0.000027   0.000002  -0.024503
    21  O   -0.000001   0.000000   0.000349   0.000000   0.000000  -0.000273
    22  H    0.000000   0.000000  -0.000003   0.000000   0.000000   0.000014
    23  C   -0.006889   0.018358  -0.004028  -0.000013   0.000000  -0.013062
    24  O   -0.032036  -0.005469   0.000458   0.000000   0.000000   0.003386
    25  H    0.000502  -0.003154  -0.000010   0.000000   0.000000  -0.000259
    26  C   -0.004834  -0.027979   0.009513  -0.000008  -0.000001   0.046557
    27  O    0.000047  -0.000115   0.000011   0.000000   0.000000  -0.000303
    28  C    0.000392  -0.000237  -0.001130  -0.000003   0.000000   0.002401
    29  O   -0.000001   0.000000  -0.000020   0.000000   0.000000   0.000038
    30  H    0.000000   0.000000   0.000000   0.000000   0.000000   0.000000
    31  H   -0.000003   0.000000   0.003036  -0.000512  -0.000036  -0.036114
    32  H   -0.000010   0.000000   0.390467  -0.023887  -0.009427  -0.027607
    33  H    0.000003   0.000000   0.636291  -0.053010  -0.001431  -0.260746
    34  H    0.000002   0.000002   0.055932   0.000696  -0.000261   0.061223
    35  H    0.000297  -0.000001  -0.041409  -0.001396  -0.000005  -0.041030
    36  H    0.005435  -0.000149   0.022887  -0.000272   0.000000   0.088918
    37  H   -0.036297  -0.001996   0.019958   0.000019   0.000000   0.073671
    38  H   -0.001456   0.000492   0.021564   0.000070   0.000000   0.052390
    39  H   -0.000384   0.000290  -0.000002   0.000000   0.000000   0.000023
    40  H    0.001201   0.000176  -0.000035   0.000000   0.000000  -0.000038
    41  H   -0.000491   0.000125   0.000077   0.000000   0.000000   0.000515
    42  H   -0.001754  -0.000085   0.000098   0.000001   0.000000   0.000786
    43  H   -0.000022  -0.000002  -0.000640   0.000000   0.000000   0.000518
    44  H    0.000003   0.000000  -0.000119   0.000000   0.000000   0.000422
    45  H    0.000001   0.000000   0.000004   0.000000   0.000000   0.000033
             13         14         15         16         17         18
     1  O    0.001341  -0.011156  -0.000172   0.000078   0.000138   0.000029
     2  C   -0.025075   0.827200  -0.010604   0.126695  -0.019506   0.007243
     3  C   -0.003671   0.052320  -0.007568  -0.054641  -0.014160  -0.000138
     4  O   -0.001900   0.001539   0.000807  -0.003554   0.000609  -0.000009
     5  H   -0.000008   0.008104  -0.000030   0.000671   0.000011   0.000000
     6  C   -0.012431  -1.894196   0.027811  -0.307361   0.108338  -0.004467
     7  O    0.001456  -0.057715  -0.004626   0.005186   0.001490  -0.000001
     8  H   -0.000153  -0.050168   0.017463   0.027427  -0.002182  -0.000006
     9  C   -0.061776  -0.772900   0.005447  -0.120398  -0.016954   0.004794
    10  O   -0.002396   0.011505   0.000020  -0.001029   0.000305  -0.000123
    11  H   -0.000251  -0.003431   0.000003  -0.000154  -0.000026   0.000002
    12  C   -0.005049  -1.262871   0.005237  -0.132038  -0.113046  -0.014284
    13  O    8.214049   0.264262  -0.004380  -0.043666   0.017059  -0.017279
    14  C    0.264262   9.308950   0.086185  -0.428386  -0.250144  -0.016028
    15  O   -0.004380   0.086185   8.092199   0.220641  -0.044464  -0.003828
    16  C   -0.043666  -0.428386   0.220641  10.090215  -2.016989   0.038714
    17  C    0.017059  -0.250144  -0.044464  -2.016989   7.860845   0.145398
    18  O   -0.017279  -0.016028  -0.003828   0.038714   0.145398   8.250523
    19  H    0.023563   0.006066   0.007013  -0.037177   0.021357   0.232887
    20  C   -0.003133  -0.284148   0.010385  -1.273554   0.485760  -0.057658
    21  O   -0.000051   0.002595   0.000154   0.046385  -0.102928   0.008484
    22  H    0.000001  -0.000396  -0.000019  -0.008781   0.018474  -0.000384
    23  C    0.006276   0.067000   0.008594   0.146223  -0.453890   0.012725
    24  O   -0.001604   0.086183  -0.020339  -0.005751   0.003549  -0.000139
    25  H   -0.000012  -0.005803   0.001809  -0.016592  -0.001138   0.000001
    26  C   -0.020839  -0.371122  -0.086890  -1.708386   0.421821   0.039516
    27  O    0.000221   0.005696  -0.000509   0.049827  -0.025803  -0.001377
    28  C    0.001861   0.048555   0.005823   0.864488  -0.300801  -0.002740
    29  O    0.000026  -0.002463  -0.000088  -0.018360  -0.025367   0.000653
    30  H    0.000000   0.000037   0.000000   0.001018   0.006783  -0.000020
    31  H   -0.000568   0.002674   0.000000   0.000130  -0.000031  -0.000001
    32  H   -0.002518  -0.003675  -0.000260   0.005331  -0.000301  -0.000219
    33  H   -0.004204   0.003458  -0.000294  -0.004230   0.001812  -0.000066
    34  H   -0.027794   0.165566  -0.001660   0.000863   0.005701  -0.000058
    35  H    0.007183   0.093391  -0.000165  -0.002234   0.001144   0.000049
    36  H    0.005472   0.031961   0.001051  -0.005732   0.001386   0.000075
    37  H    0.007903  -0.045921  -0.012991  -0.032241  -0.001137   0.000174
    38  H   -0.037410   0.245474  -0.032002  -0.001211   0.005024  -0.001604
    39  H    0.000027   0.002896  -0.000216   0.008100   0.004798   0.000001
    40  H    0.000019  -0.000326   0.003351   0.057543  -0.002740   0.000027
    41  H   -0.000190   0.042803  -0.001043   0.003285  -0.037664   0.000114
    42  H   -0.002685  -0.013465  -0.027551   0.156226   0.033585  -0.003709
    43  H   -0.001536   0.015808  -0.004152  -0.042598   0.299716  -0.026690
    44  H    0.000267  -0.010323   0.000744   0.138576  -0.218738   0.008564
    45  H    0.000022   0.000926   0.000405   0.062637  -0.031348   0.000700
             19         20         21         22         23         24
     1  O   -0.000044   0.000046   0.000000   0.000000  -0.000080   0.000003
     2  C   -0.005451   0.004323  -0.000018   0.000001   0.012273  -0.001194
     3  C    0.003949  -0.006580  -0.000036   0.000001   0.025921  -0.009669
     4  O    0.000006  -0.000038   0.000000   0.000000  -0.000469   0.000007
     5  H    0.000000   0.000001   0.000000   0.000000   0.000008  -0.000002
     6  C    0.003977   0.068272  -0.000284  -0.000020  -0.131108   0.008585
     7  O   -0.000065   0.000091  -0.000001   0.000000  -0.006889  -0.032036
     8  H   -0.000016   0.001441   0.000000   0.000000   0.018358  -0.005469
     9  C   -0.000077   0.008058   0.000349  -0.000003  -0.004028   0.000458
    10  O    0.000021   0.000027   0.000000   0.000000  -0.000013   0.000000
    11  H   -0.000004   0.000002   0.000000   0.000000   0.000000   0.000000
    12  C   -0.006799  -0.024503  -0.000273   0.000014  -0.013062   0.003386
    13  O    0.023563  -0.003133  -0.000051   0.000001   0.006276  -0.001604
    14  C    0.006066  -0.284148   0.002595  -0.000396   0.067000   0.086183
    15  O    0.007013   0.010385   0.000154  -0.000019   0.008594  -0.020339
    16  C   -0.037177  -1.273554   0.046385  -0.008781   0.146223  -0.005751
    17  C    0.021357   0.485760  -0.102928   0.018474  -0.453890   0.003549
    18  O    0.232887  -0.057658   0.008484  -0.000384   0.012725  -0.000139
    19  H    0.358765  -0.009307  -0.000454   0.000014  -0.004057   0.000029
    20  C   -0.009307   6.989995   0.094658  -0.007610   0.016413  -0.009700
    21  O   -0.000454   0.094658   8.243469   0.236824   0.003239   0.000013
    22  H    0.000014  -0.007610   0.236824   0.429859   0.000046   0.000000
    23  C   -0.004057   0.016413   0.003239   0.000046   6.307126  -0.140805
    24  O    0.000029  -0.009700   0.000013   0.000000  -0.140805   8.338797
    25  H    0.000000   0.001018   0.000000   0.000000   0.017445   0.248375
    26  C   -0.000399   0.624227  -0.014968   0.005591  -0.510192   0.141554
    27  O    0.000025  -0.080917   0.002884  -0.000483  -0.081366   0.003188
    28  C    0.002983  -0.715585   0.058370  -0.019165  -0.112004   0.011322
    29  O    0.000005  -0.040436   0.001732   0.015012   0.003756   0.000023
    30  H    0.000000  -0.030592  -0.000642  -0.002077  -0.000826  -0.000001
    31  H    0.000000   0.000001   0.000000   0.000000   0.000003   0.000000
    32  H    0.000626  -0.000775   0.000001   0.000000   0.000011   0.000000
    33  H   -0.000012   0.000410   0.000000   0.000000  -0.000020   0.000000
    34  H   -0.000062   0.000620   0.000000   0.000000   0.000138   0.000000
    35  H   -0.000011   0.000004   0.000000   0.000000   0.000014   0.000005
    36  H    0.000000  -0.000014   0.000000   0.000000   0.000271   0.000057
    37  H   -0.000021   0.000420   0.000000   0.000000   0.001660   0.000076
    38  H   -0.001126   0.011196   0.000007   0.000000   0.005282  -0.000393
    39  H    0.000000  -0.000168  -0.000009   0.000000   0.396047  -0.023249
    40  H   -0.000001  -0.001049   0.000003   0.000000   0.523360  -0.055683
    41  H    0.000018  -0.030205   0.000237   0.000002   0.068757   0.000154
    42  H   -0.000226   0.043299  -0.000212   0.000006  -0.019634   0.000866
    43  H   -0.000325  -0.024203   0.001390  -0.000220   0.012647  -0.000016
    44  H   -0.000208   0.293070  -0.020639  -0.004171   0.011890   0.000010
    45  H   -0.000001  -0.150885   0.004282   0.000069   0.006315   0.000006
             25         26         27         28         29         30
     1  O    0.000000   0.000038   0.000000   0.000000   0.000000   0.000000
     2  C    0.000150  -0.007603   0.000147   0.001331   0.000015   0.000000
     3  C    0.001042  -0.053435  -0.000170  -0.000755   0.000010   0.000000
     4  O    0.000002   0.000346   0.000001   0.000006   0.000000   0.000000
     5  H    0.000000   0.000005   0.000000   0.000000   0.000000   0.000000
     6  C   -0.002844   0.046767   0.001706  -0.018454  -0.000327   0.000002
     7  O    0.000502  -0.004834   0.000047   0.000392  -0.000001   0.000000
     8  H   -0.003154  -0.027979  -0.000115  -0.000237   0.000000   0.000000
     9  C   -0.000010   0.009513   0.000011  -0.001130  -0.000020   0.000000
    10  O    0.000000  -0.000008   0.000000  -0.000003   0.000000   0.000000
    11  H    0.000000  -0.000001   0.000000   0.000000   0.000000   0.000000
    12  C   -0.000259   0.046557  -0.000303   0.002401   0.000038   0.000000
    13  O   -0.000012  -0.020839   0.000221   0.001861   0.000026   0.000000
    14  C   -0.005803  -0.371122   0.005696   0.048555  -0.002463   0.000037
    15  O    0.001809  -0.086890  -0.000509   0.005823  -0.000088   0.000000
    16  C   -0.016592  -1.708386   0.049827   0.864488  -0.018360   0.001018
    17  C   -0.001138   0.421821  -0.025803  -0.300801  -0.025367   0.006783
    18  O    0.000001   0.039516  -0.001377  -0.002740   0.000653  -0.000020
    19  H    0.000000  -0.000399   0.000025   0.002983   0.000005   0.000000
    20  C    0.001018   0.624227  -0.080917  -0.715585  -0.040436  -0.030592
    21  O    0.000000  -0.014968   0.002884   0.058370   0.001732  -0.000642
    22  H    0.000000   0.005591  -0.000483  -0.019165   0.015012  -0.002077
    23  C    0.017445  -0.510192  -0.081366  -0.112004   0.003756  -0.000826
    24  O    0.248375   0.141554   0.003188   0.011322   0.000023  -0.000001
    25  H    0.409978   0.005089  -0.000671  -0.001470  -0.000001   0.000000
    26  C    0.005089   8.116644   0.143231  -0.706607  -0.001072   0.000828
    27  O   -0.000671   0.143231   8.150286   0.208810  -0.002494   0.002729
    28  C   -0.001470  -0.706607   0.208810   5.713075   0.244669   0.009428
    29  O   -0.000001  -0.001072  -0.002494   0.244669   8.149909   0.264646
    30  H    0.000000   0.000828   0.002729   0.009428   0.264646   0.415749
    31  H    0.000000  -0.000005   0.000000   0.000000   0.000000   0.000000
    32  H    0.000000   0.000394   0.000000   0.000033   0.000000   0.000000
    33  H    0.000000  -0.000161   0.000000  -0.000017   0.000000   0.000000
    34  H    0.000000  -0.000661   0.000001  -0.000032   0.000000   0.000000
    35  H    0.000000  -0.000243   0.000000  -0.000002   0.000000   0.000000
    36  H    0.000000  -0.000231   0.000000  -0.000003   0.000000   0.000000
    37  H   -0.000006  -0.002564  -0.000005   0.000043   0.000000   0.000000
    38  H    0.000007   0.007255   0.000222  -0.001271  -0.000001   0.000000
    39  H   -0.009812  -0.037739  -0.006259  -0.000214  -0.000149   0.000000
    40  H   -0.001544  -0.219487   0.001939   0.002586  -0.000006   0.000000
    41  H   -0.000235   0.184361  -0.030098   0.048170  -0.000540   0.000008
    42  H   -0.000008   0.068444   0.003926  -0.004679  -0.000427   0.000002
    43  H    0.000000   0.038986   0.001638  -0.022167  -0.000015   0.000017
    44  H    0.000000  -0.004320   0.002112   0.056315   0.001224   0.000018
    45  H    0.000000  -0.018639  -0.045521   0.463798  -0.025330  -0.009189
             31         32         33         34         35         36
     1  O    0.259755  -0.000112   0.001421   0.004174  -0.006453   0.000905
     2  C    0.069246   0.005759  -0.018175   0.069000   0.296994  -0.071857
     3  C   -0.036744  -0.002373  -0.005988  -0.049697  -0.015958   0.274336
     4  O    0.000804   0.000017   0.000007   0.000913   0.003078  -0.025491
     5  H   -0.001559   0.000000   0.000000   0.000025   0.000152  -0.004040
     6  C   -0.000675  -0.000007   0.010336  -0.037182  -0.022938  -0.112732
     7  O   -0.000003  -0.000010   0.000003   0.000002   0.000297   0.005435
     8  H    0.000000   0.000000   0.000000   0.000002  -0.000001  -0.000149
     9  C    0.003036   0.390467   0.636291   0.055932  -0.041409   0.022887
    10  O   -0.000512  -0.023887  -0.053010   0.000696  -0.001396  -0.000272
    11  H   -0.000036  -0.009427  -0.001431  -0.000261  -0.000005   0.000000
    12  C   -0.036114  -0.027607  -0.260746   0.061223  -0.041030   0.088918
    13  O   -0.000568  -0.002518  -0.004204  -0.027794   0.007183   0.005472
    14  C    0.002674  -0.003675   0.003458   0.165566   0.093391   0.031961
    15  O    0.000000  -0.000260  -0.000294  -0.001660  -0.000165   0.001051
    16  C    0.000130   0.005331  -0.004230   0.000863  -0.002234  -0.005732
    17  C   -0.000031  -0.000301   0.001812   0.005701   0.001144   0.001386
    18  O   -0.000001  -0.000219  -0.000066  -0.000058   0.000049   0.000075
    19  H    0.000000   0.000626  -0.000012  -0.000062  -0.000011   0.000000
    20  C    0.000001  -0.000775   0.000410   0.000620   0.000004  -0.000014
    21  O    0.000000   0.000001   0.000000   0.000000   0.000000   0.000000
    22  H    0.000000   0.000000   0.000000   0.000000   0.000000   0.000000
    23  C    0.000003   0.000011  -0.000020   0.000138   0.000014   0.000271
    24  O    0.000000   0.000000   0.000000   0.000000   0.000005   0.000057
    25  H    0.000000   0.000000   0.000000   0.000000   0.000000   0.000000
    26  C   -0.000005   0.000394  -0.000161  -0.000661  -0.000243  -0.000231
    27  O    0.000000   0.000000   0.000000   0.000001   0.000000   0.000000
    28  C    0.000000   0.000033  -0.000017  -0.000032  -0.000002  -0.000003
    29  O    0.000000   0.000000   0.000000   0.000000   0.000000   0.000000
    30  H    0.000000   0.000000   0.000000   0.000000   0.000000   0.000000
    31  H    0.414845   0.000008  -0.000063  -0.000207  -0.011982  -0.000058
    32  H    0.000008   0.573054  -0.047469  -0.007326  -0.000043   0.000010
    33  H   -0.000063  -0.047469   0.589166   0.006815   0.001956  -0.000012
    34  H   -0.000207  -0.007326   0.006815   0.627442   0.006068   0.003029
    35  H   -0.011982  -0.000043   0.001956   0.006068   0.600258   0.006566
    36  H   -0.000058   0.000010  -0.000012   0.003029   0.006566   0.660473
    37  H    0.000014   0.000001  -0.000019  -0.000071   0.002819   0.008056
    38  H    0.000001   0.000007  -0.000013   0.002938  -0.000043   0.002673
    39  H    0.000000   0.000000   0.000000   0.000000   0.000000   0.000000
    40  H    0.000000   0.000000   0.000000   0.000000   0.000000   0.000001
    41  H    0.000000   0.000000   0.000000   0.000000   0.000000   0.000000
    42  H    0.000000  -0.000001   0.000000  -0.000006   0.000000  -0.000004
    43  H    0.000000   0.000000   0.000000   0.000000   0.000000   0.000000
    44  H    0.000000   0.000000   0.000000   0.000000   0.000000   0.000000
    45  H    0.000000   0.000000   0.000000   0.000000   0.000000   0.000000
             37         38         39         40         41         42
     1  O   -0.000104  -0.000041   0.000000   0.000000   0.000000  -0.000001
     2  C    0.009358   0.004215  -0.000023   0.000037  -0.000164  -0.002927
     3  C   -0.114745  -0.038107   0.000026   0.001153   0.000990   0.004731
     4  O    0.002157   0.000100   0.000000  -0.000001   0.000000   0.000004
     5  H   -0.000187   0.000003   0.000000   0.000000   0.000000   0.000000
     6  C    0.366918   0.023029   0.001237  -0.003619  -0.000849   0.017666
     7  O   -0.036297  -0.001456  -0.000384   0.001201  -0.000491  -0.001754
     8  H   -0.001996   0.000492   0.000290   0.000176   0.000125  -0.000085
     9  C    0.019958   0.021564  -0.000002  -0.000035   0.000077   0.000098
    10  O    0.000019   0.000070   0.000000   0.000000   0.000000   0.000001
    11  H    0.000000   0.000000   0.000000   0.000000   0.000000   0.000000
    12  C    0.073671   0.052390   0.000023  -0.000038   0.000515   0.000786
    13  O    0.007903  -0.037410   0.000027   0.000019  -0.000190  -0.002685
    14  C   -0.045921   0.245474   0.002896  -0.000326   0.042803  -0.013465
    15  O   -0.012991  -0.032002  -0.000216   0.003351  -0.001043  -0.027551
    16  C   -0.032241  -0.001211   0.008100   0.057543   0.003285   0.156226
    17  C   -0.001137   0.005024   0.004798  -0.002740  -0.037664   0.033585
    18  O    0.000174  -0.001604   0.000001   0.000027   0.000114  -0.003709
    19  H   -0.000021  -0.001126   0.000000  -0.000001   0.000018  -0.000226
    20  C    0.000420   0.011196  -0.000168  -0.001049  -0.030205   0.043299
    21  O    0.000000   0.000007  -0.000009   0.000003   0.000237  -0.000212
    22  H    0.000000   0.000000   0.000000   0.000000   0.000002   0.000006
    23  C    0.001660   0.005282   0.396047   0.523360   0.068757  -0.019634
    24  O    0.000076  -0.000393  -0.023249  -0.055683   0.000154   0.000866
    25  H   -0.000006   0.000007  -0.009812  -0.001544  -0.000235  -0.000008
    26  C   -0.002564   0.007255  -0.037739  -0.219487   0.184361   0.068444
    27  O   -0.000005   0.000222  -0.006259   0.001939  -0.030098   0.003926
    28  C    0.000043  -0.001271  -0.000214   0.002586   0.048170  -0.004679
    29  O    0.000000  -0.000001  -0.000149  -0.000006  -0.000540  -0.000427
    30  H    0.000000   0.000000   0.000000   0.000000   0.000008   0.000002
    31  H    0.000014   0.000001   0.000000   0.000000   0.000000   0.000000
    32  H    0.000001   0.000007   0.000000   0.000000   0.000000  -0.000001
    33  H   -0.000019  -0.000013   0.000000   0.000000   0.000000   0.000000
    34  H   -0.000071   0.002938   0.000000   0.000000   0.000000  -0.000006
    35  H    0.002819  -0.000043   0.000000   0.000000   0.000000   0.000000
    36  H    0.008056   0.002673   0.000000   0.000001   0.000000  -0.000004
    37  H    0.625977   0.005045   0.000000  -0.000005  -0.000005  -0.000017
    38  H    0.005045   0.585723   0.000001   0.000086  -0.000001   0.006726
    39  H    0.000000   0.000001   0.558005  -0.042511  -0.001784   0.000066
    40  H   -0.000005   0.000086  -0.042511   0.573639   0.005634   0.003126
    41  H   -0.000005  -0.000001  -0.001784   0.005634   0.607664   0.006216
    42  H   -0.000017   0.006726   0.000066   0.003126   0.006216   0.609211
    43  H   -0.000009  -0.000031   0.000002  -0.000004   0.001560   0.005283
    44  H    0.000000  -0.000007   0.000000  -0.000011  -0.000046   0.001180
    45  H    0.000000   0.000000  -0.000036  -0.000006   0.003858  -0.000042
             43         44         45
     1  O    0.000000   0.000000   0.000000
     2  C   -0.000941   0.000152   0.000011
     3  C    0.001103  -0.000051  -0.000007
     4  O    0.000000   0.000000   0.000000
     5  H    0.000000   0.000000   0.000000
     6  C    0.005868  -0.000181  -0.000311
     7  O   -0.000022   0.000003   0.000001
     8  H   -0.000002   0.000000   0.000000
     9  C   -0.000640  -0.000119   0.000004
    10  O    0.000000   0.000000   0.000000
    11  H    0.000000   0.000000   0.000000
    12  C    0.000518   0.000422   0.000033
    13  O   -0.001536   0.000267   0.000022
    14  C    0.015808  -0.010323   0.000926
    15  O   -0.004152   0.000744   0.000405
    16  C   -0.042598   0.138576   0.062637
    17  C    0.299716  -0.218738  -0.031348
    18  O   -0.026690   0.008564   0.000700
    19  H   -0.000325  -0.000208  -0.000001
    20  C   -0.024203   0.293070  -0.150885
    21  O    0.001390  -0.020639   0.004282
    22  H   -0.000220  -0.004171   0.000069
    23  C    0.012647   0.011890   0.006315
    24  O   -0.000016   0.000010   0.000006
    25  H    0.000000   0.000000   0.000000
    26  C    0.038986  -0.004320  -0.018639
[...]
 0987,-0.00004480,0.00010560,-0.00000446,0.00017110,0.00029183,0.000205
 83,0.00038988,-0.00040151,-0.00475706,-0.01768754,-0.00561663,0.008604
 84,-0.33650346,-0.04404525,-0.05543120,-0.01503121,-0.00185002,-0.0055
 3764,0.00291175,-0.00181905,0.00057610,-0.00076273,0.00025997,0.000568
 43,-0.00101456,-0.00046523,0.00091476,0.00055903,-0.00001075,0.0000638
 2,0.00000796,0.00007340,-0.00009156,0.00048215,0.00026383,0.00031488,0
 .00022890,0.00023792,-0.00022132,0.00004805,-0.00003710,-0.00001368,-0
 .00358455,-0.00020557,-0.00076907,0.00132004,0.00064556,-0.00087054,-0
 .00006402,-0.00002232,-0.00004582,0.00005098,-0.00000467,-0.00006837,-
 0.00000026,-0.00001119,-0.00000965,-0.00000144,-0.00000390,-0.00000356
 ,0.00000362,0.00002004,-0.00000435,0.00001264,0.00000114,-0.00000723,0
 .00002212,0.00000015,0.00003256,0.00000807,0.00000079,-0.00001055,0.00
 000558,-0.00000286,0.00003636,0.00011019,0.00023117,-0.00033909,0.0016
 4872,0.00040432,0.00118367,0.00024776,0.00002134,0.00007875,0.00044796
 ,-0.00070859,0.00020368,0.00067395,-0.00010808,0.00016758,0.36394187,0
 .00000418,-0.00001729,0.00003413,0.00000320,0.00002868,-0.00002086,0.0
 0003518,0.00000975,0.00000760,0.00000683,-0.00002699,0.00000793,-0.000
 00653,0.00000700,-0.00000279,-0.00001408,0.00004277,0.00000183,0.00020
 634,-0.00006099,-0.00009383,-0.00026232,-0.00002907,0.00005614,0.00002
 360,-0.00002596,-0.00001403,-0.00000888,0.00002929,0.00003275,0.000005
 56,-0.00000447,-0.00000297,-0.00005148,0.00003167,-0.00004768,0.000286
 29,-0.00002182,0.00028376,-0.00088315,0.00107850,-0.00162227,-0.011218
 67,-0.00129130,0.00380389,-0.04431959,-0.04964918,-0.00947328,0.030083
 78,0.00121214,0.00703517,-0.00136520,0.00327370,0.00104368,0.00039774,
 -0.00013317,-0.00054327,0.00111056,0.00109509,-0.00087697,-0.00039857,
 -0.00022640,-0.00000265,-0.00010806,-0.00003226,0.00001832,-0.00236925
 ,0.00172344,-0.00009786,0.00057305,0.00004627,0.00000820,-0.00001546,-
 0.00006058,-0.00002022,-0.02660278,-0.00621906,-0.00693718,0.00153650,
 0.00155359,0.00169207,0.00029150,-0.00047480,0.00000247,-0.00002768,0.
 00010534,0.00009875,-0.00001262,0.00000527,-0.00000304,0.00000208,-0.0
 0000009,-0.00000395,0.00000152,-0.00001654,0.00000160,-0.00000742,-0.0
 0000307,0.00000360,-0.00000523,0.00001771,0.00000043,0.00000016,-0.000
 00651,-0.00000014,0.00000610,0.00000676,0.00001792,0.00008367,0.000034
 08,-0.00006609,0.00055251,0.00028950,0.00033226,0.00030301,0.00023655,
 0.00019200,0.00080784,-0.00031251,0.00055644,-0.00043797,-0.00297993,-
 0.00347587,0.05073467,0.05547905,-0.00000472,-0.00001822,-0.00003462,-
 0.00001071,0.00001965,0.00002650,-0.00007335,0.00002990,0.00004497,-0.
 00000957,-0.00000670,-0.00001643,0.00000140,-0.00000038,0.00000069,0.0
 0036132,0.00022654,-0.00020892,-0.00020418,0.00007700,-0.00001814,0.00
 016183,-0.00027698,-0.00011764,-0.00003119,0.00003366,-0.00003128,0.00
 000060,-0.00003031,-0.00000414,0.00000088,-0.00000074,-0.00000491,0.00
 003634,-0.00009305,-0.00007229,-0.00069581,-0.00038408,-0.00031766,0.0
 0719953,0.00135400,0.00316586,0.03520958,0.01007723,-0.01208678,-0.063
 57755,-0.00995540,-0.05274178,-0.01232163,-0.00287412,-0.00178414,0.00
 184916,-0.00105518,0.00071044,0.00039196,0.00007444,-0.00002433,-0.001
 25817,-0.00026094,0.00021794,0.00038500,0.00003420,0.00004427,-0.00000
 142,-0.00001697,-0.00002858,-0.00048850,0.00151614,0.00021925,0.000233
 63,0.00009665,0.00020733,-0.00000995,0.00002083,0.00003005,-0.02320784
 ,-0.00535143,-0.00439344,0.00093799,0.00093183,0.00198691,-0.00032856,
 0.00010438,-0.00022106,0.00007205,0.00004341,-0.00016297,0.00001862,-0
 .00001023,0.00000584,-0.00000122,0.00000302,0.00000366,-0.00000207,-0.
 00001225,-0.00000257,0.00000071,0.00000626,0.00000265,-0.00001984,-0.0
 0001744,-0.00005675,-0.00000645,0.00000676,0.00001151,-0.00005309,-0.0
 0001750,-0.00007728,-0.00034882,-0.00001887,-0.00007300,-0.00097877,0.
 00014225,-0.00034352,0.00012288,0.00013517,0.00002528,0.00066788,-0.00
 020909,0.00047104,-0.00004773,-0.00302034,-0.00308428,0.05611134,0.006
 38937,0.06913850,0.00000618,0.00002922,-0.00004484,-0.00003047,-0.0000
 3604,0.00002042,-0.00000582,-0.00004706,0.00001739,0.00000622,0.000044
 75,-0.00001180,-0.00000186,-0.00001070,0.00000642,0.00004855,-0.000047
 64,0.00000407,0.00004228,0.00009443,0.00008632,-0.00005898,-0.00003274
 ,-0.00010145,-0.00003213,-0.00001168,0.00010011,0.00001211,-0.00002088
 ,-0.00008426,-0.00001177,0.00001280,0.00001915,0.00001807,0.00006900,0
 .00007724,-0.00002652,0.00041495,-0.00032718,0.00019350,-0.00052927,-0
 .00032388,0.00190709,-0.00040531,0.00063520,-0.01452620,-0.00135055,0.
 00046575,-0.35202848,-0.02529368,-0.01873062,-0.00040652,-0.00732475,-
 0.00875231,-0.00033430,-0.00083150,0.00095900,-0.01479742,0.00032496,-
 0.00050128,0.00172425,-0.00008359,-0.00014372,0.00017027,0.00000957,-0
 .00005630,0.00034236,0.00037982,0.00020499,0.00004719,0.00003730,0.000
 03105,0.00000842,0.00000492,-0.00001289,-0.00093539,-0.00106209,-0.000
 61138,0.00047303,0.00045624,0.00013778,-0.00128351,-0.00110988,-0.0009
 8847,0.00058517,0.00021974,0.00021574,-0.00004748,-0.00001705,0.000135
 00,-0.00000588,-0.00000375,0.00000523,0.00002991,0.00004058,-0.0000016
 8,0.00000088,-0.00000074,-0.00000014,-0.00000018,-0.00000930,0.0000073
 7,0.00000644,0.00000074,-0.00000712,0.00001028,-0.00000009,0.00000437,
 0.00000702,0.00002235,-0.00004015,0.00008112,0.00000765,0.00026067,-0.
 00000064,0.00008953,-0.00000126,0.00014761,-0.00025697,0.00006800,0.00
 082329,0.00060159,0.00052948,-0.00015339,0.00156745,-0.00051927,0.3774
 2643,0.00000084,0.00003089,-0.00007309,-0.00004078,-0.00005420,0.00002
 558,0.00001448,-0.00001743,-0.00001000,-0.00000661,0.00004352,-0.00002
 458,0.00000523,-0.00001060,0.00000382,-0.00012494,-0.00004610,-0.00003
 642,-0.00004808,0.00008646,0.00006058,0.00004981,-0.00002242,-0.000085
 10,-0.00006307,-0.00000813,0.00013767,0.00001955,-0.00004013,-0.000107
 19,-0.00001698,0.00001660,0.00001888,0.00006953,0.00013566,0.00013673,
 0.00006618,0.00050911,-0.00047529,0.00021078,-0.00021671,-0.00010515,-
 0.00143298,0.00192671,-0.00184783,0.03112180,0.00088156,0.00197157,-0.
 02677362,-0.04285888,0.00313589,-0.02657156,-0.01075773,-0.01510114,-0
 .00136304,-0.00076710,0.00151004,-0.01094358,0.00102861,0.00126218,0.0
 0028940,0.00078353,-0.00129682,0.00018138,0.00009287,-0.00015220,0.000
 12176,-0.00000819,0.00012020,-0.00010786,-0.00007901,0.00006942,-0.000
 00731,0.00001028,0.00000348,0.00087269,0.00210805,0.00102676,-0.000185
 76,-0.00016413,-0.00043641,0.00023238,-0.00064869,-0.00024216,0.000140
 23,-0.00002721,0.00033585,-0.00001837,0.00008727,0.00008105,-0.0000070
 3,0.00000028,0.00000575,0.00002708,0.00005838,0.00000425,0.00001455,0.
 00000875,-0.00001464,-0.00001232,-0.00002226,-0.00000722,0.00000276,0.
 00000379,-0.00000331,0.00000360,0.00000071,-0.00000160,-0.00001459,-0.
 00001984,0.00003646,-0.00022785,-0.00002766,-0.00005646,-0.00009196,-0
 .00002766,-0.00004279,-0.00022597,-0.00003396,-0.00012071,-0.00023653,
 -0.00060893,-0.00036230,0.00198713,-0.00445334,0.00211122,0.03377240,0
 .05287099,0.00001246,0.00002522,-0.00004673,-0.00005247,-0.00003878,0.
 00001132,0.00001019,-0.00004315,0.00001136,0.00000583,0.00003437,-0.00
 000914,-0.00000122,-0.00000824,0.00000569,-0.00002608,-0.00001135,0.00
 002742,0.00004811,0.00003699,0.00002872,-0.00004808,0.00001079,-0.0000
 1052,-0.00008502,-0.00002827,0.00011244,0.00003362,-0.00001575,-0.0000
 7808,-0.00001687,0.00001052,0.00001892,0.00003985,0.00009812,0.0000658
 8,0.00020582,0.00043179,-0.00047353,-0.00030008,-0.00048048,-0.0005206
 1,0.00022298,-0.00124247,0.00147983,-0.01229678,0.00187079,-0.00020521
 ,-0.01862340,0.00282141,-0.04254313,-0.02470219,-0.01410081,-0.0106895
 0,-0.00205214,-0.00079815,0.00106466,0.03240776,0.00271771,0.00131611,
 -0.00180443,-0.00110970,0.00208585,-0.00017046,-0.00028488,0.00023969,
 0.00003721,0.00018060,0.00010446,0.00002444,0.00001397,-0.00000657,0.0
 0000561,-0.00000810,-0.00000762,0.00036369,-0.00046920,-0.00056101,-0.
 00013309,-0.00040023,-0.00011977,0.00103030,0.00126452,0.00179817,-0.0
 0053847,-0.00001885,-0.00030563,-0.00002273,-0.00011031,-0.00010107,-0
 .00000781,-0.00000200,0.00000061,0.00002818,0.00005402,0.00000180,0.00
 002562,-0.00000047,-0.00001935,0.00001009,-0.00001429,0.00001914,0.000
 01072,0.00000286,-0.00001246,0.00001266,0.00000049,0.00000966,0.000027
 21,0.00003368,-0.00003572,0.00018692,0.00002667,0.00002853,0.00001643,
 0.00008576,0.00000724,0.00007326,-0.00007257,0.00002220,0.00034422,-0.
 00004922,0.00024334,-0.00085969,0.00146210,-0.00048173,0.02471783,0.00
 705286,0.05308367,0.00000459,-0.00000159,-0.00002347,-0.00000937,0.000
 00015,0.00001268,-0.00000970,-0.00001867,0.00002079,0.00000879,0.00001
 274,-0.00001692,-0.00000372,-0.00000170,0.00000377,0.00001153,-0.00000
 218,0.00002348,0.00002314,0.00000976,-0.00001329,-0.00001681,-0.000007
 36,0.00000938,-0.00002186,0.00000677,0.00002123,0.00001616,-0.00001371
 ,-0.00001875,-0.00001025,0.00000376,0.00000357,-0.00000659,0.00001978,
 0.00003114,0.00002426,0.00001835,-0.00011085,-0.00008532,-0.00007460,0
 .00009515,0.00065608,0.00006619,0.00015672,-0.00107554,0.00092674,-0.0
 0068171,-0.01617857,-0.00612049,-0.00130358,0.00218043,0.00051064,-0.0
 0129382,0.00027035,0.00009381,0.00000978,-0.33620979,-0.06432055,-0.03
 918220,-0.01387216,0.01085423,-0.00929517,0.00003197,0.00039893,0.0004
 9410,-0.00004101,-0.00005602,-0.00002035,0.00005379,0.00004787,-0.0000
 2498,-0.00000822,-0.00000913,-0.00000413,-0.00007934,-0.00017175,0.000
 03508,0.00178986,-0.00075229,0.00069964,-0.00527585,-0.00050357,0.0000
 8564,0.00133224,0.00000097,-0.00028332,0.00024819,0.00025514,0.0003126
 6,-0.00000341,0.00000119,0.00000293,-0.00000256,0.00000891,-0.00000300
 ,0.00001025,0.00000047,-0.00000548,0.00000639,-0.00000511,0.00000413,0
 .00000419,0.00000085,-0.00000460,0.00000688,0.00000054,0.00000023,0.00
 000633,0.00000764,-0.00001036,0.00003021,-0.00001418,0.00003739,0.0000
 0520,-0.00001316,0.00001132,0.00002959,-0.00002723,0.00002224,0.000055
 28,0.00016783,0.00000612,0.00089144,-0.00043385,0.00023695,-0.00011770
 ,-0.00086108,0.00222420,0.36468392,0.00000220,-0.00000439,0.00000998,0
 .00000228,0.00000395,-0.00000516,-0.00000375,0.00000644,-0.00000235,0.
 00000336,-0.00000780,0.00000355,-0.00000170,0.00000245,-0.00000139,-0.
 00000055,0.00000454,-0.00000217,0.00001395,-0.00000831,-0.00000279,-0.
 00001175,-0.00000036,-0.00000342,0.00000693,0.00000343,-0.00002134,-0.
 00000340,0.00000492,0.00001803,0.00000445,-0.00000271,-0.00000520,-0.0
 0000680,-0.00000698,-0.00001207,0.00001724,-0.00004386,0.00003474,-0.0
 0004307,0.00006861,0.00000662,0.00022631,-0.00000948,-0.00006193,-0.00
 111603,0.00005907,-0.00007491,-0.00821476,-0.00081006,-0.00099933,0.00
 108750,0.00029558,-0.00012151,0.00010719,-0.00000694,-0.00006715,-0.06
 605749,-0.05154106,-0.01129199,0.03898064,-0.00939240,0.01361390,0.000
 74043,0.00121915,-0.00055573,-0.00009124,0.00001804,-0.00003835,0.0000
 4901,-0.00000281,-0.00000661,-0.00000696,-0.00000300,0.00000294,-0.000
 17696,-0.00034733,0.00018262,0.00113300,0.00240071,0.00064415,-0.02848
 061,-0.00703448,-0.00525600,0.00171443,0.00159361,0.00195533,0.0000759
 9,-0.00005855,0.00040966,0.00000062,0.00000067,-0.00000193,-0.00000272
 ,-0.00000621,0.00000105,-0.00000073,-0.00000292,0.00000143,0.00000252,
 0.00000312,0.00000186,0.00000078,-0.00000053,-0.00000064,0.00000087,0.
 00000021,0.00000081,0.00000431,0.00000234,-0.00000542,0.00001897,-0.00
 000005,0.00001803,0.00000586,-0.00001634,-0.00000037,0.00003328,-0.000
 03376,0.00003247,0.00015100,0.00014519,-0.00003761,0.00010103,-0.00010
 657,0.00020261,-0.00024833,-0.00000173,0.00144905,0.05994296,0.0670174
 2,-0.00000270,-0.00001097,0.00000165,0.00000750,0.00001277,0.00000123,
 0.00000748,0.00001617,0.00000783,-0.00000161,-0.00000836,-0.00001032,0
 .00000019,0.00000377,-0.00000160,-0.00000585,-0.00000700,-0.00001524,-
 0.00000949,-0.00000755,-0.00001857,0.00000887,-0.00001157,0.00001293,0
 .00001636,0.00001434,-0.00002650,-0.00000840,-0.00000574,0.00001620,0.
 00000468,-0.00000160,-0.00000732,0.00000350,-0.00001752,0.00000966,-0.
 00000278,-0.00016261,0.00009116,0.00003688,0.00020553,0.00017048,-0.00
 051947,-0.00009818,-0.00032645,0.00107362,-0.00065510,0.00094570,0.032
 05238,0.00780092,0.00086381,-0.00132597,0.00042082,0.00294299,-0.00011
 110,0.00016767,-0.00002808,-0.03924347,-0.01180851,-0.04904828,-0.0167
 6105,0.00821263,-0.00312959,-0.00109158,-0.00017132,0.00033308,0.00001
 744,0.00002131,0.00008995,0.00000435,0.00001100,-0.00000907,-0.0000076
 5,-0.00000114,-0.00000158,0.00025231,0.00017274,-0.00029399,0.00156651
 ,0.00147799,0.00087626,-0.02525375,-0.00884429,-0.00519309,0.00072630,
 0.00106526,0.00268803,-0.00009559,0.00024407,0.00047570,0.00000071,0.0
 0000204,-0.00000001,-0.00000680,-0.00001133,0.00000215,-0.00000393,-0.
 00000014,0.00000256,-0.00000418,0.00000454,-0.00000689,-0.00000248,-0.
 00000106,0.00000299,-0.00000303,0.00000110,-0.00000244,-0.00000324,-0.
 00000698,0.00001067,-0.00003139,-0.00000056,-0.00004767,-0.00001376,0.
 00002400,-0.00000032,0.00000140,0.00001181,0.00000209,-0.00007228,-0.0
 0002448,-0.00016593,-0.00034584,0.00020647,-0.00006894,0.00191775,0.00
 137403,-0.00508920,0.04773957,0.00327979,0.05679993,0.00000318,-0.0000
 0882,-0.00002513,-0.00001141,0.00000913,0.00001331,0.00000342,-0.00000
 471,0.00002453,0.00000750,0.00000660,-0.00002857,-0.00000304,0.0000011
 2,0.00000352,-0.00003289,0.00001472,0.00000676,0.00002225,-0.00001955,
 -0.00007444,-0.00000329,0.00000827,0.00008653,-0.00001445,0.00001568,0
 .00000345,0.00000875,-0.00001634,-0.00001011,-0.00000527,0.00000244,0.
 00000037,0.00000499,0.00000218,0.00003537,0.00002307,-0.00007344,-0.00
 008040,0.00003254,0.00008831,0.00014053,0.00007349,-0.00009271,-0.0003
 7874,-0.00001521,0.00045984,0.00010541,-0.00050093,-0.00032166,0.00031
 237,0.00036937,0.00000143,0.00007141,0.00001399,0.00001236,-0.00006657
 ,-0.00494093,0.00040424,-0.00262324,0.00197909,-0.00055731,0.00137677,
 -0.00034971,-0.00002629,0.00000296,0.00049561,-0.00008214,-0.00001713,
 0.00003998,0.00029212,-0.00018594,-0.00000320,-0.00001255,-0.00003610,
 -0.00011585,-0.00078842,0.00148549,-0.01248368,0.01121793,-0.00928096,
 -0.32787989,-0.05552720,-0.06304595,-0.01581946,-0.00740794,0.00672896
 ,0.00049892,0.00028388,0.00061932,-0.00000372,0.00000164,0.00000314,-0
 .00000191,0.00000098,-0.00000135,0.00000624,-0.00000084,-0.00000226,0.
 00000278,-0.00000093,-0.00000104,0.00000343,-0.00000029,-0.00000289,0.
 00000431,0.00000163,0.00000057,0.00000831,-0.00000315,-0.00000299,0.00
 000601,-0.00000484,-0.00000260,0.00000914,-0.00008220,0.00000432,0.000
 03564,-0.00016200,0.00010271,0.00046557,0.00060635,-0.00144395,0.00003
 493,-0.00007449,0.00020074,0.00068696,0.00017830,-0.00038420,0.0006466
 9,0.00003975,-0.00051044,0.35669865,0.00000199,0.00001386,0.00000698,-
 0.00000263,-0.00001597,-0.00000356,-0.00000649,-0.00000181,-0.00001205
 ,-0.00000117,0.00000729,0.00001152,0.00000009,-0.00000248,-0.00000109,
 0.00001732,-0.00004530,-0.00001451,-0.00000529,0.00005612,0.00008869,-
 0.00001179,-0.00003832,-0.00011980,-0.00000630,-0.00001355,0.00001668,
 0.00000579,0.00000853,-0.00000826,-0.00000459,0.00000044,0.00000464,-0
 .00000375,0.00001768,-0.00000080,-0.00000603,0.00012575,-0.00001591,-0
 .00007474,-0.00008842,-0.00010968,-0.00000795,0.00033235,0.00029689,-0
 .00031737,-0.00072698,0.00016605,-0.00097743,-0.00001733,0.00130722,0.
 00048977,-0.00000314,-0.00048109,0.00014831,-0.00007860,0.00009430,-0.
 02540659,-0.00359306,-0.00900672,0.00100691,0.00332677,0.00098294,-0.0
 0040210,-0.00018679,0.00006991,-0.00016043,0.00014471,-0.00015938,-0.0
 0009804,-0.00023522,0.00018332,-0.00001852,0.00002805,0.00001411,0.004
 00219,0.00229503,-0.00376985,0.03659584,-0.00929790,0.01777664,-0.0556
 3440,-0.05217428,-0.01471645,-0.00851596,0.00090539,0.00417499,-0.0012
 0332,0.00077268,-0.00021803,-0.00000006,-0.00000205,-0.00000121,0.0000
 0461,0.00000753,-0.00000051,0.00000060,0.00000139,0.00000004,0.0000002
 8,-0.00000357,0.00000047,0.00000080,0.00000084,-0.00000035,0.00000223,
 -0.00000069,0.00000130,-0.00000259,0.00000544,-0.00000190,0.00000667,-
 0.00000024,0.00000331,0.00001589,0.00006635,0.00001310,-0.00009645,0.0
 0008361,-0.00007114,-0.00155478,0.00025045,-0.00030370,0.00001499,-0.0
 0015424,-0.00000632,0.00053362,0.00023803,-0.00037701,0.00005200,-0.00
 340086,-0.00289478,0.05161888,0.06139252,0.00000005,-0.00000329,-0.000
 02916,-0.00000952,0.00000303,0.00001600,0.00000433,-0.00000631,0.00002
 509,0.00000143,0.00001270,-0.00002765,-0.00000058,-0.00000081,0.000002
 99,-0.00001634,-0.00001149,-0.00000498,0.00001154,0.00000870,-0.000033
 21,-0.00000556,-0.00000905,0.00003208,-0.00000874,0.00001478,0.0000170
 2,0.00000309,-0.00001879,-0.00002145,-0.00000292,0.00000404,0.00000306
 ,0.00001086,0.00001337,0.00004452,0.00000967,-0.00002984,-0.00009637,0
 .00004718,0.00004801,0.00011578,0.00008715,0.00002755,-0.00033513,0.00
 006093,-0.00009398,-0.00011378,-0.00159195,0.00016048,0.00117643,0.000
 62000,-0.00001939,-0.00009234,0.00006663,0.00005889,0.00007335,-0.0252
 2743,-0.00570544,-0.00440807,0.00186399,0.00131222,0.00165146,0.000219
 48,-0.00032895,-0.00011574,0.00014021,-0.00000251,0.00007192,0.0000716
 7,0.00014746,-0.00009763,0.00000583,-0.00001342,-0.00000880,-0.0025087
 5,-0.00081687,0.00285797,-0.01396951,0.00848914,-0.00445602,-0.0702063
 5,-0.01786811,-0.06073263,0.03935767,0.01138265,-0.00910274,0.00217903
 ,-0.00044673,0.00324961,-0.00000277,0.00000113,0.00000389,0.00000133,0
 .00000483,-0.00000149,0.00000251,-0.00000073,-0.00000161,0.,-0.0000015
 1,-0.00000160,0.00000179,-0.00000003,-0.00000248,0.00000295,0.00000074
 ,0.00000062,0.00000337,-0.00000037,-0.00000297,0.00000427,-0.00000665,
 0.00000584,0.00001471,-0.00005637,0.00000044,0.00009551,-0.00008927,0.
 00003283,0.00100397,-0.00008178,-0.00006380,0.00015308,0.00001609,0.00
 014448,0.00063367,0.00011812,-0.00047018,-0.00000391,-0.00329325,-0.00
 285597,0.06687646,0.00708100,0.07355041\\-0.00409305,-0.01219496,0.001
 29338,0.01502414,0.01021425,0.00138810,0.02324857,-0.02544914,0.009990
 96,-0.00917064,0.01437000,0.01583745,-0.00633711,-0.00653556,-0.028523
 10,-0.01051776,-0.01718202,-0.00916905,0.01302857,0.01202197,0.0096603
 1,-0.00601303,0.00249716,0.02142622,-0.01358417,0.02068693,0.00853851,
 0.00709619,0.01021959,0.00755357,-0.00062606,-0.03568137,-0.00398621,0
 .00973877,0.00863349,-0.00233632,0.00066895,-0.00619754,0.00228292,-0.
 04778728,-0.00536856,-0.01132542,0.02113782,0.00548383,0.00478750,-0.0
 1887691,-0.00414909,-0.01219739,0.02396459,0.02527067,0.02904902,-0.00
 152871,0.00738092,0.00471702,-0.00699895,0.00294831,-0.02604526,-0.004
 33267,0.00829052,-0.01881340,-0.00409932,0.00690903,-0.01039013,-0.003
 87598,-0.01578166,0.03218311,-0.00407499,0.00143587,-0.00323006,0.0096
 9455,-0.02664958,-0.00586361,-0.01345261,0.02847841,0.00326239,-0.0005
 0996,0.00020986,-0.00119745,0.01114368,0.00138199,-0.01041382,0.015128
 77,0.00290970,0.00447693,0.00200157,-0.01269987,0.01885877,-0.00334852
 ,-0.00544085,-0.00122939,-0.00090196,0.00295397,0.00117874,0.00737043,
 0.00343065,-0.01725832,-0.02102207,0.00121198,-0.00571062,0.02158656,-
 0.00217360,0.00471783,-0.01763836,-0.00051103,0.00271258,0.02388846,0.
 00588805,0.00159005,-0.02218614,0.00252680,-0.00320298,0.01828230,0.00
 373045,-0.00359891,0.00349009,-0.00674519,-0.01563826,0.01836014,0.001
 59873,0.00716674,-0.02130906,-0.00508326,-0.00147039,0.01751980,0.0038
 2950,0.00165583,-0.01987002,-0.00288057,-0.00096685,0.01926341,0.00122
 016,0.00354013,-0.01948207,-0.00500893,-0.00530112\\\@


 IN THE FIGHT BETWEEN YOU AND THE WORLD, BACK THE WORLD

                                        -- FRANZ KAFKA
 Job cpu time:  1 days  8 hours  1 minutes 40.4 seconds.
 File lengths (MBytes):  RWF=   1769 Int=      0 D2E=      0 Chk=     28 Scr=      1
 Normal termination of Gaussian 09 at Sun Mar 27 16:15:06 2016.
Gaussian '09 finished on node027 at Sun Mar 27 16:15:06 EDT 2016.
