Gaussian '09 started on node018 at Mon Feb 29 14:22:25 EST 2016.
 Entering Gaussian System, Link 0=/usr/local/gaussian/g09/g09
 Initial command:
 /usr/local/gaussian/g09/l1.exe /home/srmcgrat/thesis/gaussian/cellobiose/300/10000/2/gdp/gaussian21257/Gau-21293.inp -scrdir=/home/srmcgrat/thesis/gaussian/cellobiose/300/10000/2/gdp/gaussian21257/
 Entering Link 1 = /usr/local/gaussian/g09/l1.exe PID=     21295.
  
 Copyright (c) 1988,1990,1992,1993,1995,1998,2003,2009,2010,
            Gaussian, Inc.  All Rights Reserved.
  
 This is part of the Gaussian(R) 09 program.  It is based on
 the Gaussian(R) 03 system (copyright 2003, Gaussian, Inc.),
 the Gaussian(R) 98 system (copyright 1998, Gaussian, Inc.),
 the Gaussian(R) 94 system (copyright 1995, Gaussian, Inc.),
 the Gaussian 92(TM) system (copyright 1992, Gaussian, Inc.),
 the Gaussian 90(TM) system (copyright 1990, Gaussian, Inc.),
 the Gaussian 88(TM) system (copyright 1988, Gaussian, Inc.),
 the Gaussian 86(TM) system (copyright 1986, Carnegie Mellon
 University), and the Gaussian 82(TM) system (copyright 1983,
 Carnegie Mellon University). Gaussian is a federally registered
 trademark of Gaussian, Inc.
  
 This software contains proprietary and confidential information,
 including trade secrets, belonging to Gaussian, Inc.
  
 This software is provided under written license and may be
 used, copied, transmitted, or stored only in accord with that
 written license.
  
 The following legend is applicable only to US Government
 contracts under FAR:
  
                    RESTRICTED RIGHTS LEGEND
  
 Use, reproduction and disclosure by the US Government is
 subject to restrictions as set forth in subparagraphs (a)
 and (c) of the Commercial Computer Software - Restricted
 Rights clause in FAR 52.227-19.
  
 Gaussian, Inc.
 340 Quinnipiac St., Bldg. 40, Wallingford CT 06492
  
  
 ---------------------------------------------------------------
 Warning -- This program may not be used in any manner that
 competes with the business of Gaussian, Inc. or will provide
 assistance to any competitor of Gaussian, Inc.  The licensee
 of this program is prohibited from giving any competitor of
 Gaussian, Inc. access to this program.  By using this program,
 the user acknowledges that Gaussian, Inc. is engaged in the
 business of creating and licensing software in the field of
 computational chemistry and represents and warrants to the
 licensee that it is not a competitor of Gaussian, Inc. and that
 it will not use this program in any manner prohibited above.
 ---------------------------------------------------------------
  

 Cite this work as:
 Gaussian 09, Revision B.01,
 M. J. Frisch, G. W. Trucks, H. B. Schlegel, G. E. Scuseria, 
 M. A. Robb, J. R. Cheeseman, G. Scalmani, V. Barone, B. Mennucci, 
 G. A. Petersson, H. Nakatsuji, M. Caricato, X. Li, H. P. Hratchian, 
 A. F. Izmaylov, J. Bloino, G. Zheng, J. L. Sonnenberg, M. Hada, 
 M. Ehara, K. Toyota, R. Fukuda, J. Hasegawa, M. Ishida, T. Nakajima, 
 Y. Honda, O. Kitao, H. Nakai, T. Vreven, J. A. Montgomery, Jr., 
 J. E. Peralta, F. Ogliaro, M. Bearpark, J. J. Heyd, E. Brothers, 
 K. N. Kudin, V. N. Staroverov, T. Keith, R. Kobayashi, J. Normand, 
 K. Raghavachari, A. Rendell, J. C. Burant, S. S. Iyengar, J. Tomasi, 
 M. Cossi, N. Rega, J. M. Millam, M. Klene, J. E. Knox, J. B. Cross, 
 V. Bakken, C. Adamo, J. Jaramillo, R. Gomperts, R. E. Stratmann, 
 O. Yazyev, A. J. Austin, R. Cammi, C. Pomelli, J. W. Ochterski, 
 R. L. Martin, K. Morokuma, V. G. Zakrzewski, G. A. Voth, 
 P. Salvador, J. J. Dannenberg, S. Dapprich, A. D. Daniels, 
 O. Farkas, J. B. Foresman, J. V. Ortiz, J. Cioslowski, 
 and D. J. Fox, Gaussian, Inc., Wallingford CT, 2010.
 
 ******************************************
 Gaussian 09:  EM64L-G09RevB.01 12-Aug-2010
                29-Feb-2016 
 ******************************************
 ------------------------------------------------
 # freq=raman b3lyp/6-31+g(d,p) geom=connectivity
 ------------------------------------------------
 1/10=4,30=1,38=1,57=2/1,3;
 2/12=2,17=6,18=5,40=1/2;
 3/5=1,6=6,7=111,11=2,16=1,25=1,30=1,71=2,74=-5/1,2,3;
 4//1;
 5/5=2,38=5,98=1/2;
 8/6=4,10=90,11=11/1;
 10/13=10,15=4/2;
 11/6=3,8=1,9=11,15=111,16=1/1,2,10;
 10/6=1/2;
 6/7=2,8=2,9=2,10=2,18=1,28=1/1;
 7/8=1,10=1,25=1/1,2,3,16;
 1/10=4,30=1/3;
 99//99;
 -------------
 300 10000.com
 -------------
 Symbolic Z-matrix:
 Charge =  0 Multiplicity = 1
 O                     7.263     7.619     22.794 
 C                     7.744     7.917     24.112 
 C                     7.497     9.339     24.586 
 O                     7.702     10.334    23.572 
 H                     7.343     9.931     22.73 
 C                     8.203     9.724     25.876 
 O                     8.094     11.041    26.434 
 H                     8.404     11.022    27.385 
 C                     7.568     5.496     24.939 
 O                     7.185     4.821     23.732 
 H                     7.604     3.913     23.745 
 C                     7.18      6.952     25.142 
 O                     7.738     7.352     26.402 
 C                     7.684     8.705     26.878 
 O                     8.566     8.676     28.009 
 C                     8.088     8.319     29.314 
 C                     8.54      6.973     29.859 
 O                     8.053     6.047     28.877 
 H                     8.004     6.43      27.954 
 C                     7.96      6.532     31.193 
 O                     8.597     5.394     31.792 
 H                     8.246     5.268     32.72 
 C                     8.041     10.751    30.071 
 O                     8.731     11.46     29.031 
 H                     8.472     12.426    29.002 
 C                     8.385     9.313     30.425 
 O                     7.644     9.005     31.614 
 C                     8.138     7.745     32.092 
 O                     7.341     7.718     33.285 
 H                     7.91593   7.7006    34.0536 
 H                     8.00837   7.48558   22.2039 
 H                     7.15832   4.94107   25.75699 
 H                     8.63405   5.43839   25.0106 
 H                     6.1142    7.0408    25.17486 
 H                     8.80423   7.77374   24.09526 
 H                     6.4524    9.37933   24.81422 
 H                     9.24575   9.53137   25.73295 
 H                     6.69007   8.95398   27.18623 
 H                     8.15787   11.32553   30.96607 
 H                     7.00155   10.76618   29.81758 
 H                     9.42905   9.26135   30.65345 
 H                     7.02232   8.26786   29.23269 
 H                     9.6087    6.93499   29.89561 
 H                     6.9159    6.33016   31.07458 
 H                     9.17027   7.84418   32.3556 
 

 GradGradGradGradGradGradGradGradGradGradGradGradGradGradGradGradGradGrad
 Berny optimization.
 Initialization pass.
 Trust Radius=3.00D-01 FncErr=1.00D-07 GrdErr=1.00D-07
 Number of steps in this run=      2 maximum allowed number of steps=      2.
 GradGradGradGradGradGradGradGradGradGradGradGradGradGradGradGradGradGrad

                          Input orientation:                          
 ---------------------------------------------------------------------
 Center     Atomic      Atomic             Coordinates (Angstroms)
 Number     Number       Type             X           Y           Z
 ---------------------------------------------------------------------
      1          8           0        7.263000    7.619000   22.794000
      2          6           0        7.744000    7.917000   24.112000
      3          6           0        7.497000    9.339000   24.586000
      4          8           0        7.702000   10.334000   23.572000
      5          1           0        7.343000    9.931000   22.730000
      6          6           0        8.203000    9.724000   25.876000
      7          8           0        8.094000   11.041000   26.434000
      8          1           0        8.404000   11.022000   27.385000
      9          6           0        7.568000    5.496000   24.939000
     10          8           0        7.185000    4.821000   23.732000
     11          1           0        7.604000    3.913000   23.745000
     12          6           0        7.180000    6.952000   25.142000
     13          8           0        7.738000    7.352000   26.402000
     14          6           0        7.684000    8.705000   26.878000
     15          8           0        8.566000    8.676000   28.009000
     16          6           0        8.088000    8.319000   29.314000
     17          6           0        8.540000    6.973000   29.859000
     18          8           0        8.053000    6.047000   28.877000
     19          1           0        8.004000    6.430000   27.954000
     20          6           0        7.960000    6.532000   31.193000
     21          8           0        8.597000    5.394000   31.792000
     22          1           0        8.246000    5.268000   32.720000
     23          6           0        8.041000   10.751000   30.071000
     24          8           0        8.731000   11.460000   29.031000
     25          1           0        8.472000   12.426000   29.002000
     26          6           0        8.385000    9.313000   30.425000
     27          8           0        7.644000    9.005000   31.614000
     28          6           0        8.138000    7.745000   32.092000
     29          8           0        7.341000    7.718000   33.285000
     30          1           0        7.915930    7.700605   34.053605
     31          1           0        8.008374    7.485579   22.203902
     32          1           0        7.158317    4.941068   25.756992
     33          1           0        8.634046    5.438390   25.010599
     34          1           0        6.114197    7.040797   25.174856
     35          1           0        8.804234    7.773736   24.095260
     36          1           0        6.452400    9.379328   24.814221
     37          1           0        9.245752    9.531373   25.732948
     38          1           0        6.690068    8.953981   27.186233
     39          1           0        8.157872   11.325528   30.966075
     40          1           0        7.001554   10.766181   29.817579
     41          1           0        9.429050    9.261350   30.653454
     42          1           0        7.022320    8.267857   29.232690
     43          1           0        9.608698    6.934994   29.895607
     44          1           0        6.915903    6.330164   31.074575
     45          1           0        9.170268    7.844178   32.355604
 ---------------------------------------------------------------------
                    Distance matrix (angstroms):
                    1          2          3          4          5
     1  O    0.000000
     2  C    1.434325   0.000000
     3  C    2.494879   1.519134   0.000000
     4  O    2.858186   2.476944   1.435356   0.000000
     5  H    2.314269   2.475262   1.954205   1.000127   0.000000
     6  C    3.848811   2.566637   1.520119   2.435471   3.267991
     7  O    5.064607   3.908140   2.582308   2.973980   3.938999
     8  H    5.827484   4.559512   3.389622   3.937654   4.897451
     9  C    3.033345   2.564400   3.859831   5.029204   4.959791
    10  O    2.952072   3.168927   4.608577   5.539500   5.209709
    11  H    3.841239   4.023221   5.491831   6.424078   6.108573
    12  C    2.442311   1.519941   2.471314   3.765011   3.836503
    13  O    3.648915   2.358678   2.702611   4.111267   4.504537
    14  C    4.246845   2.876682   2.385412   3.685594   4.338809
    15  O    5.478255   4.054426   3.646815   4.814813   5.562247
    16  C    6.609162   5.228838   4.872747   6.097523   6.819283
    17  C    7.208486   5.878160   5.872847   7.178087   7.810583
    18  O    6.332312   5.128119   5.436826   6.829685   7.305831
    19  H    5.346812   4.127921   4.479147   5.876593   6.323298
    20  C    8.497681   7.218410   7.193474   8.520646   9.140911
    21  O    9.364517   8.128686   8.288514   9.631875  10.211598
    22  H   10.247876   9.020359   9.126664  10.471208  11.061604
    23  C    7.960492   6.605259   5.689895   6.521182   7.419561
    24  O    7.470507   6.141952   5.077344   5.668104   6.630761
    25  H    7.944067   6.691275   5.475514   5.869775   6.843804
    26  C    7.896878   6.497204   5.906195   6.962222   7.789783
    27  O    8.936362   7.581144   7.037468   8.151280   8.937199
    28  C    9.339931   7.991572   7.700114   8.915347   9.646640
    29  O   10.491757   9.184005   8.850117  10.065592  10.784498
    30  H   11.278815   9.945446   9.617452  10.809467  11.555385
    31  H    0.960000   1.974046   3.061220   3.174754   2.588356
    32  H    3.995197   3.450390   4.563741   5.844099   5.839196
    33  H    3.398255   2.782655   4.085084   5.187029   5.201103
    34  H    2.706020   2.133929   2.746021   3.991923   3.980019
    35  H    2.023023   1.070000   2.097555   2.836137   2.941585
    36  H    2.799486   2.073584   1.070000   2.003999   2.332700
    37  H    4.028137   2.736591   2.100150   2.774360   3.577410
    38  H    4.626245   3.411307   2.749653   3.998892   4.608568
    39  H    9.017868   7.666009   6.714790   7.474175   8.392953
    40  H    7.700894   6.420490   5.445340   6.299576   7.144780
    41  H    8.316256   6.887474   6.368112   7.367515   8.220776
    42  H    6.475776   5.183183   4.792118   6.064183   6.719662
    43  H    7.510193   6.155611   6.199229   7.428106   8.090449
    44  H    8.387461   7.188967   7.175819   8.540333   9.098372
    45  H    9.752571   8.366394   8.087092   9.246984  10.017284
                    6          7          8          9         10
     6  C    0.000000
     7  O    1.434480   0.000000
     8  H    2.000571   1.000431   0.000000
     9  C    4.376891   5.767038   6.100696   0.000000
    10  O    5.447244   6.842184   7.299505   1.434978   0.000000
    11  H    6.218334   7.634082   8.026673   1.983134   1.000097
    12  C    3.044547   4.384584   4.805635   1.520424   2.555247
    13  O    2.473719   3.706276   3.857298   2.369389   3.720305
    14  C    1.520436   2.412909   2.478697   3.751114   5.023124
    15  O    2.404114   2.880388   2.432969   4.531369   5.921226
    16  C    3.715790   3.962792   3.335732   5.232624   6.649070
    17  C    4.852408   5.336494   4.746954   5.228070   6.633797
    18  O    4.748561   5.559673   5.205755   4.005830   5.359806
    19  H    3.899759   4.855906   4.644376   3.186327   4.591833
    20  C    6.206320   6.557219   5.904075   6.351337   7.693807
    21  O    7.341879   7.800627   7.150754   6.930574   8.202784
    22  H    8.166892   8.536066   7.848293   7.813810   9.061439
    23  C    4.321921   3.648928   2.723932   7.360447   8.722417
    24  O    3.639575   2.706610   1.734384   7.325731   8.633993
    25  H    4.140657   2.942063   2.142552   8.083940   9.341589
    26  C    4.571154   4.358755   3.487498   6.732991   8.149498
    27  O    5.809827   5.583923   4.746612   7.541517   8.935461
    28  C    6.523751   6.548169   5.741545   7.519861   8.907726
    29  O    7.724012   7.651506   6.845172   8.639707   9.983825
    30  H    8.429102   8.321558   7.465934   9.383888  10.740666
    31  H    4.304964   5.526489   6.285426   3.410735   3.180096
    32  H    4.897138   6.208302   6.417154   1.070000   2.028724
    33  H    4.393310   5.805769   6.071853   1.070000   2.028724
    34  H    3.471927   4.637530   5.096853   2.134378   2.855863
    35  H    2.708514   4.080337   4.640452   2.725482   3.387112
    36  H    2.076240   2.842479   3.621604   4.042323   4.741968
    37  H    1.070000   2.024099   2.379031   4.441784   5.517074
    38  H    2.144435   2.625362   2.693283   4.216451   5.409087
    39  H    5.336271   4.541447   3.602333   8.405770   9.776871
    40  H    4.250371   3.566170   2.819528   7.203902   8.509589
    41  H    4.953919   4.770043   3.851417   7.091992   8.524025
    42  H    3.844701   4.083073   3.592812   5.139721   6.493449
    43  H    5.090362   5.579993   4.945510   5.550055   6.952218
    44  H    6.340341   6.716757   6.151481   6.226262   7.500893
    45  H    6.815761   6.814940   5.949170   7.942746   9.351334
                   11         12         13         14         15
    11  H    0.000000
    12  C    3.371484   0.000000
    13  O    4.347911   1.434909   0.000000
    14  C    5.725850   2.518079   1.435305   0.000000
    15  O    6.464774   3.621168   2.240761   1.434547   0.000000
    16  C    7.117644   4.483161   3.088257   2.499261   1.434907
    17  C    6.900775   4.909188   3.568991   3.552312   2.514634
    18  O    5.576108   3.940987   2.815648   3.346211   2.815712
    19  H    4.920464   2.976374   1.824704   2.536888   2.315898
    20  C    7.903075   6.115505   4.865734   4.839146   3.886107
    21  O    8.242185   6.975511   5.798599   5.995305   5.008350
    22  H    9.099385   7.835706   6.672199   6.801307   5.823262
    23  C    9.325636   6.282417   5.010646   3.809044   2.972052
    24  O    9.282733   6.152397   4.977284   3.649883   2.970247
    25  H   10.042940   6.821550   5.748411   4.356393   3.880385
    26  C    8.625101   5.910705   4.522019   3.666371   2.505112
    27  O    9.372898   6.805651   5.468655   4.745661   3.735552
    28  C    9.200097   7.060390   5.717565   5.321044   4.209612
    29  O   10.274181   8.180533   6.904148   6.491646   5.500415
    30  H   10.986837   8.973221   7.661608   7.249269   6.157210
    31  H    3.911754   3.098924   4.208916   4.841426   5.952077
    32  H    2.302970   2.102982   2.562159   3.962346   4.582884
    33  H    2.233730   2.102982   2.529980   3.880788   4.413293
    34  H    3.747948   1.070000   2.058996   2.852113   4.088716
    35  H    4.058143   2.099774   2.575998   3.140990   4.023456
    36  H    5.687720   2.555144   2.878171   2.496145   3.894687
    37  H    6.181699   3.357040   2.733242   2.105494   2.524706
    38  H    6.171616   2.902904   2.068702   1.070000   2.067206
    39  H   10.363217   7.348729   6.065970   4.878942   3.991348
    40  H    9.176342   6.036626   4.885198   3.654494   3.176052
    41  H    8.925379   6.384939   4.957835   4.196282   2.842645
    42  H    7.029785   4.300010   3.060032   2.484649   2.011702
    43  H    7.140114   5.338131   3.984808   3.992911   2.770850
    44  H    7.748473   5.970919   4.853138   4.882731   4.198037
    45  H    9.594262   7.536128   6.143210   5.740571   4.466546
                   16         17         18         19         20
    16  C    0.000000
    17  C    1.520870   0.000000
    18  O    2.313910   1.434911   0.000000
    19  H    2.329158   2.052114   1.000509   0.000000
    20  C    2.596227   1.520012   2.368065   3.240904   0.000000
    21  O    3.867194   2.496593   3.036374   4.019352   1.435136
    22  H    4.575413   3.343469   3.925906   4.911574   2.002803
    23  C    2.547525   3.816704   4.853184   4.811871   4.366395
    24  O    3.218605   4.566753   5.457469   5.195128   5.436347
    25  H    4.136695   5.520352   6.393968   6.104862   6.308872
    26  C    1.520055   2.412464   3.629502   3.816109   2.916232
    27  O    2.440847   2.830524   4.050705   4.489524   2.528404
    28  C    2.837122   2.396639   3.636847   4.343987   1.520281
    29  O    4.085101   3.705415   4.767562   5.524317   2.483188
    30  H    4.782873   4.302741   5.436031   6.231161   3.090411
    31  H    7.159220   7.690637   6.826547   5.846186   9.039665
    32  H    4.992699   4.781659   3.428993   2.785488   5.720484
    33  H    5.207239   5.086341   3.956903   3.169205   6.314460
    34  H    4.760484   5.275445   4.295632   3.415855   6.315371
    35  H    5.295805   5.825092   5.139164   4.163638   7.254830
    36  H    4.903824   5.966430   5.492950   4.578669   7.146255
    37  H    3.954007   4.905881   4.842373   4.011675   6.360941
    38  H    2.623891   3.806602   3.628611   2.947264   4.851072
    39  H    3.431245   4.507342   5.677859   5.749997   4.802974
    40  H    2.724454   4.093501   4.925535   4.824965   4.553975
    41  H    2.116737   2.580332   3.921906   4.163456   3.146199
    42  H    1.070000   2.090998   2.474070   2.444681   2.781233
    43  H    2.136882   1.070000   2.060653   2.569030   2.136314
    44  H    2.903258   2.128039   2.490483   3.306344   1.070000
    45  H    3.263145   2.718312   4.071710   4.768039   2.130307
                   21         22         23         24         25
    21  O    0.000000
    22  H    1.000130   0.000000
    23  C    5.654063   6.092825   0.000000
    24  O    6.666141   7.223905   1.435403   0.000000
    25  H    7.566290   8.069174   2.033260   1.000539   0.000000
    26  C    4.155983   4.652781   1.520360   2.583130   3.423926
    27  O    3.738879   3.943451   2.363678   3.725652   4.383078
    28  C    2.414101   2.557651   3.623518   4.850010   5.618845
    29  O    3.034396   2.672218   4.474247   5.833625   6.464404
    30  H    3.301384   2.793746   5.018136   6.326448   6.939545
    31  H    9.831216  10.749997   8.517938   7.932685   8.416463
    32  H    6.220633   7.055028   7.290069   7.462502   8.263174
    33  H    6.781648   7.721041   7.360923   7.241050   8.048865
    34  H    7.256917   8.038444   6.438198   6.422371   7.014747
    35  H    8.058902   8.998694   6.719829   6.160798   6.769789
    36  H    8.316943   9.089629   5.660288   5.225173   5.558640
    37  H    7.365518   8.245893   4.664505   3.855090   4.434440
    38  H    6.125597   6.828613   3.657345   3.721384   4.304324
    39  H    6.004832   6.306953   1.070000   2.022640   2.273171
    40  H    5.941726   6.340559   1.070000   2.022640   2.362706
    41  H    4.116429   4.649415   2.117780   2.820229   3.695708
    42  H    4.157973   4.760028   2.811844   3.626298   4.409641
    43  H    2.644711   3.551480   4.129206   4.689732   5.678183
    44  H    2.053579   2.367440   4.670846   5.812572   6.623913
    45  H    2.578693   2.761114   3.865782   4.931543   5.720780
                   26         27         28         29         30
    26  C    0.000000
    27  O    1.434457   0.000000
    28  C    2.301852   1.435312   0.000000
    29  O    3.437086   2.130826   1.434987   0.000000
    30  H    3.998327   2.779759   1.974634   0.960000   0.000000
    31  H    8.430170   9.538939   9.892350  11.103610  11.852014
    32  H    6.512207   7.145346   6.996723   8.025935   8.776263
    33  H    6.662609   7.570060   7.464098   8.679534   9.349292
    34  H    6.154954   6.903692   7.241447   8.230315   9.083708
    35  H    6.527687   7.706725   8.024497   9.305670   9.998153
    36  H    5.934659   6.913539   7.647113   8.677771   9.504012
    37  H    4.775346   6.117961   6.697446   7.996868   8.622846
    38  H    3.673050   4.529648   5.255919   6.256702   7.087628
    39  H    2.096334   2.463477   3.753436   4.365656   4.767750
    40  H    2.096334   2.596464   3.948675   4.629216   5.308272
    41  H    1.070000   2.043225   2.456734   3.696879   4.035651
    42  H    2.090651   2.569144   3.113483   4.101843   4.935740
    43  H    2.726281   3.331342   2.764634   4.152534   4.554181
    44  H    3.387847   2.824155   2.128482   2.644385   3.428232
    45  H    2.549767   2.055961   1.070000   2.055704   2.115935
                   31         32         33         34         35
    31  H    0.000000
    32  H    4.452143   0.000000
    33  H    3.529872   1.726907   0.000000
    34  H    3.551381   2.416181   2.990707   0.000000
    35  H    2.072115   3.673473   2.514090   2.989820   0.000000
    36  H    3.580658   4.591872   4.508784   2.390223   2.936997
    37  H    4.262692   5.042704   4.201010   4.039934   2.442591
    38  H    5.358896   4.285494   4.568568   2.835055   3.926422
    39  H    9.567823   8.300300   8.387659   7.488240   7.761515
    40  H    8.351294   7.102456   7.359174   6.018369   6.704425
    41  H    8.750236   6.913494   6.862133   6.777473   6.753763
    42  H    7.140597   4.813159   5.331941   4.335479   5.460088
    43  H    7.875692   5.206558   5.201257   5.874370   5.915631
    44  H    9.012066   5.501367   6.365460   5.996200   7.372960
    45  H   10.224268   7.484495   7.747545   7.845261   8.268750
                   36         37         38         39         40
    36  H    0.000000
    37  H    2.944485   0.000000
    38  H    2.421538   2.996154   0.000000
    39  H    6.673951   5.638093   4.697434   0.000000
    40  H    5.220969   4.821346   3.210151   1.723073   0.000000
    41  H    6.555227   4.931318   4.429235   2.444270   2.975893
    42  H    4.591628   4.334549   2.183837   3.693704   2.565959
    43  H    6.462002   4.919416   4.464910   4.746324   4.634790
    44  H    6.978845   6.648979   4.696235   5.148584   4.611466
    45  H    8.161859   6.834610   5.839987   3.882722   4.436551
                   41         42         43         44         45
    41  H    0.000000
    42  H    2.966133   0.000000
    43  H    2.453271   2.984181   0.000000
    44  H    3.883954   2.675541   3.001154   0.000000
    45  H    2.229946   3.813892   2.659026   3.002571   0.000000
 Stoichiometry    C12H22O11
 Framework group  C1[X(C12H22O11)]
 Deg. of freedom   129
 Full point group                 C1      NOp   1
 Largest Abelian subgroup         C1      NOp   1
 Largest concise Abelian subgroup C1      NOp   1
                         Standard orientation:                         
 ---------------------------------------------------------------------
 Center     Atomic      Atomic             Coordinates (Angstroms)
 Number     Number       Type             X           Y           Z
 ---------------------------------------------------------------------
      1          8           0       -5.062294   -0.479983    0.255672
      2          6           0       -3.710307   -0.169479   -0.109032
      3          6           0       -3.239908    1.223856    0.271903
      4          8           0       -4.226065    2.246692    0.068069
      5          1           0       -5.095728    1.832605    0.337275
      6          6           0       -1.898914    1.637486   -0.312396
      7          8           0       -1.336038    2.934537   -0.070394
      8          1           0       -0.365653    2.922552   -0.313439
      9          6           0       -2.923844   -2.609573   -0.049374
     10          8           0       -4.162176   -3.290901    0.198597
     11          1           0       -4.129108   -4.167083   -0.282450
     12          6           0       -2.733409   -1.188038    0.455264
     13          8           0       -1.432705   -0.769443    0.017187
     14          6           0       -0.947319    0.568693    0.201291
     15          8           0        0.243182    0.584361   -0.598951
     16          6           0        1.506983    0.173961   -0.057346
     17          6           0        2.068340   -1.145105   -0.565273
     18          8           0        1.044344   -2.087668   -0.216022
     19          1           0        0.124343   -1.694620   -0.204608
     20          6           0        3.352912   -1.646955    0.073833
     21          8           0        3.983511   -2.746331   -0.599465
     22          1           0        4.882792   -2.911425   -0.194127
     23          6           0        2.284671    2.584335    0.216845
     24          8           0        1.304026    3.356636   -0.491863
     25          1           0        1.267001    4.302234   -0.166976
     26          6           0        2.646856    1.168877   -0.203628
     27          8           0        3.776773    0.790571    0.595020
     28          6           0        4.275209   -0.438696    0.046765
     29          8           0        5.408135   -0.540765    0.921549
     30          1           0        6.215460   -0.529540    0.402223
     31          1           0       -5.599267   -0.551050   -0.536925
     32          1           0       -2.143044   -3.204892    0.375889
     33          1           0       -2.777212   -2.592756   -1.109146
     34          1           0       -2.775505   -1.175375    1.524360
     35          1           0       -3.653115   -0.237112   -1.175360
     36          1           0       -3.086155    1.186603    1.330143
     37          1           0       -1.969477    1.521371   -1.373734
     38          1           0       -0.707927    0.741870    1.229688
     39          1           0        3.191881    3.151538    0.204565
     40          1           0        1.958127    2.529942    1.234347
     41          1           0        2.948435    1.187615   -1.230077
     42          1           0        1.349530    0.048856    0.993586
     43          1           0        2.180468   -1.107998   -1.628735
     44          1           0        3.158365   -1.920247    1.089886
     45          1           0        4.612621   -0.270913   -0.954685
 ---------------------------------------------------------------------
 Rotational constants (GHZ):      0.3981253      0.1459658      0.1099421
 Standard basis: 6-31+G(d,p) (6D, 7F)
 There are   547 symmetry adapted basis functions of A   symmetry.
 Integral buffers will be    131072 words long.
 Raffenetti 2 integral format.
 Two-electron integral symmetry is turned on.
   547 basis functions,   890 primitive gaussians,   547 cartesian basis functions
    91 alpha electrons       91 beta electrons
       nuclear repulsion energy      2282.7405549768 Hartrees.
 NAtoms=   45 NActive=   45 NUniq=   45 SFac= 1.00D+00 NAtFMM=   50 NAOKFM=F Big=F
 One-electron integrals computed using PRISM.
 NBasis=   547 RedAO= T  NBF=   547
 NBsUse=   547 1.00D-06 NBFU=   547
 Harris functional with IExCor=  402 diagonalized for initial guess.
 ExpMin= 4.38D-02 ExpMax= 5.48D+03 ExpMxC= 8.25D+02 IAcc=2 IRadAn=         0 AccDes= 0.00D+00
 HarFok:  IExCor=  402 AccDes= 0.00D+00 IRadAn=         0 IDoV= 1
 ScaDFX=  1.000000  1.000000  1.000000  1.000000
 FoFCou: FMM=F IPFlag=           0 FMFlag=      100000 FMFlg1=           0
         NFxFlg=           0 DoJE=T BraDBF=F KetDBF=T FulRan=T
         Omega=  0.000000  0.000000  1.000000  0.000000  0.000000 ICntrl=     500 IOpCl=  0
         NMat0=    1 NMatS0=    1 NMatT0=    0 NMatD0=    1 NMtDS0=    0 NMtDT0=    0
         I1Cent=           4 NGrid=           0.
 Petite list used in FoFCou.
 Initial guess orbital symmetries:
       Occupied  (A) (A) (A) (A) (A) (A) (A) (A) (A) (A) (A) (A)
                 (A) (A) (A) (A) (A) (A) (A) (A) (A) (A) (A) (A)
                 (A) (A) (A) (A) (A) (A) (A) (A) (A) (A) (A) (A)
                 (A) (A) (A) (A) (A) (A) (A) (A) (A) (A) (A) (A)
                 (A) (A) (A) (A) (A) (A) (A) (A) (A) (A) (A) (A)
                 (A) (A) (A) (A) (A) (A) (A) (A) (A) (A) (A) (A)
                 (A) (A) (A) (A) (A) (A) (A) (A) (A) (A) (A) (A)
                 (A) (A) (A) (A) (A) (A) (A)
       Virtual   (A) (A) (A) (A) (A) (A) (A) (A) (A) (A) (A) (A)
                 (A) (A) (A) (A) (A) (A) (A) (A) (A) (A) (A) (A)
                 (A) (A) (A) (A) (A) (A) (A) (A) (A) (A) (A) (A)
                 (A) (A) (A) (A) (A) (A) (A) (A) (A) (A) (A) (A)
                 (A) (A) (A) (A) (A) (A) (A) (A) (A) (A) (A) (A)
                 (A) (A) (A) (A) (A) (A) (A) (A) (A) (A) (A) (A)
                 (A) (A) (A) (A) (A) (A) (A) (A) (A) (A) (A) (A)
                 (A) (A) (A) (A) (A) (A) (A) (A) (A) (A) (A) (A)
                 (A) (A) (A) (A) (A) (A) (A) (A) (A) (A) (A) (A)
                 (A) (A) (A) (A) (A) (A) (A) (A) (A) (A) (A) (A)
                 (A) (A) (A) (A) (A) (A) (A) (A) (A) (A) (A) (A)
                 (A) (A) (A) (A) (A) (A) (A) (A) (A) (A) (A) (A)
                 (A) (A) (A) (A) (A) (A) (A) (A) (A) (A) (A) (A)
                 (A) (A) (A) (A) (A) (A) (A) (A) (A) (A) (A) (A)
                 (A) (A) (A) (A) (A) (A) (A) (A) (A) (A) (A) (A)
                 (A) (A) (A) (A) (A) (A) (A) (A) (A) (A) (A) (A)
                 (A) (A) (A) (A) (A) (A) (A) (A) (A) (A) (A) (A)
                 (A) (A) (A) (A) (A) (A) (A) (A) (A) (A) (A) (A)
                 (A) (A) (A) (A) (A) (A) (A) (A) (A) (A) (A) (A)
                 (A) (A) (A) (A) (A) (A) (A) (A) (A) (A) (A) (A)
                 (A) (A) (A) (A) (A) (A) (A) (A) (A) (A) (A) (A)
                 (A) (A) (A) (A) (A) (A) (A) (A) (A) (A) (A) (A)
                 (A) (A) (A) (A) (A) (A) (A) (A) (A) (A) (A) (A)
                 (A) (A) (A) (A) (A) (A) (A) (A) (A) (A) (A) (A)
                 (A) (A) (A) (A) (A) (A) (A) (A) (A) (A) (A) (A)
                 (A) (A) (A) (A) (A) (A) (A) (A) (A) (A) (A) (A)
                 (A) (A) (A) (A) (A) (A) (A) (A) (A) (A) (A) (A)
                 (A) (A) (A) (A) (A) (A) (A) (A) (A) (A) (A) (A)
                 (A) (A) (A) (A) (A) (A) (A) (A) (A) (A) (A) (A)
                 (A) (A) (A) (A) (A) (A) (A) (A) (A) (A) (A) (A)
                 (A) (A) (A) (A) (A) (A) (A) (A) (A) (A) (A) (A)
                 (A) (A) (A) (A) (A) (A) (A) (A) (A) (A) (A) (A)
                 (A) (A) (A) (A) (A) (A) (A) (A) (A) (A) (A) (A)
                 (A) (A) (A) (A) (A) (A) (A) (A) (A) (A) (A) (A)
                 (A) (A) (A) (A) (A) (A) (A) (A) (A) (A) (A) (A)
                 (A) (A) (A) (A) (A) (A) (A) (A) (A) (A) (A) (A)
                 (A) (A) (A) (A) (A) (A) (A) (A) (A) (A) (A) (A)
                 (A) (A) (A) (A) (A) (A) (A) (A) (A) (A) (A) (A)
 The electronic state of the initial guess is 1-A.
 Requested convergence on RMS density matrix=1.00D-08 within 128 cycles.
 Requested convergence on MAX density matrix=1.00D-06.
 Requested convergence on             energy=1.00D-06.
 No special actions if energy rises.
 SCF Done:  E(RB3LYP) =  -1297.92073603     A.U. after   14 cycles
             Convg  =    0.2397D-08             -V/T =  2.0087
 Range of M.O.s used for correlation:     1   547
 NBasis=   547 NAE=    91 NBE=    91 NFC=     0 NFV=     0
 NROrb=    547 NOA=    91 NOB=    91 NVA=   456 NVB=   456

 **** Warning!!: The largest alpha MO coefficient is  0.82411634D+02

          Differentiating once with respect to electric field.
                with respect to dipole field.
          Electric field/nuclear overlap derivatives assumed to be zero.
          There are     3 degrees of freedom in the 1st order CPHF.  IDoFFX=0.
      3 vectors produced by pass  0 Test12= 1.38D-12 3.33D-08 XBig12= 1.22D+02 1.27D+00.
 AX will form     3 AO Fock derivatives at one time.
      3 vectors produced by pass  1 Test12= 1.38D-12 3.33D-08 XBig12= 2.13D+01 3.78D-01.
      3 vectors produced by pass  2 Test12= 1.38D-12 3.33D-08 XBig12= 9.57D+00 2.34D-01.
      3 vectors produced by pass  3 Test12= 1.38D-12 3.33D-08 XBig12= 8.90D-01 7.68D-02.
      3 vectors produced by pass  4 Test12= 1.38D-12 3.33D-08 XBig12= 2.71D-01 4.42D-02.
      3 vectors produced by pass  5 Test12= 1.38D-12 3.33D-08 XBig12= 4.72D-02 1.53D-02.
      3 vectors produced by pass  6 Test12= 1.38D-12 3.33D-08 XBig12= 1.59D-02 1.16D-02.
      3 vectors produced by pass  7 Test12= 1.38D-12 3.33D-08 XBig12= 2.09D-03 5.87D-03.
      3 vectors produced by pass  8 Test12= 1.38D-12 3.33D-08 XBig12= 4.34D-04 2.76D-03.
      3 vectors produced by pass  9 Test12= 1.38D-12 3.33D-08 XBig12= 1.05D-04 1.26D-03.
      3 vectors produced by pass 10 Test12= 1.38D-12 3.33D-08 XBig12= 2.38D-05 4.50D-04.
      3 vectors produced by pass 11 Test12= 1.38D-12 3.33D-08 XBig12= 6.48D-06 2.84D-04.
      3 vectors produced by pass 12 Test12= 1.38D-12 3.33D-08 XBig12= 8.85D-07 1.05D-04.
      3 vectors produced by pass 13 Test12= 1.38D-12 3.33D-08 XBig12= 2.11D-07 4.57D-05.
      3 vectors produced by pass 14 Test12= 1.38D-12 3.33D-08 XBig12= 2.40D-08 1.47D-05.
      3 vectors produced by pass 15 Test12= 1.38D-12 3.33D-08 XBig12= 5.55D-09 8.68D-06.
      3 vectors produced by pass 16 Test12= 1.38D-12 3.33D-08 XBig12= 6.98D-10 3.06D-06.
      3 vectors produced by pass 17 Test12= 1.38D-12 3.33D-08 XBig12= 1.73D-10 1.14D-06.
      3 vectors produced by pass 18 Test12= 1.38D-12 3.33D-08 XBig12= 3.05D-11 3.23D-07.
      3 vectors produced by pass 19 Test12= 1.38D-12 3.33D-08 XBig12= 1.01D-11 3.23D-07.
      3 vectors produced by pass 20 Test12= 1.38D-12 3.33D-08 XBig12= 1.99D-12 9.72D-08.
      2 vectors produced by pass 21 Test12= 1.38D-12 3.33D-08 XBig12= 3.65D-13 4.86D-08.
 Inverted reduced A of dimension    65 with in-core refinement.
 End of Minotr Frequency-dependent properties file   721 does not exist.
 End of Minotr Frequency-dependent properties file   722 does not exist.
 Symmetrizing basis deriv contribution to polar:
 IMax=3 JMax=2 DiffMx= 0.00D+00
 G2DrvN: will do    23 centers at a time, making    2 passes doing MaxLOS=2.
 Calling FoFCou, ICntrl=  3107 FMM=F I1Cent=   0 AccDes= 0.00D+00.
 Calling FoFCou, ICntrl=  3107 FMM=F I1Cent=   0 AccDes= 0.00D+00.
 FoFDir/FoFCou used for L=0 through L=2.
 End of G2Drv Frequency-dependent properties file   721 does not exist.
 End of G2Drv Frequency-dependent properties file   722 does not exist.
          IDoAtm=111111111111111111111111111111111111111111111
          Differentiating once with respect to electric field.
                with respect to dipole field.
          Differentiating once with respect to nuclear coordinates.
          There are   138 degrees of freedom in the 1st order CPHF.  IDoFFX=5.
 Will reuse    3 saved solutions.
    135 vectors produced by pass  0 Test12= 4.15D-14 1.00D-09 XBig12= 2.18D-01 7.77D-02.
 AX will form    68 AO Fock derivatives at one time.
    135 vectors produced by pass  1 Test12= 4.15D-14 1.00D-09 XBig12= 3.88D-02 1.36D-02.
    132 vectors produced by pass  2 Test12= 4.15D-14 1.00D-09 XBig12= 2.05D-04 1.82D-03.
    132 vectors produced by pass  3 Test12= 4.15D-14 1.00D-09 XBig12= 7.72D-07 8.49D-05.
    132 vectors produced by pass  4 Test12= 4.15D-14 1.00D-09 XBig12= 1.62D-09 3.09D-06.
    132 vectors produced by pass  5 Test12= 4.15D-14 1.00D-09 XBig12= 3.72D-12 1.02D-07.
     76 vectors produced by pass  6 Test12= 4.15D-14 1.00D-09 XBig12= 1.49D-13 2.19D-08.
 Inverted reduced A of dimension   874 with in-core refinement.
 Isotropic polarizability for W=    0.000000      188.52 Bohr**3.
 End of Minotr Frequency-dependent properties file   721 does not exist.
 End of Minotr Frequency-dependent properties file   722 does not exist.

 **********************************************************************

            Population analysis using the SCF density.

 **********************************************************************

 Orbital symmetries:
       Occupied  (A) (A) (A) (A) (A) (A) (A) (A) (A) (A) (A) (A)
                 (A) (A) (A) (A) (A) (A) (A) (A) (A) (A) (A) (A)
                 (A) (A) (A) (A) (A) (A) (A) (A) (A) (A) (A) (A)
                 (A) (A) (A) (A) (A) (A) (A) (A) (A) (A) (A) (A)
                 (A) (A) (A) (A) (A) (A) (A) (A) (A) (A) (A) (A)
                 (A) (A) (A) (A) (A) (A) (A) (A) (A) (A) (A) (A)
                 (A) (A) (A) (A) (A) (A) (A) (A) (A) (A) (A) (A)
                 (A) (A) (A) (A) (A) (A) (A)
       Virtual   (A) (A) (A) (A) (A) (A) (A) (A) (A) (A) (A) (A)
                 (A) (A) (A) (A) (A) (A) (A) (A) (A) (A) (A) (A)
                 (A) (A) (A) (A) (A) (A) (A) (A) (A) (A) (A) (A)
                 (A) (A) (A) (A) (A) (A) (A) (A) (A) (A) (A) (A)
                 (A) (A) (A) (A) (A) (A) (A) (A) (A) (A) (A) (A)
                 (A) (A) (A) (A) (A) (A) (A) (A) (A) (A) (A) (A)
                 (A) (A) (A) (A) (A) (A) (A) (A) (A) (A) (A) (A)
                 (A) (A) (A) (A) (A) (A) (A) (A) (A) (A) (A) (A)
                 (A) (A) (A) (A) (A) (A) (A) (A) (A) (A) (A) (A)
                 (A) (A) (A) (A) (A) (A) (A) (A) (A) (A) (A) (A)
                 (A) (A) (A) (A) (A) (A) (A) (A) (A) (A) (A) (A)
                 (A) (A) (A) (A) (A) (A) (A) (A) (A) (A) (A) (A)
                 (A) (A) (A) (A) (A) (A) (A) (A) (A) (A) (A) (A)
                 (A) (A) (A) (A) (A) (A) (A) (A) (A) (A) (A) (A)
                 (A) (A) (A) (A) (A) (A) (A) (A) (A) (A) (A) (A)
                 (A) (A) (A) (A) (A) (A) (A) (A) (A) (A) (A) (A)
                 (A) (A) (A) (A) (A) (A) (A) (A) (A) (A) (A) (A)
                 (A) (A) (A) (A) (A) (A) (A) (A) (A) (A) (A) (A)
                 (A) (A) (A) (A) (A) (A) (A) (A) (A) (A) (A) (A)
                 (A) (A) (A) (A) (A) (A) (A) (A) (A) (A) (A) (A)
                 (A) (A) (A) (A) (A) (A) (A) (A) (A) (A) (A) (A)
                 (A) (A) (A) (A) (A) (A) (A) (A) (A) (A) (A) (A)
                 (A) (A) (A) (A) (A) (A) (A) (A) (A) (A) (A) (A)
                 (A) (A) (A) (A) (A) (A) (A) (A) (A) (A) (A) (A)
                 (A) (A) (A) (A) (A) (A) (A) (A) (A) (A) (A) (A)
                 (A) (A) (A) (A) (A) (A) (A) (A) (A) (A) (A) (A)
                 (A) (A) (A) (A) (A) (A) (A) (A) (A) (A) (A) (A)
                 (A) (A) (A) (A) (A) (A) (A) (A) (A) (A) (A) (A)
                 (A) (A) (A) (A) (A) (A) (A) (A) (A) (A) (A) (A)
                 (A) (A) (A) (A) (A) (A) (A) (A) (A) (A) (A) (A)
                 (A) (A) (A) (A) (A) (A) (A) (A) (A) (A) (A) (A)
                 (A) (A) (A) (A) (A) (A) (A) (A) (A) (A) (A) (A)
                 (A) (A) (A) (A) (A) (A) (A) (A) (A) (A) (A) (A)
                 (A) (A) (A) (A) (A) (A) (A) (A) (A) (A) (A) (A)
                 (A) (A) (A) (A) (A) (A) (A) (A) (A) (A) (A) (A)
                 (A) (A) (A) (A) (A) (A) (A) (A) (A) (A) (A) (A)
                 (A) (A) (A) (A) (A) (A) (A) (A) (A) (A) (A) (A)
                 (A) (A) (A) (A) (A) (A) (A) (A) (A) (A) (A) (A)
 The electronic state is 1-A.
 Alpha  occ. eigenvalues --  -19.19725 -19.19594 -19.19472 -19.19393 -19.18386
 Alpha  occ. eigenvalues --  -19.18347 -19.18090 -19.17242 -19.16200 -19.14753
 Alpha  occ. eigenvalues --  -19.13777 -10.31909 -10.31047 -10.26837 -10.26337
 Alpha  occ. eigenvalues --  -10.26304 -10.26157 -10.26003 -10.25502 -10.25248
 Alpha  occ. eigenvalues --  -10.25169 -10.25127 -10.24791  -1.10520  -1.09942
 Alpha  occ. eigenvalues --   -1.05835  -1.05312  -1.04298  -1.03982  -1.02926
 Alpha  occ. eigenvalues --   -1.02643  -1.02228  -1.00725  -1.00228  -0.82705
 Alpha  occ. eigenvalues --   -0.81052  -0.79762  -0.79362  -0.72563  -0.70507
 Alpha  occ. eigenvalues --   -0.67696  -0.65329  -0.63344  -0.63063  -0.62032
 Alpha  occ. eigenvalues --   -0.60810  -0.56836  -0.56418  -0.55751  -0.54927
 Alpha  occ. eigenvalues --   -0.54179  -0.53832  -0.53106  -0.52070  -0.51429
 Alpha  occ. eigenvalues --   -0.51049  -0.50634  -0.50148  -0.49295  -0.46803
 Alpha  occ. eigenvalues --   -0.46454  -0.45717  -0.44734  -0.44196  -0.43513
 Alpha  occ. eigenvalues --   -0.42818  -0.42201  -0.41992  -0.40613  -0.40037
 Alpha  occ. eigenvalues --   -0.38818  -0.38061  -0.36892  -0.36387  -0.35921
 Alpha  occ. eigenvalues --   -0.35705  -0.34898  -0.34482  -0.33753  -0.33397
 Alpha  occ. eigenvalues --   -0.32441  -0.31863  -0.31554  -0.30854  -0.30041
 Alpha  occ. eigenvalues --   -0.29860  -0.29247  -0.28713  -0.27432  -0.27191
 Alpha  occ. eigenvalues --   -0.26145
 Alpha virt. eigenvalues --   -0.02264  -0.02184  -0.01835  -0.00406   0.00046
 Alpha virt. eigenvalues --    0.00652   0.01833   0.02059   0.03202   0.03372
 Alpha virt. eigenvalues --    0.03868   0.04104   0.04380   0.04942   0.05695
 Alpha virt. eigenvalues --    0.05994   0.06464   0.06830   0.07757   0.08064
 Alpha virt. eigenvalues --    0.08386   0.08793   0.08931   0.09485   0.09900
 Alpha virt. eigenvalues --    0.10520   0.10834   0.11309   0.11576   0.12025
 Alpha virt. eigenvalues --    0.12490   0.12558   0.12739   0.12923   0.13476
 Alpha virt. eigenvalues --    0.13752   0.13906   0.14217   0.14936   0.15017
 Alpha virt. eigenvalues --    0.15484   0.16083   0.16278   0.16694   0.16856
 Alpha virt. eigenvalues --    0.17369   0.17439   0.17738   0.18044   0.18441
 Alpha virt. eigenvalues --    0.18864   0.18946   0.19146   0.19482   0.19885
 Alpha virt. eigenvalues --    0.20604   0.20724   0.20924   0.21099   0.21391
 Alpha virt. eigenvalues --    0.21878   0.22402   0.22590   0.22894   0.23057
 Alpha virt. eigenvalues --    0.23324   0.23684   0.24025   0.24386   0.24595
 Alpha virt. eigenvalues --    0.25074   0.25138   0.25423   0.25702   0.25873
 Alpha virt. eigenvalues --    0.26387   0.26510   0.26894   0.26941   0.27175
 Alpha virt. eigenvalues --    0.27613   0.27796   0.27969   0.28208   0.28468
 Alpha virt. eigenvalues --    0.29046   0.29089   0.29839   0.30262   0.30960
 Alpha virt. eigenvalues --    0.31085   0.31549   0.31616   0.32124   0.32231
 Alpha virt. eigenvalues --    0.32457   0.32964   0.33275   0.33402   0.33945
 Alpha virt. eigenvalues --    0.34262   0.34498   0.34857   0.35223   0.35934
 Alpha virt. eigenvalues --    0.36104   0.36378   0.36896   0.37054   0.37328
 Alpha virt. eigenvalues --    0.38006   0.38148   0.38489   0.38917   0.39106
 Alpha virt. eigenvalues --    0.39618   0.40179   0.40822   0.40956   0.41273
 Alpha virt. eigenvalues --    0.41618   0.42596   0.42730   0.43271   0.43982
 Alpha virt. eigenvalues --    0.44650   0.44842   0.45532   0.46441   0.46928
 Alpha virt. eigenvalues --    0.47223   0.47535   0.48932   0.49212   0.50375
 Alpha virt. eigenvalues --    0.51466   0.52101   0.55644   0.61864   0.63330
 Alpha virt. eigenvalues --    0.63585   0.66801   0.67477   0.68439   0.68809
 Alpha virt. eigenvalues --    0.70294   0.70650   0.71215   0.72216   0.73676
 Alpha virt. eigenvalues --    0.75428   0.75901   0.76525   0.77111   0.78416
 Alpha virt. eigenvalues --    0.79237   0.80621   0.81033   0.82128   0.83107
 Alpha virt. eigenvalues --    0.84837   0.86549   0.87650   0.88192   0.90030
 Alpha virt. eigenvalues --    0.90110   0.92087   0.93072   0.93881   0.95144
 Alpha virt. eigenvalues --    0.96365   0.96871   0.97764   0.98252   0.99586
 Alpha virt. eigenvalues --    1.00601   1.01167   1.02909   1.04262   1.04440
 Alpha virt. eigenvalues --    1.04850   1.05040   1.06311   1.06709   1.06916
 Alpha virt. eigenvalues --    1.07263   1.07775   1.09007   1.09740   1.10606
 Alpha virt. eigenvalues --    1.11596   1.12086   1.12791   1.14638   1.15062
 Alpha virt. eigenvalues --    1.17410   1.18413   1.18636   1.19800   1.20649
 Alpha virt. eigenvalues --    1.21744   1.22751   1.23213   1.24181   1.24471
 Alpha virt. eigenvalues --    1.25100   1.26031   1.27218   1.28092   1.28332
 Alpha virt. eigenvalues --    1.28635   1.29044   1.29900   1.30515   1.31029
 Alpha virt. eigenvalues --    1.31804   1.32190   1.33405   1.33699   1.34312
 Alpha virt. eigenvalues --    1.34576   1.35046   1.35495   1.36933   1.37768
 Alpha virt. eigenvalues --    1.38510   1.40119   1.40552   1.41562   1.42117
 Alpha virt. eigenvalues --    1.44104   1.44603   1.45262   1.47119   1.47630
 Alpha virt. eigenvalues --    1.49725   1.49995   1.50535   1.52115   1.52716
 Alpha virt. eigenvalues --    1.53283   1.56378   1.56929   1.57251   1.58163
 Alpha virt. eigenvalues --    1.58370   1.58498   1.59570   1.60887   1.61307
 Alpha virt. eigenvalues --    1.62014   1.62720   1.64139   1.65080   1.65817
 Alpha virt. eigenvalues --    1.66212   1.67321   1.67828   1.68501   1.69727
 Alpha virt. eigenvalues --    1.70322   1.70725   1.71636   1.72447   1.73612
 Alpha virt. eigenvalues --    1.73943   1.75069   1.75299   1.75943   1.76813
 Alpha virt. eigenvalues --    1.78030   1.79564   1.79863   1.80475   1.83236
 Alpha virt. eigenvalues --    1.83602   1.84046   1.84998   1.86369   1.87242
 Alpha virt. eigenvalues --    1.87759   1.88062   1.89421   1.90893   1.91603
 Alpha virt. eigenvalues --    1.91972   1.93362   1.94227   1.94449   1.95257
 Alpha virt. eigenvalues --    1.96043   1.96530   1.97053   1.97876   1.98573
 Alpha virt. eigenvalues --    1.99448   1.99936   2.00323   2.00774   2.02411
 Alpha virt. eigenvalues --    2.03558   2.03997   2.04289   2.05931   2.06633
 Alpha virt. eigenvalues --    2.07508   2.08992   2.10008   2.10238   2.10995
 Alpha virt. eigenvalues --    2.12583   2.13683   2.14112   2.14373   2.15640
 Alpha virt. eigenvalues --    2.17334   2.17696   2.18337   2.19039   2.20372
 Alpha virt. eigenvalues --    2.21558   2.22205   2.22960   2.25571   2.27613
 Alpha virt. eigenvalues --    2.30373   2.30735   2.31803   2.33255   2.33983
 Alpha virt. eigenvalues --    2.34515   2.35150   2.36528   2.37058   2.37235
 Alpha virt. eigenvalues --    2.39855   2.40662   2.41802   2.43848   2.45194
 Alpha virt. eigenvalues --    2.46312   2.46619   2.47249   2.48156   2.48486
 Alpha virt. eigenvalues --    2.49773   2.51309   2.52259   2.54031   2.55523
 Alpha virt. eigenvalues --    2.56065   2.56541   2.58371   2.59719   2.60303
 Alpha virt. eigenvalues --    2.61326   2.61830   2.62870   2.63209   2.64023
 Alpha virt. eigenvalues --    2.64720   2.65776   2.67189   2.68583   2.69979
 Alpha virt. eigenvalues --    2.71175   2.71827   2.73014   2.73260   2.74703
 Alpha virt. eigenvalues --    2.75917   2.77223   2.77982   2.78281   2.79903
 Alpha virt. eigenvalues --    2.81219   2.82135   2.82849   2.84256   2.84872
 Alpha virt. eigenvalues --    2.85788   2.86385   2.87881   2.88173   2.89765
 Alpha virt. eigenvalues --    2.90183   2.90437   2.91919   2.92644   2.93456
 Alpha virt. eigenvalues --    2.93813   2.94464   2.97807   2.99525   2.99620
 Alpha virt. eigenvalues --    3.00704   3.02042   3.02550   3.03086   3.04533
 Alpha virt. eigenvalues --    3.05867   3.07844   3.10177   3.10618   3.13932
 Alpha virt. eigenvalues --    3.16584   3.19333   3.21584   3.25950   3.28638
 Alpha virt. eigenvalues --    3.29093   3.36594   3.37609   3.38486   3.40480
 Alpha virt. eigenvalues --    3.42579   3.43752   3.45546   3.46259   3.47584
 Alpha virt. eigenvalues --    3.49286   3.50756   3.52360   3.52763   3.53627
 Alpha virt. eigenvalues --    3.56159   3.56620   3.59646   3.60684   3.64673
 Alpha virt. eigenvalues --    3.65457   3.70384   3.74687   4.28675   4.33131
 Alpha virt. eigenvalues --    4.34583   4.36521   4.40173   4.43628   4.44919
 Alpha virt. eigenvalues --    4.46343   4.49329   4.52434   4.53665   4.54487
 Alpha virt. eigenvalues --    4.56447   4.59784   4.63697   4.67250   4.67777
 Alpha virt. eigenvalues --    4.76270   4.82494   4.83625   4.86682   4.88589
 Alpha virt. eigenvalues --    4.95355
          Condensed to atoms (all electrons):
              1          2          3          4          5          6
     1  O    8.246696   0.406753  -0.190760  -0.002900   0.031505   0.049922
     2  C    0.406753   9.589131  -2.168709  -0.012618  -0.133822  -2.427066
     3  C   -0.190760  -2.168709  11.701408   0.275630   0.039423  -0.276543
     4  O   -0.002900  -0.012618   0.275630   8.215661   0.196293  -0.171408
     5  H    0.031505  -0.133822   0.039423   0.196293   0.425021   0.060271
     6  C    0.049922  -2.427066  -0.276543  -0.171408   0.060271  10.428589
     7  O   -0.000718   0.037979  -0.243566   0.017472  -0.001066   0.407133
     8  H    0.000004  -0.008274   0.057327  -0.000872   0.000004  -0.022648
     9  C   -0.028902   0.367370  -0.215457   0.004311  -0.004442  -0.117635
    10  O   -0.025854   0.009306   0.004416  -0.000027  -0.000006  -0.013079
    11  H   -0.000100  -0.002447  -0.003301   0.000000   0.000000  -0.000402
    12  C   -0.216113  -1.315242  -1.119397   0.034149   0.020212   0.495786
    13  O    0.005145  -0.039470   0.043621   0.000854  -0.000230  -0.170513
    14  C    0.039172   1.016558  -0.731844  -0.032171   0.014054  -2.404439
    15  O    0.000498  -0.042820   0.014684  -0.000304   0.000098   0.149017
    16  C    0.003317   0.032291  -0.607142   0.001292   0.001635   0.054768
    17  C    0.000907  -0.036583  -0.058292   0.000417   0.000057   0.264112
    18  O    0.000021   0.012412   0.000201  -0.000020   0.000000  -0.011667
    19  H   -0.000027  -0.010210   0.004689   0.000002   0.000000   0.001516
    20  C    0.000064  -0.003514   0.005221  -0.000067   0.000001   0.063865
    21  O    0.000000   0.000070   0.000001   0.000000   0.000000  -0.000638
    22  H    0.000000   0.000001   0.000000   0.000000   0.000000  -0.000005
    23  C    0.000089   0.005075  -0.008522  -0.000394   0.000022  -0.097383
    24  O   -0.000001   0.002488  -0.002467  -0.000107  -0.000003   0.002344
    25  H    0.000000  -0.000108   0.000869   0.000003   0.000000   0.000860
    26  C   -0.000243   0.054737  -0.170231   0.001725  -0.000020  -0.278411
    27  O    0.000000  -0.000420   0.000471   0.000002   0.000000   0.001860
    28  C    0.000002  -0.002541  -0.000921   0.000000   0.000000   0.014131
    29  O    0.000000   0.000002   0.000063   0.000000   0.000000  -0.000341
    30  H    0.000000   0.000000   0.000000   0.000000   0.000000  -0.000009
    31  H    0.240987   0.022635  -0.014321   0.000656  -0.002676   0.000447
    32  H   -0.000999  -0.003208  -0.007714   0.000019   0.000000  -0.001524
    33  H    0.003956  -0.019812   0.004826  -0.000001   0.000000   0.011324
    34  H    0.008080   0.027188  -0.051202  -0.000143   0.000007  -0.000336
    35  H   -0.044743   0.463197  -0.148736   0.003599  -0.000125   0.004700
    36  H   -0.001281   0.157906   0.079849  -0.047789  -0.004301  -0.219466
    37  H   -0.000884   0.121138  -0.274238   0.006425  -0.000179   0.300980
    38  H    0.000023   0.030531  -0.063812  -0.000239   0.000002  -0.050941
    39  H    0.000000  -0.000008  -0.000056   0.000000   0.000000   0.001066
    40  H    0.000000   0.000067   0.000301   0.000002   0.000000  -0.000566
    41  H    0.000000  -0.000080   0.001128   0.000000   0.000000   0.004084
    42  H   -0.000001  -0.001812   0.004522  -0.000003   0.000000   0.019392
    43  H    0.000000   0.000346   0.000987   0.000000   0.000000  -0.001888
    44  H    0.000000  -0.000015   0.000141   0.000000   0.000000  -0.000239
    45  H    0.000000  -0.000003   0.000037   0.000000   0.000000  -0.000084
              7          8          9         10         11         12
     1  O   -0.000718   0.000004  -0.028902  -0.025854  -0.000100  -0.216113
     2  C    0.037979  -0.008274   0.367370   0.009306  -0.002447  -1.315242
     3  C   -0.243566   0.057327  -0.215457   0.004416  -0.003301  -1.119397
     4  O    0.017472  -0.000872   0.004311  -0.000027   0.000000   0.034149
     5  H   -0.001066   0.000004  -0.004442  -0.000006   0.000000   0.020212
     6  C    0.407133  -0.022648  -0.117635  -0.013079  -0.000402   0.495786
     7  O    8.221379   0.199257   0.000613   0.000011   0.000000   0.027720
     8  H    0.199257   0.345220  -0.000171   0.000000   0.000000  -0.002007
     9  C    0.000613  -0.000171   5.874103   0.106180  -0.002990  -0.980464
    10  O    0.000011   0.000000   0.106180   8.333232   0.198685   0.006441
    11  H    0.000000   0.000000  -0.002990   0.198685   0.443882   0.032627
    12  C    0.027720  -0.002007  -0.980464   0.006441   0.032627   9.733643
    13  O    0.014398   0.001826   0.000124  -0.001007  -0.000332  -0.130280
    14  C   -0.078624  -0.023075  -0.032048   0.014632  -0.002910  -0.649133
    15  O   -0.010928   0.025184   0.001637  -0.000137   0.000004   0.018387
    16  C   -0.011951  -0.007729  -0.041621  -0.001952   0.000126   0.209477
    17  C    0.008370   0.000124   0.040329   0.000409  -0.000068  -0.184494
    18  O   -0.000075   0.000012   0.009526  -0.000022   0.000019  -0.035178
    19  H   -0.000068  -0.000008  -0.000532  -0.000037  -0.000004   0.019513
    20  C    0.001708   0.001082   0.002322   0.000156  -0.000005  -0.018948
    21  O   -0.000003   0.000000   0.000083   0.000000   0.000000   0.000110
    22  H    0.000000   0.000000   0.000004   0.000000   0.000000   0.000004
    23  C   -0.008152   0.018716  -0.003017  -0.000017  -0.000001  -0.007249
    24  O   -0.021273   0.002124   0.000369   0.000000   0.000000   0.000725
    25  H    0.001822  -0.003322  -0.000007   0.000000   0.000000  -0.000232
    26  C    0.018489  -0.027194   0.013578   0.000024   0.000007   0.106817
    27  O   -0.000004   0.000044  -0.000009   0.000000   0.000000   0.000383
    28  C   -0.000152  -0.000356  -0.001179  -0.000012   0.000000   0.002060
    29  O   -0.000005   0.000000   0.000008   0.000000   0.000000   0.000068
    30  H    0.000000   0.000000   0.000000   0.000000   0.000000   0.000000
    31  H   -0.000011   0.000000  -0.004306   0.001808   0.000018   0.008776
    32  H   -0.000009   0.000000   0.464737  -0.055102  -0.005119  -0.073277
    33  H    0.000004   0.000000   0.505808  -0.053740  -0.008186  -0.169658
    34  H    0.000138   0.000001   0.046464   0.005608  -0.000163   0.197502
    35  H    0.000416  -0.000001   0.022109   0.000816  -0.000012  -0.121903
    36  H    0.008061  -0.000182   0.024980   0.000016   0.000000   0.041992
    37  H   -0.045886  -0.004617   0.010929   0.000026   0.000000   0.013753
    38  H    0.003363  -0.001052   0.005516   0.000061   0.000000  -0.009065
    39  H   -0.000532   0.000327  -0.000004   0.000000   0.000000  -0.000048
    40  H    0.001442   0.000619  -0.000016   0.000000   0.000000   0.000204
    41  H   -0.000017   0.000024  -0.000025   0.000000   0.000000  -0.000184
    42  H   -0.000320   0.000140  -0.000622   0.000001   0.000000  -0.003396
    43  H   -0.000014   0.000004  -0.001330   0.000000   0.000000   0.001446
    44  H    0.000000   0.000000  -0.000195   0.000000   0.000000   0.000552
    45  H    0.000000   0.000000  -0.000009   0.000000   0.000000   0.000022
             13         14         15         16         17         18
     1  O    0.005145   0.039172   0.000498   0.003317   0.000907   0.000021
     2  C   -0.039470   1.016558  -0.042820   0.032291  -0.036583   0.012412
     3  C    0.043621  -0.731844   0.014684  -0.607142  -0.058292   0.000201
     4  O    0.000854  -0.032171  -0.000304   0.001292   0.000417  -0.000020
     5  H   -0.000230   0.014054   0.000098   0.001635   0.000057   0.000000
     6  C   -0.170513  -2.404439   0.149017   0.054768   0.264112  -0.011667
     7  O    0.014398  -0.078624  -0.010928  -0.011951   0.008370  -0.000075
     8  H    0.001826  -0.023075   0.025184  -0.007729   0.000124   0.000012
     9  C    0.000124  -0.032048   0.001637  -0.041621   0.040329   0.009526
    10  O   -0.001007   0.014632  -0.000137  -0.001952   0.000409  -0.000022
    11  H   -0.000332  -0.002910   0.000004   0.000126  -0.000068   0.000019
    12  C   -0.130280  -0.649133   0.018387   0.209477  -0.184494  -0.035178
    13  O    8.606702   0.226527  -0.063278   0.023013  -0.090457   0.029494
    14  C    0.226527   9.961240  -0.067269  -0.549959  -0.813336  -0.074038
    15  O   -0.063278  -0.067269   8.370018  -0.079028   0.169818  -0.011788
    16  C    0.023013  -0.549959  -0.079028  14.349249  -3.615252  -0.022377
    17  C   -0.090457  -0.813336   0.169818  -3.615252  10.054165   0.289065
    18  O    0.029494  -0.074038  -0.011788  -0.022377   0.289065   8.281553
    19  H    0.025652  -0.018718   0.015371  -0.043636   0.010692   0.193197
    20  C    0.000051  -0.250815   0.049213  -1.611623  -0.167012  -0.123610
    21  O    0.000074  -0.000393  -0.000396   0.040574  -0.141845   0.010192
    22  H    0.000000  -0.000354   0.000024  -0.022453   0.019188  -0.000661
    23  C    0.030470  -0.171617  -0.056957   0.445084  -0.518733   0.023763
    24  O   -0.002083   0.093491  -0.020371  -0.092084  -0.012352   0.000194
    25  H    0.000012  -0.012449   0.000859   0.008353  -0.000720   0.000002
    26  C   -0.005050  -0.635445  -0.027105  -3.786599   0.383981   0.055844
    27  O    0.000143  -0.020933   0.012081  -0.259436  -0.008426  -0.000868
    28  C   -0.004526   0.082428   0.026235   0.726003   0.308741  -0.011586
    29  O    0.000032   0.002041   0.000191   0.020564   0.022472  -0.000851
    30  H    0.000000   0.000001   0.000003  -0.007715   0.008714  -0.000029
    31  H   -0.001083  -0.000585  -0.000026   0.000026  -0.000016   0.000000
    32  H   -0.001801  -0.002854  -0.000255   0.004954   0.001823  -0.001622
    33  H    0.009321   0.007056  -0.000304  -0.002990  -0.000256   0.000484
    34  H   -0.034911   0.049479  -0.001715  -0.008539   0.004286   0.000374
    35  H    0.014728   0.035193  -0.000467  -0.002151   0.000725   0.000119
    36  H    0.009418   0.109062   0.000212   0.005933  -0.000570   0.000076
    37  H    0.017268   0.058351  -0.011591   0.014510   0.001513   0.000151
    38  H   -0.059282   0.377213  -0.066696   0.024019   0.038079  -0.000225
    39  H   -0.000006  -0.002777  -0.000078   0.010566  -0.007721   0.000043
    40  H    0.000117   0.000683   0.002028  -0.000877   0.014119  -0.000036
    41  H   -0.000231   0.034549   0.004784   0.077209  -0.019701   0.000086
    42  H   -0.002445   0.044076  -0.064856   0.385607  -0.010647  -0.003369
    43  H    0.001023   0.053501  -0.014198   0.177824   0.226879  -0.041500
    44  H    0.000276   0.010619  -0.001444   0.145529  -0.211072   0.000586
    45  H    0.000015   0.005804   0.000035   0.138118  -0.034855  -0.000760
             19         20         21         22         23         24
     1  O   -0.000027   0.000064   0.000000   0.000000   0.000089  -0.000001
     2  C   -0.010210  -0.003514   0.000070   0.000001   0.005075   0.002488
     3  C    0.004689   0.005221   0.000001   0.000000  -0.008522  -0.002467
     4  O    0.000002  -0.000067   0.000000   0.000000  -0.000394  -0.000107
     5  H    0.000000   0.000001   0.000000   0.000000   0.000022  -0.000003
     6  C    0.001516   0.063865  -0.000638  -0.000005  -0.097383   0.002344
     7  O   -0.000068   0.001708  -0.000003   0.000000  -0.008152  -0.021273
     8  H   -0.000008   0.001082   0.000000   0.000000   0.018716   0.002124
     9  C   -0.000532   0.002322   0.000083   0.000004  -0.003017   0.000369
    10  O   -0.000037   0.000156   0.000000   0.000000  -0.000017   0.000000
    11  H   -0.000004  -0.000005   0.000000   0.000000  -0.000001   0.000000
    12  C    0.019513  -0.018948   0.000110   0.000004  -0.007249   0.000725
    13  O    0.025652   0.000051   0.000074   0.000000   0.030470  -0.002083
    14  C   -0.018718  -0.250815  -0.000393  -0.000354  -0.171617   0.093491
    15  O    0.015371   0.049213  -0.000396   0.000024  -0.056957  -0.020371
    16  C   -0.043636  -1.611623   0.040574  -0.022453   0.445084  -0.092084
    17  C    0.010692  -0.167012  -0.141845   0.019188  -0.518733  -0.012352
    18  O    0.193197  -0.123610   0.010192  -0.000661   0.023763   0.000194
    19  H    0.340463   0.012650  -0.000644   0.000011  -0.005815   0.000036
    20  C    0.012650   8.151357   0.232142   0.003500   0.126460  -0.007569
    21  O   -0.000644   0.232142   8.219266   0.201149   0.005481   0.000034
    22  H    0.000011   0.003500   0.201149   0.430865  -0.000385   0.000000
    23  C   -0.005815   0.126460   0.005481  -0.000385   6.799719  -0.174477
    24  O    0.000036  -0.007569   0.000034   0.000000  -0.174477   8.501470
    25  H    0.000000   0.000720   0.000000   0.000000   0.031732   0.209134
    26  C    0.019456   0.558767   0.025336   0.003986  -1.082151   0.243382
    27  O    0.000357  -0.071536   0.002801   0.000482  -0.090996  -0.000180
    28  C   -0.000605  -1.225877  -0.056061   0.005785  -0.335607   0.014913
    29  O    0.000035  -0.151811  -0.006311   0.016386  -0.020303   0.000134
    30  H    0.000000  -0.010878   0.000032  -0.001841   0.000857  -0.000002
    31  H    0.000000  -0.000001   0.000000   0.000000   0.000004   0.000000
    32  H    0.000579  -0.001589  -0.000002   0.000000   0.000017   0.000000
    33  H   -0.000117   0.000620   0.000001   0.000000   0.000040   0.000000
    34  H    0.000068   0.000633   0.000000   0.000000   0.000258   0.000000
    35  H   -0.000011   0.000084   0.000000   0.000000   0.000064   0.000008
    36  H   -0.000005  -0.000002   0.000000   0.000000   0.000673   0.000149
    37  H   -0.000014   0.000282   0.000000   0.000000   0.002915   0.001051
    38  H   -0.000102   0.008039  -0.000003   0.000000   0.008740   0.000001
    39  H    0.000000   0.001089  -0.000004   0.000000   0.480337  -0.047229
    40  H    0.000001  -0.000594  -0.000008   0.000000   0.531024  -0.081516
    41  H    0.000008  -0.020569  -0.000216   0.000009   0.005399   0.004037
    42  H   -0.002171   0.034702  -0.000616   0.000006   0.020095  -0.000510
    43  H   -0.001397  -0.079026   0.001938  -0.000106   0.029091  -0.000054
    44  H    0.000189   0.427144  -0.041301  -0.005059   0.013623   0.000001
    45  H    0.000006  -0.123224   0.004067  -0.000875  -0.001312   0.000037
             25         26         27         28         29         30
     1  O    0.000000  -0.000243   0.000000   0.000002   0.000000   0.000000
     2  C   -0.000108   0.054737  -0.000420  -0.002541   0.000002   0.000000
     3  C    0.000869  -0.170231   0.000471  -0.000921   0.000063   0.000000
     4  O    0.000003   0.001725   0.000002   0.000000   0.000000   0.000000
     5  H    0.000000  -0.000020   0.000000   0.000000   0.000000   0.000000
     6  C    0.000860  -0.278411   0.001860   0.014131  -0.000341  -0.000009
     7  O    0.001822   0.018489  -0.000004  -0.000152  -0.000005   0.000000
     8  H   -0.003322  -0.027194   0.000044  -0.000356   0.000000   0.000000
     9  C   -0.000007   0.013578  -0.000009  -0.001179   0.000008   0.000000
    10  O    0.000000   0.000024   0.000000  -0.000012   0.000000   0.000000
    11  H    0.000000   0.000007   0.000000   0.000000   0.000000   0.000000
    12  C   -0.000232   0.106817   0.000383   0.002060   0.000068   0.000000
    13  O    0.000012  -0.005050   0.000143  -0.004526   0.000032   0.000000
    14  C   -0.012449  -0.635445  -0.020933   0.082428   0.002041   0.000001
    15  O    0.000859  -0.027105   0.012081   0.026235   0.000191   0.000003
    16  C    0.008353  -3.786599  -0.259436   0.726003   0.020564  -0.007715
    17  C   -0.000720   0.383981  -0.008426   0.308741   0.022472   0.008714
    18  O    0.000002   0.055844  -0.000868  -0.011586  -0.000851  -0.000029
    19  H    0.000000   0.019456   0.000357  -0.000605   0.000035   0.000000
    20  C    0.000720   0.558767  -0.071536  -1.225877  -0.151811  -0.010878
    21  O    0.000000   0.025336   0.002801  -0.056061  -0.006311   0.000032
    22  H    0.000000   0.003986   0.000482   0.005785   0.016386  -0.001841
    23  C    0.031732  -1.082151  -0.090996  -0.335607  -0.020303   0.000857
    24  O    0.209134   0.243382  -0.000180   0.014913   0.000134  -0.000002
    25  H    0.403607  -0.012853  -0.000258  -0.003393   0.000002   0.000000
    26  C   -0.012853  11.888632   0.511364  -1.132120  -0.111264   0.013822
    27  O   -0.000258   0.511364   8.400275   0.027836  -0.124835   0.001193
    28  C   -0.003393  -1.132120   0.027836   6.600446   0.484943   0.000979
    29  O    0.000002  -0.111264  -0.124835   0.484943   8.242994   0.234873
    30  H    0.000000   0.013822   0.001193   0.000979   0.234873   0.412102
    31  H    0.000000  -0.000018   0.000000   0.000000   0.000000   0.000000
    32  H    0.000000  -0.000025   0.000000   0.000117   0.000000   0.000000
    33  H    0.000000   0.000080   0.000000  -0.000071   0.000000   0.000000
    34  H    0.000000  -0.000767  -0.000001  -0.000103   0.000000   0.000000
    35  H    0.000000   0.000376   0.000000  -0.000019   0.000000   0.000000
    36  H    0.000000   0.002083  -0.000001  -0.000041   0.000000   0.000000
    37  H   -0.000021   0.004304  -0.000006  -0.000144   0.000000   0.000000
    38  H    0.000017  -0.018986  -0.000050  -0.002090  -0.000002   0.000000
    39  H   -0.007770  -0.096334  -0.003705   0.000965  -0.000435  -0.000001
    40  H   -0.002610  -0.197194   0.007221   0.008861  -0.000117   0.000000
    41  H   -0.000096   0.144241  -0.043988   0.041408  -0.001007   0.000043
    42  H    0.000007  -0.187904   0.001033  -0.004791  -0.000943   0.000002
    43  H    0.000000  -0.083904   0.000819  -0.031412  -0.001009   0.000016
    44  H    0.000000  -0.025143   0.000895  -0.053629  -0.004833   0.000122
    45  H    0.000000  -0.100488  -0.057320   0.450452  -0.051669  -0.008203
             31         32         33         34         35         36
     1  O    0.240987  -0.000999   0.003956   0.008080  -0.044743  -0.001281
     2  C    0.022635  -0.003208  -0.019812   0.027188   0.463197   0.157906
     3  C   -0.014321  -0.007714   0.004826  -0.051202  -0.148736   0.079849
     4  O    0.000656   0.000019  -0.000001  -0.000143   0.003599  -0.047789
     5  H   -0.002676   0.000000   0.000000   0.000007  -0.000125  -0.004301
     6  C    0.000447  -0.001524   0.011324  -0.000336   0.004700  -0.219466
     7  O   -0.000011  -0.000009   0.000004   0.000138   0.000416   0.008061
     8  H    0.000000   0.000000   0.000000   0.000001  -0.000001  -0.000182
     9  C   -0.004306   0.464737   0.505808   0.046464   0.022109   0.024980
    10  O    0.001808  -0.055102  -0.053740   0.005608   0.000816   0.000016
    11  H    0.000018  -0.005119  -0.008186  -0.000163  -0.000012   0.000000
    12  C    0.008776  -0.073277  -0.169658   0.197502  -0.121903   0.041992
    13  O   -0.001083  -0.001801   0.009321  -0.034911   0.014728   0.009418
    14  C   -0.000585  -0.002854   0.007056   0.049479   0.035193   0.109062
    15  O   -0.000026  -0.000255  -0.000304  -0.001715  -0.000467   0.000212
    16  C    0.000026   0.004954  -0.002990  -0.008539  -0.002151   0.005933
    17  C   -0.000016   0.001823  -0.000256   0.004286   0.000725  -0.000570
    18  O    0.000000  -0.001622   0.000484   0.000374   0.000119   0.000076
    19  H    0.000000   0.000579  -0.000117   0.000068  -0.000011  -0.000005
    20  C   -0.000001  -0.001589   0.000620   0.000633   0.000084  -0.000002
    21  O    0.000000  -0.000002   0.000001   0.000000   0.000000   0.000000
    22  H    0.000000   0.000000   0.000000   0.000000   0.000000   0.000000
    23  C    0.000004   0.000017   0.000040   0.000258   0.000064   0.000673
    24  O    0.000000   0.000000   0.000000   0.000000   0.000008   0.000149
    25  H    0.000000   0.000000   0.000000   0.000000   0.000000   0.000000
    26  C   -0.000018  -0.000025   0.000080  -0.000767   0.000376   0.002083
    27  O    0.000000   0.000000   0.000000  -0.000001   0.000000  -0.000001
    28  C    0.000000   0.000117  -0.000071  -0.000103  -0.000019  -0.000041
    29  O    0.000000   0.000000   0.000000   0.000000   0.000000   0.000000
    30  H    0.000000   0.000000   0.000000   0.000000   0.000000   0.000000
    31  H    0.390050   0.000007  -0.000081  -0.000098  -0.012335  -0.000175
    32  H    0.000007   0.596855  -0.053308  -0.008705   0.000072  -0.000001
    33  H   -0.000081  -0.053308   0.618813   0.006746   0.005080   0.000008
    34  H   -0.000098  -0.008705   0.006746   0.606507   0.006346   0.005231
    35  H   -0.012335   0.000072   0.005080   0.006346   0.633522   0.008671
    36  H   -0.000175  -0.000001   0.000008   0.005231   0.008671   0.691933
    37  H    0.000023   0.000002  -0.000024  -0.000025   0.005509   0.008978
    38  H    0.000002  -0.000008  -0.000001   0.003363   0.000041   0.005434
    39  H    0.000000   0.000000   0.000000   0.000000   0.000000   0.000000
    40  H    0.000000   0.000000   0.000000   0.000000   0.000000   0.000000
    41  H    0.000000   0.000000   0.000000   0.000000   0.000000   0.000000
    42  H    0.000000  -0.000001   0.000000   0.000008   0.000000  -0.000004
    43  H    0.000000   0.000000   0.000001   0.000000   0.000000   0.000000
    44  H    0.000000   0.000000   0.000000   0.000000   0.000000   0.000000
    45  H    0.000000   0.000000   0.000000   0.000000   0.000000   0.000000
             37         38         39         40         41         42
     1  O   -0.000884   0.000023   0.000000   0.000000   0.000000  -0.000001
     2  C    0.121138   0.030531  -0.000008   0.000067  -0.000080  -0.001812
     3  C   -0.274238  -0.063812  -0.000056   0.000301   0.001128   0.004522
     4  O    0.006425  -0.000239   0.000000   0.000002   0.000000  -0.000003
     5  H   -0.000179   0.000002   0.000000   0.000000   0.000000   0.000000
     6  C    0.300980  -0.050941   0.001066  -0.000566   0.004084   0.019392
     7  O   -0.045886   0.003363  -0.000532   0.001442  -0.000017  -0.000320
     8  H   -0.004617  -0.001052   0.000327   0.000619   0.000024   0.000140
     9  C    0.010929   0.005516  -0.000004  -0.000016  -0.000025  -0.000622
    10  O    0.000026   0.000061   0.000000   0.000000   0.000000   0.000001
    11  H    0.000000   0.000000   0.000000   0.000000   0.000000   0.000000
    12  C    0.013753  -0.009065  -0.000048   0.000204  -0.000184  -0.003396
    13  O    0.017268  -0.059282  -0.000006   0.000117  -0.000231  -0.002445
    14  C    0.058351   0.377213  -0.002777   0.000683   0.034549   0.044076
    15  O   -0.011591  -0.066696  -0.000078   0.002028   0.004784  -0.064856
    16  C    0.014510   0.024019   0.010566  -0.000877   0.077209   0.385607
    17  C    0.001513   0.038079  -0.007721   0.014119  -0.019701  -0.010647
    18  O    0.000151  -0.000225   0.000043  -0.000036   0.000086  -0.003369
    19  H   -0.000014  -0.000102   0.000000   0.000001   0.000008  -0.002171
    20  C    0.000282   0.008039   0.001089  -0.000594  -0.020569   0.034702
    21  O    0.000000  -0.000003  -0.000004  -0.000008  -0.000216  -0.000616
    22  H    0.000000   0.000000   0.000000   0.000000   0.000009   0.000006
    23  C    0.002915   0.008740   0.480337   0.531024   0.005399   0.020095
    24  O    0.001051   0.000001  -0.047229  -0.081516   0.004037  -0.000510
    25  H   -0.000021   0.000017  -0.007770  -0.002610  -0.000096   0.000007
    26  C    0.004304  -0.018986  -0.096334  -0.197194   0.144241  -0.187904
    27  O   -0.000006  -0.000050  -0.003705   0.007221  -0.043988   0.001033
    28  C   -0.000144  -0.002090   0.000965   0.008861   0.041408  -0.004791
    29  O    0.000000  -0.000002  -0.000435  -0.000117  -0.001007  -0.000943
    30  H    0.000000   0.000000  -0.000001   0.000000   0.000043   0.000002
    31  H    0.000023   0.000002   0.000000   0.000000   0.000000   0.000000
    32  H    0.000002  -0.000008   0.000000   0.000000   0.000000  -0.000001
    33  H   -0.000024  -0.000001   0.000000   0.000000   0.000000   0.000000
    34  H   -0.000025   0.003363   0.000000   0.000000   0.000000   0.000008
    35  H    0.005509   0.000041   0.000000   0.000000   0.000000   0.000000
    36  H    0.008978   0.005434   0.000000   0.000000   0.000000  -0.000004
    37  H    0.623029   0.005534   0.000000  -0.000005  -0.000004   0.000007
    38  H    0.005534   0.621169   0.000006   0.000193   0.000001   0.010296
    39  H    0.000000   0.000006   0.585079  -0.046250  -0.007732  -0.000021
    40  H   -0.000005   0.000193  -0.046250   0.609656   0.006825   0.004496
    41  H   -0.000004   0.000001  -0.007732   0.006825   0.617323   0.006731
    42  H    0.000007   0.010296  -0.000021   0.004496   0.006731   0.609183
    43  H   -0.000003  -0.000008   0.000007   0.000001   0.002254   0.005680
    44  H    0.000000  -0.000006   0.000001  -0.000003   0.000015   0.001845
    45  H    0.000000   0.000000  -0.000035  -0.000013   0.007616   0.000065
             43         44         45
     1  O    0.000000   0.000000   0.000000
     2  C    0.000346  -0.000015  -0.000003
     3  C    0.000987   0.000141   0.000037
     4  O    0.000000   0.000000   0.000000
     5  H    0.000000   0.000000   0.000000
     6  C   -0.001888  -0.000239  -0.000084
     7  O   -0.000014   0.000000   0.000000
     8  H    0.000004   0.000000   0.000000
     9  C   -0.001330  -0.000195  -0.000009
    10  O    0.000000   0.000000   0.000000
    11  H    0.000000   0.000000   0.000000
    12  C    0.001446   0.000552   0.000022
    13  O    0.001023   0.000276   0.000015
    14  C    0.053501   0.010619   0.005804
    15  O   -0.014198  -0.001444   0.000035
    16  C    0.177824   0.145529   0.138118
    17  C    0.226879  -0.211072  -0.034855
    18  O   -0.041500   0.000586  -0.000760
    19  H   -0.001397   0.000189   0.000006
    20  C   -0.079026   0.427144  -0.123224
    21  O    0.001938  -0.041301   0.004067
    22  H   -0.000106  -0.005059  -0.000875
    23  C    0.029091   0.013623  -0.001312
    24  O   -0.000054   0.000001   0.000037
    25  H    0.000000   0.000000   0.000000
    26  C   -0.083904  -0.025143  -0.100488
    27  O    0.000819   0.000895  -0.057320
    28  C   -0.031412  -0.053629   0.450452
    29  O   -0.001009  -0.004833  -0.051669
    30  H    0.000016   0.000122  -0.008203
    31  H    0.000000   0.000000   0.000000
    32  H    0.000000   0.000000   0.000000
    33  H    0.000001   0.000000   0.000000
    34  H    0.000000   0.000000   0.000000
    35  H    0.000000   0.000000   0.000000
    36  H    0.000000   0.000000   0.000000
    37  H   -0.000003   0.000000   0.000000
    38  H   -0.000008  -0.000006   0.000000
    39  H    0.000007   0.000001  -0.000035
    40  H    0.000001  -0.000003  -0.000013
    41  H    0.002254   0.000015   0.007616
    42  H    0.005680   0.001845   0.000065
    43  H    0.597155   0.005185   0.001733
    44  H    0.005185   0.570413   0.005592
    45  H    0.001733   0.005592   0.634838
 Mulliken atomic charges:
              1
     1  O   -0.523617
     2  C   -0.128398
     3  C    0.117419
     4  O   -0.489449
     5  H    0.358265
     6  C   -0.068936
     7  O   -0.546401
     8  H    0.449470
     9  C   -0.066120
    10  O   -0.530836
    11  H    0.350670
    12  C    0.063901
    13  O   -0.453321
    14  C    0.340055
    15  O   -0.318370
    16  C   -0.124931
    17  C    0.063423
    18  O   -0.567129
    19  H    0.439628
    20  C    0.186397
    21  O   -0.494910
    22  H    0.350338
    23  C    0.003341
    24  O   -0.613843
    25  H    0.385839
    26  C   -0.071582
    27  O   -0.286287
    28  C    0.070934
    29  O   -0.549073
    30  H    0.355920
    31  H    0.370291
    32  H    0.147940
    33  H    0.134381
    34  H    0.138421
    35  H    0.125129
    36  H    0.113152
    37  H    0.140965
    38  H    0.130929
    39  H    0.141258
    40  H    0.141947
    41  H    0.136074
    42  H    0.136535
    43  H    0.149958
    44  H    0.160209
    45  H    0.130415
 Sum of Mulliken atomic charges =   0.00000
 Mulliken charges with hydrogens summed into heavy atoms:
              1
     1  O   -0.153326
     2  C   -0.003269
     3  C    0.230570
     4  O   -0.131184
     6  C    0.072029
     7  O   -0.096931
     9  C    0.216201
    10  O   -0.180166
    12  C    0.202322
    13  O   -0.453321
    14  C    0.470984
    15  O   -0.318370
    16  C    0.011604
    17  C    0.213381
    18  O   -0.127501
    20  C    0.346606
    21  O   -0.144572
    23  C    0.286546
    24  O   -0.228005
    26  C    0.064492
    27  O   -0.286287
    28  C    0.201349
    29  O   -0.193153
 Sum of Mulliken charges with hydrogens summed into heavy atoms =   0.00000
 APT atomic charges:
              1
     1  O   -0.634435
     2  C    0.416216
     3  C    0.397481
     4  O   -0.627635
     5  H    0.269233
     6  C    0.384056
     7  O   -0.749574
     8  H    0.485592
     9  C    0.467982
    10  O   -0.609513
    11  H    0.252379
    12  C    0.483169
    13  O   -0.896395
    14  C    0.964710
    15  O   -0.880675
    16  C    0.482750
    17  C    0.352629
    18  O   -0.738319
    19  H    0.409131
    20  C    0.384515
    21  O   -0.612538
    22  H    0.264835
    23  C    0.449544
    24  O   -0.695767
    25  H    0.278339
    26  C    0.406757
    27  O   -0.714227
    28  C    0.874910
    29  O   -0.664087
    30  H    0.255085
    31  H    0.265427
    32  H   -0.049204
    33  H   -0.049358
    34  H   -0.058297
    35  H   -0.052176
    36  H   -0.076892
    37  H   -0.045135
    38  H   -0.068936
    39  H   -0.045302
    40  H   -0.038693
    41  H   -0.056820
    42  H   -0.035665
    43  H   -0.047027
    44  H   -0.023086
    45  H   -0.074982
 Sum of APT charges=   0.00000
 APT Atomic charges with hydrogens summed into heavy atoms:
              1
     1  O   -0.369008
     2  C    0.364040
     3  C    0.320590
[...]
 09987,0.00000995,0.00030278,0.00057411,0.00030931,0.00087057,0.0000363
 9,-0.00475682,-0.01682267,-0.00451411,0.01287181,-0.35053739,-0.012117
 40,-0.02877131,-0.01353288,0.00110737,-0.00486538,0.00306428,-0.002396
 07,0.00041576,-0.00079269,0.00047035,0.00065166,-0.00058068,-0.0004319
 2,0.00078169,0.00036626,0.00005885,0.00001009,0.00001404,0.00005662,-0
 .00005721,0.00009882,0.00039503,0.00044488,0.00027682,0.00007959,-0.00
 021021,0.00000822,-0.00004695,-0.00002624,-0.00938494,-0.00064262,-0.0
 0253806,0.00246562,0.00089283,0.00067764,-0.00033476,0.00027027,-0.000
 33767,0.00005004,-0.00003861,-0.00008498,0.00000691,-0.00000364,-0.000
 00949,-0.00000118,-0.00000406,-0.00000612,0.00000580,0.00002460,-0.000
 00745,0.00001321,-0.00000320,-0.00000755,0.00003327,0.00000097,0.00004
 129,0.00001243,-0.00000110,-0.00001054,0.00000704,-0.00000502,0.000029
 97,0.00004083,0.00018296,-0.00033996,0.00135012,-0.00017965,0.00138280
 ,0.00027437,-0.00002122,0.00003742,0.00045925,-0.00072157,0.00007622,0
 .00048929,-0.00085937,-0.00055984,0.38040831,-0.00000345,-0.00002403,0
 .00003313,0.00001714,0.00005125,-0.00001035,0.00001115,0.00000202,0.00
 001779,0.00000707,-0.00002109,-0.00001015,-0.00000358,0.00001019,-0.00
 000124,0.00006949,-0.00004373,0.00007844,0.00009912,-0.00005746,-0.000
 09308,-0.00012148,0.00003868,0.00005708,0.00002665,-0.00001497,-0.0000
 3293,-0.00001018,0.00002042,0.00004197,0.00000812,-0.00000216,-0.00000
 510,-0.00005706,0.00000046,-0.00001052,0.00032224,-0.00019254,0.000201
 36,-0.00184927,0.00140316,-0.00058876,-0.00964223,0.00088262,0.0063957
 3,-0.01342178,-0.04311736,-0.00308885,0.03472841,-0.00429368,0.0050272
 2,-0.00071504,0.00316057,0.00159267,0.00073513,-0.00054432,-0.00080846
 ,0.00068664,0.00128222,-0.00059980,-0.00034970,-0.00018575,-0.00017924
 ,-0.00011455,0.00002200,0.00003433,-0.00177067,0.00174380,0.00035550,0
 .00036449,0.00000602,-0.00011272,-0.00003647,-0.00005710,-0.00001723,-
 0.02815201,-0.00305282,-0.00671616,0.00126088,0.00130521,0.00290618,0.
 00004492,-0.00023136,-0.00008453,0.00000183,0.00006566,0.00003294,-0.0
 0001984,0.00001823,0.00000697,0.00000228,0.00000079,-0.00000073,-0.000
 00335,-0.00002273,0.00000357,-0.00000823,-0.00000334,0.00000371,-0.000
 00405,0.00001812,-0.00000888,-0.00000027,-0.00000703,0.00000050,0.0000
 1910,0.00000421,0.00001230,0.00008582,0.00001811,-0.00005819,0.0004889
 7,-0.00023733,0.00008996,0.00040465,0.00022071,0.00013992,0.00086079,-
 0.00044596,0.00015931,-0.00077521,-0.00269550,-0.00358283,0.01626493,0
 .05063706,-0.00001418,-0.00001965,-0.00001768,0.00001928,0.00002991,0.
 00003559,-0.00007035,0.00005425,-0.00000961,-0.00001192,-0.00001871,-0
 .00000570,0.00000371,0.00000107,-0.00000006,-0.00007795,0.00034783,-0.
 00009224,-0.00016757,0.00005599,-0.00004732,0.00012061,-0.00030321,-0.
 00007879,-0.00000951,0.00002757,-0.00002733,-0.00000179,-0.00002175,0.
 00000447,0.00000160,-0.00000019,-0.00000485,-0.00004635,-0.00012838,-0
 .00015218,-0.00058597,-0.00021767,-0.00010324,0.00697843,-0.00038876,0
 .00270225,0.04054610,0.00936277,-0.02062068,-0.03613201,-0.00207584,-0
 .04249932,-0.01235238,0.00028540,-0.00076371,0.00161083,-0.00143799,0.
 00036238,0.00043097,-0.00012444,0.00011528,-0.00080124,-0.00034006,0.0
 0026691,0.00030981,-0.00003560,-0.00000311,-0.00000250,-0.00002106,-0.
 00001972,-0.00021057,0.00121545,0.00032514,0.00016696,0.00003801,0.000
 13680,-0.00001896,0.00001796,0.00003173,-0.02419091,-0.00320350,-0.004
 55681,0.00041927,-0.00004176,0.00260631,-0.00056666,0.00042909,-0.0003
 7011,0.00004129,0.00000535,-0.00018648,0.00002182,0.00000573,-0.000006
 87,0.00000098,0.00000358,0.00000611,-0.00000654,-0.00001496,0.00000226
 ,-0.00000323,0.00000448,0.00000056,-0.00001532,-0.00001203,-0.00004186
 ,-0.00000721,0.00001139,0.00000982,-0.00006372,-0.00000724,-0.00005741
 ,-0.00030925,-0.00005094,0.00013083,-0.00148682,0.00023457,0.00016539,
 0.00016828,0.00014435,0.00004730,0.00054407,-0.00031957,0.00024567,-0.
 00042502,-0.00285268,-0.00325825,0.02599044,-0.00290038,0.06591919,0.0
 0001158,0.00002793,-0.00006962,-0.00004109,-0.00003759,0.00004018,0.00
 000630,-0.00003278,0.00002700,0.00000845,0.00005148,-0.00003560,-0.000
 00133,-0.00001216,0.00000661,-0.00002494,-0.00007729,-0.00000447,0.000
 07154,0.00011814,0.00007397,-0.00006612,-0.00004654,-0.00011706,-0.000
 03575,-0.00000552,0.00013461,0.00000788,-0.00003535,-0.00011388,-0.000
 01610,0.00001117,0.00002140,0.00004511,0.00008835,0.00013647,0.0000342
 7,0.00042735,-0.00035283,0.00005913,-0.00041124,-0.00025576,0.00124154
 ,0.00012233,-0.00017752,-0.01053802,0.00116032,0.00009885,-0.35654014,
 0.02080195,0.00103646,-0.00665275,-0.00877791,-0.01186731,-0.00073770,
 -0.00079862,0.00112042,-0.01445212,0.00176445,0.00074150,0.00185751,0.
 00012946,-0.00064312,0.00023904,0.00006978,-0.00014609,0.00044449,0.00
 030501,0.00022177,0.00003261,-0.00002102,0.00008005,-0.00000398,0.0000
 0757,-0.00001669,-0.00087951,-0.00057026,-0.00067909,0.00075652,0.0002
 0131,0.00002150,-0.00160420,-0.00140433,-0.00079981,0.00044716,0.00030
 856,0.00046490,-0.00006883,0.00006404,0.00013700,-0.00000933,-0.000002
 55,0.00000652,0.00003587,0.00004797,-0.00001191,0.00000161,-0.00000115
 ,0.00000044,-0.00000415,-0.00000830,-0.00000072,0.00000672,-0.00000140
 ,-0.00000704,0.00001328,-0.00000297,0.00000219,0.00000566,0.00001099,-
 0.00002611,0.00004087,-0.00001899,0.00021142,-0.00001973,0.00011270,-0
 .00000419,0.00008887,-0.00027908,0.00002842,0.00093603,0.00042350,0.00
 059716,0.00024645,0.00100365,-0.00026088,0.38437789,0.00000614,0.00002
 565,-0.00005055,-0.00003560,-0.00004082,0.00001520,0.00001084,-0.00001
 688,-0.00002157,-0.00000296,0.00002861,-0.00000532,0.00000515,-0.00001
 108,0.00000229,-0.00016778,0.00004643,0.00001982,-0.00001768,0.0000584
 9,0.00004214,0.00004069,-0.00000610,-0.00005065,-0.00003690,-0.0000246
 8,0.00013609,0.00000732,-0.00002575,-0.00009904,-0.00001552,0.00001035
 ,0.00001462,0.00006664,0.00010342,0.00009621,0.00008635,0.00050722,-0.
 00034025,-0.00008100,-0.00025118,-0.00018534,-0.00196945,0.00180700,-0
 .00097688,0.03417526,-0.00383850,0.00001941,0.02076724,-0.04232299,0.0
 0483835,-0.02741483,-0.00437354,-0.01229112,-0.00138704,-0.00077164,0.
 00126471,-0.01029093,0.00251855,0.00281831,0.00013416,0.00066918,-0.00
 141628,0.00012641,0.00006558,-0.00022425,-0.00002711,-0.00011242,-0.00
 007004,-0.00009639,-0.00003380,0.00006282,0.00000471,0.00001595,0.0000
 0052,0.00159223,0.00215280,0.00162115,-0.00029429,-0.00009535,-0.00038
 561,0.00017482,-0.00104207,-0.00016815,0.00005850,0.00018207,0.0004532
 3,-0.00002842,0.00009810,0.00004746,-0.00000492,-0.00000086,0.00000226
 ,0.00002659,0.00005165,-0.00000773,0.00000565,0.00000929,-0.00000809,-
 0.00001151,-0.00001373,-0.00000645,-0.00000121,0.00000006,-0.00000062,
 -0.00000098,0.00000070,0.00000157,-0.00000746,-0.00002667,0.00004696,-
 0.00023125,0.00007802,-0.00015578,-0.00009499,-0.00007367,-0.00000314,
 -0.00024914,0.00009815,-0.00006603,-0.00060468,-0.00032846,-0.00055282
 ,0.00159361,-0.00523129,0.00201775,-0.01514409,0.05016439,0.00001702,0
 .00002249,-0.00005558,-0.00005992,-0.00003510,0.00001968,0.00000118,-0
 .00004916,0.00002442,0.00000954,0.00003452,-0.00001320,-0.00000081,-0.
 00001021,0.00000625,-0.00001538,0.00000073,0.00005347,0.00005560,0.000
 05026,0.00001306,-0.00004065,0.00001237,-0.00001108,-0.00007850,-0.000
 02406,0.00013550,0.00002634,-0.00002247,-0.00009526,-0.00001944,0.0000
 0559,0.00001589,0.00005011,0.00011614,0.00009578,0.00017924,0.00044292
 ,-0.00046921,-0.00033799,-0.00047359,-0.00054226,0.00045979,-0.0013380
 4,0.00154844,-0.01119150,0.00308876,0.00124579,0.00004333,0.00546959,-
 0.04206152,-0.02800408,-0.00944317,-0.00958089,-0.00244081,-0.00065620
 ,0.00098252,0.03302298,-0.00070563,-0.00026552,-0.00204564,-0.00095990
 ,0.00248894,-0.00012694,-0.00037415,0.00035095,0.00005931,0.00014267,0
 .00013155,0.00002463,-0.00001476,0.00000353,0.00000426,-0.00000849,-0.
 00001048,0.00045932,-0.00038426,-0.00058681,-0.00000212,-0.00042972,-0
 .00022387,0.00104163,0.00130884,0.00135265,-0.00043692,-0.00013555,-0.
 00046721,-0.00000392,-0.00014974,-0.00008937,-0.00000869,0.00000003,-0
 .00000037,0.00003310,0.00005398,-0.00001050,0.00002008,0.00000082,-0.0
 0001747,0.00000311,-0.00001296,0.00000075,0.00001040,-0.00000136,-0.00
 000983,0.00001237,-0.00000219,0.00000623,0.00001946,0.00001619,-0.0000
 3743,0.00017237,0.00000368,0.00005594,0.00002608,0.00008564,0.00000761
 ,0.00004393,-0.00007860,-0.00000955,0.00026205,-0.00018448,0.00026301,
 -0.00086223,0.00146739,-0.00042261,0.00839563,0.00241725,0.05159918,0.
 00000315,0.00000246,-0.00002850,-0.00001064,-0.00000660,0.00001650,-0.
 00000845,-0.00002055,0.00001691,0.00000640,0.00001588,-0.00001474,-0.0
 0000128,-0.00000342,0.00000469,0.00001629,-0.00000670,0.00002727,0.000
 01754,0.00002129,-0.00000148,-0.00001327,-0.00000379,-0.00000060,-0.00
 001391,0.00000505,0.00003818,0.00000619,-0.00001571,-0.00003408,-0.000
 00724,0.00000412,0.00000587,0.00000610,0.00003287,0.00004534,-0.000003
 32,0.00007577,-0.00012925,-0.00010760,-0.00015201,0.00000522,0.0004508
 7,-0.00003226,0.00013849,-0.00095295,0.00086802,-0.00016578,-0.0133032
 1,-0.00543723,-0.00021984,0.00207109,0.00026602,-0.00215755,0.00043189
 ,0.00005459,-0.00003379,-0.34476232,-0.06812778,-0.02984851,-0.0144070
 0,0.00955207,-0.00891475,-0.00023221,0.00036073,0.00028845,-0.00000667
 ,-0.00002979,0.00000262,0.00003299,0.00003215,-0.00001182,-0.00000615,
 -0.00000695,-0.00000496,-0.00006086,-0.00000655,-0.00009656,0.00095987
 ,-0.00108786,0.00021701,-0.00312917,-0.00096368,0.00027984,0.00109420,
 -0.00003461,-0.00020224,0.00018475,0.00025083,0.00015147,-0.00000355,0
 .00000122,0.00000370,0.00000489,0.00001197,-0.00000368,0.00000376,0.00
 000095,-0.00000314,0.00000040,-0.00000448,-0.00000104,0.00000322,-0.00
 000018,-0.00000272,0.00000598,-0.00000063,-0.00000035,0.00000388,0.000
 00383,-0.00000805,0.00001793,-0.00000835,0.00002046,0.00000270,0.00000
 108,0.00001093,0.00001990,-0.00002414,0.00000712,0.00005371,0.00010654
 ,0.00003909,0.00056501,-0.00042270,0.00019431,-0.00006748,-0.00083609,
 0.00156142,0.37049229,0.00000121,-0.00000428,0.00000841,0.00000191,0.0
 0000223,-0.00000631,-0.00000661,0.00000634,0.00000182,0.00000345,-0.00
 000791,0.00000130,-0.00000159,0.00000296,-0.00000105,-0.00000105,-0.00
 001155,-0.00000177,0.00001082,-0.00000245,0.00000809,-0.00000859,-0.00
 000264,-0.00002048,0.00000690,0.00000872,-0.00002725,-0.00000194,0.000
 00214,0.00002257,0.00000463,-0.00000149,-0.00000657,-0.00000714,0.0000
 0113,-0.00000411,0.00001458,-0.00004610,0.00002480,-0.00003059,0.00005
 568,0.00003043,0.00019440,0.00001941,0.00000227,-0.00069593,0.00031849
 ,-0.00030047,-0.00722358,-0.00026427,-0.00155447,0.00101651,0.00007187
 ,-0.00040050,0.00011250,0.00002931,-0.00006506,-0.07073870,-0.05594383
 ,-0.00823669,0.03799106,-0.00726349,0.01264374,0.00077509,0.00095659,-
 0.00068047,-0.00001292,0.00004229,-0.00005278,0.00001682,-0.00001622,0
 .00001475,-0.00000634,0.00000348,-0.00000347,-0.00025683,-0.00010209,0
 .00001315,0.00155218,0.00182615,0.00064807,-0.02979858,-0.00609327,-0.
 00371817,0.00177215,0.00163641,0.00171623,0.00002213,0.00014124,0.0004
 4338,0.00000055,0.00000122,-0.00000205,-0.00000508,-0.00000705,0.00000
 252,0.00000036,-0.00000236,0.00000017,0.00000246,0.00000203,0.00000037
 ,0.00000131,-0.00000050,-0.00000054,0.00000212,0.00000051,0.00000119,0
 .00000232,0.00000280,-0.00000430,0.00001645,-0.00001106,0.00000578,0.0
 0000275,-0.00001577,0.00000288,0.00003216,-0.00004929,0.00003050,0.000
 21400,0.00012852,-0.00003363,0.00008455,-0.00025348,0.00027888,0.00000
 466,-0.00020189,0.00119242,0.06518536,0.06867450,-0.00000514,-0.000015
 53,0.00000308,0.00000922,0.00001814,-0.00000264,0.00001277,0.00002543,
 0.00000582,-0.00000594,-0.00001390,-0.00001706,0.00000028,0.00000699,-
 0.00000254,-0.00003412,-0.00001926,-0.00003938,-0.00001361,-0.00000957
 ,-0.00001799,0.00000696,-0.00001556,0.00001440,0.00001623,0.00002151,-
 0.00005106,-0.00000727,-0.00000493,0.00003363,0.00000688,-0.00000117,-
 0.00001040,0.00000982,-0.00001551,-0.00000349,-0.00002371,-0.00023777,
 0.00007541,0.00017657,0.00032178,0.00025103,-0.00065558,0.00004018,-0.
 00064026,0.00132874,-0.00137044,0.00097234,0.03171626,0.00854709,0.000
 18709,-0.00098877,0.00051982,0.00293366,-0.00000670,0.00014457,-0.0000
 2125,-0.02986740,-0.00862222,-0.04553369,-0.01743048,0.00685097,-0.002
 72459,-0.00106874,-0.00015226,0.00022825,0.00005197,0.00000851,0.00006
 318,-0.00000539,0.00001584,0.00000091,-0.00000600,-0.00000237,-0.00000
 010,0.00024512,0.00005018,-0.00042514,0.00133795,0.00026343,0.00062005
 ,-0.02384543,-0.00834139,-0.00347299,0.00063505,0.00165825,0.00245763,
 -0.00007161,0.00030207,0.00038047,0.00000111,0.00000335,0.00000008,-0.
 00001081,-0.00001887,0.00000556,-0.00000395,0.,0.00000397,-0.00000572,
 0.00000462,-0.00000875,-0.00000259,0.00000043,0.00000349,-0.00000278,0
 .00000138,-0.00000147,-0.00000379,-0.00000477,0.00001060,-0.00003900,-
 0.00000002,-0.00004697,-0.00000866,0.00003662,0.00000852,-0.00000484,0
 .00000757,0.00000093,-0.00006787,-0.00004159,-0.00015150,-0.00048881,0
 .00025187,0.00002164,0.00161473,0.00128715,-0.00508688,0.03835920,0.00
 136941,0.05247037,0.00000255,-0.00000550,-0.00002393,-0.00000847,0.000
 00601,0.00001614,0.00000127,-0.00000443,0.00001982,0.00000489,0.000008
 05,-0.00002635,-0.00000260,0.00000067,0.00000318,-0.00002467,-0.000006
 36,0.00000043,0.00001637,0.00000547,-0.00003512,-0.00001246,-0.0000060
 5,0.00003699,-0.00001149,0.00001229,0.00000946,0.00000677,-0.00001409,
 -0.00001485,-0.00000518,0.00000197,0.00000182,0.00000429,0.00000876,0.
 00003539,-0.00000088,-0.00004279,-0.00007949,0.00005818,0.00003658,0.0
 0010901,0.00005847,-0.00002465,-0.00035423,0.00000724,0.00041529,0.000
 05867,-0.00085989,-0.00046370,0.00039750,0.00041335,-0.00004271,-0.000
 13271,0.00003246,-0.00000233,-0.00006161,-0.00610193,0.00138534,-0.002
 82220,0.00220983,-0.00009455,0.00183139,-0.00041403,-0.00028463,-0.000
 11821,0.00085090,-0.00015476,0.00008106,0.00001973,0.00024024,-0.00013
 065,-0.00000230,0.00000015,-0.00003747,0.00003453,-0.00136329,0.001673
 57,-0.01041924,0.01162576,-0.00636927,-0.33042810,-0.04112877,-0.07772
 590,-0.01843352,-0.00248157,0.00680644,0.00036830,0.00014097,0.0005576
 2,-0.00000382,0.00000203,0.00000388,-0.00000038,0.00000262,-0.00000111
 ,0.00000433,0.00000037,-0.00000250,0.00000070,-0.00000222,-0.00000282,
 0.00000371,-0.00000063,-0.00000182,0.00000634,0.00000022,-0.00000062,0
 .00000463,-0.00000266,-0.00000319,0.00000408,-0.00000627,-0.00000369,-
 0.00003721,-0.00002836,-0.00000300,0.00008311,-0.00034553,0.00015155,0
 .00112294,0.00024169,-0.00090726,0.00006407,-0.00003234,0.00027004,0.0
 0074690,0.00016988,-0.00033873,0.00064228,-0.00024989,-0.00085417,0.35
 999396,0.00000247,0.00001429,0.00000299,-0.00000296,-0.00001679,0.0000
 0024,-0.00000467,0.00000101,-0.00000813,0.00000013,0.00000937,0.000009
 07,0.00000083,-0.00000374,-0.00000113,0.00000651,-0.00004603,-0.000017
 59,0.00000962,0.00005362,0.00008769,-0.00001298,-0.00003290,-0.0001206
 9,-0.00000420,-0.00001358,0.00002525,0.00000310,0.00000571,-0.00001802
 ,-0.00000412,0.00000022,0.00000594,-0.00000167,0.00001208,0.00000446,0
 .00000374,0.00014515,-0.00001506,-0.00007263,-0.00008175,-0.00010694,0
 .00002766,0.00028888,0.00024577,-0.00041790,-0.00055406,0.00008066,-0.
 00087646,-0.00000010,0.00089814,0.00042008,-0.00005452,-0.00064657,0.0
 0020231,-0.00006520,0.00005640,-0.02620160,-0.00303484,-0.00960915,0.0
 0074632,0.00391857,0.00097679,-0.00051936,-0.00043978,0.00010544,0.000
 36007,0.00019860,-0.00009371,-0.00024504,-0.00017986,0.00018187,0.0000
 0125,0.00004086,0.00000585,0.00508335,0.00085241,-0.00361093,0.0347752
 2,-0.01232195,0.01769350,-0.04265860,-0.04789785,-0.01246902,-0.002482
 80,0.00353815,0.00025136,0.00006555,0.00046480,-0.00030148,0.00000029,
 -0.00000306,-0.00000089,0.00000671,0.00000983,-0.00000286,-0.00000057,
 0.00000042,0.00000051,0.00000073,-0.00000206,0.00000218,-0.00000010,-0
 .00000013,-0.00000029,0.00000100,-0.00000061,0.00000073,-0.00000303,0.
 00000562,0.00000107,-0.00000263,0.00000324,-0.00000224,0.00005587,-0.0
 0000888,-0.00000829,-0.00023904,-0.00001967,-0.00001540,-0.00125325,0.
 00025828,-0.00001276,-0.00005862,-0.00017648,-0.00003500,0.00042648,0.
 00015169,-0.00043850,0.00037925,-0.00363304,-0.00287001,0.03248369,0.0
 5861407,-0.00000032,-0.00000294,-0.00003019,-0.00000651,0.00000385,0.0
 0001980,0.00000559,-0.00000716,0.00002215,0.00000048,0.00001264,-0.000
 02879,0.00000012,-0.00000115,0.00000310,-0.00002240,-0.00000945,-0.000
 00422,0.00000933,0.00000930,-0.00003432,-0.00000866,-0.00000394,0.0000
 4037,-0.00000797,0.00001257,0.00001975,0.00000128,-0.00001767,-0.00002
 520,-0.00000323,0.00000335,0.00000429,0.00001415,0.00001506,0.00004527
 ,-0.00001173,-0.00002625,-0.00008500,0.00006796,0.00002523,0.00009217,
 -0.00002502,0.00006492,-0.00032017,0.00046070,-0.00017138,-0.00009178,
 -0.00123145,0.00020499,0.00082174,0.00048142,0.00000477,-0.00008896,0.
 00009126,0.00008632,0.00006290,-0.02425468,-0.00454605,-0.00252508,0.0
 0230051,0.00122474,0.00162244,0.00013416,-0.00029992,-0.00006089,-0.00
 004051,0.00000980,0.00001144,0.00013267,0.00014280,-0.00012776,-0.0000
 0320,-0.00002170,-0.00000905,-0.00404541,0.00033907,0.00240831,-0.0127
 8321,0.00874907,-0.00446855,-0.08353266,-0.01546082,-0.06903591,0.0401
 8257,0.00242238,-0.00673827,0.00211219,0.00083267,0.00362053,-0.000002
 79,0.00000125,0.00000470,0.00000283,0.00000498,-0.00000198,0.00000089,
 0.00000024,-0.00000203,-0.00000191,-0.00000186,-0.00000320,0.00000152,
 -0.00000042,-0.00000143,0.00000385,-0.00000009,-0.00000065,0.00000233,
 -0.00000153,-0.00000332,0.00000071,-0.00000557,0.00000156,-0.00001275,
 -0.00003217,-0.00000074,0.00016621,-0.00006094,-0.00000145,0.00087087,
 0.00021449,-0.00013408,0.00014408,0.00000029,0.00021032,0.00037047,-0.
 00013952,-0.00033424,0.00044936,-0.00334299,-0.00249392,0.07798689,0.0
 0976873,0.07764033\\0.01399171,-0.01749118,-0.00995321,-0.01712334,0.0
 1145000,0.00582592,0.02593962,-0.04413633,0.01969638,-0.00160695,0.020
 75626,0.02073100,-0.00860987,-0.01165113,-0.02217331,-0.01468531,0.007
 54324,-0.01826871,0.01444209,0.01179886,0.01109592,0.00172329,0.003258
 62,0.01499397,-0.00776157,0.01693485,-0.00031806,-0.00337985,0.0098698
 4,0.00591661,0.01309198,-0.02927584,-0.00256916,-0.00213172,-0.0098806
 3,0.01639298,-0.00297043,0.01295546,-0.00326618,-0.02682229,0.01968252
 ,-0.02060527,-0.00998906,-0.00474853,-0.00403325,0.01857043,-0.0089365
 2,-0.02256607,0.01467810,0.03711578,0.05805465,-0.00125826,0.01661124,
 0.01443809,-0.00721851,0.00546418,-0.02339871,0.00029144,-0.02276300,-
 0.01604877,0.00104602,-0.00522058,-0.01155566,-0.00511540,-0.00668413,
 0.02901031,0.01498144,-0.02140551,-0.00588697,-0.01147515,-0.01013316,
 0.00936598,-0.00440347,0.03150971,-0.00848722,-0.00859614,-0.03311902,
 0.02744400,-0.01989908,0.01282479,0.04088344,0.04181247,-0.02680786,-0
 .04647795,-0.00682057,0.03064609,0.00113410,-0.00230975,-0.00154897,-0
 .00466842,-0.00289936,0.00223380,0.00065658,0.00622956,0.00656279,-0.0
 1850672,-0.02052697,-0.00206561,-0.00535107,0.02094712,-0.00214755,0.0
 0040623,-0.02118666,0.00452685,-0.00161780,0.02626076,-0.00208902,-0.0
 0400308,-0.02117927,0.00586033,0.00228356,0.01951822,-0.00361106,-0.00
 628085,-0.00055992,-0.00715515,-0.01765820,0.02137735,0.00091552,0.001
 75815,-0.02217555,-0.00022188,-0.00465644,0.02119048,0.00136307,-0.001
 43157,-0.02191552,0.00092374,-0.00184828,0.01767591,0.00191198,0.00445
 399,-0.02114800,-0.00162683,-0.00291094\\\@



 IN THIS SHORT LIFE

 THAT ONLY LASTS AN HOUR

 HOW MUCH, HOW LITTLE, IS WITHIN OUR POWER....


 EMILY DICKINSON BOLTS OF MELODY NO. 521
 Job cpu time:  0 days 13 hours  4 minutes 30.3 seconds.
 File lengths (MBytes):  RWF=   1322 Int=      0 D2E=      0 Chk=     19 Scr=      1
 Normal termination of Gaussian 09 at Tue Mar  1 03:27:52 2016.
Gaussian '09 finished on node018 at Tue Mar  1 03:27:52 EST 2016.
