Gaussian '09 started on node010 at Mon Feb  8 13:54:04 EST 2016.
 Entering Gaussian System, Link 0=/usr/local/gaussian/g09/g09
 Initial command:
 /usr/local/gaussian/g09/l1.exe /home/srmcgrat/thesis/gaussian/cellobiose/320/7000/1/2dfp/gaussian7915/Gau-7995.inp -scrdir=/home/srmcgrat/thesis/gaussian/cellobiose/320/7000/1/2dfp/gaussian7915/
 Entering Link 1 = /usr/local/gaussian/g09/l1.exe PID=      7997.
  
 Copyright (c) 1988,1990,1992,1993,1995,1998,2003,2009,2010,
            Gaussian, Inc.  All Rights Reserved.
  
 This is part of the Gaussian(R) 09 program.  It is based on
 the Gaussian(R) 03 system (copyright 2003, Gaussian, Inc.),
 the Gaussian(R) 98 system (copyright 1998, Gaussian, Inc.),
 the Gaussian(R) 94 system (copyright 1995, Gaussian, Inc.),
 the Gaussian 92(TM) system (copyright 1992, Gaussian, Inc.),
 the Gaussian 90(TM) system (copyright 1990, Gaussian, Inc.),
 the Gaussian 88(TM) system (copyright 1988, Gaussian, Inc.),
 the Gaussian 86(TM) system (copyright 1986, Carnegie Mellon
 University), and the Gaussian 82(TM) system (copyright 1983,
 Carnegie Mellon University). Gaussian is a federally registered
 trademark of Gaussian, Inc.
  
 This software contains proprietary and confidential information,
 including trade secrets, belonging to Gaussian, Inc.
  
 This software is provided under written license and may be
 used, copied, transmitted, or stored only in accord with that
 written license.
  
 The following legend is applicable only to US Government
 contracts under FAR:
  
                    RESTRICTED RIGHTS LEGEND
  
 Use, reproduction and disclosure by the US Government is
 subject to restrictions as set forth in subparagraphs (a)
 and (c) of the Commercial Computer Software - Restricted
 Rights clause in FAR 52.227-19.
  
 Gaussian, Inc.
 340 Quinnipiac St., Bldg. 40, Wallingford CT 06492
  
  
 ---------------------------------------------------------------
 Warning -- This program may not be used in any manner that
 competes with the business of Gaussian, Inc. or will provide
 assistance to any competitor of Gaussian, Inc.  The licensee
 of this program is prohibited from giving any competitor of
 Gaussian, Inc. access to this program.  By using this program,
 the user acknowledges that Gaussian, Inc. is engaged in the
 business of creating and licensing software in the field of
 computational chemistry and represents and warrants to the
 licensee that it is not a competitor of Gaussian, Inc. and that
 it will not use this program in any manner prohibited above.
 ---------------------------------------------------------------
  

 Cite this work as:
 Gaussian 09, Revision B.01,
 M. J. Frisch, G. W. Trucks, H. B. Schlegel, G. E. Scuseria, 
 M. A. Robb, J. R. Cheeseman, G. Scalmani, V. Barone, B. Mennucci, 
 G. A. Petersson, H. Nakatsuji, M. Caricato, X. Li, H. P. Hratchian, 
 A. F. Izmaylov, J. Bloino, G. Zheng, J. L. Sonnenberg, M. Hada, 
 M. Ehara, K. Toyota, R. Fukuda, J. Hasegawa, M. Ishida, T. Nakajima, 
 Y. Honda, O. Kitao, H. Nakai, T. Vreven, J. A. Montgomery, Jr., 
 J. E. Peralta, F. Ogliaro, M. Bearpark, J. J. Heyd, E. Brothers, 
 K. N. Kudin, V. N. Staroverov, T. Keith, R. Kobayashi, J. Normand, 
 K. Raghavachari, A. Rendell, J. C. Burant, S. S. Iyengar, J. Tomasi, 
 M. Cossi, N. Rega, J. M. Millam, M. Klene, J. E. Knox, J. B. Cross, 
 V. Bakken, C. Adamo, J. Jaramillo, R. Gomperts, R. E. Stratmann, 
 O. Yazyev, A. J. Austin, R. Cammi, C. Pomelli, J. W. Ochterski, 
 R. L. Martin, K. Morokuma, V. G. Zakrzewski, G. A. Voth, 
 P. Salvador, J. J. Dannenberg, S. Dapprich, A. D. Daniels, 
 O. Farkas, J. B. Foresman, J. V. Ortiz, J. Cioslowski, 
 and D. J. Fox, Gaussian, Inc., Wallingford CT, 2010.
 
 ******************************************
 Gaussian 09:  EM64L-G09RevB.01 12-Aug-2010
                 8-Feb-2016 
 ******************************************
 --------------------------------------------------
 # freq=raman b3lyp/6-31+g(2df,p) geom=connectivity
 --------------------------------------------------
 1/10=4,30=1,38=1,57=2/1,3;
 2/12=2,17=6,18=5,40=1/2;
 3/5=1,6=6,7=114,11=2,16=1,25=1,30=1,71=2,74=-5/1,2,3;
 4//1;
 5/5=2,38=5,98=1/2;
 8/6=4,10=90,11=11/1;
 10/13=10,15=4/2;
 11/6=3,8=1,9=11,15=111,16=1/1,2,10;
 10/6=1/2;
 6/7=2,8=2,9=2,10=2,18=1,28=1/1;
 7/8=1,10=1,25=1/1,2,3,16;
 1/10=4,30=1/3;
 99//99;
 ------------
 320 7000.com
 ------------
 Symbolic Z-matrix:
 Charge =  0 Multiplicity = 1
 O                     7.71      7.631     12.38 
 C                     8.24      7.964     13.672 
 C                     7.829     9.36      14.11 
 O                     8.348     10.332    13.191 
 H                     8.016     10.06     12.288 
 C                     8.344     9.745     15.487 
 O                     7.9       11.048    15.892 
 H                     8.201     11.254    16.824 
 C                     8.135     5.544     14.59 
 O                     7.587     4.935     13.412 
 H                     7.867     3.977     13.354 
 C                     7.864     7.024     14.805 
 O                     8.486     7.392     16.045 
 C                     8.036     8.67      16.517 
 O                     8.771     8.916     17.724 
 C                     8.004     8.562     18.884 
 C                     8.423     7.178     19.352 
 O                     7.948     6.214     18.401 
 H                     8.367     6.453     17.526 
 C                     7.842     6.881     20.725 
 O                     8.49      5.662     21.117 
 H                     8.459     5.443     22.092 
 C                     7.888     10.983    19.494 
 O                     8.568     11.626    18.406 
 H                     8.46      12.619    18.375 
 C                     8.305     9.596     19.956 
 O                     7.617     9.249     21.166 
 C                     8.13      8.017     21.693 
 O                     7.361     7.831     22.89 
 H                     7.95363   7.71504   23.63629 
 H                     9.17516   8.09161   21.90974 
 H                     6.78625   6.72476   20.64835 
 H                     9.49075   7.12954   19.4017 
 H                     6.96001   8.56978   18.64966 
 H                     9.35788   9.59837   20.14664 
 H                     7.9667    11.63245   20.34071 
 H                     6.85316   10.92697   19.22781 
 H                     6.98612   8.64113   16.72148 
 H                     9.40998   9.7971    15.41036 
 H                     8.43303   7.47338   11.76845 
 H                     6.76073   9.42076   14.11125 
 H                     9.30677   7.95414   13.5895 
 H                     6.80818   7.12511   14.94616 
 H                     7.75331   5.01553   15.43849 
 H                     9.19584   5.40652   14.5653 
 

 GradGradGradGradGradGradGradGradGradGradGradGradGradGradGradGradGradGrad
 Berny optimization.
 Initialization pass.
 Trust Radius=3.00D-01 FncErr=1.00D-07 GrdErr=1.00D-07
 Number of steps in this run=      2 maximum allowed number of steps=      2.
 GradGradGradGradGradGradGradGradGradGradGradGradGradGradGradGradGradGrad

                          Input orientation:                          
 ---------------------------------------------------------------------
 Center     Atomic      Atomic             Coordinates (Angstroms)
 Number     Number       Type             X           Y           Z
 ---------------------------------------------------------------------
      1          8           0        7.710000    7.631000   12.380000
      2          6           0        8.240000    7.964000   13.672000
      3          6           0        7.829000    9.360000   14.110000
      4          8           0        8.348000   10.332000   13.191000
      5          1           0        8.016000   10.060000   12.288000
      6          6           0        8.344000    9.745000   15.487000
      7          8           0        7.900000   11.048000   15.892000
      8          1           0        8.201000   11.254000   16.824000
      9          6           0        8.135000    5.544000   14.590000
     10          8           0        7.587000    4.935000   13.412000
     11          1           0        7.867000    3.977000   13.354000
     12          6           0        7.864000    7.024000   14.805000
     13          8           0        8.486000    7.392000   16.045000
     14          6           0        8.036000    8.670000   16.517000
     15          8           0        8.771000    8.916000   17.724000
     16          6           0        8.004000    8.562000   18.884000
     17          6           0        8.423000    7.178000   19.352000
     18          8           0        7.948000    6.214000   18.401000
     19          1           0        8.367000    6.453000   17.526000
     20          6           0        7.842000    6.881000   20.725000
     21          8           0        8.490000    5.662000   21.117000
     22          1           0        8.459000    5.443000   22.092000
     23          6           0        7.888000   10.983000   19.494000
     24          8           0        8.568000   11.626000   18.406000
     25          1           0        8.460000   12.619000   18.375000
     26          6           0        8.305000    9.596000   19.956000
     27          8           0        7.617000    9.249000   21.166000
     28          6           0        8.130000    8.017000   21.693000
     29          8           0        7.361000    7.831000   22.890000
     30          1           0        7.953625    7.715035   23.636289
     31          1           0        9.175160    8.091610   21.909736
     32          1           0        6.786248    6.724756   20.648346
     33          1           0        9.490746    7.129540   19.401697
     34          1           0        6.960006    8.569783   18.649659
     35          1           0        9.357877    9.598367   20.146643
     36          1           0        7.966696   11.632455   20.340709
     37          1           0        6.853155   10.926971   19.227810
     38          1           0        6.986117    8.641128   16.721477
     39          1           0        9.409979    9.797098   15.410360
     40          1           0        8.433025    7.473380   11.768452
     41          1           0        6.760727    9.420764   14.111247
     42          1           0        9.306769    7.954141   13.589499
     43          1           0        6.808183    7.125114   14.946165
     44          1           0        7.753313    5.015529   15.438489
     45          1           0        9.195843    5.406516   14.565299
 ---------------------------------------------------------------------
                    Distance matrix (angstroms):
                    1          2          3          4          5
     1  O    0.000000
     2  C    1.435637   0.000000
     3  C    2.448776   1.519731   0.000000
     4  O    2.891395   2.418770   1.434819   0.000000
     5  H    2.449927   2.521676   1.960779   0.999808   0.000000
     6  C    3.811089   2.544995   1.519730   2.369853   3.231162
     7  O    4.903686   3.815109   2.455587   2.829975   3.738772
     8  H    5.754680   4.556394   3.330378   3.751051   4.694162
     9  C    3.069250   2.590396   3.858224   4.992746   5.070268
    10  O    2.889389   3.109477   4.486245   5.454867   5.264318
    11  H    3.784844   4.017017   5.435961   6.375261   6.177495
    12  C    2.504554   1.519429   2.437447   3.712427   3.946605
    13  O    3.753868   2.453330   2.837058   4.099751   4.631865
    14  C    4.277916   2.938380   2.512488   3.731201   4.451622
    15  O    5.597793   4.196066   3.761050   4.767816   5.606145
    16  C    6.576870   5.251499   4.843398   5.971724   6.763975
    17  C    7.022988   5.737045   5.708986   6.921796   7.640135
    18  O    6.190071   5.050862   5.322045   6.652971   7.222542
    19  H    5.319835   4.141566   4.517649   5.817149   6.369481
    20  C    8.379675   7.146755   7.064265   8.302204   9.017721
    21  O    8.990024   7.796777   7.950483   9.200573   9.875137
    22  H    9.983551   8.792031   8.913591  10.155907  10.845799
    23  C    7.866167   6.567644   5.623617   6.353205   7.266000
    24  O    7.280719   5.994046   4.912890   5.377645   6.339320
    25  H    7.834709   6.620848   5.404578   5.667166   6.617944
    26  C    7.849269   6.492789   5.870093   6.805055   7.687460
    27  O    8.934225   7.628852   7.060057   8.081329   8.923890
    28  C    9.330454   8.021929   7.706889   8.814236   9.625013
    29  O   10.517695   9.260770   8.924420  10.064779  10.853565
    30  H   11.259239   9.971512   9.668073  10.775347  11.588202
    31  H    9.652705   8.291628   8.016036   9.039905   9.889186
    32  H    8.368999   7.233154   7.126136   8.429904   9.084686
    33  H    7.261319   5.923691   5.978161   7.080563   7.833719
    34  H    6.383763   5.175176   4.689147   5.901601   6.618654
    35  H    8.179656   6.770658   6.231801   7.066756   7.985738
    36  H    8.913496   7.616031   6.633607   7.277012   8.204947
    37  H    7.647883   6.447446   5.440556   6.247530   7.089768
    38  H    4.515838   3.366012   2.836731   4.144641   4.767555
    39  H    4.094508   2.784061   2.093200   2.517833   3.429494
    40  H    0.960000   1.975212   3.067088   3.194148   2.671038
    41  H    2.664880   2.122109   1.070000   2.048570   2.304032
    42  H    2.029034   1.070000   2.105033   2.594659   2.791886
    43  H    2.766658   2.092206   2.595372   3.966832   4.139833
    44  H    4.024540   3.471430   4.543682   5.802562   5.953257
    45  H    3.454213   2.872689   4.207801   5.183428   5.313476
                    6          7          8          9         10
     6  C    0.000000
     7  O    1.434911   0.000000
     8  H    2.021163   1.000830   0.000000
     9  C    4.300778   5.660781   6.131820   0.000000
    10  O    5.292898   6.604327   7.207531   1.434876   0.000000
    11  H    6.168228   7.512761   8.068902   2.013705   0.999764
    12  C    2.845938   4.168386   4.699237   1.519890   2.526084
    13  O    2.422424   3.705825   3.950077   2.378094   3.711838
    14  C    1.520325   2.462520   2.607399   3.673555   4.877792
    15  O    2.423580   2.942837   2.569269   4.647240   5.986949
    16  C    3.613129   3.891411   3.395478   5.250135   6.578131
    17  C    4.640469   5.217473   4.801442   5.042771   6.404182
    18  O    4.595234   5.446553   5.287016   3.873963   5.162972
    19  H    3.872378   4.899191   4.854890   3.082240   4.453956
    20  C    5.990922   6.381625   5.871100   6.285829   7.571784
    21  O    6.956228   7.527132   7.055766   6.537712   7.791724
    22  H    7.883302   8.376664   7.847682   7.509672   8.738469
    23  C    4.218605   3.602606   2.701909   7.327547   8.582519
    24  O    3.479784   2.664677   1.666072   7.193057   8.406657
    25  H    4.076012   2.991142   2.082284   8.030409   9.188980
    26  C    4.471653   4.334562   3.545307   6.726185   8.066250
    27  O    5.746789   5.579567   4.818096   7.565654   8.873332
    28  C    6.445635   6.549157   5.847253   7.521194   8.852600
    29  O    7.709351   7.720856   7.015617   8.644041   9.913142
    30  H    8.407381   8.431224   7.680674   9.304926  10.601844
    31  H    6.684015   6.824911   6.067487   7.819896   9.203149
    32  H    6.179640   6.523320   6.094358   6.317980   7.497275
    33  H    4.845669   5.495705   5.031813   5.244465   6.657081
    34  H    3.646778   3.824896   3.475359   5.197769   6.406078
    35  H    4.770925   4.725339   3.888373   6.986387   8.380836
    36  H    5.221430   4.487432   3.544766   8.376649   9.644017
    37  H    4.196824   3.498308   2.775236   7.220027   8.382475
    38  H    2.141569   2.704857   2.883324   3.931327   5.004906
    39  H    1.070000   2.019102   2.362747   4.515241   5.563874
    40  H    4.358415   5.483217   6.317079   3.431101   3.140124
    41  H    2.122399   2.667756   3.576894   4.140909   4.614515
    42  H    2.781117   4.105177   4.751189   2.860564   3.479127
    43  H    3.084646   4.180395   4.744882   2.094568   2.785106
    44  H    4.766462   6.051273   6.406137   1.070000   2.034896
    45  H    4.516371   5.938492   6.347008   1.070000   2.034896
                   11         12         13         14         15
    11  H    0.000000
    12  C    3.374851   0.000000
    13  O    4.391682   1.435238   0.000000
    14  C    5.661924   2.381143   1.434771   0.000000
    15  O    6.656413   3.594840   2.285354   1.434430   0.000000
    16  C    7.184838   4.361569   3.108238   2.369679   1.434993
    17  C    6.821403   4.583820   3.314516   3.226927   2.406685
    18  O    5.521136   3.687055   2.688469   3.096633   2.904559
    19  H    4.877106   2.825401   1.757624   2.458197   2.503755
    20  C    7.922467   5.921768   4.751658   4.576617   3.743029
    21  O    7.968157   6.487547   5.358927   5.514905   4.709557
    22  H    8.879880   7.480238   6.353388   6.455469   5.589141
    23  C    9.315797   6.136854   5.014827   3.772851   2.860958
    24  O    9.193547   5.885679   4.848484   3.548138   2.801862
    25  H   10.012305   6.663643   5.722858   4.384808   3.772629
    26  C    8.680519   5.774294   4.492916   3.571632   2.379365
    27  O    9.427822   6.743438   5.516181   4.703616   3.645541
    28  C    9.269827   6.964291   5.693616   5.217875   4.119714
    29  O   10.297798   8.140730   6.950710   6.463333   5.463779
    30  H   10.941018   8.858738   7.616787   7.183524   6.088151
    31  H    9.583418   7.303164   5.946387   5.542005   4.285248
    32  H    7.869286   5.949436   4.952289   4.734329   4.158436
    33  H    7.010685   4.877199   3.513661   3.579215   2.554240
    34  H    7.068259   4.241232   3.240382   2.390824   2.063107
    35  H    8.942174   6.114915   4.738323   3.972849   2.584424
    36  H   10.364846   7.203643   6.058403   4.837529   3.856578
    37  H    9.155961   5.984667   5.029163   3.720421   3.159680
    38  H    5.819789   2.656815   2.065815   1.070000   2.065530
    39  H    6.362621   3.232118   2.653488   2.093519   2.556865
    40  H    3.880595   3.121915   4.277650   4.913068   6.137094
    41  H    5.606409   2.728182   3.291177   2.824467   4.165089
    42  H    4.236277   2.103375   2.649368   3.270714   4.278589
    43  H    3.683300   1.070000   2.023298   2.522247   3.843994
    44  H    2.331643   2.108914   2.559746   3.820767   4.633889
    45  H    2.297082   2.108914   2.575954   3.975513   4.740713
                   16         17         18         19         20
    16  C    0.000000
    17  C    1.519882   0.000000
    18  O    2.397818   1.435034   0.000000
    19  H    2.534524   1.965461   0.999153   0.000000
    20  C    2.498257   1.520164   2.420145   3.269925   0.000000
    21  O    3.692220   2.327653   2.824026   3.679143   1.435106
    22  H    4.497383   3.243319   3.805134   4.677277   2.077793
    23  C    2.499359   3.845051   4.893016   4.962194   4.282976
    24  O    3.151932   4.549796   5.447400   5.251165   5.331028
    25  H    4.114154   5.528144   6.425484   6.224870   6.231297
    26  C    1.519520   2.495088   3.739438   3.973310   2.859538
    27  O    2.414386   2.868671   4.118982   4.650776   2.419200
    28  C    2.864155   2.504007   3.757818   4.457146   1.520021
    29  O    4.122602   3.751226   4.807326   5.628802   2.412693
    30  H    4.827436   4.343254   5.446227   6.252939   3.030459
    31  H    3.278408   2.818233   4.164441   4.749242   2.155572
    32  H    2.823349   2.136562   2.580911   3.510224   1.070000
    33  H    2.128466   1.070000   2.054184   2.288832   2.128677
    34  H    1.070000   2.137918   2.566647   2.779030   2.817258
    35  H    2.121628   2.713601   4.060660   4.212237   3.164880
    36  H    3.398688   4.585621   5.755212   5.908433   4.768600
    37  H    2.652496   4.066278   4.908604   5.020388   4.425977
    38  H    2.391412   3.335420   3.104346   2.709612   4.456319
    39  H    3.945683   4.834286   4.890797   4.092276   6.261596
    40  H    7.211115   7.589305   6.768454   5.847640   8.995553
    41  H    5.006233   5.937898   5.485885   4.800861   7.166678
    42  H    5.486205   5.881315   5.293854   4.316553   7.362918
    43  H    4.359033   4.692741   3.750360   3.088235   5.875654
    44  H    4.950944   4.521099   3.201673   2.607803   5.606697
    45  H    5.479849   5.162165   4.113605   3.247747   6.476798
                   21         22         23         24         25
    21  O    0.000000
    22  H    0.999773   0.000000
    23  C    5.595496   6.145506   0.000000
    24  O    6.551710   7.199164   1.435128   0.000000
    25  H    7.477922   8.081526   2.062969   0.999337   0.000000
    26  C    4.105911   4.672646   1.520231   2.567600   3.414984
    27  O    3.692032   4.006504   2.424001   3.764589   4.456145
    28  C    2.451000   2.625437   3.700179   4.901132   5.682995
    29  O    3.020386   2.746808   4.663223   5.997093   6.672179
    30  H    3.293853   2.793274   5.276595   6.559651   7.210163
    31  H    2.645917   2.749771   3.981544   5.013653   5.788184
    32  H    2.062003   2.554434   4.547419   5.676702   6.535416
    33  H    2.469298   3.338660   4.174502   4.696917   5.678971
    34  H    4.108997   4.886048   2.719872   3.462005   4.326844
    35  H    4.146057   4.675411   2.122190   2.786582   3.615125
    36  H    6.043410   6.451258   1.070000   2.026007   2.254026
    37  H    5.828226   6.391890   1.070000   2.026007   2.484391
    38  H    5.518830   6.421831   3.739604   3.774842   4.553014
    39  H    7.107118   8.031615   4.516514   3.609386   4.201747
    40  H    9.522588  10.521347   8.502857   7.830678   8.374044
    41  H    8.136293   9.077398   5.717111   5.155018   5.594268
    42  H    7.911024   8.906013   6.786017   6.101395   6.736390
    43  H    6.561129   7.524471   6.060701   5.943517   6.683427
    44  H    5.762475   6.704471   7.216372   7.291651   8.181398
    45  H    6.594564   7.562771   7.556436   7.336699   8.189946
                   26         27         28         29         30
    26  C    0.000000
    27  O    1.434522   0.000000
    28  C    2.353940   1.434825   0.000000
    29  O    3.551720   2.246872   1.434840   0.000000
    30  H    4.148014   2.927233   1.974503   0.960000   0.000000
    31  H    2.614852   2.078595   1.070000   2.078464   2.148242
    32  H    3.321143   2.707383   2.137023   2.564981   3.357265
    33  H    2.792252   3.334037   2.808787   4.146821   4.542831
    34  H    2.137442   2.687927   3.307020   4.322857   5.156002
    35  H    1.070000   2.047388   2.529748   3.825848   4.206720
    36  H    2.099904   2.546419   3.863531   4.617013   5.119296
    37  H    2.099904   2.675000   4.021868   4.822300   5.564374
    38  H    3.621239   4.530045   5.139459   6.232777   7.043319
    39  H    4.682335   6.053311   6.654221   8.000554   8.609405
    40  H    8.459187   9.598574   9.944043  11.178817  11.879974
    41  H    6.047861   7.108604   7.831248   8.941710   9.749818
    42  H    6.650683   7.869902   8.188740   9.502658  10.140324
    43  H    5.783095   6.622041   6.932709   7.994273   8.785119
    44  H    6.457010   7.123570   6.947635   7.975325   8.633157
    45  H    6.885131   7.799146   7.665166   8.862585   9.442205
                   31         32         33         34         35
    31  H    0.000000
    32  H    3.027589   0.000000
    33  H    2.704705   3.005377   0.000000
    34  H    3.970347   2.725631   3.007409   0.000000
    35  H    2.326413   3.888781   2.582190   3.008111   0.000000
    36  H    4.057069   5.057035   4.845690   3.640472   2.471954
    37  H    4.541333   4.436328   4.626835   2.429406   2.980448
    38  H    5.657906   4.374097   3.967574   1.929678   4.274730
    39  H    6.723519   6.615115   4.801370   4.242844   4.740736
    40  H   10.187178   9.062274   7.713846   7.122000   8.692813
    41  H    8.271188   7.071264   6.378994   4.621803   6.572879
    42  H    8.322413   7.595508   5.873284   5.611732   6.760343
    43  H    7.418087   5.716261   5.200763   3.978189   6.297848
    44  H    7.304859   5.567700   4.816091   4.855272   6.763412
    45  H    7.819905   6.674381   5.142619   5.629140   6.982068
                   36         37         38         39         40
    36  H    0.000000
    37  H    1.725174   0.000000
    38  H    4.796708   3.394770   0.000000
    39  H    5.455267   4.731478   2.988379   0.000000
    40  H    9.539337   8.370502   5.290523   4.429176   0.000000
    41  H    6.719534   5.334456   2.733484   2.974535   3.475280
    42  H    7.804142   6.829970   3.958114   2.592813   2.076239
    43  H    7.124562   5.726136   2.341302   3.758233   3.585980
    44  H    8.237779   7.079152   3.921686   5.060508   4.469028
    45  H    8.580703   7.596224   4.471544   4.476292   3.560360
                   41         42         43         44         45
    41  H    0.000000
    42  H    2.984214   0.000000
    43  H    2.443225   2.961547   0.000000
    44  H    4.706686   3.803608   2.363473   0.000000
    45  H    4.717005   2.730363   2.966404   1.730961   0.000000
 Stoichiometry    C12H22O11
 Framework group  C1[X(C12H22O11)]
 Deg. of freedom   129
 Full point group                 C1      NOp   1
 Largest Abelian subgroup         C1      NOp   1
 Largest concise Abelian subgroup C1      NOp   1
                         Standard orientation:                         
 ---------------------------------------------------------------------
 Center     Atomic      Atomic             Coordinates (Angstroms)
 Number     Number       Type             X           Y           Z
 ---------------------------------------------------------------------
      1          8           0        5.012500   -0.447196   -0.372375
      2          6           0        3.709521   -0.149889    0.151942
      3          6           0        3.214342    1.213550   -0.301284
      4          8           0        4.094686    2.237815    0.183053
      5          1           0        5.007049    1.992034   -0.143752
      6          6           0        1.824291    1.558884    0.206732
      7          8           0        1.365755    2.829728   -0.276664
      8          1           0        0.427001    3.007441    0.021360
      9          6           0        2.889825   -2.607049    0.127207
     10          8           0        4.090007   -3.185161   -0.405916
     11          1           0        4.187440   -4.130662   -0.095976
     12          6           0        2.614443   -1.146281   -0.189632
     13          8           0        1.362254   -0.809000    0.425324
     14          6           0        0.837768    0.433984   -0.063013
     15          8           0       -0.376213    0.654347    0.668615
     16          6           0       -1.523008    0.229669   -0.082194
     17          6           0       -1.933549   -1.158062    0.382240
     18          8           0       -0.945633   -2.097539   -0.065787
     19          1           0       -0.079889   -1.810259    0.341968
     20          6           0       -3.294974   -1.528493   -0.183623
     21          8           0       -3.635633   -2.741101    0.504172
     22          1           0       -4.601062   -3.000110    0.483983
     23          6           0       -2.230691    2.619195   -0.272320
     24          8           0       -1.167754    3.326824    0.382675
     25          1           0       -1.177213    4.316333    0.243187
     26          6           0       -2.635121    1.228646    0.190186
     27          8           0       -3.831946    0.811454   -0.481687
     28          6           0       -4.307331   -0.423870    0.072124
     29          8           0       -5.497893   -0.682325   -0.685854
     30          1           0       -6.237290   -0.809397   -0.086902
     31          1           0       -4.524100   -0.324887    1.115251
     32          1           0       -3.214900   -1.714987   -1.234198
     33          1           0       -1.978380   -1.174534    1.451173
     34          1           0       -1.291976    0.213717   -1.126833
     35          1           0       -2.822877    1.256779    1.243209
     36          1           0       -3.102749    3.236154   -0.210856
     37          1           0       -1.965232    2.541090   -1.305921
     38          1           0        0.631808    0.363544   -1.110638
     39          1           0        1.901622    1.647876    1.270217
     40          1           0        5.631858   -0.556976    0.352845
     41          1           0        3.207772    1.240238   -1.370931
     42          1           0        3.795216   -0.122512    1.218153
     43          1           0        2.466473   -1.084542   -1.247551
     44          1           0        2.062373   -3.181164   -0.234200
     45          1           0        2.922912   -2.709647    1.191763
 ---------------------------------------------------------------------
 Rotational constants (GHZ):      0.4078187      0.1505467      0.1129003
 Standard basis: 6-31+G(2df,p) (6D, 7F)
 There are   846 symmetry adapted basis functions of A   symmetry.
 Integral buffers will be    131072 words long.
 Raffenetti 2 integral format.
 Two-electron integral symmetry is turned on.
   846 basis functions,  1258 primitive gaussians,   915 cartesian basis functions
    91 alpha electrons       91 beta electrons
       nuclear repulsion energy      2301.5167611979 Hartrees.
 NAtoms=   45 NActive=   45 NUniq=   45 SFac= 1.00D+00 NAtFMM=   50 NAOKFM=F Big=F
 One-electron integrals computed using PRISM.
 NBasis=   846 RedAO= T  NBF=   846
 NBsUse=   846 1.00D-06 NBFU=   846
 Harris functional with IExCor=  402 diagonalized for initial guess.
 ExpMin= 4.38D-02 ExpMax= 5.48D+03 ExpMxC= 8.25D+02 IAcc=2 IRadAn=         0 AccDes= 0.00D+00
 HarFok:  IExCor=  402 AccDes= 0.00D+00 IRadAn=         0 IDoV= 1
 ScaDFX=  1.000000  1.000000  1.000000  1.000000
 FoFCou: FMM=F IPFlag=           0 FMFlag=      100000 FMFlg1=           0
         NFxFlg=           0 DoJE=T BraDBF=F KetDBF=T FulRan=T
         Omega=  0.000000  0.000000  1.000000  0.000000  0.000000 ICntrl=     500 IOpCl=  0
         NMat0=    1 NMatS0=    1 NMatT0=    0 NMatD0=    1 NMtDS0=    0 NMtDT0=    0
         I1Cent=           4 NGrid=           0.
 Petite list used in FoFCou.
 Initial guess orbital symmetries:
       Occupied  (A) (A) (A) (A) (A) (A) (A) (A) (A) (A) (A) (A)
                 (A) (A) (A) (A) (A) (A) (A) (A) (A) (A) (A) (A)
                 (A) (A) (A) (A) (A) (A) (A) (A) (A) (A) (A) (A)
                 (A) (A) (A) (A) (A) (A) (A) (A) (A) (A) (A) (A)
                 (A) (A) (A) (A) (A) (A) (A) (A) (A) (A) (A) (A)
                 (A) (A) (A) (A) (A) (A) (A) (A) (A) (A) (A) (A)
                 (A) (A) (A) (A) (A) (A) (A) (A) (A) (A) (A) (A)
                 (A) (A) (A) (A) (A) (A) (A)
       Virtual   (A) (A) (A) (A) (A) (A) (A) (A) (A) (A) (A) (A)
                 (A) (A) (A) (A) (A) (A) (A) (A) (A) (A) (A) (A)
                 (A) (A) (A) (A) (A) (A) (A) (A) (A) (A) (A) (A)
                 (A) (A) (A) (A) (A) (A) (A) (A) (A) (A) (A) (A)
                 (A) (A) (A) (A) (A) (A) (A) (A) (A) (A) (A) (A)
                 (A) (A) (A) (A) (A) (A) (A) (A) (A) (A) (A) (A)
                 (A) (A) (A) (A) (A) (A) (A) (A) (A) (A) (A) (A)
                 (A) (A) (A) (A) (A) (A) (A) (A) (A) (A) (A) (A)
                 (A) (A) (A) (A) (A) (A) (A) (A) (A) (A) (A) (A)
                 (A) (A) (A) (A) (A) (A) (A) (A) (A) (A) (A) (A)
                 (A) (A) (A) (A) (A) (A) (A) (A) (A) (A) (A) (A)
                 (A) (A) (A) (A) (A) (A) (A) (A) (A) (A) (A) (A)
                 (A) (A) (A) (A) (A) (A) (A) (A) (A) (A) (A) (A)
                 (A) (A) (A) (A) (A) (A) (A) (A) (A) (A) (A) (A)
                 (A) (A) (A) (A) (A) (A) (A) (A) (A) (A) (A) (A)
                 (A) (A) (A) (A) (A) (A) (A) (A) (A) (A) (A) (A)
                 (A) (A) (A) (A) (A) (A) (A) (A) (A) (A) (A) (A)
                 (A) (A) (A) (A) (A) (A) (A) (A) (A) (A) (A) (A)
                 (A) (A) (A) (A) (A) (A) (A) (A) (A) (A) (A) (A)
                 (A) (A) (A) (A) (A) (A) (A) (A) (A) (A) (A) (A)
                 (A) (A) (A) (A) (A) (A) (A) (A) (A) (A) (A) (A)
                 (A) (A) (A) (A) (A) (A) (A) (A) (A) (A) (A) (A)
                 (A) (A) (A) (A) (A) (A) (A) (A) (A) (A) (A) (A)
                 (A) (A) (A) (A) (A) (A) (A) (A) (A) (A) (A) (A)
                 (A) (A) (A) (A) (A) (A) (A) (A) (A) (A) (A) (A)
                 (A) (A) (A) (A) (A) (A) (A) (A) (A) (A) (A) (A)
                 (A) (A) (A) (A) (A) (A) (A) (A) (A) (A) (A) (A)
                 (A) (A) (A) (A) (A) (A) (A) (A) (A) (A) (A) (A)
                 (A) (A) (A) (A) (A) (A) (A) (A) (A) (A) (A) (A)
                 (A) (A) (A) (A) (A) (A) (A) (A) (A) (A) (A) (A)
                 (A) (A) (A) (A) (A) (A) (A) (A) (A) (A) (A) (A)
                 (A) (A) (A) (A) (A) (A) (A) (A) (A) (A) (A) (A)
                 (A) (A) (A) (A) (A) (A) (A) (A) (A) (A) (A) (A)
                 (A) (A) (A) (A) (A) (A) (A) (A) (A) (A) (A) (A)
                 (A) (A) (A) (A) (A) (A) (A) (A) (A) (A) (A) (A)
                 (A) (A) (A) (A) (A) (A) (A) (A) (A) (A) (A) (A)
                 (A) (A) (A) (A) (A) (A) (A) (A) (A) (A) (A) (A)
                 (A) (A) (A) (A) (A) (A) (A) (A) (A) (A) (A) (A)
                 (A) (A) (A) (A) (A) (A) (A) (A) (A) (A) (A) (A)
                 (A) (A) (A) (A) (A) (A) (A) (A) (A) (A) (A) (A)
                 (A) (A) (A) (A) (A) (A) (A) (A) (A) (A) (A) (A)
                 (A) (A) (A) (A) (A) (A) (A) (A) (A) (A) (A) (A)
                 (A) (A) (A) (A) (A) (A) (A) (A) (A) (A) (A) (A)
                 (A) (A) (A) (A) (A) (A) (A) (A) (A) (A) (A) (A)
                 (A) (A) (A) (A) (A) (A) (A) (A) (A) (A) (A) (A)
                 (A) (A) (A) (A) (A) (A) (A) (A) (A) (A) (A) (A)
                 (A) (A) (A) (A) (A) (A) (A) (A) (A) (A) (A) (A)
                 (A) (A) (A) (A) (A) (A) (A) (A) (A) (A) (A) (A)
                 (A) (A) (A) (A) (A) (A) (A) (A) (A) (A) (A) (A)
                 (A) (A) (A) (A) (A) (A) (A) (A) (A) (A) (A) (A)
                 (A) (A) (A) (A) (A) (A) (A) (A) (A) (A) (A) (A)
                 (A) (A) (A) (A) (A) (A) (A) (A) (A) (A) (A) (A)
                 (A) (A) (A) (A) (A) (A) (A) (A) (A) (A) (A) (A)
                 (A) (A) (A) (A) (A) (A) (A) (A) (A) (A) (A) (A)
                 (A) (A) (A) (A) (A) (A) (A) (A) (A) (A) (A) (A)
                 (A) (A) (A) (A) (A) (A) (A) (A) (A) (A) (A) (A)
                 (A) (A) (A) (A) (A) (A) (A) (A) (A) (A) (A) (A)
                 (A) (A) (A) (A) (A) (A) (A) (A) (A) (A) (A) (A)
                 (A) (A) (A) (A) (A) (A) (A) (A) (A) (A) (A) (A)
                 (A) (A) (A) (A) (A) (A) (A) (A) (A) (A) (A) (A)
                 (A) (A) (A) (A) (A) (A) (A) (A) (A) (A) (A) (A)
                 (A) (A) (A) (A) (A) (A) (A) (A) (A) (A) (A) (A)
                 (A) (A) (A) (A) (A) (A) (A) (A) (A) (A) (A)
 The electronic state of the initial guess is 1-A.
 Requested convergence on RMS density matrix=1.00D-08 within 128 cycles.
 Requested convergence on MAX density matrix=1.00D-06.
 Requested convergence on             energy=1.00D-06.
 No special actions if energy rises.
 SCF Done:  E(RB3LYP) =  -1298.02820641     A.U. after   13 cycles
             Convg  =    0.4759D-08             -V/T =  2.0066
 Range of M.O.s used for correlation:     1   846
 NBasis=   846 NAE=    91 NBE=    91 NFC=     0 NFV=     0
 NROrb=    846 NOA=    91 NOB=    91 NVA=   755 NVB=   755

 **** Warning!!: The largest alpha MO coefficient is  0.84369738D+02

          Differentiating once with respect to electric field.
                with respect to dipole field.
          Electric field/nuclear overlap derivatives assumed to be zero.
          There are     3 degrees of freedom in the 1st order CPHF.  IDoFFX=0.
      3 vectors produced by pass  0 Test12= 2.29D-12 3.33D-08 XBig12= 1.22D+02 1.14D+00.
 AX will form     3 AO Fock derivatives at one time.
      3 vectors produced by pass  1 Test12= 2.29D-12 3.33D-08 XBig12= 2.61D+01 4.62D-01.
      3 vectors produced by pass  2 Test12= 2.29D-12 3.33D-08 XBig12= 1.09D+01 2.17D-01.
      3 vectors produced by pass  3 Test12= 2.29D-12 3.33D-08 XBig12= 1.09D+00 9.58D-02.
      3 vectors produced by pass  4 Test12= 2.29D-12 3.33D-08 XBig12= 2.86D-01 4.04D-02.
      3 vectors produced by pass  5 Test12= 2.29D-12 3.33D-08 XBig12= 5.77D-02 2.12D-02.
      3 vectors produced by pass  6 Test12= 2.29D-12 3.33D-08 XBig12= 2.00D-02 1.93D-02.
      3 vectors produced by pass  7 Test12= 2.29D-12 3.33D-08 XBig12= 2.81D-03 7.53D-03.
      3 vectors produced by pass  8 Test12= 2.29D-12 3.33D-08 XBig12= 4.59D-04 2.01D-03.
      3 vectors produced by pass  9 Test12= 2.29D-12 3.33D-08 XBig12= 1.72D-04 1.11D-03.
      3 vectors produced by pass 10 Test12= 2.29D-12 3.33D-08 XBig12= 3.30D-05 4.51D-04.
      3 vectors produced by pass 11 Test12= 2.29D-12 3.33D-08 XBig12= 8.55D-06 2.62D-04.
      3 vectors produced by pass 12 Test12= 2.29D-12 3.33D-08 XBig12= 1.18D-06 9.77D-05.
      3 vectors produced by pass 13 Test12= 2.29D-12 3.33D-08 XBig12= 4.24D-07 4.85D-05.
      3 vectors produced by pass 14 Test12= 2.29D-12 3.33D-08 XBig12= 6.33D-08 2.59D-05.
      3 vectors produced by pass 15 Test12= 2.29D-12 3.33D-08 XBig12= 1.19D-08 9.22D-06.
      3 vectors produced by pass 16 Test12= 2.29D-12 3.33D-08 XBig12= 2.08D-09 4.70D-06.
      3 vectors produced by pass 17 Test12= 2.29D-12 3.33D-08 XBig12= 1.36D-10 1.14D-06.
      3 vectors produced by pass 18 Test12= 2.29D-12 3.33D-08 XBig12= 2.90D-11 3.14D-07.
      3 vectors produced by pass 19 Test12= 2.29D-12 3.33D-08 XBig12= 1.95D-11 2.72D-07.
      3 vectors produced by pass 20 Test12= 2.29D-12 3.33D-08 XBig12= 5.96D-12 1.37D-07.
      2 vectors produced by pass 21 Test12= 2.29D-12 3.33D-08 XBig12= 4.23D-12 2.16D-07.
      1 vectors produced by pass 22 Test12= 2.29D-12 3.33D-08 XBig12= 1.41D-12 7.35D-08.
 Inverted reduced A of dimension    66 with in-core refinement.
 End of Minotr Frequency-dependent properties file   721 does not exist.
 End of Minotr Frequency-dependent properties file   722 does not exist.
 Symmetrizing basis deriv contribution to polar:
 IMax=3 JMax=2 DiffMx= 0.00D+00
 G2DrvN: will do     8 centers at a time, making    6 passes doing MaxLOS=3.
 Calling FoFCou, ICntrl=  3107 FMM=F I1Cent=   0 AccDes= 0.00D+00.
 Calling FoFCou, ICntrl=  3107 FMM=F I1Cent=   0 AccDes= 0.00D+00.
 Calling FoFCou, ICntrl=  3107 FMM=F I1Cent=   0 AccDes= 0.00D+00.
 Calling FoFCou, ICntrl=  3107 FMM=F I1Cent=   0 AccDes= 0.00D+00.
 Calling FoFCou, ICntrl=  3107 FMM=F I1Cent=   0 AccDes= 0.00D+00.
 Calling FoFCou, ICntrl=  3107 FMM=F I1Cent=   0 AccDes= 0.00D+00.
 FoFDir/FoFCou used for L=0 through L=3.
 End of G2Drv Frequency-dependent properties file   721 does not exist.
 End of G2Drv Frequency-dependent properties file   722 does not exist.
          IDoAtm=111111111111111111111111111111111111111111111
          Differentiating once with respect to electric field.
                with respect to dipole field.
          Differentiating once with respect to nuclear coordinates.
          There are   138 degrees of freedom in the 1st order CPHF.  IDoFFX=5.
 Will reuse    3 saved solutions.
    135 vectors produced by pass  0 Test12= 6.87D-14 1.00D-09 XBig12= 1.70D-01 6.87D-02.
 AX will form    27 AO Fock derivatives at one time.
    135 vectors produced by pass  1 Test12= 6.87D-14 1.00D-09 XBig12= 2.07D-02 1.14D-02.
    132 vectors produced by pass  2 Test12= 6.87D-14 1.00D-09 XBig12= 1.40D-04 1.19D-03.
    132 vectors produced by pass  3 Test12= 6.87D-14 1.00D-09 XBig12= 7.58D-07 6.43D-05.
    132 vectors produced by pass  4 Test12= 6.87D-14 1.00D-09 XBig12= 2.02D-09 2.93D-06.
    132 vectors produced by pass  5 Test12= 6.87D-14 1.00D-09 XBig12= 5.47D-12 1.19D-07.
     95 vectors produced by pass  6 Test12= 6.87D-14 1.00D-09 XBig12= 2.55D-13 2.96D-08.
      2 vectors produced by pass  7 Test12= 6.87D-14 1.00D-09 XBig12= 1.47D-15 2.18D-09.
 Inverted reduced A of dimension   895 with in-core refinement.
 Isotropic polarizability for W=    0.000000      191.20 Bohr**3.
 End of Minotr Frequency-dependent properties file   721 does not exist.
 End of Minotr Frequency-dependent properties file   722 does not exist.

 **********************************************************************

            Population analysis using the SCF density.

 **********************************************************************

 Orbital symmetries:
       Occupied  (A) (A) (A) (A) (A) (A) (A) (A) (A) (A) (A) (A)
                 (A) (A) (A) (A) (A) (A) (A) (A) (A) (A) (A) (A)
                 (A) (A) (A) (A) (A) (A) (A) (A) (A) (A) (A) (A)
                 (A) (A) (A) (A) (A) (A) (A) (A) (A) (A) (A) (A)
                 (A) (A) (A) (A) (A) (A) (A) (A) (A) (A) (A) (A)
                 (A) (A) (A) (A) (A) (A) (A) (A) (A) (A) (A) (A)
                 (A) (A) (A) (A) (A) (A) (A) (A) (A) (A) (A) (A)
                 (A) (A) (A) (A) (A) (A) (A)
       Virtual   (A) (A) (A) (A) (A) (A) (A) (A) (A) (A) (A) (A)
                 (A) (A) (A) (A) (A) (A) (A) (A) (A) (A) (A) (A)
                 (A) (A) (A) (A) (A) (A) (A) (A) (A) (A) (A) (A)
                 (A) (A) (A) (A) (A) (A) (A) (A) (A) (A) (A) (A)
                 (A) (A) (A) (A) (A) (A) (A) (A) (A) (A) (A) (A)
                 (A) (A) (A) (A) (A) (A) (A) (A) (A) (A) (A) (A)
                 (A) (A) (A) (A) (A) (A) (A) (A) (A) (A) (A) (A)
                 (A) (A) (A) (A) (A) (A) (A) (A) (A) (A) (A) (A)
                 (A) (A) (A) (A) (A) (A) (A) (A) (A) (A) (A) (A)
                 (A) (A) (A) (A) (A) (A) (A) (A) (A) (A) (A) (A)
                 (A) (A) (A) (A) (A) (A) (A) (A) (A) (A) (A) (A)
                 (A) (A) (A) (A) (A) (A) (A) (A) (A) (A) (A) (A)
                 (A) (A) (A) (A) (A) (A) (A) (A) (A) (A) (A) (A)
                 (A) (A) (A) (A) (A) (A) (A) (A) (A) (A) (A) (A)
                 (A) (A) (A) (A) (A) (A) (A) (A) (A) (A) (A) (A)
                 (A) (A) (A) (A) (A) (A) (A) (A) (A) (A) (A) (A)
                 (A) (A) (A) (A) (A) (A) (A) (A) (A) (A) (A) (A)
                 (A) (A) (A) (A) (A) (A) (A) (A) (A) (A) (A) (A)
                 (A) (A) (A) (A) (A) (A) (A) (A) (A) (A) (A) (A)
                 (A) (A) (A) (A) (A) (A) (A) (A) (A) (A) (A) (A)
                 (A) (A) (A) (A) (A) (A) (A) (A) (A) (A) (A) (A)
                 (A) (A) (A) (A) (A) (A) (A) (A) (A) (A) (A) (A)
                 (A) (A) (A) (A) (A) (A) (A) (A) (A) (A) (A) (A)
                 (A) (A) (A) (A) (A) (A) (A) (A) (A) (A) (A) (A)
                 (A) (A) (A) (A) (A) (A) (A) (A) (A) (A) (A) (A)
                 (A) (A) (A) (A) (A) (A) (A) (A) (A) (A) (A) (A)
                 (A) (A) (A) (A) (A) (A) (A) (A) (A) (A) (A) (A)
                 (A) (A) (A) (A) (A) (A) (A) (A) (A) (A) (A) (A)
                 (A) (A) (A) (A) (A) (A) (A) (A) (A) (A) (A) (A)
                 (A) (A) (A) (A) (A) (A) (A) (A) (A) (A) (A) (A)
                 (A) (A) (A) (A) (A) (A) (A) (A) (A) (A) (A) (A)
                 (A) (A) (A) (A) (A) (A) (A) (A) (A) (A) (A) (A)
                 (A) (A) (A) (A) (A) (A) (A) (A) (A) (A) (A) (A)
                 (A) (A) (A) (A) (A) (A) (A) (A) (A) (A) (A) (A)
                 (A) (A) (A) (A) (A) (A) (A) (A) (A) (A) (A) (A)
                 (A) (A) (A) (A) (A) (A) (A) (A) (A) (A) (A) (A)
                 (A) (A) (A) (A) (A) (A) (A) (A) (A) (A) (A) (A)
                 (A) (A) (A) (A) (A) (A) (A) (A) (A) (A) (A) (A)
                 (A) (A) (A) (A) (A) (A) (A) (A) (A) (A) (A) (A)
                 (A) (A) (A) (A) (A) (A) (A) (A) (A) (A) (A) (A)
                 (A) (A) (A) (A) (A) (A) (A) (A) (A) (A) (A) (A)
                 (A) (A) (A) (A) (A) (A) (A) (A) (A) (A) (A) (A)
                 (A) (A) (A) (A) (A) (A) (A) (A) (A) (A) (A) (A)
                 (A) (A) (A) (A) (A) (A) (A) (A) (A) (A) (A) (A)
                 (A) (A) (A) (A) (A) (A) (A) (A) (A) (A) (A) (A)
                 (A) (A) (A) (A) (A) (A) (A) (A) (A) (A) (A) (A)
                 (A) (A) (A) (A) (A) (A) (A) (A) (A) (A) (A) (A)
                 (A) (A) (A) (A) (A) (A) (A) (A) (A) (A) (A) (A)
                 (A) (A) (A) (A) (A) (A) (A) (A) (A) (A) (A) (A)
                 (A) (A) (A) (A) (A) (A) (A) (A) (A) (A) (A) (A)
                 (A) (A) (A) (A) (A) (A) (A) (A) (A) (A) (A) (A)
                 (A) (A) (A) (A) (A) (A) (A) (A) (A) (A) (A) (A)
                 (A) (A) (A) (A) (A) (A) (A) (A) (A) (A) (A) (A)
                 (A) (A) (A) (A) (A) (A) (A) (A) (A) (A) (A) (A)
                 (A) (A) (A) (A) (A) (A) (A) (A) (A) (A) (A) (A)
                 (A) (A) (A) (A) (A) (A) (A) (A) (A) (A) (A) (A)
                 (A) (A) (A) (A) (A) (A) (A) (A) (A) (A) (A) (A)
                 (A) (A) (A) (A) (A) (A) (A) (A) (A) (A) (A) (A)
                 (A) (A) (A) (A) (A) (A) (A) (A) (A) (A) (A) (A)
                 (A) (A) (A) (A) (A) (A) (A) (A) (A) (A) (A) (A)
                 (A) (A) (A) (A) (A) (A) (A) (A) (A) (A) (A) (A)
                 (A) (A) (A) (A) (A) (A) (A) (A) (A) (A) (A) (A)
                 (A) (A) (A) (A) (A) (A) (A) (A) (A) (A) (A)
 The electronic state is 1-A.
 Alpha  occ. eigenvalues --  -19.18926 -19.18911 -19.18156 -19.18048 -19.17999
 Alpha  occ. eigenvalues --  -19.16761 -19.15875 -19.15867 -19.14827 -19.13421
 Alpha  occ. eigenvalues --  -19.12827 -10.30821 -10.30076 -10.25975 -10.25539
 Alpha  occ. eigenvalues --  -10.25508 -10.24870 -10.24652 -10.24553 -10.23960
 Alpha  occ. eigenvalues --  -10.23865 -10.23721 -10.23646  -1.10134  -1.09187
 Alpha  occ. eigenvalues --   -1.05572  -1.04916  -1.04053  -1.03273  -1.02583
 Alpha  occ. eigenvalues --   -1.02203  -1.01669  -1.00226  -0.99347  -0.81825
 Alpha  occ. eigenvalues --   -0.80181  -0.79135  -0.77968  -0.71788  -0.69909
 Alpha  occ. eigenvalues --   -0.67154  -0.64936  -0.63444  -0.62340  -0.61437
 Alpha  occ. eigenvalues --   -0.59973  -0.56502  -0.55731  -0.55173  -0.54376
 Alpha  occ. eigenvalues --   -0.53843  -0.53356  -0.52786  -0.51917  -0.50815
 Alpha  occ. eigenvalues --   -0.50409  -0.50000  -0.49423  -0.48447  -0.46449
 Alpha  occ. eigenvalues --   -0.46094  -0.44894  -0.43938  -0.43671  -0.42920
 Alpha  occ. eigenvalues --   -0.42282  -0.41372  -0.40737  -0.39724  -0.39574
 Alpha  occ. eigenvalues --   -0.39232  -0.37770  -0.37021  -0.36438  -0.35603
 Alpha  occ. eigenvalues --   -0.34995  -0.34850  -0.34379  -0.33872  -0.33487
 Alpha  occ. eigenvalues --   -0.32748  -0.31576  -0.30847  -0.30030  -0.29772
 Alpha  occ. eigenvalues --   -0.29666  -0.28759  -0.28546  -0.27127  -0.26231
 Alpha  occ. eigenvalues --   -0.26013
 Alpha virt. eigenvalues --   -0.02320  -0.01878  -0.01753   0.00032   0.00436
 Alpha virt. eigenvalues --    0.00908   0.02225   0.02326   0.03440   0.03693
 Alpha virt. eigenvalues --    0.03704   0.04408   0.05136   0.05431   0.05783
 Alpha virt. eigenvalues --    0.06376   0.06563   0.07586   0.07852   0.08282
 Alpha virt. eigenvalues --    0.08527   0.08911   0.09049   0.09734   0.09832
 Alpha virt. eigenvalues --    0.10488   0.11085   0.11697   0.12149   0.12197
 Alpha virt. eigenvalues --    0.12648   0.13133   0.13336   0.13484   0.13780
 Alpha virt. eigenvalues --    0.14226   0.14580   0.14805   0.14950   0.15296
 Alpha virt. eigenvalues --    0.15868   0.16467   0.16569   0.17080   0.17353
 Alpha virt. eigenvalues --    0.17508   0.17705   0.18187   0.18212   0.18618
 Alpha virt. eigenvalues --    0.19100   0.19430   0.19738   0.19900   0.20117
 Alpha virt. eigenvalues --    0.21069   0.21184   0.21452   0.21633   0.21848
 Alpha virt. eigenvalues --    0.22018   0.22489   0.22642   0.22966   0.23426
 Alpha virt. eigenvalues --    0.23645   0.23933   0.24398   0.24492   0.24606
 Alpha virt. eigenvalues --    0.24899   0.25609   0.25638   0.25998   0.26083
 Alpha virt. eigenvalues --    0.26227   0.26677   0.26832   0.26997   0.27320
 Alpha virt. eigenvalues --    0.27876   0.28250   0.28387   0.28708   0.28862
 Alpha virt. eigenvalues --    0.29080   0.29221   0.29968   0.30267   0.30638
 Alpha virt. eigenvalues --    0.31221   0.31653   0.32283   0.32381   0.32671
 Alpha virt. eigenvalues --    0.32849   0.33353   0.33624   0.33641   0.33889
 Alpha virt. eigenvalues --    0.34382   0.34755   0.35335   0.35340   0.35862
 Alpha virt. eigenvalues --    0.36097   0.36334   0.36816   0.37457   0.37559
 Alpha virt. eigenvalues --    0.37701   0.38243   0.38627   0.39316   0.39677
 Alpha virt. eigenvalues --    0.40193   0.40454   0.40805   0.41089   0.41231
 Alpha virt. eigenvalues --    0.42119   0.42419   0.42908   0.43425   0.43854
 Alpha virt. eigenvalues --    0.44444   0.44845   0.45164   0.46022   0.46462
 Alpha virt. eigenvalues --    0.47431   0.48012   0.48371   0.48910   0.49257
 Alpha virt. eigenvalues --    0.50544   0.51781   0.53910   0.58142   0.58325
 Alpha virt. eigenvalues --    0.59316   0.60098   0.60487   0.61355   0.61765
 Alpha virt. eigenvalues --    0.62820   0.63451   0.63939   0.64991   0.65554
 Alpha virt. eigenvalues --    0.66316   0.67601   0.68005   0.68935   0.69741
 Alpha virt. eigenvalues --    0.69920   0.70684   0.71723   0.72302   0.72911
 Alpha virt. eigenvalues --    0.73615   0.74205   0.74853   0.76005   0.76474
 Alpha virt. eigenvalues --    0.77523   0.78365   0.78973   0.80029   0.81062
 Alpha virt. eigenvalues --    0.82165   0.82406   0.83497   0.84351   0.84785
 Alpha virt. eigenvalues --    0.86339   0.86903   0.87669   0.88794   0.88853
 Alpha virt. eigenvalues --    0.89554   0.89891   0.90273   0.91223   0.92156
 Alpha virt. eigenvalues --    0.92252   0.92523   0.92823   0.93120   0.93776
 Alpha virt. eigenvalues --    0.94173   0.94799   0.95290   0.95607   0.95799
 Alpha virt. eigenvalues --    0.96415   0.97016   0.97272   0.97955   0.98613
 Alpha virt. eigenvalues --    0.99037   0.99985   1.01310   1.01430   1.02139
 Alpha virt. eigenvalues --    1.03352   1.03934   1.05154   1.05715   1.06461
 Alpha virt. eigenvalues --    1.06727   1.07208   1.07578   1.08202   1.08792
 Alpha virt. eigenvalues --    1.09072   1.09610   1.10315   1.10882   1.11057
 Alpha virt. eigenvalues --    1.11403   1.11542   1.13204   1.13683   1.14103
 Alpha virt. eigenvalues --    1.14526   1.15120   1.15520   1.15838   1.16087
 Alpha virt. eigenvalues --    1.16832   1.17170   1.18342   1.18788   1.19338
 Alpha virt. eigenvalues --    1.19612   1.20677   1.21242   1.21531   1.22009
 Alpha virt. eigenvalues --    1.22703   1.23505   1.24374   1.24477   1.25269
 Alpha virt. eigenvalues --    1.25995   1.26167   1.26368   1.27329   1.28067
 Alpha virt. eigenvalues --    1.28503   1.28945   1.29091   1.30453   1.31169
 Alpha virt. eigenvalues --    1.31409   1.32580   1.33155   1.33306   1.34686
 Alpha virt. eigenvalues --    1.34722   1.35484   1.36334   1.36662   1.37065
 Alpha virt. eigenvalues --    1.37552   1.38295   1.38634   1.39991   1.40181
 Alpha virt. eigenvalues --    1.40914   1.41642   1.41959   1.42690   1.43386
 Alpha virt. eigenvalues --    1.44413   1.45391   1.45715   1.46744   1.47667
 Alpha virt. eigenvalues --    1.48110   1.48774   1.49320   1.49913   1.50762
 Alpha virt. eigenvalues --    1.51805   1.53218   1.54104   1.55681   1.55981
 Alpha virt. eigenvalues --    1.56590   1.57454   1.58609   1.58953   1.59513
 Alpha virt. eigenvalues --    1.60170   1.61504   1.62070   1.62518   1.62868
 Alpha virt. eigenvalues --    1.63120   1.64612   1.65798   1.66317   1.66957
 Alpha virt. eigenvalues --    1.67624   1.69680   1.70392   1.71002   1.71579
 Alpha virt. eigenvalues --    1.72043   1.73574   1.74597   1.75473   1.76149
 Alpha virt. eigenvalues --    1.77211   1.77704   1.78229   1.80249   1.81193
 Alpha virt. eigenvalues --    1.81458   1.83066   1.83867   1.84533   1.84748
 Alpha virt. eigenvalues --    1.86302   1.87636   1.88413   1.89318   1.90737
 Alpha virt. eigenvalues --    1.91486   1.92567   1.93205   1.94533   1.96036
 Alpha virt. eigenvalues --    1.96747   1.97452   1.97869   1.98567   1.99663
 Alpha virt. eigenvalues --    2.00877   2.01708   2.02243   2.03581   2.04385
 Alpha virt. eigenvalues --    2.05614   2.07343   2.11006   2.11532   2.12102
 Alpha virt. eigenvalues --    2.14655   2.16709   2.18377   2.18863   2.19001
 Alpha virt. eigenvalues --    2.20441   2.22758   2.23623   2.25759   2.26031
 Alpha virt. eigenvalues --    2.28558   2.28981   2.29741   2.31851   2.33415
 Alpha virt. eigenvalues --    2.33989   2.35072   2.36052   2.41279   2.41630
 Alpha virt. eigenvalues --    2.44118   2.45522   2.48651   2.49730   2.51234
 Alpha virt. eigenvalues --    2.52685   2.53064   2.54494   2.54744   2.55254
 Alpha virt. eigenvalues --    2.55446   2.57138   2.58498   2.59782   2.59979
 Alpha virt. eigenvalues --    2.60870   2.63096   2.63872   2.64866   2.65169
 Alpha virt. eigenvalues --    2.66195   2.67660   2.69464   2.70543   2.71398
 Alpha virt. eigenvalues --    2.73377   2.75393   2.75632   2.76907   2.78325
 Alpha virt. eigenvalues --    2.79947   2.80797   2.81854   2.82982   2.84889
 Alpha virt. eigenvalues --    2.85170   2.85706   2.86955   2.87138   2.88647
 Alpha virt. eigenvalues --    2.88992   2.91568   2.92177   2.92679   2.93054
 Alpha virt. eigenvalues --    2.93529   2.94462   2.96057   2.97473   2.98328
 Alpha virt. eigenvalues --    2.99628   3.00385   3.01429   3.01585   3.02762
 Alpha virt. eigenvalues --    3.03784   3.04304   3.05064   3.06876   3.07570
 Alpha virt. eigenvalues --    3.07938   3.09340   3.10424   3.11477   3.12476
 Alpha virt. eigenvalues --    3.13562   3.14650   3.15079   3.17011   3.18244
 Alpha virt. eigenvalues --    3.19320   3.21020   3.22369   3.23128   3.24049
 Alpha virt. eigenvalues --    3.24402   3.25601   3.26523   3.27529   3.27756
 Alpha virt. eigenvalues --    3.29428   3.31007   3.31640   3.32619   3.33445
 Alpha virt. eigenvalues --    3.34745   3.36105   3.38362   3.39824   3.40825
 Alpha virt. eigenvalues --    3.41323   3.41811   3.42869   3.44116   3.45488
 Alpha virt. eigenvalues --    3.46907   3.47379   3.47824   3.48934   3.54095
 Alpha virt. eigenvalues --    3.54658   3.56661   3.57813   3.59307   3.60919
 Alpha virt. eigenvalues --    3.62250   3.63081   3.64628   3.65879   3.67214
 Alpha virt. eigenvalues --    3.69059   3.70375   3.71664   3.72418   3.74160
 Alpha virt. eigenvalues --    3.75675   3.77603   3.78396   3.79074   3.80506
 Alpha virt. eigenvalues --    3.81321   3.81889   3.82848   3.84229   3.84769
 Alpha virt. eigenvalues --    3.85919   3.87854   3.89385   3.90524   3.90795
 Alpha virt. eigenvalues --    3.92649   3.93682   3.96486   3.99667   4.02424
 Alpha virt. eigenvalues --    4.03195   4.04861   4.07029   4.11546   4.15779
 Alpha virt. eigenvalues --    4.16151   4.16350   4.17294   4.18976   4.21100
 Alpha virt. eigenvalues --    4.23016   4.23227   4.25038   4.25644   4.26373
 Alpha virt. eigenvalues --    4.27853   4.28571   4.28856   4.29554   4.30032
 Alpha virt. eigenvalues --    4.31625   4.32242   4.33058   4.34755   4.35471
 Alpha virt. eigenvalues --    4.36004   4.36526   4.37156   4.37632   4.39883
 Alpha virt. eigenvalues --    4.40820   4.41534   4.41696   4.42386   4.43162
 Alpha virt. eigenvalues --    4.45066   4.45623   4.46988   4.47080   4.48728
 Alpha virt. eigenvalues --    4.49557   4.49971   4.50682   4.51380   4.51809
 Alpha virt. eigenvalues --    4.52215   4.52593   4.53888   4.54380   4.55546
 Alpha virt. eigenvalues --    4.56318   4.57197   4.57366   4.57760   4.58778
 Alpha virt. eigenvalues --    4.59574   4.60369   4.60950   4.61290   4.61793
 Alpha virt. eigenvalues --    4.63126   4.63422   4.64390   4.64842   4.65480
 Alpha virt. eigenvalues --    4.65713   4.66261   4.66781   4.67744   4.68862
 Alpha virt. eigenvalues --    4.69767   4.69970   4.70515   4.71091   4.72952
 Alpha virt. eigenvalues --    4.73069   4.74103   4.75022   4.75791   4.76294
 Alpha virt. eigenvalues --    4.76540   4.77764   4.78896   4.78975   4.79758
 Alpha virt. eigenvalues --    4.80252   4.80718   4.80840   4.82095   4.83157
 Alpha virt. eigenvalues --    4.83851   4.84259   4.85045   4.85465   4.85589
 Alpha virt. eigenvalues --    4.86474   4.87194   4.88528   4.89076   4.90169
 Alpha virt. eigenvalues --    4.92138   4.92432   4.93247   4.93522   4.95506
 Alpha virt. eigenvalues --    4.97332   4.97861   4.99943   5.00572   5.03393
 Alpha virt. eigenvalues --    5.03811   5.05603   5.06322   5.07521   5.09933
 Alpha virt. eigenvalues --    5.10763   5.14775   5.15588   5.17502   5.18738
 Alpha virt. eigenvalues --    5.19404   5.19844   5.20897   5.21269   5.22184
 Alpha virt. eigenvalues --    5.23369   5.25147   5.26380   5.26686   5.27644
 Alpha virt. eigenvalues --    5.30459   5.30897   5.32500   5.33570   5.34938
 Alpha virt. eigenvalues --    5.35241   5.36519   5.39133   5.39858   5.41740
 Alpha virt. eigenvalues --    5.41904   5.42123   5.42610   5.43638   5.43833
 Alpha virt. eigenvalues --    5.45180   5.45528   5.45973   5.47649   5.48501
 Alpha virt. eigenvalues --    5.48679   5.50277   5.50825   5.51598   5.52065
 Alpha virt. eigenvalues --    5.53428   5.54879   5.55465   5.58125   5.58135
 Alpha virt. eigenvalues --    5.59608   5.60282   5.62368   5.63727   5.66246
 Alpha virt. eigenvalues --    5.67199   5.67747   5.69539   5.72646   5.74291
 Alpha virt. eigenvalues --    5.76736   5.79970   5.81058   5.81458   5.85414
 Alpha virt. eigenvalues --    5.86276   5.87719   5.89191   5.89625   5.89854
 Alpha virt. eigenvalues --    5.90295   5.91634   5.93095   5.93861   5.94550
 Alpha virt. eigenvalues --    5.94891   5.96059   5.96317   5.99134   5.99571
 Alpha virt. eigenvalues --    6.02836   6.04257   6.05976   6.06670   6.08028
 Alpha virt. eigenvalues --    6.08747   6.08979   6.10523   6.11830   6.12239
 Alpha virt. eigenvalues --    6.13459   6.14873   6.18871   6.18998   6.22349
 Alpha virt. eigenvalues --    6.24727   6.26542   6.27659   6.32820   6.33322
 Alpha virt. eigenvalues --    6.52368   6.65539   6.97633   7.02504   7.10589
 Alpha virt. eigenvalues --    7.13023   7.20375   7.26419   7.26675   7.29106
 Alpha virt. eigenvalues --    7.32893   7.39412   7.46815   7.48920   7.74123
 Alpha virt. eigenvalues --    7.85303   8.19113  12.01864  12.18184  12.24287
 Alpha virt. eigenvalues --   12.29419  12.48866  12.54900  12.81368  12.89852
 Alpha virt. eigenvalues --   12.96971  13.07739  13.26979  13.36917  13.44899
 Alpha virt. eigenvalues --   13.47542  13.51557  13.58806  13.63191  13.64607
 Alpha virt. eigenvalues --   13.72870  13.76664  13.89781  14.14504  14.23083
          Condensed to atoms (all electrons):
              1          2          3          4          5          6
     1  O    8.057265   0.359414  -0.123434  -0.004360   0.017458   0.004715
     2  C    0.359414   7.205850  -0.402977   0.030438  -0.061803  -1.123043
     3  C   -0.123434  -0.402977   6.990297   0.121557   0.016940   0.371377
     4  O   -0.004360   0.030438   0.121557   8.088321   0.239334  -0.034067
     5  H    0.017458  -0.061803   0.016940   0.239334   0.424740   0.009583
     6  C    0.004715  -1.123043   0.371377  -0.034067   0.009583   8.803840
     7  O    0.000294   0.018034  -0.141926  -0.000796  -0.000124   0.332056
     8  H    0.000005  -0.001762   0.017543  -0.000065   0.000013   0.001027
     9  C   -0.054991  -0.084668  -0.387926   0.008778  -0.002893   0.269820
    10  O   -0.037599  -0.012605   0.004762  -0.000113  -0.000012  -0.005925
    11  H    0.000832   0.000489  -0.002239   0.000001   0.000000   0.000100
    12  C   -0.038649  -0.979196  -0.412226   0.022448   0.010779   0.908373
    13  O    0.000770  -0.029835  -0.019583  -0.002346   0.000015  -0.035599
    14  C   -0.004990   0.683270  -0.058532  -0.001925   0.007724  -2.508858
    15  O    0.000027  -0.005011   0.011862   0.000402   0.000002  -0.050084
    16  C    0.001758   0.193121  -0.037447  -0.002959   0.000730  -0.849861
    17  C   -0.000272  -0.073294   0.003588   0.000284   0.000023   0.164210
    18  O    0.000014   0.007726   0.000295  -0.000004   0.000000  -0.010360
    19  H   -0.000033  -0.001005   0.002110   0.000004   0.000000   0.004189
    20  C    0.000040   0.018191  -0.010719   0.000011   0.000001   0.011133
    21  O    0.000000  -0.000011   0.000028   0.000000   0.000000   0.000526
    22  H    0.000000   0.000002   0.000000   0.000000   0.000000  -0.000069
    23  C   -0.000039   0.019433  -0.009059   0.000092  -0.000010  -0.175822
    24  O    0.000006  -0.000768  -0.010579  -0.000135  -0.000001  -0.000893
    25  H    0.000000   0.000068   0.002419   0.000006   0.000000  -0.000618
    26  C    0.000121  -0.023779  -0.016442  -0.000086   0.000021   0.022762
    27  O    0.000000   0.000126  -0.000026   0.000001   0.000000   0.002518
    28  C    0.000004   0.001339  -0.000700   0.000012   0.000000  -0.017753
    29  O    0.000000   0.000003   0.000016   0.000000   0.000000  -0.000242
    30  H    0.000000   0.000000   0.000000   0.000000   0.000000   0.000006
    31  H    0.000000   0.000017   0.000004   0.000000   0.000000  -0.000205
    32  H    0.000000   0.000214  -0.000030   0.000000   0.000000   0.000246
    33  H    0.000000  -0.000126   0.000786   0.000000   0.000000   0.008085
    34  H   -0.000001  -0.003733   0.003709   0.000006   0.000000   0.015266
    35  H    0.000000  -0.000050   0.000244   0.000000   0.000000  -0.004912
    36  H    0.000000  -0.000014  -0.000065   0.000000   0.000000   0.001990
    37  H    0.000000   0.000091   0.000006   0.000000   0.000000  -0.009672
    38  H    0.000109  -0.011454  -0.052760   0.000146   0.000006   0.059675
    39  H    0.000152   0.010558  -0.161957   0.002992  -0.000152   0.454951
    40  H    0.270840   0.019118  -0.024594  -0.000211  -0.001768   0.001557
    41  H    0.002189   0.000001   0.250546  -0.013806  -0.004652  -0.131364
    42  H   -0.016728   0.364421  -0.054958   0.002295  -0.000452  -0.046088
    43  H    0.002331   0.095191  -0.053353   0.000822   0.000001  -0.075540
    44  H   -0.000882  -0.008925  -0.000477   0.000011   0.000000  -0.002380
    45  H    0.002087  -0.017446   0.000616  -0.000014   0.000000   0.007646
              7          8          9         10         11         12
     1  O    0.000294   0.000005  -0.054991  -0.037599   0.000832  -0.038649
     2  C    0.018034  -0.001762  -0.084668  -0.012605   0.000489  -0.979196
     3  C   -0.141926   0.017543  -0.387926   0.004762  -0.002239  -0.412226
     4  O   -0.000796  -0.000065   0.008778  -0.000113   0.000001   0.022448
     5  H   -0.000124   0.000013  -0.002893  -0.000012   0.000000   0.010779
     6  C    0.332056   0.001027   0.269820  -0.005925   0.000100   0.908373
     7  O    8.133316   0.257272   0.001474   0.000001   0.000000   0.010451
     8  H    0.257272   0.326391   0.000038   0.000000   0.000000  -0.001658
     9  C    0.001474   0.000038   6.940886   0.087010  -0.022416  -0.625892
    10  O    0.000001   0.000000   0.087010   8.131512   0.238500   0.085532
    11  H    0.000000   0.000000  -0.022416   0.238500   0.432564   0.021215
    12  C    0.010451  -0.001658  -0.625892   0.085532   0.021215   8.820088
    13  O    0.002562  -0.000289  -0.067008   0.002479  -0.000576   0.063878
    14  C   -0.061054  -0.055589  -0.727029   0.017534  -0.003529  -1.484811
    15  O    0.006615   0.008499  -0.006139   0.000072   0.000000  -0.018889
    16  C    0.021181   0.019793  -0.175684  -0.000723  -0.000161  -0.199847
    17  C   -0.002885   0.000665   0.064730   0.000234   0.000050  -0.141836
    18  O    0.000057  -0.000029  -0.012174  -0.000227   0.000008   0.011821
    19  H   -0.000060  -0.000002   0.004991   0.000069  -0.000003  -0.008790
    20  C    0.001576   0.000438  -0.006151  -0.000020   0.000000  -0.016289
    21  O   -0.000001   0.000000   0.000407  -0.000001   0.000000  -0.000761
    22  H    0.000000   0.000000  -0.000015   0.000000   0.000000   0.000056
    23  C    0.013231   0.002551  -0.000374  -0.000005   0.000000  -0.001072
    24  O   -0.039290  -0.010578  -0.000311  -0.000001   0.000000   0.001079
    25  H    0.002003  -0.002816  -0.000019   0.000000   0.000000  -0.000540
    26  C   -0.014043  -0.012279   0.013500  -0.000027  -0.000001   0.027610
    27  O   -0.000078  -0.000069   0.000080   0.000000   0.000000  -0.000207
    28  C   -0.000051  -0.000023  -0.003530   0.000003   0.000000   0.001170
    29  O   -0.000002   0.000000  -0.000012   0.000000   0.000000   0.000135
    30  H    0.000000   0.000000   0.000000   0.000000   0.000000  -0.000001
    31  H    0.000001   0.000000  -0.000014   0.000000   0.000000   0.000038
    32  H    0.000001   0.000000  -0.000324   0.000000   0.000000   0.000789
    33  H   -0.000016  -0.000001  -0.000633   0.000000   0.000000   0.001049
    34  H   -0.001365  -0.000062   0.000612   0.000003   0.000000   0.009772
    35  H   -0.000114  -0.000022   0.000093   0.000000   0.000000   0.001068
    36  H   -0.000688   0.000328  -0.000003   0.000000   0.000000   0.000039
    37  H    0.001361  -0.000027   0.000012   0.000000   0.000000   0.000422
    38  H    0.000837  -0.000144   0.035448   0.000113   0.000000   0.093925
    39  H   -0.032850  -0.003051   0.023291   0.000016   0.000000   0.078448
    40  H   -0.000022   0.000000   0.004775   0.001476  -0.000014  -0.012280
    41  H    0.007870  -0.000102   0.010153  -0.000189   0.000000   0.034964
    42  H    0.000906   0.000002  -0.070432  -0.001317  -0.000018  -0.061313
    43  H    0.000573   0.000003   0.021123  -0.001231  -0.000189   0.050838
    44  H   -0.000005   0.000000   0.461277  -0.031561  -0.004011  -0.079254
    45  H    0.000003   0.000000   0.507557  -0.041434  -0.005575  -0.149584
             13         14         15         16         17         18
     1  O    0.000770  -0.004990   0.000027   0.001758  -0.000272   0.000014
     2  C   -0.029835   0.683270  -0.005011   0.193121  -0.073294   0.007726
     3  C   -0.019583  -0.058532   0.011862  -0.037447   0.003588   0.000295
     4  O   -0.002346  -0.001925   0.000402  -0.002959   0.000284  -0.000004
     5  H    0.000015   0.007724   0.000002   0.000730   0.000023   0.000000
     6  C   -0.035599  -2.508858  -0.050084  -0.849861   0.164210  -0.010360
     7  O    0.002562  -0.061054   0.006615   0.021181  -0.002885   0.000057
     8  H   -0.000289  -0.055589   0.008499   0.019793   0.000665  -0.000029
     9  C   -0.067008  -0.727029  -0.006139  -0.175684   0.064730  -0.012174
    10  O    0.002479   0.017534   0.000072  -0.000723   0.000234  -0.000227
    11  H   -0.000576  -0.003529   0.000000  -0.000161   0.000050   0.000008
    12  C    0.063878  -1.484811  -0.018889  -0.199847  -0.141836   0.011821
    13  O    7.887950   0.313028   0.004773  -0.007486   0.034338  -0.026336
    14  C    0.313028  10.794343   0.197816  -1.612820   0.712893   0.011285
    15  O    0.004773   0.197816   7.756858   0.400165  -0.110656  -0.010471
    16  C   -0.007486  -1.612820   0.400165  12.207323  -3.542442  -0.016793
    17  C    0.034338   0.712893  -0.110656  -3.542442  10.449416   0.231353
    18  O   -0.026336   0.011285  -0.010471  -0.016793   0.231353   8.086066
    19  H    0.028376  -0.015549   0.007762  -0.063493   0.030870   0.242068
    20  C   -0.005917  -0.534184   0.002030  -0.353204  -0.909983  -0.086621
    21  O   -0.000021   0.005136  -0.000099   0.079846  -0.042651   0.007553
    22  H    0.000005  -0.001503  -0.000013  -0.010236  -0.028006  -0.000026
    23  C    0.003001   0.008809   0.009297   0.372014  -0.493578   0.009710
    24  O   -0.000196   0.098596  -0.036624  -0.051592  -0.002154  -0.000035
    25  H   -0.000019  -0.012197   0.003062  -0.002148  -0.001273   0.000001
    26  C   -0.016126  -0.324235  -0.113816  -1.761604   0.341655   0.022637
    27  O    0.000028   0.005742   0.001974   0.067928  -0.082293  -0.001798
    28  C    0.001542  -0.054009   0.002982   0.877141  -0.644139   0.003148
    29  O    0.000018   0.001997   0.000084  -0.021518   0.009906   0.000330
    30  H    0.000000   0.000074   0.000003  -0.000604   0.010818  -0.000014
    31  H    0.000026  -0.001484   0.000450   0.061522  -0.041122   0.000709
    32  H    0.000193  -0.017352   0.000298   0.131531  -0.280640   0.009745
    33  H    0.000271   0.014763  -0.003598  -0.066940   0.349153  -0.020096
    34  H   -0.000764   0.012584  -0.036981   0.084202   0.081095  -0.002708
    35  H   -0.000173   0.052410   0.000317  -0.027361  -0.039055   0.000041
    36  H    0.000032   0.008440   0.000248   0.013376   0.008489   0.000002
    37  H   -0.000040   0.006594   0.004142   0.053892  -0.005592   0.000064
    38  H   -0.030144   0.178123  -0.034294  -0.024158   0.005839  -0.002243
    39  H    0.008015  -0.087207  -0.012560  -0.040801   0.004078   0.000172
    40  H   -0.000438   0.000348  -0.000002   0.000198  -0.000041   0.000000
    41  H    0.003598   0.085293   0.000175  -0.009056   0.002189   0.000052
    42  H    0.002882   0.137269  -0.000428  -0.002224   0.001931   0.000015
    43  H   -0.032536   0.213443  -0.000415   0.010161   0.009072  -0.000872
    44  H    0.000001  -0.010465  -0.000099   0.005748  -0.000457  -0.000029
    45  H   -0.007271   0.010765  -0.000294  -0.005054   0.002781  -0.000205
             19         20         21         22         23         24
     1  O   -0.000033   0.000040   0.000000   0.000000  -0.000039   0.000006
     2  C   -0.001005   0.018191  -0.000011   0.000002   0.019433  -0.000768
     3  C    0.002110  -0.010719   0.000028   0.000000  -0.009059  -0.010579
     4  O    0.000004   0.000011   0.000000   0.000000   0.000092  -0.000135
     5  H    0.000000   0.000001   0.000000   0.000000  -0.000010  -0.000001
     6  C    0.004189   0.011133   0.000526  -0.000069  -0.175822  -0.000893
     7  O   -0.000060   0.001576  -0.000001   0.000000   0.013231  -0.039290
     8  H   -0.000002   0.000438   0.000000   0.000000   0.002551  -0.010578
     9  C    0.004991  -0.006151   0.000407  -0.000015  -0.000374  -0.000311
    10  O    0.000069  -0.000020  -0.000001   0.000000  -0.000005  -0.000001
    11  H   -0.000003   0.000000   0.000000   0.000000   0.000000   0.000000
    12  C   -0.008790  -0.016289  -0.000761   0.000056  -0.001072   0.001079
    13  O    0.028376  -0.005917  -0.000021   0.000005   0.003001  -0.000196
    14  C   -0.015549  -0.534184   0.005136  -0.001503   0.008809   0.098596
    15  O    0.007762   0.002030  -0.000099  -0.000013   0.009297  -0.036624
    16  C   -0.063493  -0.353204   0.079846  -0.010236   0.372014  -0.051592
    17  C    0.030870  -0.909983  -0.042651  -0.028006  -0.493578  -0.002154
    18  O    0.242068  -0.086621   0.007553  -0.000026   0.009710  -0.000035
    19  H    0.361734   0.016903  -0.000366   0.000017  -0.004513  -0.000002
    20  C    0.016903   7.530326   0.056993   0.019863   0.103769  -0.006071
    21  O   -0.000366   0.056993   8.149208   0.226000   0.002906   0.000012
    22  H    0.000017   0.019863   0.226000   0.433874   0.000205   0.000000
    23  C   -0.004513   0.103769   0.002906   0.000205   6.415177   0.009627
    24  O   -0.000002  -0.006071   0.000012   0.000000   0.009627   8.265571
    25  H    0.000000   0.000827   0.000000   0.000000  -0.021297   0.253508
    26  C    0.002802   0.479703  -0.031127   0.008617  -0.785560   0.115609
    27  O    0.000115  -0.082739   0.003713  -0.000169  -0.090493   0.002394
    28  C    0.001295  -0.395825   0.028848   0.006277  -0.081448   0.005465
    29  O   -0.000006  -0.040181  -0.002696   0.009091   0.007216  -0.000004
    30  H    0.000000  -0.035840   0.000266  -0.001506  -0.000719  -0.000001
    31  H    0.000004  -0.117728   0.004009  -0.000380   0.001527   0.000040
    32  H   -0.000154   0.389907  -0.021910  -0.001654   0.009180   0.000012
    33  H   -0.005407  -0.038480   0.000399  -0.000162   0.008849  -0.000002
    34  H    0.000286   0.035077  -0.000314   0.000008  -0.022985   0.000605
    35  H    0.000025  -0.017116   0.000152   0.000010   0.085741  -0.000241
    36  H    0.000000  -0.004492  -0.000008   0.000000   0.378373  -0.021585
    37  H    0.000000   0.001063   0.000005   0.000000   0.581718  -0.061163
    38  H    0.000279   0.015287   0.000015   0.000000   0.003667   0.000184
    39  H   -0.000027   0.000418   0.000000   0.000000   0.003111   0.000005
    40  H    0.000000   0.000001   0.000000   0.000000   0.000003   0.000000
    41  H   -0.000001  -0.000009   0.000000   0.000000   0.000322   0.000063
    42  H   -0.000019   0.000022   0.000000   0.000000   0.000040   0.000009
    43  H    0.000028   0.000806  -0.000001   0.000000   0.000114   0.000000
    44  H    0.001206  -0.000426   0.000001   0.000000   0.000020   0.000000
    45  H   -0.000011   0.000103   0.000001   0.000000  -0.000030   0.000000
             25         26         27         28         29         30
     1  O    0.000000   0.000121   0.000000   0.000004   0.000000   0.000000
     2  C    0.000068  -0.023779   0.000126   0.001339   0.000003   0.000000
     3  C    0.002419  -0.016442  -0.000026  -0.000700   0.000016   0.000000
     4  O    0.000006  -0.000086   0.000001   0.000012   0.000000   0.000000
     5  H    0.000000   0.000021   0.000000   0.000000   0.000000   0.000000
     6  C   -0.000618   0.022762   0.002518  -0.017753  -0.000242   0.000006
     7  O    0.002003  -0.014043  -0.000078  -0.000051  -0.000002   0.000000
     8  H   -0.002816  -0.012279  -0.000069  -0.000023   0.000000   0.000000
     9  C   -0.000019   0.013500   0.000080  -0.003530  -0.000012   0.000000
    10  O    0.000000  -0.000027   0.000000   0.000003   0.000000   0.000000
    11  H    0.000000  -0.000001   0.000000   0.000000   0.000000   0.000000
    12  C   -0.000540   0.027610  -0.000207   0.001170   0.000135  -0.000001
    13  O   -0.000019  -0.016126   0.000028   0.001542   0.000018   0.000000
    14  C   -0.012197  -0.324235   0.005742  -0.054009   0.001997   0.000074
    15  O    0.003062  -0.113816   0.001974   0.002982   0.000084   0.000003
    16  C   -0.002148  -1.761604   0.067928   0.877141  -0.021518  -0.000604
    17  C   -0.001273   0.341655  -0.082293  -0.644139   0.009906   0.010818
    18  O    0.000001   0.022637  -0.001798   0.003148   0.000330  -0.000014
    19  H    0.000000   0.002802   0.000115   0.001295  -0.000006   0.000000
    20  C    0.000827   0.479703  -0.082739  -0.395825  -0.040181  -0.035840
    21  O    0.000000  -0.031127   0.003713   0.028848  -0.002696   0.000266
    22  H    0.000000   0.008617  -0.000169   0.006277   0.009091  -0.001506
    23  C   -0.021297  -0.785560  -0.090493  -0.081448   0.007216  -0.000719
    24  O    0.253508   0.115609   0.002394   0.005465  -0.000004  -0.000001
    25  H    0.389171   0.021433  -0.000650  -0.001063  -0.000002   0.000000
    26  C    0.021433   8.876748   0.169271  -0.760448  -0.018711  -0.001217
    27  O   -0.000650   0.169271   7.880694   0.270399  -0.037721   0.001971
    28  C   -0.001063  -0.760448   0.270399   6.038408   0.285612   0.012226
    29  O   -0.000002  -0.018711  -0.037721   0.285612   8.019666   0.269655
    30  H    0.000000  -0.001217   0.001971   0.012226   0.269655   0.409907
    31  H    0.000000  -0.010371  -0.036049   0.429455  -0.022159  -0.008572
    32  H    0.000000   0.007047   0.000593   0.038749  -0.003733   0.000075
    33  H    0.000000   0.028341   0.001089  -0.019857   0.000216   0.000009
    34  H   -0.000022   0.078427   0.002164  -0.006119  -0.000313   0.000002
    35  H   -0.000195   0.173708  -0.025827   0.046242  -0.000013   0.000011
    36  H   -0.009361  -0.053929  -0.002295   0.004939  -0.000082   0.000000
    37  H   -0.000122  -0.279339   0.002185   0.003224  -0.000052   0.000000
    38  H    0.000012   0.016061   0.000340  -0.001642  -0.000002   0.000000
    39  H   -0.000003  -0.006323   0.000002  -0.000061   0.000000   0.000000
    40  H    0.000000  -0.000005   0.000000   0.000000   0.000000   0.000000
    41  H    0.000000  -0.000833   0.000000   0.000003   0.000000   0.000000
    42  H    0.000000  -0.000183   0.000000  -0.000001   0.000000   0.000000
    43  H    0.000000  -0.000360   0.000001  -0.000018   0.000000   0.000000
    44  H    0.000000   0.000413   0.000000   0.000036   0.000000   0.000000
    45  H    0.000000  -0.000082   0.000000  -0.000005   0.000000   0.000000
             31         32         33         34         35         36
     1  O    0.000000   0.000000   0.000000  -0.000001   0.000000   0.000000
     2  C    0.000017   0.000214  -0.000126  -0.003733  -0.000050  -0.000014
     3  C    0.000004  -0.000030   0.000786   0.003709   0.000244  -0.000065
     4  O    0.000000   0.000000   0.000000   0.000006   0.000000   0.000000
     5  H    0.000000   0.000000   0.000000   0.000000   0.000000   0.000000
     6  C   -0.000205   0.000246   0.008085   0.015266  -0.004912   0.001990
     7  O    0.000001   0.000001  -0.000016  -0.001365  -0.000114  -0.000688
     8  H    0.000000   0.000000  -0.000001  -0.000062  -0.000022   0.000328
     9  C   -0.000014  -0.000324  -0.000633   0.000612   0.000093  -0.000003
    10  O    0.000000   0.000000   0.000000   0.000003   0.000000   0.000000
    11  H    0.000000   0.000000   0.000000   0.000000   0.000000   0.000000
    12  C    0.000038   0.000789   0.001049   0.009772   0.001068   0.000039
    13  O    0.000026   0.000193   0.000271  -0.000764  -0.000173   0.000032
    14  C   -0.001484  -0.017352   0.014763   0.012584   0.052410   0.008440
    15  O    0.000450   0.000298  -0.003598  -0.036981   0.000317   0.000248
    16  C    0.061522   0.131531  -0.066940   0.084202  -0.027361   0.013376
    17  C   -0.041122  -0.280640   0.349153   0.081095  -0.039055   0.008489
    18  O    0.000709   0.009745  -0.020096  -0.002708   0.000041   0.000002
    19  H    0.000004  -0.000154  -0.005407   0.000286   0.000025   0.000000
    20  C   -0.117728   0.389907  -0.038480   0.035077  -0.017116  -0.004492
    21  O    0.004009  -0.021910   0.000399  -0.000314   0.000152  -0.000008
    22  H   -0.000380  -0.001654  -0.000162   0.000008   0.000010   0.000000
    23  C    0.001527   0.009180   0.008849  -0.022985   0.085741   0.378373
    24  O    0.000040   0.000012  -0.000002   0.000605  -0.000241  -0.021585
    25  H    0.000000   0.000000   0.000000  -0.000022  -0.000195  -0.009361
    26  C   -0.010371   0.007047   0.028341   0.078427   0.173708  -0.053929
    27  O   -0.036049   0.000593   0.001089   0.002164  -0.025827  -0.002295
    28  C    0.429455   0.038749  -0.019857  -0.006119   0.046242   0.004939
    29  O   -0.022159  -0.003733   0.000216  -0.000313  -0.000013  -0.000082
    30  H   -0.008572   0.000075   0.000009   0.000002   0.000011   0.000000
    31  H    0.592793   0.005041   0.001704  -0.000073   0.003551  -0.000037
    32  H    0.005041   0.578720   0.005449   0.000324  -0.000072   0.000000
    33  H    0.001704   0.005449   0.589315   0.005443   0.001887   0.000005
    34  H   -0.000073   0.000324   0.005443   0.606009   0.005934   0.000109
    35  H    0.003551  -0.000072   0.001887   0.005934   0.611095  -0.003453
    36  H   -0.000037   0.000000   0.000005   0.000109  -0.003453   0.568949
    37  H   -0.000013  -0.000016  -0.000003   0.003316   0.006186  -0.040710
    38  H    0.000000  -0.000013  -0.000058   0.009246  -0.000013  -0.000001
    39  H    0.000000   0.000000  -0.000006  -0.000010  -0.000001   0.000000
    40  H    0.000000   0.000000   0.000000   0.000000   0.000000   0.000000
    41  H    0.000000   0.000000   0.000000  -0.000002   0.000000   0.000000
    42  H    0.000000   0.000000   0.000000   0.000000   0.000000   0.000000
    43  H    0.000000   0.000000  -0.000002  -0.000017   0.000000   0.000000
    44  H    0.000000   0.000000   0.000001  -0.000001   0.000000   0.000000
    45  H    0.000000   0.000000   0.000000   0.000000   0.000000   0.000000
             37         38         39         40         41         42
[...]
 00001161,0.00008457,0.00000567,0.00012349,-0.00000501,0.00001535,-0.00
 000540,-0.00001889,0.00000727,-0.00000754,0.00003007,-0.00001281,-0.00
 000752,-0.00002415,0.00001247,0.00001811,-0.00000907,0.00000245,-0.000
 00219,0.00001384,-0.00000564,0.00000367,-0.00000411,-0.00000033,-0.000
 00075,-0.00001627,-0.00000321,0.00000584,0.00002767,0.00000680,0.00002
 408,-0.00001285,-0.00000280,-0.00000219,-0.00001425,-0.00000555,-0.000
 00226,0.00001240,-0.00000233,0.00000471,-0.00001093,0.00000624,-0.0000
 0312,0.00000504,-0.00000107,-0.00000132,-0.00000145,0.00000008,0.00000
 031,0.00000318,0.00000049,0.00000171,0.00000373,0.00000051,-0.00000317
 ,0.00000738,0.00000152,0.00001050,0.00000923,-0.00000185,-0.00000743,0
 .00000580,-0.00000005,0.00000608,0.00000008,0.00000006,0.00000093,0.00
 000637,0.00000044,-0.00000140,0.00002495,-0.00004576,-0.00019700,0.000
 82667,0.00010565,0.00044742,0.00164939,-0.00002568,-0.00066729,0.00038
 185,0.00162995,0.00080040,0.37787020,-0.01065542,0.00100922,-0.0053981
 3,0.00569866,-0.04340645,0.00126959,0.03506681,-0.00467456,-0.00536341
 ,-0.00161957,0.00400645,-0.00045128,0.00044670,-0.00024056,0.00021998,
 0.00113486,0.00113746,0.00102842,-0.00055347,-0.00018890,-0.00003767,-
 0.00009346,0.00001642,0.00007356,-0.00102731,0.00178770,-0.00080430,0.
 00023909,-0.00008936,-0.00002645,-0.00004005,-0.00008132,-0.00000432,-
 0.02710411,-0.00069452,0.00603074,0.00143749,0.00095018,-0.00201917,0.
 00014004,-0.00043202,-0.00001841,0.00003766,0.00009606,-0.00003870,-0.
 00003238,0.00001644,-0.00001612,0.00001316,0.00000091,-0.00001191,0.00
 003747,0.00000984,-0.00004266,-0.00004335,-0.00001592,0.00004690,-0.00
 000567,0.00000115,-0.00000246,0.00000317,-0.00000085,-0.00000100,-0.00
 000037,0.00000014,-0.00000019,0.00000199,-0.00000801,0.00000555,-0.000
 01639,-0.00000354,-0.00005198,0.00001119,0.00000517,0.00000247,0.00000
 368,-0.00000347,0.00000177,-0.00000169,0.00000364,-0.00000354,0.000001
 29,-0.00000251,0.00000335,0.00000126,0.00000019,-0.00000340,0.00000013
 ,0.00000035,0.00000058,-0.00000013,0.00000075,0.00000019,0.00000078,-0
 .00000106,-0.00000175,0.00000297,0.00000449,0.00000408,0.00000028,-0.0
 0000771,0.00000412,-0.00000115,0.00000215,-0.00000040,0.00000091,0.000
 00173,-0.00000423,-0.00000212,-0.00000057,0.00000310,-0.00007232,-0.00
 014891,-0.00002014,-0.00060453,-0.00003747,-0.00033155,-0.00079465,0.0
 0139001,0.00037742,0.00131217,-0.00546453,-0.00154286,-0.00276211,0.04
 748115,-0.04164476,-0.00547693,-0.01872738,0.03735487,-0.00020693,-0.0
 4314290,0.01054557,0.00012910,-0.00028886,-0.00128393,0.00063077,0.000
 45694,-0.00029582,-0.00023849,-0.00011782,0.00092221,0.00012544,0.0002
 5750,-0.00031632,0.00001452,-0.00002863,0.00001805,0.00003095,0.000020
 84,-0.00009766,-0.00126810,0.00053315,-0.00009619,0.00008859,0.0001839
 6,0.00003683,-0.00002000,0.00004916,0.02639810,0.00175098,-0.00437092,
 -0.00101967,-0.00056067,0.00255291,0.00047004,-0.00028656,-0.00029464,
 -0.00008653,0.00001545,-0.00013222,0.00000477,-0.00003264,0.00000533,0
 .00001523,0.00001054,0.00002753,-0.00007358,-0.00002360,0.00000581,0.0
 0008256,0.00003009,-0.00005025,0.00000645,-0.00000948,0.00000811,-0.00
 001219,0.00001179,-0.00001027,0.00000268,-0.00000092,0.00000072,0.0000
 1234,0.00000696,-0.00000338,-0.00001768,-0.00001166,-0.00001415,0.0000
 0714,0.00000371,0.00000289,0.00000890,0.00001113,0.00001037,-0.0000077
 1,0.00000308,-0.00001823,0.00000694,-0.00000554,0.00001862,0.00000138,
 0.00000030,-0.00001354,0.00000081,0.00000017,0.00000253,-0.00000263,-0
 .00000081,-0.00000260,-0.00000395,0.00000023,0.00000473,-0.00001048,-0
 .00000589,-0.00001527,-0.00001182,0.00000526,0.00001372,-0.00000476,-0
 .00000173,-0.00000633,-0.00000151,-0.00000293,-0.00000168,-0.00000490,
 0.00000140,0.00000271,-0.00022669,0.00005459,0.00012412,-0.00022178,-0
 .00010146,0.00000774,-0.00349596,0.00048218,0.00301076,0.00020100,-0.0
 0181852,-0.00035444,-0.02740070,0.00355632,0.06387858,0.00105494,0.000
 02481,0.00147182,-0.01326353,-0.00037494,0.00428214,-0.00035092,0.0014
 7616,-0.00028714,0.00078047,0.00012926,-0.00007348,-0.00013259,0.00009
 235,0.00007498,-0.00004044,-0.00013258,-0.00014727,0.00012826,-0.00026
 072,0.00000839,-0.00000396,0.00002668,0.00001376,-0.00797625,0.0026169
 8,0.00195802,0.00068276,0.00057312,0.00080011,0.00014735,-0.00001009,0
 .00014195,-0.33475358,0.02961269,0.04982527,-0.01983106,-0.00344204,-0
 .01402024,-0.00039102,0.00287012,0.00158718,0.00081911,-0.00010241,-0.
 00027086,-0.00020197,-0.00004029,0.00007074,0.00004258,0.00011537,0.00
 006033,0.00029696,0.00008659,-0.00046579,-0.00045926,-0.00044846,0.000
 81370,-0.00003983,-0.00003610,0.00000253,0.00002101,0.00001194,-0.0000
 1802,-0.00000609,-0.00000341,-0.00000287,-0.00003925,0.00000801,0.0000
 1174,0.00001936,-0.00001224,-0.00001644,-0.00000740,-0.00000092,-0.000
 00490,0.00003211,0.00001886,0.00002187,0.00001926,-0.00000892,-0.00005
 207,-0.00000836,0.00001685,0.00003307,0.00002021,-0.00000424,-0.000043
 44,-0.00000059,0.00000012,0.00000538,0.00000365,0.00000122,0.00000095,
 0.00000823,0.00000172,-0.00001187,0.00002223,0.00000481,0.00004125,0.0
 0004038,-0.00001773,-0.00003923,0.00000723,0.00000360,0.00001158,0.000
 00274,-0.00000711,-0.00000260,0.00000882,0.00000052,0.00000328,0.00069
 256,-0.00144295,-0.00091818,0.00012165,0.00019417,0.00008214,0.0002333
 5,-0.00001846,-0.00001627,0.00100509,-0.00079117,-0.00023489,0.0004987
 0,-0.00131614,0.00099082,0.36882778,0.00108597,0.00030845,-0.00035384,
 -0.02353191,0.00033386,0.00726800,-0.00183626,0.00072309,0.00077068,0.
 00065832,0.00000826,-0.00040099,-0.00006204,0.00009262,0.00000159,-0.0
 0003428,-0.00031519,-0.00021540,0.00011605,-0.00003866,0.00005326,-0.0
 0001213,-0.00000961,-0.00005550,0.03789505,-0.00906891,-0.00495832,-0.
 00190657,0.00179940,0.00042735,-0.00008616,0.00034921,0.00023222,0.032
 26674,-0.04719393,-0.00359720,-0.01207271,0.00120798,-0.00499545,-0.00
 360929,0.00098599,0.00003198,0.00035271,-0.00015514,0.00007103,0.00007
 465,0.00000843,-0.00004362,0.00000890,0.00012385,0.00010729,-0.0001147
 1,-0.00004103,-0.00020613,0.00015021,-0.00013238,0.00018451,0.00001185
 ,-0.00002148,-0.00000095,-0.00001722,-0.00000051,-0.00000500,0.0000059
 3,-0.00000115,0.00000098,0.00000184,0.00001187,-0.00002648,0.00000385,
 -0.00000718,0.00004211,-0.00000413,-0.00000300,-0.00000370,0.00001760,
 -0.00000010,-0.00000280,-0.00000449,-0.00002349,0.00001886,-0.00000274
 ,0.00003882,-0.00000471,-0.00000181,-0.00000989,-0.00000521,0.00000106
 ,0.00000004,0.00000084,-0.00000165,-0.00000447,-0.00000209,-0.00000475
 ,0.00000400,0.00000673,-0.00002056,-0.00003296,-0.00001788,0.00001501,
 0.00002020,-0.00003116,-0.00000155,0.00000175,0.00000416,0.00000209,-0
 .00000274,0.00000480,0.00000242,-0.00000284,-0.00000307,0.00050791,0.0
 0038702,-0.00006104,0.00015581,0.00011898,0.00004952,0.00010743,-0.000
 01331,-0.00019975,0.00035688,-0.00033049,0.00032178,-0.00117295,-0.002
 32836,0.00284691,-0.03047180,0.05812156,-0.00203780,-0.00048249,0.0016
 3851,0.03037385,0.00129479,-0.00422400,0.00089873,-0.00141979,0.000378
 32,-0.00074460,0.00017216,0.00010865,0.00015664,-0.00009715,-0.0000020
 3,0.00034230,-0.00008765,-0.00041135,-0.00000268,-0.00020626,0.0002654
 9,-0.00000383,0.00006300,-0.00000393,0.00668838,0.00022541,0.00089620,
 -0.00040457,0.00049931,0.00036531,-0.00008722,0.00011316,0.00004705,0.
 05574904,-0.00544665,-0.04978582,-0.04297191,-0.00372530,-0.01251011,-
 0.00402597,0.00340358,0.00221083,0.00061247,-0.00016883,-0.00050403,-0
 .00010575,-0.00010336,0.00019417,0.00000648,-0.00002175,-0.00001707,0.
 00031616,0.00010155,-0.00010908,-0.00061737,-0.00041215,0.00060610,-0.
 00000814,-0.00002289,0.00001880,0.00000375,0.00003029,-0.00001886,-0.0
 0000271,-0.00000279,-0.00000148,-0.00000653,0.00002182,0.00000811,-0.0
 0000194,-0.00002344,0.00000752,0.00000560,0.00000049,-0.00000565,0.000
 02457,0.00002795,0.00002585,0.00000368,0.00001095,-0.00006277,0.000005
 80,-0.00001800,0.00003379,0.00000966,0.00000479,-0.00002932,0.00000085
 ,-0.00000088,0.00000382,-0.00000080,0.00000217,-0.00000019,0.00000357,
 0.00000080,-0.00001176,0.00002983,0.00001262,0.00004362,0.00003155,-0.
 00001104,-0.00006856,0.00000109,0.00000298,0.00000592,-0.00000025,-0.0
 0000609,-0.00000152,0.00000027,0.00000048,0.00000325,0.00109594,-0.000
 07816,-0.00020592,-0.00003073,0.00002553,-0.00017285,-0.00005992,-0.00
 017974,0.00058047,-0.00066193,0.00061839,0.00010493,0.00115802,0.00367
 002,-0.00377926,-0.04469201,0.00358646,0.06353924,-0.00004624,-0.00014
 199,0.00004087,0.00021820,0.00147119,0.00078740,0.00051195,0.00012423,
 -0.00024535,-0.00005025,0.00025633,-0.00005409,-0.00000543,0.00000919,
 0.00001157,-0.00003408,0.00003390,0.00005121,0.00000674,-0.00000758,-0
 .00005499,0.00000588,0.00000371,0.00003966,-0.09377024,-0.06063894,0.0
 9660491,0.00815784,0.00523201,-0.02100327,0.00059467,0.00084483,0.0007
 2070,0.00345820,0.00867368,-0.00705476,0.00008717,-0.00093484,-0.00061
 366,-0.00002980,0.00006929,-0.00004147,-0.00004812,-0.00000985,-0.0001
 8985,0.00001121,-0.00003384,0.00015140,-0.00018891,-0.00020186,-0.0001
 8153,-0.00003985,0.00050755,0.00030506,0.00010539,-0.00079737,-0.00026
 595,0.00005577,0.00004069,0.00002781,-0.00001359,0.00003025,0.00001348
 ,-0.00000063,0.00000266,0.00000014,-0.00000311,-0.00001406,0.00004485,
 0.00000385,0.00001888,-0.00004123,0.00000124,-0.00000328,0.00000359,-0
 .00001041,0.00002059,-0.00002379,-0.00001089,0.00004747,-0.00002301,0.
 00000767,-0.00008819,-0.00001928,-0.00001540,0.00002529,0.00004338,-0.
 00000063,-0.00000273,-0.00000696,-0.00000180,0.00000407,0.00000137,-0.
 00000482,0.00000040,-0.00000262,0.00002329,0.00000220,0.00000445,-0.00
 000007,0.00000506,-0.00000213,-0.00000108,-0.00000224,-0.00000078,-0.0
 0000110,0.00001040,-0.00000377,-0.00000121,0.00000212,-0.00000156,-0.0
 0002393,0.00000629,-0.00000093,0.00001159,0.00000582,0.00000670,-0.000
 09815,0.00004995,-0.00011341,-0.00001464,-0.00008694,-0.00002604,0.000
 24219,0.00040835,-0.00019663,0.00098095,-0.00043893,-0.00088014,0.0922
 2555,0.00009573,0.00086451,0.00027129,0.00232629,-0.00558339,-0.004850
 25,-0.00094162,0.00035702,0.00183434,0.00006035,-0.00148685,0.00026889
 ,-0.00008136,0.00011377,-0.00016517,-0.00001847,0.00026963,0.00051982,
 0.00000366,-0.00003359,-0.00038875,0.00002651,-0.00001568,0.00017993,-
 0.05721552,-0.12470566,0.12542990,0.00157665,0.00756169,-0.02166332,0.
 00057887,0.00144604,-0.00051752,-0.01323472,-0.02210530,0.02777553,0.0
 0051988,0.00276496,0.00042448,0.00020922,-0.00025671,-0.00005874,0.000
 04661,0.00008363,-0.00026677,-0.00007027,-0.00004121,0.00014872,-0.000
 13091,-0.00037858,-0.00032476,0.00028628,0.00056659,0.00050761,-0.0005
 4395,-0.00079294,-0.00062079,0.00002176,0.00010499,-0.00000082,0.00002
 312,-0.00001354,0.00003893,-0.00000773,0.00000842,-0.00000133,-0.00003
 637,-0.00005703,0.00009382,0.00000530,0.00004894,-0.00015555,0.0000036
 1,-0.00000303,0.00001955,-0.00000371,0.00000185,-0.00004432,-0.0000045
 0,0.00006669,-0.00002218,0.00001101,-0.00012441,-0.00003924,-0.0000187
 2,0.00003265,0.00007081,-0.00000210,-0.00000075,-0.00001088,0.00000148
 ,0.00000947,0.00000570,0.00000591,-0.00000833,-0.00001520,0.00006410,0
 .00006728,0.00005892,0.00001191,-0.00001936,-0.00000990,0.00000170,0.0
 0000165,0.00000484,0.00000344,0.00002128,-0.00001212,0.00000538,0.0000
 0256,-0.00000163,0.00000429,-0.00002887,-0.00000011,-0.00001040,-0.000
 01741,-0.00003188,0.00006513,-0.00018982,-0.00005959,0.00013555,-0.000
 10006,-0.00008603,-0.00003272,0.00018230,-0.00011826,0.00017624,0.0017
 1114,0.00020051,0.06315126,0.13551689,0.00008970,0.00056955,0.00018020
 ,-0.00055632,-0.00124081,-0.00023959,0.00006349,-0.00006579,0.00012881
 ,-0.00000115,-0.00009461,0.00009403,-0.00000279,-0.00006047,-0.0000226
 8,0.00002837,-0.00004252,-0.00009399,-0.00000606,-0.00002381,0.0000693
 1,-0.00000025,0.00001296,-0.00001964,0.09374764,0.12448114,-0.22337105
 ,-0.00041956,0.00038091,-0.04132473,-0.00013566,0.00077933,-0.00002782
 ,0.00032610,-0.00143337,0.00188580,0.00017256,-0.00067854,0.00128018,-
 0.00010109,0.00010073,0.00032501,-0.00000303,0.00000311,0.00005385,0.0
 0002677,0.00002510,-0.00000340,0.00004277,0.00007657,-0.00002349,-0.00
 006693,-0.00024920,-0.00022360,-0.00002324,0.00008349,0.00005926,-0.00
 001040,-0.00001851,-0.00001584,-0.00000625,-0.00001534,-0.00000995,0.0
 0000447,0.00000213,0.00000454,0.00000856,0.00001523,-0.00001894,-0.000
 00648,-0.00001743,0.00002396,0.00000142,0.00000416,-0.00000316,-0.0000
 0124,0.00000611,0.00000728,0.00000003,-0.00002489,0.00000376,-0.000003
 94,0.00003750,0.00001668,0.00000731,-0.00001328,-0.00002501,0.00000030
 ,0.00000277,0.00000549,-0.00000065,-0.00000236,-0.00000193,-0.00000129
 ,0.00000185,0.00000502,-0.00000791,-0.00000284,-0.00000276,-0.00000551
 ,0.00000232,-0.00000099,-0.00000135,-0.00000084,-0.00000197,-0.0000013
 4,-0.00000513,0.00000084,-0.00000176,0.00000031,0.00000130,0.00000049,
 0.00001363,-0.00001739,-0.00001060,0.00000929,0.00000844,-0.00004999,-
 0.00026468,0.00003352,0.00000027,-0.00001594,-0.00000498,0.00000822,-0
 .00004651,0.00003836,-0.00039192,0.00017017,0.00059143,-0.09434940,-0.
 12464490,0.25978523,0.00019402,0.00011208,-0.00004579,0.00053145,-0.00
 041147,0.00022329,0.00030029,-0.00005500,-0.00010570,0.00005640,0.0001
 9246,-0.00001851,-0.00002552,-0.00002762,0.00002102,-0.00006576,-0.000
 04714,-0.00007636,0.00003806,-0.00000281,0.00004486,-0.00001727,-0.000
 00308,-0.00002513,-0.34354078,0.04262206,0.02124368,-0.01289393,-0.006
 44522,-0.01366919,0.00046917,0.00000968,-0.00062656,-0.01025271,0.0021
 2724,0.00120297,0.00139112,-0.00012900,0.00062142,0.00042518,-0.000014
 49,0.00011580,0.00005700,0.00010957,0.00015101,-0.00001725,0.00003409,
 -0.00002627,-0.00001533,0.00002601,0.00000382,0.00019194,-0.00009884,0
 .00006671,-0.00035190,0.00016764,-0.00000221,-0.00002316,0.00001431,-0
 .00001167,0.00003670,-0.00002365,0.00000577,-0.00000897,0.00000033,-0.
 00000077,-0.00000862,0.00000216,-0.00000639,0.00001767,0.00000054,0.00
 001849,-0.00000851,-0.00000020,-0.00000326,-0.00001639,-0.00000797,-0.
 00000327,0.00001769,-0.00001725,0.00001505,-0.00001916,0.00002220,-0.0
 0000095,0.00001039,-0.00000678,-0.00000642,-0.00000298,0.00000187,0.00
 000220,0.00000584,0.00000151,0.00000290,0.00000902,-0.00000326,-0.0000
 0651,0.00001613,0.00002597,0.00003490,0.00001136,-0.00001247,0.0000009
 3,0.00000667,0.00000212,0.00000640,-0.00000020,-0.00000080,0.00000142,
 0.00000475,-0.00000121,0.00000029,0.00003638,-0.00023922,-0.00014643,0
 .00003822,0.00003126,0.00000941,-0.00013787,0.00005863,-0.00010947,0.0
 0005678,-0.00020236,-0.00001392,0.00033786,0.00074628,-0.00055286,0.00
 098835,0.00161039,-0.00017145,-0.01229498,0.00293186,0.00163764,0.3744
 5283,-0.00024390,0.00015784,0.00042512,0.00097192,0.00261655,-0.000956
 41,0.00003698,0.00000126,-0.00015693,-0.00021661,-0.00008374,0.0001055
 4,0.00003051,-0.00003700,-0.00003004,0.00007568,0.00011996,0.00003156,
 -0.00004663,0.00001132,-0.00000588,0.00001091,0.00001124,0.00001895,0.
 04342775,-0.05151974,0.00351452,-0.01874199,0.00016319,-0.01045902,-0.
 00118002,0.00094595,0.00012785,0.03830911,-0.00954776,-0.00305406,-0.0
 0125001,0.00270361,0.00157724,0.00028673,0.00006199,0.00007157,-0.0001
 6877,-0.00004491,-0.00014314,-0.00001344,-0.00002628,0.00007309,0.0000
 1851,-0.00003468,-0.00002320,0.00003762,0.00007200,0.00004043,-0.00004
 194,-0.00008052,-0.00003895,-0.00000496,0.00000455,0.00000181,0.000002
 32,0.00000699,-0.00000414,-0.00000176,0.00000040,-0.00000037,0.0000061
 8,0.00000428,0.00000663,-0.00001037,-0.00000577,-0.00001182,0.00000551
 ,0.00000243,0.00000096,-0.00000148,0.00001012,0.00001034,-0.00000300,0
 .00000892,-0.00002104,0.00000493,-0.00001821,0.00001446,0.00000234,0.0
 0000388,-0.00000713,-0.00000014,0.00000029,0.00000144,-0.00000078,0.00
 000154,-0.00000076,-0.00000033,-0.00000323,0.00000035,0.00000313,0.000
 01229,0.00000318,-0.00000278,-0.00000050,0.00001165,-0.00000179,-0.000
 00144,-0.00000469,-0.00000172,-0.00000161,-0.00000218,-0.00000325,0.00
 000185,0.00000217,-0.00026662,0.00009293,0.00009271,-0.00004982,-0.000
 04627,-0.00001231,0.00005821,-0.00016809,0.00013015,-0.00027795,0.0001
 6891,0.00006082,-0.00088346,-0.00027331,0.00038067,0.00088052,-0.00661
 968,-0.00157479,-0.01765502,0.00415858,0.00218344,-0.04310040,0.057169
 84,0.00022616,0.00008204,0.00015567,-0.00087354,-0.00016341,-0.0000434
 5,0.00004491,0.00012241,0.00004435,0.00000278,-0.00011619,0.00002556,-
 0.00001870,0.00002577,-0.00002293,0.00000675,0.00007253,0.00008301,-0.
 00000929,-0.00003573,-0.00007417,0.00001317,0.00000905,0.00004577,0.02
 392283,0.00179629,-0.04292232,-0.04131553,-0.00570252,-0.01363538,-0.0
 0028626,0.00125609,0.00133969,0.00193042,-0.00022816,0.00137787,0.0000
 7735,0.00002478,0.00062872,0.00021132,0.00016626,-0.00000172,-0.000091
 93,0.00000911,-0.00013737,0.00000124,-0.00003355,0.00003414,-0.0000013
 1,0.00000140,0.00001359,-0.00017802,0.00004591,-0.00009927,0.00038229,
 -0.00009933,-0.00001747,0.00001242,-0.00001868,0.00001520,-0.00002652,
 0.00002772,-0.00001434,0.00000456,-0.00000203,0.00000091,-0.00000127,-
 0.00000471,0.00001092,-0.00000880,-0.00000075,-0.00003301,0.00000423,0
 .00000298,0.00000444,0.00000412,0.00000448,0.00001696,-0.00000851,0.00
 001837,-0.00002493,0.00000964,-0.00001750,0.00001956,0.00000042,0.0000
 0559,-0.00001310,0.00000139,-0.00000172,0.00000135,-0.00000349,-0.0000
 0097,-0.00000300,-0.00000681,0.00000412,0.00000748,-0.00001659,-0.0000
 3115,-0.00003596,-0.00000820,0.00000929,0.00000303,-0.00000385,-0.0000
 0269,-0.00000510,-0.00000010,-0.00000153,-0.00000371,-0.00000162,0.000
 00278,0.00000133,-0.00009463,-0.00001591,-0.00001362,-0.00000469,-0.00
 001322,0.00000504,-0.00009228,-0.00001815,-0.00006179,0.00000900,0.000
 01089,-0.00003178,0.00005332,-0.00005565,0.00015568,-0.00060352,-0.001
 01090,0.00024819,0.02653803,-0.00374360,0.00085066,-0.00980088,0.00762
 022,0.05210527\\0.00961456,-0.00900342,-0.01337516,-0.01237007,-0.0014
 5590,-0.00314300,-0.00938540,-0.02156732,0.01624705,0.01223167,0.01176
 541,0.02553859,-0.00947320,-0.00886035,-0.02721100,-0.00599121,-0.0167
 2432,-0.01193844,0.00775562,0.01333155,-0.00133979,0.00198459,0.012191
 13,0.01708739,-0.00698883,0.01666608,0.00754715,-0.00105369,0.01301376
 ,0.00616143,0.00709161,-0.03345007,-0.00809488,0.01798117,0.01691314,0
 .01307632,-0.00306292,-0.00376468,0.01652194,-0.03335739,-0.00384230,-
 0.00682355,0.02867679,0.00414454,0.02239116,-0.02966940,0.00138007,-0.
 01026944,0.02825145,0.00610319,0.01692449,-0.01291961,-0.00547243,0.00
 440885,0.01158858,0.00748908,-0.01932125,-0.02577592,0.01843839,-0.001
 86332,-0.00460186,0.00852405,-0.02924664,0.00855967,-0.01459985,0.0306
 8536,0.01431287,-0.02391375,-0.00927224,-0.01602832,-0.01386729,0.0053
 6580,0.00165375,0.03328317,-0.01304852,-0.00083281,0.00138164,0.016059
 68,-0.01028967,-0.00355207,0.00863245,0.04550016,-0.00856340,-0.011495
 18,-0.01281363,0.00560690,0.01292154,-0.00114341,-0.00315034,-0.002059
 30,-0.01922956,-0.00303852,-0.00399675,0.01850205,0.00015200,-0.000836
 34,-0.01922084,-0.00054764,-0.00315070,0.01680075,-0.00021139,0.001071
 48,-0.02150016,0.00002514,-0.00279685,0.00041367,-0.00913480,-0.016579
 56,0.02032791,0.00100799,0.00256663,0.01836129,0.00322034,-0.00401990,
 -0.02177529,0.00286754,0.00196038,-0.00059862,0.00283003,-0.00239841,0
 .02209236,-0.00072285,0.00041918,-0.02022742,-0.00116060,-0.00048701,0
 .02321515,-0.00107292,-0.00214746,0.00504193,0.00620796,-0.01803224,-0
 .02164837,0.00113310,-0.00263996\\\@


 WE ARE PERHAPS NOT FAR REMOVED FROM THE TIME WHEN WE SHALL BE ABLE TO SUBMIT
 THE BULK OF CHEMICAL PHENOMENA TO CALCULATION.

            -- JOSEPH LOUIS GAY-LUSSAC
               MEMOIRES DE LA SOCIETE D'ARCUEIL, 2, 207 (1808)
 Job cpu time:  3 days 23 hours 17 minutes 20.2 seconds.
 File lengths (MBytes):  RWF=   2340 Int=      0 D2E=      0 Chk=     43 Scr=      1
 Normal termination of Gaussian 09 at Fri Feb 12 13:13:17 2016.
Gaussian '09 finished on node010 at Fri Feb 12 13:13:17 EST 2016.
