Gaussian '09 started on node028 at Sat Mar 21 15:42:00 EDT 2015.
 Entering Gaussian System, Link 0=/usr/local/gaussian/g09/g09
 Initial command:
 /usr/local/gaussian/g09/l1.exe /home/srmcgrat/gaussian/glucose/gaussian20905/Gau-20941.inp -scrdir=/home/srmcgrat/gaussian/glucose/gaussian20905/
 Entering Link 1 = /usr/local/gaussian/g09/l1.exe PID=     20943.
  
 Copyright (c) 1988,1990,1992,1993,1995,1998,2003,2009,2010,
            Gaussian, Inc.  All Rights Reserved.
  
 This is part of the Gaussian(R) 09 program.  It is based on
 the Gaussian(R) 03 system (copyright 2003, Gaussian, Inc.),
 the Gaussian(R) 98 system (copyright 1998, Gaussian, Inc.),
 the Gaussian(R) 94 system (copyright 1995, Gaussian, Inc.),
 the Gaussian 92(TM) system (copyright 1992, Gaussian, Inc.),
 the Gaussian 90(TM) system (copyright 1990, Gaussian, Inc.),
 the Gaussian 88(TM) system (copyright 1988, Gaussian, Inc.),
 the Gaussian 86(TM) system (copyright 1986, Carnegie Mellon
 University), and the Gaussian 82(TM) system (copyright 1983,
 Carnegie Mellon University). Gaussian is a federally registered
 trademark of Gaussian, Inc.
  
 This software contains proprietary and confidential information,
 including trade secrets, belonging to Gaussian, Inc.
  
 This software is provided under written license and may be
 used, copied, transmitted, or stored only in accord with that
 written license.
  
 The following legend is applicable only to US Government
 contracts under FAR:
  
                    RESTRICTED RIGHTS LEGEND
  
 Use, reproduction and disclosure by the US Government is
 subject to restrictions as set forth in subparagraphs (a)
 and (c) of the Commercial Computer Software - Restricted
 Rights clause in FAR 52.227-19.
  
 Gaussian, Inc.
 340 Quinnipiac St., Bldg. 40, Wallingford CT 06492
  
  
 ---------------------------------------------------------------
 Warning -- This program may not be used in any manner that
 competes with the business of Gaussian, Inc. or will provide
 assistance to any competitor of Gaussian, Inc.  The licensee
 of this program is prohibited from giving any competitor of
 Gaussian, Inc. access to this program.  By using this program,
 the user acknowledges that Gaussian, Inc. is engaged in the
 business of creating and licensing software in the field of
 computational chemistry and represents and warrants to the
 licensee that it is not a competitor of Gaussian, Inc. and that
 it will not use this program in any manner prohibited above.
 ---------------------------------------------------------------
  

 Cite this work as:
 Gaussian 09, Revision B.01,
 M. J. Frisch, G. W. Trucks, H. B. Schlegel, G. E. Scuseria, 
 M. A. Robb, J. R. Cheeseman, G. Scalmani, V. Barone, B. Mennucci, 
 G. A. Petersson, H. Nakatsuji, M. Caricato, X. Li, H. P. Hratchian, 
 A. F. Izmaylov, J. Bloino, G. Zheng, J. L. Sonnenberg, M. Hada, 
 M. Ehara, K. Toyota, R. Fukuda, J. Hasegawa, M. Ishida, T. Nakajima, 
 Y. Honda, O. Kitao, H. Nakai, T. Vreven, J. A. Montgomery, Jr., 
 J. E. Peralta, F. Ogliaro, M. Bearpark, J. J. Heyd, E. Brothers, 
 K. N. Kudin, V. N. Staroverov, T. Keith, R. Kobayashi, J. Normand, 
 K. Raghavachari, A. Rendell, J. C. Burant, S. S. Iyengar, J. Tomasi, 
 M. Cossi, N. Rega, J. M. Millam, M. Klene, J. E. Knox, J. B. Cross, 
 V. Bakken, C. Adamo, J. Jaramillo, R. Gomperts, R. E. Stratmann, 
 O. Yazyev, A. J. Austin, R. Cammi, C. Pomelli, J. W. Ochterski, 
 R. L. Martin, K. Morokuma, V. G. Zakrzewski, G. A. Voth, 
 P. Salvador, J. J. Dannenberg, S. Dapprich, A. D. Daniels, 
 O. Farkas, J. B. Foresman, J. V. Ortiz, J. Cioslowski, 
 and D. J. Fox, Gaussian, Inc., Wallingford CT, 2010.
 
 ******************************************
 Gaussian 09:  EM64L-G09RevB.01 12-Aug-2010
                21-Mar-2015 
 ******************************************
 %chk=alpha-D-glucose.chk
 ----------------------------------------------------------------------
 # opt freq=raman b3lyp/6-31+g(2df,p) scrf=(smd,solvent=water) geom=con
 nectivity
 ----------------------------------------------------------------------
 1/14=-1,18=20,19=15,26=3,38=1,57=2/1,3;
 2/9=110,12=2,17=6,18=5,40=1/2;
 3/5=1,6=6,7=114,11=2,16=1,25=1,30=1,70=32201,71=1,72=1,74=-5/1,2,3;
 4//1;
 5/5=2,38=5,53=1/2;
 6/7=2,8=2,9=2,10=2,28=1/1;
 7//1,2,3,16;
 1/14=-1,18=20,19=15/3(2);
 2/9=110/2;
 99//99;
 2/9=110/2;
 3/5=1,6=6,7=114,11=2,16=1,25=1,30=1,70=32205,71=1,72=1,74=-5/1,2,3;
 4/5=5,16=3/1;
 5/5=2,38=5,53=1/2;
 7//1,2,3,16;
 1/14=-1,18=20,19=15/3(-5);
 2/9=110/2;
 6/7=2,8=2,9=2,10=2,19=2,28=1/1;
 99/9=1/99;
 --------------
 Furfural Raman
 --------------
 Symbolic Z-matrix:
 Charge =  0 Multiplicity = 1
 O                     4.5323    2.7092   -0.135 
 O                     3.6345    1.9781   -2.5141 
 O                     2.4605   -1.0707   -0.914 
 O                     0.8747    2.0709   -2.0482 
 O                     2.3262    2.2881    0.277 
 O                     0.3775   -0.7828    1.0344 
 C                     3.6021    1.6924   -0.1044 
 C                     3.5331    0.9907   -1.4848 
 C                     2.2746    0.1236   -1.6616 
 C                     1.0369    0.9151   -1.2047 
 C                     1.1961    1.4117    0.2403 
 C                     1.2449    0.318     1.3294 
 H                     4.4696    3.0791   -1.0387 
 H                     2.7212    2.1957   -2.78 
 H                     1.605    -1.3502   -0.5402 
 H                     1.2156    2.8209   -1.5254 
 H                    -0.5424   -0.4807    1.0953 
 H                     3.9041    0.9859    0.6742 
 H                     4.4173    0.3505   -1.5704 
 H                     2.1685   -0.1056   -2.733 
 H                     0.1352    0.3035   -1.3138 
 H                     0.3394    2.0682    0.447 
 H                     1.003     0.7622    2.3035 
 H                     2.2386   -0.1204    1.3965 
 

 GradGradGradGradGradGradGradGradGradGradGradGradGradGradGradGradGradGrad
 Berny optimization.
 Initialization pass.
                           ----------------------------
                           !    Initial Parameters    !
                           ! (Angstroms and Degrees)  !
 --------------------------                            --------------------------
 ! Name  Definition              Value          Derivative Info.                !
 --------------------------------------------------------------------------------
 ! R1    R(1,7)                  1.3784         estimate D2E/DX2                !
 ! R2    R(1,13)                 0.9785         estimate D2E/DX2                !
 ! R3    R(2,8)                  1.4299         estimate D2E/DX2                !
 ! R4    R(2,14)                 0.9758         estimate D2E/DX2                !
 ! R5    R(3,9)                  1.4212         estimate D2E/DX2                !
 ! R6    R(3,15)                 0.9745         estimate D2E/DX2                !
 ! R7    R(4,10)                 1.44           estimate D2E/DX2                !
 ! R8    R(4,16)                 0.9757         estimate D2E/DX2                !
 ! R9    R(5,7)                  1.4589         estimate D2E/DX2                !
 ! R10   R(5,11)                 1.4306         estimate D2E/DX2                !
 ! R11   R(6,12)                 1.4322         estimate D2E/DX2                !
 ! R12   R(6,17)                 0.9701         estimate D2E/DX2                !
 ! R13   R(7,8)                  1.55           estimate D2E/DX2                !
 ! R14   R(7,18)                 1.0939         estimate D2E/DX2                !
 ! R15   R(8,9)                  1.5385         estimate D2E/DX2                !
 ! R16   R(8,19)                 1.095          estimate D2E/DX2                !
 ! R17   R(9,10)                 1.5385         estimate D2E/DX2                !
 ! R18   R(9,20)                 1.1008         estimate D2E/DX2                !
 ! R19   R(10,11)                1.5362         estimate D2E/DX2                !
 ! R20   R(10,21)                1.095          estimate D2E/DX2                !
 ! R21   R(11,12)                1.5442         estimate D2E/DX2                !
 ! R22   R(11,22)                1.0989         estimate D2E/DX2                !
 ! R23   R(12,23)                1.0976         estimate D2E/DX2                !
 ! R24   R(12,24)                1.0882         estimate D2E/DX2                !
 ! A1    A(7,1,13)             104.8397         estimate D2E/DX2                !
 ! A2    A(8,2,14)             106.485          estimate D2E/DX2                !
 ! A3    A(9,3,15)             109.1446         estimate D2E/DX2                !
 ! A4    A(10,4,16)            105.2922         estimate D2E/DX2                !
 ! A5    A(7,5,11)             115.7238         estimate D2E/DX2                !
 ! A6    A(12,6,17)            108.7841         estimate D2E/DX2                !
 ! A7    A(1,7,5)              107.145          estimate D2E/DX2                !
 ! A8    A(1,7,8)              110.1329         estimate D2E/DX2                !
 ! A9    A(1,7,18)             107.8133         estimate D2E/DX2                !
 ! A10   A(5,7,8)              112.2559         estimate D2E/DX2                !
 ! A11   A(5,7,18)             108.6087         estimate D2E/DX2                !
 ! A12   A(8,7,18)             110.7191         estimate D2E/DX2                !
 ! A13   A(2,8,7)              108.9831         estimate D2E/DX2                !
 ! A14   A(2,8,9)              111.3749         estimate D2E/DX2                !
 ! A15   A(2,8,19)             106.8694         estimate D2E/DX2                !
 ! A16   A(7,8,9)              113.1971         estimate D2E/DX2                !
 ! A17   A(7,8,19)             107.3584         estimate D2E/DX2                !
 ! A18   A(9,8,19)             108.7863         estimate D2E/DX2                !
 ! A19   A(3,9,8)              107.8287         estimate D2E/DX2                !
 ! A20   A(3,9,10)             112.4157         estimate D2E/DX2                !
 ! A21   A(3,9,20)             110.4648         estimate D2E/DX2                !
 ! A22   A(8,9,10)             109.5109         estimate D2E/DX2                !
 ! A23   A(8,9,20)             107.9418         estimate D2E/DX2                !
 ! A24   A(10,9,20)            108.5797         estimate D2E/DX2                !
 ! A25   A(4,10,9)             109.2426         estimate D2E/DX2                !
 ! A26   A(4,10,11)            107.6491         estimate D2E/DX2                !
 ! A27   A(4,10,21)            107.2885         estimate D2E/DX2                !
 ! A28   A(9,10,11)            111.2395         estimate D2E/DX2                !
 ! A29   A(9,10,21)            110.2137         estimate D2E/DX2                !
 ! A30   A(11,10,21)           111.0762         estimate D2E/DX2                !
 ! A31   A(5,11,10)            107.6999         estimate D2E/DX2                !
 ! A32   A(5,11,12)            113.0059         estimate D2E/DX2                !
 ! A33   A(5,11,22)            104.1836         estimate D2E/DX2                !
 ! A34   A(10,11,12)           115.958          estimate D2E/DX2                !
 ! A35   A(10,11,22)           106.813          estimate D2E/DX2                !
 ! A36   A(12,11,22)           108.3659         estimate D2E/DX2                !
 ! A37   A(6,12,11)            112.3309         estimate D2E/DX2                !
 ! A38   A(6,12,23)            111.1239         estimate D2E/DX2                !
 ! A39   A(6,12,24)            104.8392         estimate D2E/DX2                !
 ! A40   A(11,12,23)           109.4097         estimate D2E/DX2                !
 ! A41   A(11,12,24)           110.9577         estimate D2E/DX2                !
 ! A42   A(23,12,24)           108.0338         estimate D2E/DX2                !
 ! D1    D(13,1,7,5)           -87.2417         estimate D2E/DX2                !
 ! D2    D(13,1,7,8)            35.1191         estimate D2E/DX2                !
 ! D3    D(13,1,7,18)          156.0219         estimate D2E/DX2                !
 ! D4    D(14,2,8,7)           -95.765          estimate D2E/DX2                !
 ! D5    D(14,2,8,9)            29.8233         estimate D2E/DX2                !
 ! D6    D(14,2,8,19)          148.5128         estimate D2E/DX2                !
 ! D7    D(15,3,9,8)           144.8405         estimate D2E/DX2                !
 ! D8    D(15,3,9,10)           24.0318         estimate D2E/DX2                !
 ! D9    D(15,3,9,20)          -97.4225         estimate D2E/DX2                !
 ! D10   D(16,4,10,9)         -101.8214         estimate D2E/DX2                !
 ! D11   D(16,4,10,11)          19.0904         estimate D2E/DX2                !
 ! D12   D(16,4,10,21)         138.711          estimate D2E/DX2                !
 ! D13   D(11,5,7,1)           174.2039         estimate D2E/DX2                !
 ! D14   D(11,5,7,8)            53.1764         estimate D2E/DX2                !
 ! D15   D(11,5,7,18)          -69.585          estimate D2E/DX2                !
 ! D16   D(7,5,11,10)          -60.7593         estimate D2E/DX2                !
 ! D17   D(7,5,11,12)           68.636          estimate D2E/DX2                !
 ! D18   D(7,5,11,22)         -173.9522         estimate D2E/DX2                !
 ! D19   D(17,6,12,11)         -67.9629         estimate D2E/DX2                !
 ! D20   D(17,6,12,23)          54.9826         estimate D2E/DX2                !
 ! D21   D(17,6,12,24)         171.45           estimate D2E/DX2                !
 ! D22   D(1,7,8,2)            -39.4914         estimate D2E/DX2                !
 ! D23   D(1,7,8,9)           -164.0152         estimate D2E/DX2                !
 ! D24   D(1,7,8,19)            75.9161         estimate D2E/DX2                !
 ! D25   D(5,7,8,2)             79.8015         estimate D2E/DX2                !
 ! D26   D(5,7,8,9)            -44.7224         estimate D2E/DX2                !
 ! D27   D(5,7,8,19)          -164.7911         estimate D2E/DX2                !
 ! D28   D(18,7,8,2)          -158.6364         estimate D2E/DX2                !
 ! D29   D(18,7,8,9)            76.8397         estimate D2E/DX2                !
 ! D30   D(18,7,8,19)          -43.229          estimate D2E/DX2                !
 ! D31   D(2,8,9,3)            160.9735         estimate D2E/DX2                !
 ! D32   D(2,8,9,10)           -76.4162         estimate D2E/DX2                !
 ! D33   D(2,8,9,20)            41.6209         estimate D2E/DX2                !
 ! D34   D(7,8,9,3)            -75.8124         estimate D2E/DX2                !
 ! D35   D(7,8,9,10)            46.7978         estimate D2E/DX2                !
 ! D36   D(7,8,9,20)           164.835          estimate D2E/DX2                !
 ! D37   D(19,8,9,3)            43.438          estimate D2E/DX2                !
 ! D38   D(19,8,9,10)          166.0483         estimate D2E/DX2                !
 ! D39   D(19,8,9,20)          -75.9145         estimate D2E/DX2                !
 ! D40   D(3,9,10,4)          -177.0886         estimate D2E/DX2                !
 ! D41   D(3,9,10,11)           64.2128         estimate D2E/DX2                !
 ! D42   D(3,9,10,21)          -59.446          estimate D2E/DX2                !
 ! D43   D(8,9,10,4)            63.0745         estimate D2E/DX2                !
 ! D44   D(8,9,10,11)          -55.6241         estimate D2E/DX2                !
 ! D45   D(8,9,10,21)         -179.2829         estimate D2E/DX2                !
 ! D46   D(20,9,10,4)          -54.5641         estimate D2E/DX2                !
 ! D47   D(20,9,10,11)        -173.2627         estimate D2E/DX2                !
 ! D48   D(20,9,10,21)          63.0785         estimate D2E/DX2                !
 ! D49   D(4,10,11,5)          -58.089          estimate D2E/DX2                !
 ! D50   D(4,10,11,12)         174.2027         estimate D2E/DX2                !
 ! D51   D(4,10,11,22)          53.3263         estimate D2E/DX2                !
 ! D52   D(9,10,11,5)           61.5617         estimate D2E/DX2                !
 ! D53   D(9,10,11,12)         -66.1467         estimate D2E/DX2                !
 ! D54   D(9,10,11,22)         172.9769         estimate D2E/DX2                !
 ! D55   D(21,10,11,5)        -175.2722         estimate D2E/DX2                !
 ! D56   D(21,10,11,12)         57.0195         estimate D2E/DX2                !
 ! D57   D(21,10,11,22)        -63.8569         estimate D2E/DX2                !
 ! D58   D(5,11,12,6)         -161.2173         estimate D2E/DX2                !
 ! D59   D(5,11,12,23)          74.8782         estimate D2E/DX2                !
 ! D60   D(5,11,12,24)         -44.2286         estimate D2E/DX2                !
 ! D61   D(10,11,12,6)         -36.1829         estimate D2E/DX2                !
 ! D62   D(10,11,12,23)       -160.0875         estimate D2E/DX2                !
 ! D63   D(10,11,12,24)         80.8057         estimate D2E/DX2                !
 ! D64   D(22,11,12,6)          83.8563         estimate D2E/DX2                !
 ! D65   D(22,11,12,23)        -40.0482         estimate D2E/DX2                !
 ! D66   D(22,11,12,24)       -159.155          estimate D2E/DX2                !
 --------------------------------------------------------------------------------
 Trust Radius=3.00D-01 FncErr=1.00D-07 GrdErr=1.00D-06
 Number of steps in this run=    142 maximum allowed number of steps=    144.
 GradGradGradGradGradGradGradGradGradGradGradGradGradGradGradGradGradGrad

                          Input orientation:                          
 ---------------------------------------------------------------------
 Center     Atomic      Atomic             Coordinates (Angstroms)
 Number     Number       Type             X           Y           Z
 ---------------------------------------------------------------------
      1          8           0        4.532300    2.709200   -0.135000
      2          8           0        3.634500    1.978100   -2.514100
      3          8           0        2.460500   -1.070700   -0.914000
      4          8           0        0.874700    2.070900   -2.048200
      5          8           0        2.326200    2.288100    0.277000
      6          8           0        0.377500   -0.782800    1.034400
      7          6           0        3.602100    1.692400   -0.104400
      8          6           0        3.533100    0.990700   -1.484800
      9          6           0        2.274600    0.123600   -1.661600
     10          6           0        1.036900    0.915100   -1.204700
     11          6           0        1.196100    1.411700    0.240300
     12          6           0        1.244900    0.318000    1.329400
     13          1           0        4.469600    3.079100   -1.038700
     14          1           0        2.721200    2.195700   -2.780000
     15          1           0        1.605000   -1.350200   -0.540200
     16          1           0        1.215600    2.820900   -1.525400
     17          1           0       -0.542400   -0.480700    1.095300
     18          1           0        3.904100    0.985900    0.674200
     19          1           0        4.417300    0.350500   -1.570400
     20          1           0        2.168500   -0.105600   -2.733000
     21          1           0        0.135200    0.303500   -1.313800
     22          1           0        0.339400    2.068200    0.447000
     23          1           0        1.003000    0.762200    2.303500
     24          1           0        2.238600   -0.120400    1.396500
 ---------------------------------------------------------------------
                    Distance matrix (angstroms):
                    1          2          3          4          5
     1  O    0.000000
     2  O    2.645878   0.000000
     3  O    4.380279   3.637826   0.000000
     4  O    4.176817   2.800388   3.697407   0.000000
     5  O    2.283407   3.098062   3.566238   2.749651   0.000000
     6  O    5.551930   5.551799   2.866712   4.230040   3.715039
     7  C    1.378438   2.426794   3.097325   3.370509   1.458851
     8  C    2.402832   1.429930   2.392834   2.924268   2.498758
     9  C    3.756733   2.452602   1.421203   2.429230   2.906182
    10  C    4.071962   3.097099   2.460599   1.440026   2.396426
    11  C    3.599248   3.722005   3.015531   2.403139   1.430577
    12  C    4.320799   4.820644   2.904998   3.823335   2.481542
    13  H    0.978484   2.021484   4.612252   3.867669   2.636458
    14  H    3.246504   0.975792   3.770847   1.990143   3.083798
    15  H    5.021155   4.369523   0.974539   3.809374   3.798048
    16  H    3.598081   2.745709   4.131360   0.975722   2.183106
    17  H    6.118961   6.043175   3.660983   4.289572   4.069980
    18  H    2.004795   3.349985   2.972535   4.214968   2.084049
    19  H    2.763524   2.037751   2.505940   3.967125   3.397040
    20  H    4.501139   2.557123   2.079770   2.622980   3.848996
    21  H    5.148927   4.060801   2.730437   2.051806   3.357047
    22  H    4.281357   4.431017   4.025429   2.551975   2.006148
    23  H    4.710950   5.622497   3.979464   4.546037   2.861107
    24  H    3.951353   4.652422   2.508131   4.304414   2.657410
                    6          7          8          9         10
     6  O    0.000000
     7  C    4.221555   0.000000
     8  C    4.410157   1.550048   0.000000
     9  C    3.418913   2.578422   1.538487   0.000000
    10  C    2.886389   2.897431   2.513003   1.538548   0.000000
    11  C    2.473162   2.446722   2.935095   2.537634   1.536223
    12  C    1.432190   3.082393   3.688917   3.169251   2.611792
    13  H    5.996440   1.883722   2.331834   3.733766   4.061266
    14  H    5.377178   2.861491   1.946471   2.396637   2.637873
    15  H    2.075588   3.665480   3.176421   1.969261   2.428144
    16  H    4.499071   2.998022   2.953318   2.900941   1.940839
    17  H    0.970149   4.830996   5.042979   3.987626   3.119687
    18  H    3.961685   1.093876   2.190649   2.975700   3.428719
    19  H    4.938556   2.148116   1.094985   2.156609   3.446682
    20  H    4.226060   3.492499   2.149886   1.100767   2.158251
    21  H    2.598615   3.925696   3.470909   2.174939   1.094998
    22  H    2.911132   3.330237   3.884917   3.460153   2.131727
    23  H    2.094968   3.663137   4.561232   4.212694   3.511694
    24  H    2.008378   2.719941   3.348457   3.068030   3.046733
                   11         12         13         14         15
    11  C    0.000000
    12  C    1.544247   0.000000
    13  H    3.889970   4.861097   0.000000
    14  H    3.473154   4.753145   2.620959   0.000000
    15  H    2.899047   2.531396   5.298409   4.340048   0.000000
    16  H    2.259186   3.796742   3.300312   2.057116   4.303525
    17  H    2.708244   1.971590   6.507402   5.729935   2.835880
    18  H    2.775399   2.818993   2.763205   3.846345   3.495424
    19  H    3.844595   4.298141   2.780413   2.782921   3.444231
    20  H    3.476820   4.187549   4.278788   2.367207   2.583589
    21  H    2.183768   2.866732   5.154285   3.523856   2.343820
    22  H    1.098932   2.159111   4.504195   4.012824   3.776475
    23  H    2.171620   1.097588   5.343748   5.554197   3.593225
    24  H    2.184247   1.088180   4.598300   4.800039   2.380055
                   16         17         18         19         20
    16  H    0.000000
    17  H    4.567187   0.000000
    18  H    3.928549   4.701021   0.000000
    19  H    4.044228   5.691702   2.388585   0.000000
    20  H    3.306164   4.705907   3.976518   2.572308   0.000000
    21  H    2.747607   2.622570   4.315370   4.290039   2.513126
    22  H    2.285748   2.773942   3.732302   4.863092   4.264201
    23  H    4.352461   2.322242   3.334823   5.180159   5.241927
    24  H    4.270278   2.820372   2.125913   3.710927   4.130121
                   21         22         23         24
    21  H    0.000000
    22  H    2.501256   0.000000
    23  H    3.748112   2.364866   0.000000
    24  H    3.456835   3.049341   1.768711   0.000000
 Stoichiometry    C6H12O6
 Framework group  C1[X(C6H12O6)]
 Deg. of freedom    66
 Full point group                 C1      NOp   1
 Largest Abelian subgroup         C1      NOp   1
 Largest concise Abelian subgroup C1      NOp   1
                         Standard orientation:                         
 ---------------------------------------------------------------------
 Center     Atomic      Atomic             Coordinates (Angstroms)
 Number     Number       Type             X           Y           Z
 ---------------------------------------------------------------------
      1          8           0       -2.308917    1.680744   -0.291654
      2          8           0       -2.362055   -0.954480   -0.060485
      3          8           0        0.877446   -0.966221   -1.715560
      4          8           0       -0.281908   -1.329152    1.776574
      5          8           0       -0.352883    1.240694    0.801158
      6          8           0        3.053817    0.243734   -0.295189
      7          6           0       -1.083035    1.070724   -0.450335
      8          6           0       -1.273990   -0.422315   -0.820494
      9          6           0        0.002567   -1.260722   -0.634971
     10          6           0        0.631749   -0.943032    0.732631
     11          6           0        0.903360    0.561364    0.884293
     12          6           0        1.973266    1.153506   -0.058770
     13          1           0       -2.882521    0.992158    0.101105
     14          1           0       -1.968884   -1.384590    0.722198
     15          1           0        1.798042   -0.988339   -1.396592
     16          1           0       -0.697579   -0.498384    2.075028
     17          1           0        3.553500    0.131327    0.528748
     18          1           0       -0.545826    1.600203   -1.242561
     19          1           0       -1.572232   -0.462312   -1.873322
     20          1           0       -0.284361   -2.323319   -0.650698
     21          1           0        1.549022   -1.524732    0.871395
     22          1           0        1.228586    0.722670    1.921531
     23          1           0        2.338444    2.102616    0.354189
     24          1           0        1.556299    1.352993   -1.043900
 ---------------------------------------------------------------------
 Rotational constants (GHZ):      1.3456013      0.7923348      0.7291914
 Standard basis: 6-31+G(2df,p) (6D, 7F)
 There are   444 symmetry adapted basis functions of A   symmetry.
 Integral buffers will be    131072 words long.
 Raffenetti 2 integral format.
 Two-electron integral symmetry is turned on.
   444 basis functions,   660 primitive gaussians,   480 cartesian basis functions
    48 alpha electrons       48 beta electrons
       nuclear repulsion energy       860.2304879549 Hartrees.
 NAtoms=   24 NActive=   24 NUniq=   24 SFac= 1.00D+00 NAtFMM=   50 NAOKFM=F Big=F
 ------------------------------------------------------------------------------
 Polarizable Continuum Model (PCM)
 =================================
 Model                : PCM.
 Atomic radii         : SMD-Coulomb.
 Polarization charges : Total charges.
 Charge compensation  : None.
 Solution method      : Matrix inversion.
 Cavity type          : VdW (van der Waals Surface) (Alpha=1.000).
 Cavity algorithm     : GePol (No added spheres)
                        Default sphere list used, NSphG=   24.
                        Lebedev-Laikov grids with approx.  5.0 points / Ang**2.
                        Smoothing algorithm: Karplus/York (Gamma=1.0000).
                        Polarization charges: spherical gaussians, with
                                              point-specific exponents (IZeta= 3).
                        Self-potential: point-specific (ISelfS= 7).
                        Self-field    : sphere-specific E.n sum rule (ISelfD= 2).
 1st derivatives      : Analytical E(r).r(x)/FMM algorithm (CHGder, D1EAlg=3).
                        Cavity 1st derivative terms included.
 Solvent              : Water, Eps=  78.355300 Eps(inf)=   1.777849
 ------------------------------------------------------------------------------
 ------------------------------------------------------------------------------
 Atomic radii for non-electrostatic terms: SMD-CDS.
 ------------------------------------------------------------------------------
 Nuclear repulsion after PCM non-electrostatic terms =      860.2360692671 Hartrees.
 One-electron integrals computed using PRISM.
 NBasis=   444 RedAO= T  NBF=   444
 NBsUse=   444 1.00D-06 NBFU=   444
 Harris functional with IExCor=  402 diagonalized for initial guess.
 ExpMin= 4.38D-02 ExpMax= 5.48D+03 ExpMxC= 8.25D+02 IAcc=2 IRadAn=         0 AccDes= 0.00D+00
 HarFok:  IExCor=  402 AccDes= 0.00D+00 IRadAn=         0 IDoV= 1
 ScaDFX=  1.000000  1.000000  1.000000  1.000000
 FoFCou: FMM=F IPFlag=           0 FMFlag=      100000 FMFlg1=           0
         NFxFlg=           0 DoJE=T BraDBF=F KetDBF=T FulRan=T
         Omega=  0.000000  0.000000  1.000000  0.000000  0.000000 ICntrl=     500 IOpCl=  0
         NMat0=    1 NMatS0=    1 NMatT0=    0 NMatD0=    1 NMtDS0=    0 NMtDT0=    0
         I1Cent=           4 NGrid=           0.
 Petite list used in FoFCou.
 Initial guess orbital symmetries:
       Occupied  (A) (A) (A) (A) (A) (A) (A) (A) (A) (A) (A) (A)
                 (A) (A) (A) (A) (A) (A) (A) (A) (A) (A) (A) (A)
                 (A) (A) (A) (A) (A) (A) (A) (A) (A) (A) (A) (A)
                 (A) (A) (A) (A) (A) (A) (A) (A) (A) (A) (A) (A)
       Virtual   (A) (A) (A) (A) (A) (A) (A) (A) (A) (A) (A) (A)
                 (A) (A) (A) (A) (A) (A) (A) (A) (A) (A) (A) (A)
                 (A) (A) (A) (A) (A) (A) (A) (A) (A) (A) (A) (A)
                 (A) (A) (A) (A) (A) (A) (A) (A) (A) (A) (A) (A)
                 (A) (A) (A) (A) (A) (A) (A) (A) (A) (A) (A) (A)
                 (A) (A) (A) (A) (A) (A) (A) (A) (A) (A) (A) (A)
                 (A) (A) (A) (A) (A) (A) (A) (A) (A) (A) (A) (A)
                 (A) (A) (A) (A) (A) (A) (A) (A) (A) (A) (A) (A)
                 (A) (A) (A) (A) (A) (A) (A) (A) (A) (A) (A) (A)
                 (A) (A) (A) (A) (A) (A) (A) (A) (A) (A) (A) (A)
                 (A) (A) (A) (A) (A) (A) (A) (A) (A) (A) (A) (A)
                 (A) (A) (A) (A) (A) (A) (A) (A) (A) (A) (A) (A)
                 (A) (A) (A) (A) (A) (A) (A) (A) (A) (A) (A) (A)
                 (A) (A) (A) (A) (A) (A) (A) (A) (A) (A) (A) (A)
                 (A) (A) (A) (A) (A) (A) (A) (A) (A) (A) (A) (A)
                 (A) (A) (A) (A) (A) (A) (A) (A) (A) (A) (A) (A)
                 (A) (A) (A) (A) (A) (A) (A) (A) (A) (A) (A) (A)
                 (A) (A) (A) (A) (A) (A) (A) (A) (A) (A) (A) (A)
                 (A) (A) (A) (A) (A) (A) (A) (A) (A) (A) (A) (A)
                 (A) (A) (A) (A) (A) (A) (A) (A) (A) (A) (A) (A)
                 (A) (A) (A) (A) (A) (A) (A) (A) (A) (A) (A) (A)
                 (A) (A) (A) (A) (A) (A) (A) (A) (A) (A) (A) (A)
                 (A) (A) (A) (A) (A) (A) (A) (A) (A) (A) (A) (A)
                 (A) (A) (A) (A) (A) (A) (A) (A) (A) (A) (A) (A)
                 (A) (A) (A) (A) (A) (A) (A) (A) (A) (A) (A) (A)
                 (A) (A) (A) (A) (A) (A) (A) (A) (A) (A) (A) (A)
                 (A) (A) (A) (A) (A) (A) (A) (A) (A) (A) (A) (A)
                 (A) (A) (A) (A) (A) (A) (A) (A) (A) (A) (A) (A)
                 (A) (A) (A) (A) (A) (A) (A) (A) (A) (A) (A) (A)
                 (A) (A) (A) (A) (A) (A) (A) (A) (A) (A) (A) (A)
                 (A) (A) (A) (A) (A) (A) (A) (A) (A) (A) (A) (A)
                 (A) (A) (A) (A) (A) (A) (A) (A) (A) (A) (A) (A)
                 (A) (A) (A) (A) (A) (A) (A) (A) (A) (A) (A) (A)
 The electronic state of the initial guess is 1-A.
 Requested convergence on RMS density matrix=1.00D-08 within 128 cycles.
 Requested convergence on MAX density matrix=1.00D-06.
 Requested convergence on             energy=1.00D-06.
 No special actions if energy rises.
 Error on total polarization charges =  0.06360
 SCF Done:  E(RB3LYP) =  -687.286844949     A.U. after   12 cycles
             Convg  =    0.3440D-08             -V/T =  2.0069
 SMD-CDS (non-electrostatic) energy       (kcal/mol) =       3.50
 (included in total energy above)

 **********************************************************************

            Population analysis using the SCF density.

 **********************************************************************

 Orbital symmetries:
       Occupied  (A) (A) (A) (A) (A) (A) (A) (A) (A) (A) (A) (A)
                 (A) (A) (A) (A) (A) (A) (A) (A) (A) (A) (A) (A)
                 (A) (A) (A) (A) (A) (A) (A) (A) (A) (A) (A) (A)
                 (A) (A) (A) (A) (A) (A) (A) (A) (A) (A) (A) (A)
       Virtual   (A) (A) (A) (A) (A) (A) (A) (A) (A) (A) (A) (A)
                 (A) (A) (A) (A) (A) (A) (A) (A) (A) (A) (A) (A)
                 (A) (A) (A) (A) (A) (A) (A) (A) (A) (A) (A) (A)
                 (A) (A) (A) (A) (A) (A) (A) (A) (A) (A) (A) (A)
                 (A) (A) (A) (A) (A) (A) (A) (A) (A) (A) (A) (A)
                 (A) (A) (A) (A) (A) (A) (A) (A) (A) (A) (A) (A)
                 (A) (A) (A) (A) (A) (A) (A) (A) (A) (A) (A) (A)
                 (A) (A) (A) (A) (A) (A) (A) (A) (A) (A) (A) (A)
                 (A) (A) (A) (A) (A) (A) (A) (A) (A) (A) (A) (A)
                 (A) (A) (A) (A) (A) (A) (A) (A) (A) (A) (A) (A)
                 (A) (A) (A) (A) (A) (A) (A) (A) (A) (A) (A) (A)
                 (A) (A) (A) (A) (A) (A) (A) (A) (A) (A) (A) (A)
                 (A) (A) (A) (A) (A) (A) (A) (A) (A) (A) (A) (A)
                 (A) (A) (A) (A) (A) (A) (A) (A) (A) (A) (A) (A)
                 (A) (A) (A) (A) (A) (A) (A) (A) (A) (A) (A) (A)
                 (A) (A) (A) (A) (A) (A) (A) (A) (A) (A) (A) (A)
                 (A) (A) (A) (A) (A) (A) (A) (A) (A) (A) (A) (A)
                 (A) (A) (A) (A) (A) (A) (A) (A) (A) (A) (A) (A)
                 (A) (A) (A) (A) (A) (A) (A) (A) (A) (A) (A) (A)
                 (A) (A) (A) (A) (A) (A) (A) (A) (A) (A) (A) (A)
                 (A) (A) (A) (A) (A) (A) (A) (A) (A) (A) (A) (A)
                 (A) (A) (A) (A) (A) (A) (A) (A) (A) (A) (A) (A)
                 (A) (A) (A) (A) (A) (A) (A) (A) (A) (A) (A) (A)
                 (A) (A) (A) (A) (A) (A) (A) (A) (A) (A) (A) (A)
                 (A) (A) (A) (A) (A) (A) (A) (A) (A) (A) (A) (A)
                 (A) (A) (A) (A) (A) (A) (A) (A) (A) (A) (A) (A)
                 (A) (A) (A) (A) (A) (A) (A) (A) (A) (A) (A) (A)
                 (A) (A) (A) (A) (A) (A) (A) (A) (A) (A) (A) (A)
                 (A) (A) (A) (A) (A) (A) (A) (A) (A) (A) (A) (A)
                 (A) (A) (A) (A) (A) (A) (A) (A) (A) (A) (A) (A)
                 (A) (A) (A) (A) (A) (A) (A) (A) (A) (A) (A) (A)
                 (A) (A) (A) (A) (A) (A) (A) (A) (A) (A) (A) (A)
                 (A) (A) (A) (A) (A) (A) (A) (A) (A) (A) (A) (A)
 The electronic state is 1-A.
 Alpha  occ. eigenvalues --  -19.16744 -19.16727 -19.16698 -19.16451 -19.16290
 Alpha  occ. eigenvalues --  -19.15900 -10.28660 -10.24432 -10.24426 -10.24360
 Alpha  occ. eigenvalues --  -10.24307 -10.23410  -1.08842  -1.05019  -1.03771
 Alpha  occ. eigenvalues --   -1.03657  -1.02818  -1.01304  -0.77989  -0.76401
 Alpha  occ. eigenvalues --   -0.69980  -0.65536  -0.64326  -0.58959  -0.55674
 Alpha  occ. eigenvalues --   -0.52576  -0.52310  -0.51405  -0.49787  -0.48954
 Alpha  occ. eigenvalues --   -0.47576  -0.45702  -0.44936  -0.43302  -0.42136
 Alpha  occ. eigenvalues --   -0.41361  -0.39091  -0.37974  -0.36724  -0.36486
 Alpha  occ. eigenvalues --   -0.35872  -0.33286  -0.32526  -0.31355  -0.30026
 Alpha  occ. eigenvalues --   -0.29231  -0.28024  -0.26257
 Alpha virt. eigenvalues --    0.00352   0.00807   0.02190   0.02760   0.03638
 Alpha virt. eigenvalues --    0.04773   0.05158   0.05261   0.05961   0.08223
 Alpha virt. eigenvalues --    0.08938   0.09065   0.09914   0.10330   0.11262
 Alpha virt. eigenvalues --    0.11609   0.12380   0.13136   0.13749   0.14973
 Alpha virt. eigenvalues --    0.15182   0.15632   0.15935   0.16692   0.17044
 Alpha virt. eigenvalues --    0.17316   0.17473   0.19021   0.19342   0.19802
 Alpha virt. eigenvalues --    0.20336   0.20802   0.21724   0.21939   0.22397
 Alpha virt. eigenvalues --    0.22645   0.23423   0.23725   0.24704   0.25204
 Alpha virt. eigenvalues --    0.25638   0.26772   0.26903   0.27643   0.28226
 Alpha virt. eigenvalues --    0.28747   0.29316   0.29889   0.30468   0.30553
 Alpha virt. eigenvalues --    0.31573   0.31782   0.32357   0.32449   0.33107
 Alpha virt. eigenvalues --    0.34057   0.34216   0.34854   0.35539   0.36694
 Alpha virt. eigenvalues --    0.37062   0.37510   0.38678   0.39720   0.40925
 Alpha virt. eigenvalues --    0.41221   0.42657   0.44863   0.45366   0.46813
 Alpha virt. eigenvalues --    0.48597   0.50877   0.55833   0.56526   0.58863
 Alpha virt. eigenvalues --    0.60126   0.61263   0.61917   0.63410   0.64136
 Alpha virt. eigenvalues --    0.65300   0.67061   0.68151   0.70771   0.72038
 Alpha virt. eigenvalues --    0.74173   0.75077   0.76503   0.78131   0.79983
 Alpha virt. eigenvalues --    0.82263   0.82695   0.85263   0.86532   0.88489
 Alpha virt. eigenvalues --    0.89954   0.91027   0.91519   0.92995   0.93406
 Alpha virt. eigenvalues --    0.93936   0.95307   0.95825   0.96379   0.97124
 Alpha virt. eigenvalues --    0.98880   1.00259   1.01076   1.02145   1.03786
 Alpha virt. eigenvalues --    1.04458   1.06054   1.07827   1.09382   1.09669
 Alpha virt. eigenvalues --    1.11304   1.12319   1.13330   1.15041   1.15139
 Alpha virt. eigenvalues --    1.16082   1.17329   1.18427   1.19891   1.20794
 Alpha virt. eigenvalues --    1.21049   1.21520   1.22236   1.22996   1.23911
 Alpha virt. eigenvalues --    1.25664   1.26670   1.27384   1.29310   1.30023
 Alpha virt. eigenvalues --    1.31017   1.31887   1.33134   1.34795   1.35287
 Alpha virt. eigenvalues --    1.36789   1.38229   1.38375   1.40443   1.42133
 Alpha virt. eigenvalues --    1.44673   1.45543   1.46981   1.47306   1.49025
 Alpha virt. eigenvalues --    1.51166   1.52959   1.55025   1.55642   1.56865
 Alpha virt. eigenvalues --    1.58115   1.59640   1.60823   1.61745   1.63345
 Alpha virt. eigenvalues --    1.65417   1.67277   1.67700   1.69585   1.72466
 Alpha virt. eigenvalues --    1.74614   1.75484   1.78548   1.80266   1.81699
 Alpha virt. eigenvalues --    1.83403   1.85115   1.86300   1.88967   1.90826
 Alpha virt. eigenvalues --    1.91952   1.95344   1.95668   1.97938   2.02153
 Alpha virt. eigenvalues --    2.03259   2.04917   2.05827   2.09235   2.12812
 Alpha virt. eigenvalues --    2.17386   2.21638   2.22135   2.26020   2.29364
 Alpha virt. eigenvalues --    2.30547   2.33217   2.35359   2.44047   2.44941
 Alpha virt. eigenvalues --    2.47833   2.48225   2.49208   2.51830   2.53127
 Alpha virt. eigenvalues --    2.54092   2.59196   2.61132   2.62000   2.63047
 Alpha virt. eigenvalues --    2.63758   2.67688   2.69942   2.73402   2.76607
 Alpha virt. eigenvalues --    2.78782   2.81311   2.81655   2.82685   2.87545
 Alpha virt. eigenvalues --    2.88827   2.90206   2.92479   2.94726   2.97705
 Alpha virt. eigenvalues --    2.98560   3.00044   3.01763   3.02457   3.03268
 Alpha virt. eigenvalues --    3.05347   3.07334   3.09280   3.10115   3.12430
 Alpha virt. eigenvalues --    3.14112   3.15783   3.16205   3.20776   3.22161
 Alpha virt. eigenvalues --    3.24749   3.28668   3.30237   3.31375   3.35517
 Alpha virt. eigenvalues --    3.36065   3.39186   3.41359   3.43220   3.44555
 Alpha virt. eigenvalues --    3.47057   3.48975   3.53116   3.54930   3.58153
 Alpha virt. eigenvalues --    3.61186   3.63725   3.66952   3.67766   3.70353
 Alpha virt. eigenvalues --    3.73521   3.75378   3.78804   3.83737   3.85425
 Alpha virt. eigenvalues --    3.88807   3.90860   3.97612   4.02637   4.07408
 Alpha virt. eigenvalues --    4.11330   4.12235   4.15804   4.18621   4.20194
 Alpha virt. eigenvalues --    4.23799   4.24238   4.27786   4.29132   4.31060
 Alpha virt. eigenvalues --    4.32540   4.33681   4.34555   4.35658   4.38485
 Alpha virt. eigenvalues --    4.39710   4.41726   4.42572   4.45136   4.45522
 Alpha virt. eigenvalues --    4.46426   4.49088   4.51152   4.52721   4.53001
 Alpha virt. eigenvalues --    4.54202   4.55108   4.57624   4.59314   4.59708
 Alpha virt. eigenvalues --    4.61992   4.62899   4.63238   4.64317   4.67197
 Alpha virt. eigenvalues --    4.67708   4.68738   4.71144   4.71485   4.72844
 Alpha virt. eigenvalues --    4.73442   4.75032   4.77099   4.78303   4.78878
 Alpha virt. eigenvalues --    4.81752   4.82241   4.83709   4.84884   4.87284
 Alpha virt. eigenvalues --    4.88449   4.88923   4.91119   4.91781   4.94597
 Alpha virt. eigenvalues --    4.96429   4.97804   4.99240   5.00426   5.01910
 Alpha virt. eigenvalues --    5.08269   5.16676   5.20185   5.22267   5.24655
 Alpha virt. eigenvalues --    5.26144   5.27983   5.31370   5.33084   5.35170
 Alpha virt. eigenvalues --    5.38068   5.40427   5.41320   5.42574   5.43927
 Alpha virt. eigenvalues --    5.44359   5.45208   5.46100   5.48517   5.50008
 Alpha virt. eigenvalues --    5.51707   5.53598   5.54119   5.58040   5.60428
 Alpha virt. eigenvalues --    5.64870   5.66247   5.68237   5.72161   5.74584
 Alpha virt. eigenvalues --    5.81875   5.83561   5.86816   5.88938   5.91406
 Alpha virt. eigenvalues --    5.92111   5.93772   5.95499   6.00152   6.00971
 Alpha virt. eigenvalues --    6.04438   6.06031   6.07506   6.10394   6.15752
 Alpha virt. eigenvalues --    6.16420   6.18290   6.23670   6.25880   6.32263
 Alpha virt. eigenvalues --    6.57450   6.98432   7.08977   7.13767   7.17404
 Alpha virt. eigenvalues --    7.24877   7.30988   7.58159   7.83675  12.08677
 Alpha virt. eigenvalues --   12.17781  12.50935  12.86565  12.96447  13.16997
 Alpha virt. eigenvalues --   13.37242  13.46817  13.60895  13.64737  13.65979
 Alpha virt. eigenvalues --   14.07440
          Condensed to atoms (all electrons):
              1          2          3          4          5          6
     1  O    8.079800  -0.046323   0.000902  -0.003931  -0.028932  -0.000096
     2  O   -0.046323   8.152626   0.002802  -0.032903   0.009117   0.000043
     3  O    0.000902   0.002802   8.139221   0.002519  -0.002045  -0.035144
     4  O   -0.003931  -0.032903   0.002519   8.115608  -0.028601   0.000050
     5  O   -0.028932   0.009117  -0.002045  -0.028601   8.006254   0.003916
     6  O   -0.000096   0.000043  -0.035144   0.000050   0.003916   8.165402
     7  C    0.195402  -0.024188  -0.019458  -0.012645   0.182756  -0.008521
     8  C    0.042876   0.191702  -0.081523   0.068528  -0.020001   0.011330
     9  C   -0.003913   0.001116   0.249819  -0.124610  -0.016877   0.014453
    10  C    0.017502   0.007502  -0.013385   0.269159  -0.012207  -0.008622
    11  C   -0.014841  -0.004892  -0.011540  -0.038439   0.190252  -0.025467
    12  C    0.002323  -0.000655   0.016834   0.002785  -0.053261   0.131868
    13  H    0.267599   0.023519  -0.000297  -0.000376  -0.001468   0.000000
    14  H    0.002686   0.286087   0.000846   0.024516  -0.001241   0.000018
    15  H   -0.000057  -0.000460   0.273418   0.001136  -0.000654   0.018950
    16  H   -0.000341   0.002947  -0.000300   0.277695   0.016118  -0.000155
    17  H    0.000004  -0.000003   0.002404  -0.000012   0.000361   0.286123
    18  H   -0.043240   0.002612  -0.003825  -0.000746  -0.039146  -0.000146
    19  H    0.001237  -0.035808   0.001508  -0.001964   0.002039  -0.000038
    20  H   -0.000458  -0.001501  -0.030357   0.003377  -0.000327   0.000509
    21  H   -0.000156  -0.000373  -0.008440  -0.040979   0.001784  -0.003191
    22  H    0.000099   0.000159   0.000415  -0.001230  -0.032288  -0.000806
    23  H   -0.000072   0.000011  -0.001246   0.000320   0.001506  -0.014621
    24  H    0.000957  -0.000169   0.007617   0.000054   0.004315  -0.036859
              7          8          9         10         11         12
     1  O    0.195402   0.042876  -0.003913   0.017502  -0.014841   0.002323
     2  O   -0.024188   0.191702   0.001116   0.007502  -0.004892  -0.000655
     3  O   -0.019458  -0.081523   0.249819  -0.013385  -0.011540   0.016834
     4  O   -0.012645   0.068528  -0.124610   0.269159  -0.038439   0.002785
     5  O    0.182756  -0.020001  -0.016877  -0.012207   0.190252  -0.053261
     6  O   -0.008521   0.011330   0.014453  -0.008622  -0.025467   0.131868
     7  C    5.631376  -0.109412  -0.060029   0.126359  -0.262427  -0.016147
     8  C   -0.109412   5.529972   0.201804  -0.046051  -0.049043   0.032711
     9  C   -0.060029   0.201804   5.369170  -0.087021   0.238875  -0.058788
    10  C    0.126359  -0.046051  -0.087021   5.985839  -0.516791   0.070232
    11  C   -0.262427  -0.049043   0.238875  -0.516791   6.324736   0.062269
    12  C   -0.016147   0.032711  -0.058788   0.070232   0.062269   5.290867
    13  H   -0.000658  -0.032584   0.010589  -0.011462   0.008428  -0.000600
    14  H   -0.013022   0.001680  -0.029307   0.026699  -0.017822   0.001152
    15  H   -0.004210   0.023317  -0.022488  -0.025042   0.006251  -0.000278
    16  H    0.016902  -0.017138  -0.011492   0.006925  -0.018350   0.000325
    17  H   -0.001566   0.001879  -0.006655  -0.001744  -0.015731   0.001913
    18  H    0.457101  -0.097051   0.021837  -0.015163   0.006147  -0.002910
    19  H    0.002494   0.375954  -0.091747   0.047618  -0.029489   0.008535
    20  H   -0.015272  -0.032173   0.388031  -0.041065   0.004607  -0.002556
    21  H    0.007274   0.012084  -0.031314   0.349116   0.012403  -0.021609
    22  H    0.008368  -0.000059  -0.015146   0.018690   0.281764   0.019512
    23  H   -0.003152   0.005187   0.003485   0.006257  -0.056686   0.391517
    24  H   -0.005775   0.009081  -0.017285   0.027104  -0.116667   0.449151
             13         14         15         16         17         18
     1  O    0.267599   0.002686  -0.000057  -0.000341   0.000004  -0.043240
     2  O    0.023519   0.286087  -0.000460   0.002947  -0.000003   0.002612
     3  O   -0.000297   0.000846   0.273418  -0.000300   0.002404  -0.003825
     4  O   -0.000376   0.024516   0.001136   0.277695  -0.000012  -0.000746
     5  O   -0.001468  -0.001241  -0.000654   0.016118   0.000361  -0.039146
     6  O    0.000000   0.000018   0.018950  -0.000155   0.286123  -0.000146
     7  C   -0.000658  -0.013022  -0.004210   0.016902  -0.001566   0.457101
     8  C   -0.032584   0.001680   0.023317  -0.017138   0.001879  -0.097051
     9  C    0.010589  -0.029307  -0.022488  -0.011492  -0.006655   0.021837
    10  C   -0.011462   0.026699  -0.025042   0.006925  -0.001744  -0.015163
    11  C    0.008428  -0.017822   0.006251  -0.018350  -0.015731   0.006147
    12  C   -0.000600   0.001152  -0.000278   0.000325   0.001913  -0.002910
    13  H    0.345461  -0.001215   0.000002   0.000025   0.000000   0.006235
    14  H   -0.001215   0.319247  -0.000012  -0.003116   0.000000  -0.000115
    15  H    0.000002  -0.000012   0.338863  -0.000006  -0.000872   0.000225
    16  H    0.000025  -0.003116  -0.000006   0.335191  -0.000002   0.000107
    17  H    0.000000   0.000000  -0.000872  -0.000002   0.344288  -0.000003
    18  H    0.006235  -0.000115   0.000225   0.000107  -0.000003   0.540794
    19  H   -0.000419   0.003916  -0.000045   0.000069   0.000000  -0.000855
    20  H   -0.000035   0.000986  -0.000578  -0.000331  -0.000002  -0.000160
    21  H    0.000002  -0.000144   0.003657   0.004363  -0.000099   0.000015
    22  H   -0.000011   0.000025  -0.000072   0.000502   0.001331  -0.000144
    23  H    0.000001   0.000000   0.000389  -0.000041  -0.006297   0.000143
    24  H   -0.000004   0.000002  -0.003324  -0.000008   0.004912   0.000684
             19         20         21         22         23         24
     1  O    0.001237  -0.000458  -0.000156   0.000099  -0.000072   0.000957
     2  O   -0.035808  -0.001501  -0.000373   0.000159   0.000011  -0.000169
     3  O    0.001508  -0.030357  -0.008440   0.000415  -0.001246   0.007617
     4  O   -0.001964   0.003377  -0.040979  -0.001230   0.000320   0.000054
     5  O    0.002039  -0.000327   0.001784  -0.032288   0.001506   0.004315
     6  O   -0.000038   0.000509  -0.003191  -0.000806  -0.014621  -0.036859
     7  C    0.002494  -0.015272   0.007274   0.008368  -0.003152  -0.005775
     8  C    0.375954  -0.032173   0.012084  -0.000059   0.005187   0.009081
     9  C   -0.091747   0.388031  -0.031314  -0.015146   0.003485  -0.017285
    10  C    0.047618  -0.041065   0.349116   0.018690   0.006257   0.027104
    11  C   -0.029489   0.004607   0.012403   0.281764  -0.056686  -0.116667
    12  C    0.008535  -0.002556  -0.021609   0.019512   0.391517   0.449151
    13  H   -0.000419  -0.000035   0.000002  -0.000011   0.000001  -0.000004
    14  H    0.003916   0.000986  -0.000144   0.000025   0.000000   0.000002
    15  H   -0.000045  -0.000578   0.003657  -0.000072   0.000389  -0.003324
    16  H    0.000069  -0.000331   0.004363   0.000502  -0.000041  -0.000008
    17  H    0.000000  -0.000002  -0.000099   0.001331  -0.006297   0.004912
    18  H   -0.000855  -0.000160   0.000015  -0.000144   0.000143   0.000684
    19  H    0.557042  -0.002999  -0.000180   0.000026  -0.000001   0.000116
    20  H   -0.002999   0.576708  -0.003549  -0.000182   0.000007  -0.000067
    21  H   -0.000180  -0.003549   0.553376  -0.002411  -0.000123  -0.000093
    22  H    0.000026  -0.000182  -0.002411   0.562899  -0.006720   0.004605
    23  H   -0.000001   0.000007  -0.000123  -0.006720   0.535979  -0.033107
    24  H    0.000116  -0.000067  -0.000093   0.004605  -0.033107   0.523699
 Mulliken atomic charges:
              1
     1  O   -0.469029
     2  O   -0.532969
     3  O   -0.490747
     4  O   -0.479311
     5  O   -0.181371
     6  O   -0.498998
     7  C   -0.071552
     8  C   -0.023070
     9  C    0.077494
    10  C   -0.180447
    11  C    0.042451
    12  C   -0.325191
    13  H    0.387269
    14  H    0.398134
    15  H    0.391889
    16  H    0.390109
    17  H    0.389772
    18  H    0.167602
    19  H    0.162991
    20  H    0.157386
    21  H    0.168587
    22  H    0.160676
    23  H    0.177263
    24  H    0.181060
 Sum of Mulliken atomic charges =   0.00000
 Mulliken charges with hydrogens summed into heavy atoms:
              1
     1  O   -0.081760
     2  O   -0.134835
     3  O   -0.098858
     4  O   -0.089202
     5  O   -0.181371
     6  O   -0.109226
     7  C    0.096051
     8  C    0.139921
     9  C    0.234880
    10  C   -0.011859
    11  C    0.203128
    12  C    0.033132
 Sum of Mulliken charges with hydrogens summed into heavy atoms =   0.00000
 Electronic spatial extent (au):  <R**2>=           1837.9516
 Charge=              0.0000 electrons
 Dipole moment (field-independent basis, Debye):
    X=              4.5617    Y=             -0.7636    Z=              2.9070  Tot=              5.4629
 Quadrupole moment (field-independent basis, Debye-Ang):
   XX=            -70.8391   YY=            -79.0812   ZZ=            -75.0652
   XY=              4.3102   XZ=              5.7673   YZ=             -0.1161
 Traceless Quadrupole moment (field-independent basis, Debye-Ang):
   XX=              4.1560   YY=             -4.0860   ZZ=             -0.0700
   XY=              4.3102   XZ=              5.7673   YZ=             -0.1161
 Octapole moment (field-independent basis, Debye-Ang**2):
  XXX=             34.0075  YYY=            -13.1464  ZZZ=             13.2977  XYY=             22.9698
  XXY=             -5.9191  XXZ=             35.0604  XZZ=             -4.8146  YZZ=             12.2308
  YYZ=             -5.9791  XYZ=              1.6575
 Hexadecapole moment (field-independent basis, Debye-Ang**3):
 XXXX=          -1148.3660 YYYY=           -627.5265 ZZZZ=           -479.7968 XXXY=            -18.2544
 XXXZ=             45.6920 YYYX=             32.5266 YYYZ=              2.8710 ZZZX=              3.3676
 ZZZY=              3.6887 XXYY=           -324.6569 XXZZ=           -254.6441 YYZZ=           -200.2983
 XXYZ=              9.9302 YYXZ=             -3.6303 ZZXY=             10.2426
 N-N= 8.602360692671D+02 E-N=-3.331622014422D+03  KE= 6.825872037134D+02
 D1PCM: PCM CHGder 1st derivatives, ID1Alg=3 FixD1E=F DoIter=F DoCFld=F I1PDM=0.
 Calling FoFJK, ICntrl=      2127 FMM=F ISym2X=0 I1Cent= 0 IOpClX= 0 NMat=1 NMatS=1 NMatT=0.
 ***** Axes restored to original set *****
 -------------------------------------------------------------------
 Center     Atomic                   Forces (Hartrees/Bohr)
 Number     Number              X              Y              Z
 -------------------------------------------------------------------
      1        8           0.005080362    0.010571022   -0.005666423
      2        8          -0.004651981   -0.001779143   -0.003404437
      3        8          -0.004401243   -0.004286640   -0.000662935
      4        8           0.001745713    0.002368983    0.004151835
      5        8           0.009366644   -0.000060525    0.001864570
      6        8          -0.004840762    0.002501378    0.003361815
      7        6          -0.011406316   -0.012758410    0.002742213
      8        6           0.003104934   -0.000739403    0.001786006
      9        6           0.000458608    0.005862067   -0.003506748
     10        6          -0.002900903   -0.003221830    0.002371481
     11        6          -0.007597389   -0.000569028   -0.001131418
     12        6           0.002264945    0.000320357    0.000543332
     13        1           0.002606313    0.001747340    0.004653314
     14        1           0.005379435    0.002207193    0.000210924
     15        1           0.003917266    0.000566109   -0.001696327
     16        1          -0.004167073   -0.000910063   -0.006483871
     17        1           0.003138766   -0.001373023   -0.001028991
     18        1          -0.000593013    0.000303971   -0.000832643
     19        1          -0.000223843    0.000594460    0.000713681
     20        1           0.000354384   -0.000480429    0.001901720
     21        1           0.001956055    0.000613085    0.000897597
     22        1           0.001512446   -0.001746998   -0.000177891
     23        1          -0.000967855   -0.000647108   -0.001761686
     24        1           0.000864509    0.000916635    0.001154882
 -------------------------------------------------------------------
 Cartesian Forces:  Max     0.012758410 RMS     0.003787735

 GradGradGradGradGradGradGradGradGradGradGradGradGradGradGradGradGradGrad
 Berny optimization.
 Internal  Forces:  Max     0.014295119 RMS     0.002483798
 Search for a local minimum.
 Step number   1 out of a maximum of  142
 All quantities printed in internal units (Hartrees-Bohrs-Radians)
 Mixed Optimization -- RFO/linear search
 Second derivative matrix not updated -- first step.
 ITU=  0
     Eigenvalues ---    0.00230   0.00430   0.00533   0.01162   0.01177
     Eigenvalues ---    0.01266   0.01296   0.01411   0.01977   0.02928
     Eigenvalues ---    0.03273   0.04228   0.04424   0.04685   0.04730
     Eigenvalues ---    0.04737   0.05059   0.05634   0.05648   0.06063
     Eigenvalues ---    0.06427   0.06987   0.07123   0.07278   0.07516
     Eigenvalues ---    0.09357   0.09925   0.11285   0.11666   0.13939
     Eigenvalues ---    0.14287   0.16000   0.16000   0.16000   0.16000
     Eigenvalues ---    0.16000   0.16526   0.17236   0.18454   0.19689
     Eigenvalues ---    0.20512   0.22039   0.26313   0.27858   0.28009
     Eigenvalues ---    0.28146   0.28367   0.33597   0.33800   0.33950
     Eigenvalues ---    0.34241   0.34243   0.34369   0.35024   0.35950
     Eigenvalues ---    0.39390   0.39582   0.40676   0.40999   0.42280
     Eigenvalues ---    0.49389   0.51680   0.52211   0.52225   0.52460
     Eigenvalues ---    0.53346
 RFO step:  Lambda=-7.41648141D-03 EMin= 2.30000000D-03
 Linear search not attempted -- first point.
 Iteration  1 RMS(Cart)=  0.10345426 RMS(Int)=  0.00346997
 Iteration  2 RMS(Cart)=  0.00486298 RMS(Int)=  0.00048427
 Iteration  3 RMS(Cart)=  0.00001570 RMS(Int)=  0.00048402
 Iteration  4 RMS(Cart)=  0.00000000 RMS(Int)=  0.00048402
 Variable       Old X    -DE/DX   Delta X   Delta X   Delta X     New X
                                 (Linear)    (Quad)   (Total)
    R1        2.60487   0.01430   0.00000   0.02852   0.02852   2.63339
    R2        1.84907  -0.00379   0.00000  -0.00724  -0.00724   1.84183
    R3        2.70218   0.00264   0.00000   0.00632   0.00632   2.70849
    R4        1.84398  -0.00460   0.00000  -0.00869  -0.00869   1.83529
    R5        2.68568   0.00184   0.00000   0.00427   0.00427   2.68996
    R6        1.84161  -0.00424   0.00000  -0.00798  -0.00798   1.83364
    R7        2.72125   0.00281   0.00000   0.00697   0.00697   2.72822
    R8        1.84385  -0.00564   0.00000  -0.01065  -0.01065   1.83320
    R9        2.75683  -0.00258   0.00000  -0.01059  -0.01010   2.74672
   R10        2.70340   0.00478   0.00000   0.01079   0.01083   2.71423
   R11        2.70645  -0.00034   0.00000  -0.00082  -0.00082   2.70563
   R12        1.83332  -0.00346   0.00000  -0.00640  -0.00640   1.82691
   R13        2.92917   0.00139   0.00000  -0.00171  -0.00109   2.92807
   R14        2.06713  -0.00096   0.00000  -0.00273  -0.00273   2.06440
   R15        2.90732   0.00229   0.00000   0.00836   0.00837   2.91569
   R16        2.06922  -0.00058   0.00000  -0.00166  -0.00166   2.06756
   R17        2.90744   0.00223   0.00000   0.01268   0.01215   2.91959
   R18        2.08015  -0.00179   0.00000  -0.00521  -0.00521   2.07494
   R19        2.90304   0.00179   0.00000   0.01230   0.01171   2.91475
   R20        2.06925  -0.00204   0.00000  -0.00583  -0.00583   2.06341
   R21        2.91820   0.00037   0.00000   0.00130   0.00130   2.91950
   R22        2.07668  -0.00225   0.00000  -0.00652  -0.00652   2.07016
   R23        2.07414  -0.00160   0.00000  -0.00462  -0.00462   2.06952
   R24        2.05636   0.00049   0.00000   0.00136   0.00136   2.05772
    A1        1.82980   0.00749   0.00000   0.04471   0.04471   1.87451
    A2        1.85851   0.00587   0.00000   0.03509   0.03509   1.89361
    A3        1.90493   0.00106   0.00000   0.00632   0.00632   1.91126
    A4        1.83770   0.00961   0.00000   0.05739   0.05739   1.89508
    A5        2.01976   0.00035   0.00000   0.00396   0.00282   2.02258
    A6        1.89864   0.00091   0.00000   0.00542   0.00542   1.90407
    A7        1.87003  -0.00273   0.00000  -0.01614  -0.01594   1.85409
    A8        1.92218   0.00186   0.00000   0.01329   0.01355   1.93573
    A9        1.88170  -0.00017   0.00000   0.00032   0.00020   1.88189
   A10        1.95924   0.00131   0.00000   0.00106   0.00048   1.95971
   A11        1.89558   0.00002   0.00000   0.00204   0.00223   1.89781
   A12        1.93241  -0.00043   0.00000  -0.00115  -0.00110   1.93131
   A13        1.90211   0.00091   0.00000   0.01288   0.01304   1.91515
   A14        1.94386   0.00163   0.00000   0.01798   0.01831   1.96217
   A15        1.86522  -0.00130   0.00000  -0.01325  -0.01334   1.85188
   A16        1.97566  -0.00191   0.00000  -0.00553  -0.00670   1.96896
   A17        1.87376   0.00052   0.00000  -0.00466  -0.00433   1.86943
   A18        1.89868   0.00012   0.00000  -0.00899  -0.00877   1.88991
   A19        1.88197  -0.00099   0.00000  -0.00454  -0.00432   1.87764
   A20        1.96202   0.00000   0.00000  -0.00120  -0.00096   1.96107
   A21        1.92797  -0.00134   0.00000  -0.03223  -0.03260   1.89537
   A22        1.91132   0.00191   0.00000   0.03631   0.03444   1.94576
   A23        1.88394   0.00050   0.00000   0.00312   0.00349   1.88743
   A24        1.89507  -0.00003   0.00000  -0.00059  -0.00038   1.89469
   A25        1.90664  -0.00134   0.00000  -0.00677  -0.00674   1.89990
   A26        1.87883   0.00252   0.00000   0.01825   0.01865   1.89748
   A27        1.87254  -0.00164   0.00000  -0.02933  -0.02987   1.84266
   A28        1.94150  -0.00027   0.00000   0.03284   0.03025   1.97174
   A29        1.92359   0.00068   0.00000  -0.00986  -0.00926   1.91433
   A30        1.93865   0.00000   0.00000  -0.00685  -0.00578   1.93287
   A31        1.87972  -0.00016   0.00000   0.01536   0.01405   1.89377
   A32        1.97233  -0.00488   0.00000  -0.02678  -0.02646   1.94586
   A33        1.81835   0.00247   0.00000   0.00861   0.00857   1.82691
   A34        2.02385   0.00571   0.00000   0.02970   0.03022   2.05407
   A35        1.86424  -0.00106   0.00000  -0.00689  -0.00624   1.85800
   A36        1.89134  -0.00220   0.00000  -0.02143  -0.02187   1.86947
   A37        1.96054   0.00204   0.00000   0.00955   0.00931   1.96985
   A38        1.93948  -0.00164   0.00000  -0.02087  -0.02091   1.91856
   A39        1.82979   0.00063   0.00000   0.02036   0.02008   1.84987
   A40        1.90956  -0.00143   0.00000  -0.01750  -0.01754   1.89202
   A41        1.93658   0.00023   0.00000   0.01114   0.01089   1.94747
   A42        1.88554   0.00020   0.00000  -0.00141  -0.00127   1.88428
    D1       -1.52265  -0.00037   0.00000   0.01504   0.01535  -1.50731
    D2        0.61294   0.00063   0.00000   0.01412   0.01386   0.62680
    D3        2.72310   0.00110   0.00000   0.02082   0.02077   2.74387
    D4       -1.67141   0.00126   0.00000   0.03843   0.03870  -1.63271
    D5        0.52051   0.00063   0.00000   0.05334   0.05310   0.57361
    D6        2.59204   0.00088   0.00000   0.04441   0.04438   2.63642
    D7        2.52794   0.00102   0.00000   0.02924   0.02827   2.55621
    D8        0.41943  -0.00069   0.00000  -0.01225  -0.01132   0.40811
    D9       -1.70034   0.00030   0.00000   0.01227   0.01232  -1.68803
   D10       -1.77712  -0.00114   0.00000  -0.06352  -0.06225  -1.83936
   D11        0.33319  -0.00073   0.00000  -0.01689  -0.01799   0.31520
   D12        2.42096  -0.00026   0.00000  -0.03106  -0.03123   2.38973
   D13        3.04043   0.00307   0.00000   0.05840   0.05825   3.09868
   D14        0.92810   0.00179   0.00000   0.05200   0.05176   0.97986
   D15       -1.21449   0.00145   0.00000   0.05131   0.05127  -1.16322
   D16       -1.06045   0.00048   0.00000   0.01455   0.01536  -1.04509
   D17        1.19792   0.00422   0.00000   0.04602   0.04646   1.24438
   D18       -3.03604   0.00062   0.00000   0.01207   0.01252  -3.02352
   D19       -1.18618   0.00154   0.00000   0.04128   0.04137  -1.14480
   D20        0.95963  -0.00005   0.00000   0.00999   0.01009   0.96971
   D21        2.99237  -0.00026   0.00000   0.00961   0.00941   3.00178
   D22       -0.68925   0.00161   0.00000   0.01582   0.01578  -0.67348
   D23       -2.86261   0.00016   0.00000  -0.01337  -0.01334  -2.87595
   D24        1.32499   0.00083   0.00000   0.00436   0.00441   1.32940
   D25        1.39280   0.00028   0.00000   0.00513   0.00510   1.39790
   D26       -0.78055  -0.00117   0.00000  -0.02406  -0.02402  -0.80457
   D27       -2.87615  -0.00051   0.00000  -0.00633  -0.00627  -2.88241
   D28       -2.76873   0.00091   0.00000   0.00767   0.00752  -2.76121
   D29        1.34111  -0.00054   0.00000  -0.02152  -0.02160   1.31950
   D30       -0.75449   0.00012   0.00000  -0.00379  -0.00385  -0.75834
   D31        2.80952  -0.00203   0.00000  -0.09603  -0.09594   2.71357
   D32       -1.33371  -0.00149   0.00000  -0.07825  -0.07843  -1.41215
   D33        0.72642  -0.00017   0.00000  -0.05699  -0.05697   0.66945
   D34       -1.32318  -0.00100   0.00000  -0.06934  -0.06940  -1.39258
   D35        0.81678  -0.00046   0.00000  -0.05156  -0.05189   0.76488
   D36        2.87691   0.00085   0.00000  -0.03030  -0.03043   2.84648
   D37        0.75814  -0.00147   0.00000  -0.08482  -0.08481   0.67333
   D38        2.89809  -0.00092   0.00000  -0.06703  -0.06730   2.83079
   D39       -1.32496   0.00039   0.00000  -0.04577  -0.04584  -1.37079
   D40       -3.09078   0.00347   0.00000   0.16452   0.16427  -2.92651
   D41        1.12072   0.00137   0.00000   0.12623   0.12638   1.24710
   D42       -1.03753   0.00107   0.00000   0.11900   0.11916  -0.91837
   D43        1.10086   0.00342   0.00000   0.14637   0.14644   1.24730
   D44       -0.97082   0.00132   0.00000   0.10808   0.10855  -0.86227
   D45       -3.12908   0.00102   0.00000   0.10085   0.10133  -3.02774
   D46       -0.95232   0.00176   0.00000   0.12244   0.12234  -0.82998
   D47       -3.02401  -0.00034   0.00000   0.08415   0.08445  -2.93955
   D48        1.10093  -0.00064   0.00000   0.07692   0.07724   1.17816
   D49       -1.01384  -0.00286   0.00000  -0.12476  -0.12463  -1.13847
   D50        3.04041  -0.00056   0.00000  -0.12479  -0.12496   2.91545
   D51        0.93072  -0.00061   0.00000  -0.11120  -0.11140   0.81932
   D52        1.07445  -0.00308   0.00000  -0.10228  -0.10197   0.97248
   D53       -1.15448  -0.00077   0.00000  -0.10231  -0.10231  -1.25679
   D54        3.01902  -0.00082   0.00000  -0.08872  -0.08875   2.93027
   D55       -3.05908  -0.00239   0.00000  -0.09643  -0.09636   3.12775
   D56        0.99518  -0.00009   0.00000  -0.09646  -0.09670   0.89848
   D57       -1.11451  -0.00013   0.00000  -0.08287  -0.08314  -1.19765
   D58       -2.81377  -0.00183   0.00000  -0.04030  -0.03955  -2.85332
   D59        1.30687  -0.00010   0.00000  -0.00730  -0.00653   1.30034
   D60       -0.77193   0.00042   0.00000  -0.00133  -0.00045  -0.77239
   D61       -0.63151  -0.00149   0.00000  -0.01707  -0.01770  -0.64921
   D62       -2.79405   0.00024   0.00000   0.01594   0.01531  -2.77874
   D63        1.41033   0.00076   0.00000   0.02191   0.02140   1.43172
   D64        1.46357  -0.00073   0.00000  -0.02241  -0.02266   1.44091
   D65       -0.69897   0.00100   0.00000   0.01059   0.01035  -0.68862
   D66       -2.77778   0.00152   0.00000   0.01657   0.01643  -2.76134
         Item               Value     Threshold  Converged?
 Maximum Force            0.014295     0.000450     NO 
 RMS     Force            0.002484     0.000300     NO 
 Maximum Displacement     0.465135     0.001800     NO 
 RMS     Displacement     0.103887     0.001200     NO 
 Predicted change in Energy=-4.924261D-03
 GradGradGradGradGradGradGradGradGradGradGradGradGradGradGradGradGradGrad

                          Input orientation:                          
 ---------------------------------------------------------------------
 Center     Atomic      Atomic             Coordinates (Angstroms)
 Number     Number       Type             X           Y           Z
 ---------------------------------------------------------------------
      1          8           0        4.567860    2.659977   -0.059800
      2          8           0        3.716181    2.005820   -2.513396
      3          8           0        2.503568   -1.112493   -1.091347
      4          8           0        0.718423    1.968078   -2.068870
      5          8           0        2.350152    2.260928    0.271054
      6          8           0        0.332429   -0.721504    1.190021
      7          6           0        3.613101    1.645795   -0.102101
      8          6           0        3.557760    0.996710   -1.507975
      9          6           0        2.289747    0.144609   -1.723980
     10          6           0        1.028548    0.862439   -1.193834
     11          6           0        1.200594    1.400337    0.241481
     12          6           0        1.233399    0.372322    1.394272
     13          1           0        4.557736    3.106162   -0.926270
     14          1           0        2.834969    2.305393   -2.790774
     15          1           0        1.663091   -1.444488   -0.737941
     16          1           0        0.969461    2.793356   -1.625060
     17          1           0       -0.575850   -0.390913    1.209184
     18          1           0        3.879299    0.904157    0.654551
     19          1           0        4.430121    0.342104   -1.594868
     20          1           0        2.169532   -0.022138   -2.802577
     21          1           0        0.169995    0.190542   -1.254752
     22          1           0        0.350691    2.066066    0.427343
     23          1           0        0.985982    0.890513    2.326796
     24          1           0        2.221710   -0.070372    1.508146
 ---------------------------------------------------------------------
                    Distance matrix (angstroms):
                    1          2          3          4          5
     1  O    0.000000
     2  O    2.678323   0.000000
     3  O    4.422321   3.635454   0.000000
     4  O    4.396959   3.030772   3.692183   0.000000
     5  O    2.277484   3.111957   3.641379   2.867672   0.000000
     6  O    5.561955   5.709936   3.173541   4.243020   3.716263
     7  C    1.393528   2.440202   3.133340   3.514428   1.453504
     8  C    2.425689   1.433273   2.394502   3.052867   2.494295
     9  C    3.779731   2.474267   1.423463   2.431676   2.909057
    10  C    4.128426   3.204986   2.467092   1.443712   2.418327
    11  C    3.607761   3.779436   3.128656   2.427456   1.436306
    12  C    4.297246   4.909419   3.161694   3.847726   2.464871
    13  H    0.974655   2.106641   4.695093   4.164263   2.649798
    14  H    3.253746   0.971193   3.831426   2.261568   3.100293
    15  H    5.073873   4.389993   0.970318   3.782774   3.901312
    16  H    3.926360   2.992294   4.230129   0.970088   2.405210
    17  H    6.113591   6.166316   3.911002   4.240946   4.058797
    18  H    2.016759   3.357999   3.001279   4.305821   2.079949
    19  H    2.783513   2.030113   2.465966   4.079849   3.389664
    20  H    4.524218   2.566781   2.056395   2.570020   3.833043
    21  H    5.183361   4.177900   2.677716   2.030566   3.371597
    22  H    4.286555   4.469686   4.128503   2.525056   2.015005
    23  H    4.653675   5.667924   4.242500   4.533720   2.822247
    24  H    3.926535   4.766217   2.814752   4.382944   2.642320
                    6          7          8          9         10
     6  O    0.000000
     7  C    4.246940   0.000000
     8  C    4.542489   1.549469   0.000000
     9  C    3.615612   2.575910   1.542917   0.000000
    10  C    2.945543   2.912978   2.552181   1.544978   0.000000
    11  C    2.481058   2.449181   2.963064   2.574130   1.542421
    12  C    1.431755   3.086073   3.770352   3.300185   2.642058
    13  H    6.081359   1.924645   2.405850   3.814565   4.190590
    14  H    5.592097   2.875677   1.969937   2.470689   2.809892
    15  H    2.451613   3.709000   3.184678   1.972359   2.435651
    16  H    4.548047   3.259622   3.152925   2.961216   1.979366
    17  H    0.966761   4.838900   5.137624   4.135442   3.149520
    18  H    3.938248   1.092434   2.188259   2.959899   3.397801
    19  H    5.067341   2.143708   1.094108   2.153340   3.464429
    20  H    4.450269   3.486898   2.154350   1.098011   2.161567
    21  H    2.614408   3.911693   3.491559   2.171551   1.091911
    22  H    2.890080   3.331706   3.895417   3.475648   2.129888
    23  H    2.077978   3.656741   4.618528   4.320297   3.521000
    24  H    2.023503   2.733879   3.467086   3.239982   3.097494
                   11         12         13         14         15
    11  C    0.000000
    12  C    1.544933   0.000000
    13  H    3.942573   4.889786   0.000000
    14  H    3.561584   4.880205   2.661867   0.000000
    15  H    3.044044   2.834037   5.396559   4.432722   0.000000
    16  H    2.340491   3.879102   3.669042   2.253246   4.384909
    17  H    2.701995   1.972350   6.568363   5.907911   3.148678
    18  H    2.755410   2.798361   2.794297   3.863205   3.516639
    19  H    3.862885   4.376631   2.846634   2.798072   3.403334
    20  H    3.496937   4.318042   4.360081   2.420815   2.557788
    21  H    2.182763   2.860280   5.278352   3.732833   2.273709
    22  H    1.095479   2.140770   4.540186   4.072492   3.924828
    23  H    2.157433   1.095143   5.314975   5.622292   3.911947
    24  H    2.193195   1.088901   4.633979   4.949855   2.691684
                   16         17         18         19         20
    16  H    0.000000
    17  H    4.534368   0.000000
    18  H    4.151248   4.672599   0.000000
    19  H    4.240957   5.784441   2.383107   0.000000
    20  H    3.279287   4.875176   3.966493   2.588724   0.000000
    21  H    2.747893   2.639196   4.232449   4.276367   2.537546
    22  H    2.263666   2.739799   3.721926   4.868586   4.254546
    23  H    4.386144   2.308772   3.341837   5.248076   5.342677
    24  H    4.425613   2.831690   2.103790   3.830915   4.311309
                   21         22         23         24
    21  H    0.000000
    22  H    2.525804   0.000000
    23  H    3.739423   2.322379   0.000000
    24  H    3.451264   3.038621   1.766497   0.000000
 Stoichiometry    C6H12O6
 Framework group  C1[X(C6H12O6)]
 Deg. of freedom    66
 Full point group                 C1      NOp   1
 Largest Abelian subgroup         C1      NOp   1
 Largest concise Abelian subgroup C1      NOp   1
                         Standard orientation:                         
 ---------------------------------------------------------------------
 Center     Atomic      Atomic             Coordinates (Angstroms)
 Number     Number       Type             X           Y           Z
 ---------------------------------------------------------------------
      1          8           0       -2.254443    1.792386   -0.236805
      2          8           0       -2.460900   -0.864887    0.027177
      3          8           0        0.676432   -1.132423   -1.789990
      4          8           0       -0.077938   -1.432383    1.811838
      5          8           0       -0.300528    1.239486    0.794433
      6          8           0        3.109336    0.326742   -0.367607
      7          6           0       -1.068657    1.086330   -0.429983
      8          6           0       -1.357453   -0.399697   -0.760397
      9          6           0       -0.111206   -1.297792   -0.615883
     10          6           0        0.676881   -0.969113    0.671691
     11          6           0        0.952586    0.539073    0.840282
     12          6           0        1.997566    1.186814   -0.095276
     13          1           0       -2.883096    1.191488    0.203274
     14          1           0       -2.111389   -1.276663    0.834332
     15          1           0        1.616729   -1.207684   -1.562624
     16          1           0       -0.472390   -0.664379    2.254158
     17          1           0        3.601844    0.177751    0.450847
     18          1           0       -0.524365    1.564200   -1.247783
     19          1           0       -1.690035   -0.439114   -1.801987
     20          1           0       -0.446538   -2.342026   -0.563386
     21          1           0        1.609453   -1.536865    0.687118
     22          1           0        1.309864    0.676385    1.866719
     23          1           0        2.348446    2.114915    0.368245
     24          1           0        1.567504    1.436932   -1.063880
 ---------------------------------------------------------------------
 Rotational constants (GHZ):      1.2729298      0.7774927      0.7019960
 Standard basis: 6-31+G(2df,p) (6D, 7F)
 There are   444 symmetry adapted basis functions of A   symmetry.
 Integral buffers will be    131072 words long.
 Raffenetti 2 integral format.
 Two-electron integral symmetry is turned on.
   444 basis functions,   660 primitive gaussians,   480 cartesian basis functions
    48 alpha electrons       48 beta electrons
       nuclear repulsion energy       849.0693557522 Hartrees.
 NAtoms=   24 NActive=   24 NUniq=   24 SFac= 1.00D+00 NAtFMM=   50 NAOKFM=F Big=F
 ------------------------------------------------------------------------------
 Polarizable Continuum Model (PCM)
 =================================
 Model                : PCM.
 Atomic radii         : SMD-Coulomb.
 Polarization charges : Total charges.
 Charge compensation  : None.
 Solution method      : Matrix inversion.
 Cavity type          : VdW (van der Waals Surface) (Alpha=1.000).
 Cavity algorithm     : GePol (No added spheres)
                        Default sphere list used, NSphG=   24.
                        Lebedev-Laikov grids with approx.  5.0 points / Ang**2.
                        Smoothing algorithm: Karplus/York (Gamma=1.0000).
                        Polarization charges: spherical gaussians, with
                                              point-specific exponents (IZeta= 3).
                        Self-potential: point-specific (ISelfS= 7).
                        Self-field    : sphere-specific E.n sum rule (ISelfD= 2).
 1st derivatives      : Analytical E(r).r(x)/FMM algorithm (CHGder, D1EAlg=3).
                        Cavity 1st derivative terms included.
 Solvent              : Water, Eps=  78.355300 Eps(inf)=   1.777849
 ------------------------------------------------------------------------------
 ------------------------------------------------------------------------------
 Atomic radii for non-electrostatic terms: SMD-CDS.
 ------------------------------------------------------------------------------
 Nuclear repulsion after PCM non-electrostatic terms =      849.0750486408 Hartrees.
 One-electron integrals computed using PRISM.
 NBasis=   444 RedAO= T  NBF=   444
 NBsUse=   444 1.00D-06 NBFU=   444
 Initial guess read from the read-write file.
 B after Tr=     0.000000    0.000000    0.000000
         Rot=    1.000000    0.000000    0.000000    0.000000 Ang=   0.00 deg.
 Initial guess orbital symmetries:
       Occupied  (A) (A) (A) (A) (A) (A) (A) (A) (A) (A) (A) (A)
                 (A) (A) (A) (A) (A) (A) (A) (A) (A) (A) (A) (A)
                 (A) (A) (A) (A) (A) (A) (A) (A) (A) (A) (A) (A)
                 (A) (A) (A) (A) (A) (A) (A) (A) (A) (A) (A) (A)
       Virtual   (A) (A) (A) (A) (A) (A) (A) (A) (A) (A) (A) (A)
                 (A) (A) (A) (A) (A) (A) (A) (A) (A) (A) (A) (A)
                 (A) (A) (A) (A) (A) (A) (A) (A) (A) (A) (A) (A)
                 (A) (A) (A) (A) (A) (A) (A) (A) (A) (A) (A) (A)
                 (A) (A) (A) (A) (A) (A) (A) (A) (A) (A) (A) (A)
                 (A) (A) (A) (A) (A) (A) (A) (A) (A) (A) (A) (A)
                 (A) (A) (A) (A) (A) (A) (A) (A) (A) (A) (A) (A)
                 (A) (A) (A) (A) (A) (A) (A) (A) (A) (A) (A) (A)
                 (A) (A) (A) (A) (A) (A) (A) (A) (A) (A) (A) (A)
                 (A) (A) (A) (A) (A) (A) (A) (A) (A) (A) (A) (A)
                 (A) (A) (A) (A) (A) (A) (A) (A) (A) (A) (A) (A)
                 (A) (A) (A) (A) (A) (A) (A) (A) (A) (A) (A) (A)
                 (A) (A) (A) (A) (A) (A) (A) (A) (A) (A) (A) (A)
                 (A) (A) (A) (A) (A) (A) (A) (A) (A) (A) (A) (A)
                 (A) (A) (A) (A) (A) (A) (A) (A) (A) (A) (A) (A)
                 (A) (A) (A) (A) (A) (A) (A) (A) (A) (A) (A) (A)
                 (A) (A) (A) (A) (A) (A) (A) (A) (A) (A) (A) (A)
                 (A) (A) (A) (A) (A) (A) (A) (A) (A) (A) (A) (A)
                 (A) (A) (A) (A) (A) (A) (A) (A) (A) (A) (A) (A)
                 (A) (A) (A) (A) (A) (A) (A) (A) (A) (A) (A) (A)
                 (A) (A) (A) (A) (A) (A) (A) (A) (A) (A) (A) (A)
                 (A) (A) (A) (A) (A) (A) (A) (A) (A) (A) (A) (A)
                 (A) (A) (A) (A) (A) (A) (A) (A) (A) (A) (A) (A)
                 (A) (A) (A) (A) (A) (A) (A) (A) (A) (A) (A) (A)
                 (A) (A) (A) (A) (A) (A) (A) (A) (A) (A) (A) (A)
                 (A) (A) (A) (A) (A) (A) (A) (A) (A) (A) (A) (A)
                 (A) (A) (A) (A) (A) (A) (A) (A) (A) (A) (A) (A)
                 (A) (A) (A) (A) (A) (A) (A) (A) (A) (A) (A) (A)
                 (A) (A) (A) (A) (A) (A) (A) (A) (A) (A) (A) (A)
                 (A) (A) (A) (A) (A) (A) (A) (A) (A) (A) (A) (A)
                 (A) (A) (A) (A) (A) (A) (A) (A) (A) (A) (A) (A)
[...]
 8,-0.32821787,0.20345466,0.12814095,0.00042584,0.00010718,-0.00004143,
 -0.00028391,-0.00006866,-0.00002024,-0.00050915,0.00013710,0.00011330,
 0.00035780,-0.00051312,0.00024376,0.00125511,0.00138903,-0.00158439,-0
 .00653721,0.00307886,0.00279455,0.00082404,-0.00234716,0.00155139,0.00
 095916,0.00065132,0.00036183,0.,0.00000581,0.00004758,-0.00000864,0.00
 073576,0.00012569,-0.00003166,0.00002198,0.00000546,0.33102169,-0.0001
 0294,-0.00003147,-0.00004807,-0.00214016,0.00016327,-0.00015786,0.0015
 4387,-0.00092758,0.00003979,0.18157981,-0.13088844,-0.05225578,-0.0002
 2949,-0.00010370,-0.00016057,0.00008088,0.00001666,-0.00009558,0.00019
 255,-0.00004083,-0.00002776,0.00030743,-0.00061982,0.00035551,-0.00087
 161,-0.00257086,0.00368636,0.02385354,-0.01775203,-0.00886278,-0.00094
 689,0.00280549,-0.00110878,-0.00046850,-0.00036603,-0.00021194,0.00003
 351,0.00004077,0.00004771,0.00228284,0.00118125,-0.00015054,0.00010183
 ,0.00025994,-0.00001475,-0.20480111,0.14731793,0.00023384,0.00004130,-
 0.00005543,0.00007245,-0.00001177,0.00022286,-0.00135125,0.00168400,0.
 00049200,0.16041912,-0.08145026,-0.09098974,0.00096253,-0.00019784,-0.
 00035247,-0.00018083,-0.00008254,0.00003092,-0.00047554,0.00021927,0.0
 0028609,0.00021881,0.00005643,-0.00001775,0.00031733,0.00205238,-0.003
 67857,-0.02727133,0.01851707,0.00565062,-0.00230693,0.00073368,0.00183
 815,0.00087318,0.00012608,-0.00020460,-0.00001491,-0.00001158,0.000007
 18,-0.00038822,-0.00030289,-0.00030184,-0.00003354,-0.00016581,-0.0000
 5963,-0.13260926,0.05986715,0.08983386,0.00024146,0.00002273,0.0000122
 0,0.00000576,0.00001384,-0.00002125,0.00000946,-0.00002477,0.00011243,
 -0.00006694,0.00010016,-0.00024560,0.00127807,0.00057119,-0.00089167,-
 0.22704690,0.18974557,0.07676991,-0.00055244,0.00041954,-0.00003238,0.
 00004821,-0.00008539,0.00002143,-0.00007496,0.00013331,-0.00009580,0.0
 0021092,0.00008236,0.00020316,0.00096985,-0.00018440,0.00089934,-0.030
 65913,0.02682268,0.00965054,-0.00001400,-0.00002264,0.00001157,-0.0000
 1340,-0.00001896,0.00001973,-0.00000678,0.00001478,0.00001429,0.000038
 47,-0.00001823,0.00004333,0.25766270,-0.00000191,-0.00001912,0.0000223
 9,0.00000377,-0.00000691,0.00001289,-0.00003754,0.00003125,0.00015749,
 0.00004936,-0.00001454,0.00007655,0.00007122,-0.00052319,0.00013350,0.
 23798985,-0.28862591,-0.09843799,0.00010214,-0.00001296,0.00001724,-0.
 00000409,0.00000687,-0.00001847,-0.00003313,0.00000203,-0.00013566,0.0
 0009796,-0.00014603,0.00003233,-0.00316488,0.00151744,-0.00000974,-0.0
 1857749,0.01142185,0.00595879,-0.00000694,-0.00000079,-0.00000413,-0.0
 0000426,0.00000225,-0.00000075,-0.00000411,-0.00001354,-0.00000038,0.0
 0000821,0.00000005,0.00003308,-0.21337343,0.27678276,-0.00021562,-0.00
 007553,0.00001801,-0.00000871,-0.00002993,0.00003710,-0.00003585,0.000
 06094,0.00005301,0.00005949,-0.00002470,0.00025777,-0.00108675,-0.0001
 5553,0.00035249,0.08758788,-0.09107512,-0.03644270,0.00033493,-0.00013
 911,-0.00008752,-0.00001393,0.00005474,-0.00002759,0.00006291,-0.00007
 524,0.00007477,-0.00016804,-0.00009064,-0.00055288,0.00203274,-0.00057
 682,-0.00064604,-0.00033075,-0.00171541,-0.00186425,0.00001079,0.00000
 997,-0.00001214,0.00001563,0.00002137,-0.00001524,0.00000401,-0.000016
 38,-0.00001214,-0.00003718,0.00003207,-0.00007642,-0.08656803,0.091627
 94,0.03710882,-0.00282679,-0.02815677,0.01867732,0.00080353,-0.0000570
 7,-0.00028602,-0.00001968,-0.00001312,-0.00017439,0.00000089,-0.000045
 84,-0.00008581,-0.02238668,0.03072794,-0.01241199,0.00023804,-0.000254
 41,-0.00003037,-0.05558035,0.03792887,-0.03690465,0.00288736,0.0015377
 7,-0.00050711,-0.00006910,0.00026089,0.00039285,-0.00043591,-0.0001868
 1,0.00018191,0.00344441,0.00244823,-0.00028546,-0.00069712,-0.00035108
 ,0.00060725,-0.00134913,-0.00489684,-0.00155676,-0.00003167,-0.0000970
 4,0.00031128,-0.00000953,-0.00002082,0.00004806,0.00003826,-0.00000749
 ,0.00005150,0.00006325,0.00009940,-0.00004436,0.07710776,-0.00654984,-
 0.02508580,0.01818813,-0.00062107,0.00116748,-0.00435527,-0.00094165,-
 0.00102160,-0.00082106,-0.00002932,-0.00001324,0.00014166,0.01614377,-
 0.01112083,0.00585327,0.00014717,0.00043850,-0.00026039,0.03298505,-0.
 18496810,0.11713719,-0.00092018,0.00865583,-0.00354757,0.00033846,-0.0
 0005565,0.00113383,0.00019198,0.00003550,-0.00018847,-0.00131259,-0.00
 134325,-0.00018686,0.00030137,-0.00037746,0.00052983,-0.00243933,-0.00
 238472,-0.00200267,0.00025979,-0.00004241,-0.00025871,-0.00002610,-0.0
 0009511,-0.00022250,-0.00004263,0.00000551,-0.00004171,-0.00008363,-0.
 00000232,-0.00000207,-0.03678967,0.21551281,0.00125883,-0.00451104,0.0
 0666014,-0.00084693,0.00095089,-0.00777536,-0.00001952,-0.00031449,0.0
 0028427,-0.00011384,-0.00003080,0.00007317,0.00502781,-0.01004745,0.01
 075608,0.00008524,-0.00031529,0.00008276,-0.03264314,0.12555209,-0.170
 06787,-0.00453849,0.02131793,-0.01222619,0.00032528,0.00056098,-0.0001
 8157,0.00006738,0.00004785,-0.00007417,-0.00056822,-0.00014867,0.00048
 602,-0.00064323,0.00067131,-0.00028234,-0.00130159,-0.00122427,0.00087
 597,0.00071375,-0.00029107,-0.00007671,0.00002697,-0.00011643,0.000203
 97,-0.00001600,-0.00003387,0.00000353,0.00007204,-0.00001682,0.0000378
 7,0.03152671,-0.13220783,0.17095465,0.00125263,0.00025515,-0.00022857,
 0.00310885,0.00218585,-0.00324259,0.00215138,0.00107260,-0.00014653,0.
 00000578,0.00043285,-0.00018392,0.00122547,-0.00082027,-0.00025416,-0.
 00009869,-0.00005874,0.00013129,-0.00098517,-0.00134860,-0.00113138,-0
 .23961490,0.11103479,0.04578578,-0.02370379,0.01145686,0.00665514,-0.0
 0128107,-0.00493647,-0.00134240,0.00009956,-0.00000568,-0.00060269,0.0
 0008421,0.00018130,-0.00009184,-0.00002440,-0.00000008,-0.00002322,0.0
 0192873,-0.00067173,0.00057236,0.00038575,0.00008933,-0.00019192,0.000
 04684,0.00001459,-0.00002652,0.00002002,-0.00000150,-0.00001579,0.0002
 3332,0.00016542,0.00057159,0.25532364,0.00007903,0.00075981,0.00044810
 ,0.02645945,-0.02185515,0.00518864,0.00000744,0.00145862,-0.00045107,0
 .00059173,0.00023293,-0.00011099,0.00128342,-0.00018399,-0.00245988,0.
 00000838,0.00002432,0.00003657,0.00940612,-0.00452424,-0.00305816,0.10
 477804,-0.10855524,-0.02851821,-0.01704266,0.00876401,0.00465111,-0.00
 279064,-0.00356378,-0.00025902,-0.00058830,-0.00054071,-0.00027993,0.0
 0006880,0.00006788,0.00002182,0.00016558,-0.00012868,0.00019319,-0.001
 69759,-0.00382511,0.00179730,0.00000378,0.00033691,-0.00001431,0.00010
 686,0.00007419,-0.00003449,0.00000078,-0.00000039,-0.00000332,-0.00064
 718,0.00046515,-0.00009133,-0.12001913,0.12956751,-0.00035031,0.001236
 61,0.00143357,-0.02352825,0.02023512,-0.00038795,0.00093871,0.00057498
 ,0.00009205,-0.00004299,-0.00011533,0.00005259,0.00341447,-0.00391044,
 -0.00777227,0.00018901,0.00017620,-0.00009915,0.02536934,-0.01390301,-
 0.00392267,0.04967148,-0.03270267,-0.06168233,-0.00682252,0.00267633,0
 .00228455,-0.00082667,-0.00077408,0.00034154,-0.00204887,-0.00123570,-
 0.00007641,0.00003059,-0.00007214,0.00023361,0.00003897,-0.00030779,-0
 .00017652,0.00080543,0.00428119,-0.00155362,-0.00000498,0.00008972,-0.
 00010533,-0.00004609,-0.00006172,-0.00002356,-0.00002661,0.00000290,0.
 00002005,-0.00025188,0.00068711,0.00083659,-0.04670994,0.02234887,0.06
 970362,-0.00090172,-0.00198619,-0.00210255,0.00172138,0.00232054,0.000
 54710,0.00266201,0.00321814,-0.00959937,0.00149907,-0.00141329,0.00013
 479,0.00160929,-0.00024204,-0.00030985,-0.00012644,-0.00008916,0.00010
 888,-0.00411215,-0.00115611,0.00331800,-0.00352583,-0.00808132,-0.0281
 6058,-0.05533600,-0.00588930,-0.02234590,0.00081393,0.00861569,0.02935
 592,-0.00620514,0.00174465,-0.00065500,0.00028082,0.00037005,-0.000429
 27,0.00001286,0.00040764,-0.00012522,0.00005117,-0.00030690,0.00008224
 ,-0.00012963,-0.00009132,0.00074396,0.00028135,-0.00033613,0.00005351,
 0.00004087,0.00002641,-0.00004281,0.00011538,0.00006160,-0.00011146,0.
 00105313,0.00079555,0.00034208,0.05871632,-0.00097831,-0.00186296,-0.0
 0174049,0.00061507,0.00131953,-0.00032345,0.00797399,-0.00942003,0.041
 53370,-0.00004647,0.00038409,-0.00067793,0.00018677,0.00041629,0.00007
 892,0.00009882,0.00009317,-0.00007990,-0.00265332,-0.00071795,0.003049
 94,-0.00312646,-0.00422465,-0.01990941,-0.00703485,-0.05546468,-0.0513
 3665,-0.00050590,-0.00097897,-0.01142361,0.00263378,-0.00074971,0.0000
 7849,-0.00007530,-0.00037775,0.00037662,0.00002407,0.00038199,-0.00016
 303,0.00000743,-0.00022522,-0.00013816,0.00088005,0.00178198,-0.000324
 76,-0.00020273,0.00011956,-0.00000195,-0.00003503,-0.00000950,0.000031
 59,0.00008545,0.00015266,-0.00009565,0.00021959,0.00067326,0.00048336,
 0.00201776,0.06826871,-0.00023256,-0.00050715,-0.00028099,0.00088697,-
 0.00000637,0.00190248,-0.00429337,0.01344057,-0.01481189,-0.00127796,0
 .00075223,0.00170838,-0.00027495,0.00004104,0.00007780,0.00017041,0.00
 008143,-0.00009830,-0.00053943,0.00086332,0.00171696,-0.00096392,-0.00
 156910,-0.00630454,-0.02227281,-0.04987517,-0.28920395,-0.00066595,-0.
 00430703,-0.01451284,0.00276309,0.00036068,0.00154462,-0.00031533,-0.0
 0029554,0.00001785,-0.00001578,0.00005452,0.00001321,-0.00004272,-0.00
 029795,-0.00012219,-0.00068968,-0.00009866,0.00063020,0.00000762,0.000
 12615,0.00036259,-0.00003036,-0.00000677,0.00003521,0.00007416,-0.0000
 1007,-0.00010903,-0.00028431,0.00012562,0.00046024,0.02787455,0.041209
 01,0.31715497,-0.00016159,-0.00038715,-0.00023502,0.00058340,-0.000858
 97,0.00027002,0.00275981,-0.00088318,-0.00008235,0.01251763,0.01072046
 ,-0.00272973,0.00060280,-0.00049502,-0.00059279,0.00047552,0.00013103,
 0.00138464,0.00072619,0.00043229,0.00107291,-0.00270457,0.00472027,0.0
 0163260,-0.02237547,-0.01852481,-0.00060583,-0.18639932,-0.12774812,0.
 00047308,-0.00206183,-0.00185588,0.00040861,-0.00074704,-0.00086765,-0
 .00032512,0.00003365,0.00009960,0.00002548,-0.00033677,0.00029557,-0.0
 0002945,-0.00070210,0.00125881,-0.00034859,0.00098567,-0.00011040,0.00
 048945,0.00001813,0.00001406,0.00003767,-0.00001235,-0.00000833,-0.000
 08265,-0.00119915,-0.00105241,-0.00040466,0.00115063,0.00016291,0.0000
 7135,0.19656926,-0.00032872,0.00004934,0.00013917,-0.00075665,0.000056
 64,0.00009965,0.00038449,0.00259054,-0.00067097,-0.01078747,-0.0268798
 1,0.01477212,-0.00139637,-0.00101632,-0.00244824,0.00039960,0.00044665
 ,0.00142028,0.00110617,-0.00054254,-0.00050435,0.00305783,-0.00173211,
 -0.00057215,0.01038321,0.00829614,0.00036635,-0.12495110,-0.16581720,-
 0.00713357,-0.01142138,-0.00700313,-0.00056808,-0.00039472,-0.00027874
 ,0.00010349,0.00002442,-0.00000411,-0.00002991,0.00081059,0.00016138,-
 0.00014992,-0.00057174,0.00078329,0.00018213,-0.00084666,0.00085224,0.
 00015784,0.00001907,-0.00000919,0.00004640,-0.00007795,0.00006760,0.00
 003537,0.00071076,0.00069392,0.00014353,-0.00063242,0.00046111,0.00030
 519,0.13497943,0.18842574,-0.00069164,-0.00005345,0.00029328,0.0000834
 4,0.00013940,-0.00000531,-0.00160948,0.00069810,0.00012361,0.01293117,
 0.02792315,-0.00747213,-0.00414507,-0.00460129,-0.00632764,0.00017491,
 0.00017166,-0.00071618,0.00257692,-0.00081207,-0.00068295,0.00108335,-
 0.00170267,-0.00040871,0.01111510,0.00764944,0.00074814,-0.00181631,-0
 .00617963,-0.04993246,-0.02009647,-0.01670818,0.00326072,-0.00048115,0
 .00015755,0.00080826,0.00002501,0.00001431,-0.00009074,-0.00049358,-0.
 00014594,-0.00003483,-0.00012054,-0.00041628,0.00018235,0.00047574,-0.
 00132858,0.00014254,0.00007433,-0.00007324,-0.00001583,-0.00016995,0.0
 0013960,0.00008203,0.00060576,0.00038262,0.00026379,-0.00059538,0.0002
 3808,0.00055257,0.00015943,-0.00588737,0.05837449,-0.00288815,-0.00103
 958,0.00048333,0.00012925,-0.00017517,0.00033727,-0.00015821,0.0001850
 0,0.00009609,0.00136735,-0.00142620,-0.00046368,-0.03959479,0.01011605
 ,0.00516863,0.00269527,-0.00096043,-0.00014220,0.00350589,-0.00367416,
 -0.00290669,-0.00031993,0.00018153,-0.00067968,0.00067153,-0.00007952,
 -0.00126229,0.00285296,0.00066623,-0.00083931,-0.18260373,0.12237270,0
 .02308811,-0.00138115,0.00166834,0.00058518,0.00000376,0.00014730,-0.0
 0021580,-0.00010304,0.00003519,-0.00007035,0.00000439,-0.00002611,0.00
 000711,-0.00008730,0.00001997,0.00095388,0.00002409,0.00082748,-0.0001
 6842,-0.00033745,0.00043453,0.00009533,-0.00000461,0.00008952,0.000253
 01,0.00032217,-0.00011214,-0.00002577,0.00023089,0.00038910,0.00095341
 ,0.21484902,-0.00162148,-0.00055077,0.00028799,0.00007983,0.00010902,0
 .00007052,0.00004483,-0.00032306,0.00021098,-0.00126170,0.00181700,0.0
 0206094,-0.02468178,0.01283783,0.00354136,-0.00012040,0.00203140,-0.00
 099531,-0.00156433,-0.00115023,-0.00115790,-0.00046768,-0.00029973,-0.
 00014377,-0.00230044,0.00062760,-0.00203325,0.01276979,-0.00961892,-0.
 00207371,0.13300288,-0.16057564,-0.02379046,0.01686994,-0.01731092,-0.
 00004840,0.00000062,0.00004833,-0.00011182,0.00000079,-0.00005868,-0.0
 0000135,0.00001956,0.00015179,0.00006509,-0.00014055,0.00031785,-0.000
 88365,-0.00084038,-0.00095677,0.00062368,-0.00038047,0.00023981,0.0000
 6531,0.00009933,0.00008958,0.00014429,0.00088164,-0.00027765,-0.000413
 23,-0.00025755,0.00024931,0.00015939,-0.12889767,0.17295732,-0.0001510
 8,0.00003742,0.00018466,0.00008147,0.00021752,-0.00004157,-0.00003435,
 -0.00039799,0.00063459,0.00113828,-0.00093716,0.00342542,-0.00242208,0
 .00064912,0.00240386,-0.00123924,-0.00225901,0.00134289,0.00002737,-0.
 00021779,-0.00000447,-0.00068744,-0.00026555,0.00023438,-0.00254368,-0
 .00050613,-0.00548271,0.02259883,-0.02031512,-0.00934074,0.02385931,-0
 .02130594,-0.05332249,-0.01862637,0.02179800,0.00068217,-0.00002038,-0
 .00002787,-0.00002743,0.00004584,-0.00007898,0.00001176,0.00002645,0.0
 0012394,0.00003543,-0.00010110,0.00057965,-0.00348867,0.00071090,-0.00
 025528,-0.00005412,0.00014219,-0.00001122,-0.00002615,0.00008764,0.000
 05778,0.00008108,0.00167394,-0.00076391,-0.00059510,-0.00051828,0.0004
 1966,0.00065255,-0.02487326,0.02079551,0.06467534,-0.00002666,-0.00000
 445,-0.00001268,-0.00000636,-0.00001063,0.00000207,-0.00037534,0.00024
 219,0.00082431,0.00000153,0.00003035,0.00027894,0.00061258,0.00026690,
 0.00120499,-0.02413501,-0.02517045,-0.02579478,0.00021738,0.00001473,0
 .00009128,-0.00000199,0.00003754,-0.00001737,-0.00002492,0.00018401,-0
 .00037318,0.00035156,-0.00036471,0.00021184,0.00105941,0.00020816,-0.0
 0240966,-0.05565426,-0.01446176,-0.03500332,0.00000379,0.00000438,0.00
 000233,0.00000700,0.00001240,-0.00000783,-0.00002203,-0.00009288,-0.00
 006867,-0.00001863,0.00002145,-0.00000591,0.00255975,-0.00113514,-0.00
 063724,-0.00007818,0.00008710,0.00004109,-0.00000315,-0.00000771,0.000
 01025,0.00002728,-0.00005997,0.00003547,0.00001318,-0.00007592,-0.0000
 6826,0.00037979,-0.00042516,-0.00003516,0.06873107,-0.00006959,-0.0000
 1357,0.00000373,-0.00002361,-0.00001195,0.00001459,0.00022209,0.000051
 02,-0.00081630,0.00059242,-0.00037480,0.00215991,0.00153484,0.00171939
 ,-0.00084218,-0.01393921,-0.00757415,-0.01057633,-0.00001962,0.0000559
 2,0.00001777,0.00008340,0.00005043,-0.00000377,0.00035895,-0.00032025,
 0.00030793,-0.00132320,-0.00294986,0.00071516,0.00258674,0.00828576,0.
 02165760,-0.01835718,-0.11049708,-0.10596462,0.00000108,0.00001057,-0.
 00000089,0.00008213,0.00005612,-0.00001818,0.00001068,0.00004992,0.000
 06179,-0.00020817,0.00009397,-0.00008029,0.00100396,0.00030975,0.00128
 188,-0.00001346,-0.00002835,0.00007018,-0.00004662,-0.00003024,-0.0000
 0623,-0.00013631,0.00011974,0.00007304,0.00015959,-0.00000966,-0.00004
 450,0.00003809,0.00121323,-0.00078817,0.03180143,0.11908683,0.00020395
 ,0.00009603,0.00000682,0.00008351,0.00009637,-0.00004142,0.00030938,-0
 .00044043,-0.00024079,-0.00062508,0.00047606,-0.00300627,0.00001950,-0
 .00069729,0.00248616,-0.00147572,0.00269698,0.00915649,-0.00007791,-0.
 00006045,-0.00011318,-0.00011501,-0.00015684,0.00008536,-0.00052522,0.
 00025902,0.00009755,0.00057910,0.00453523,0.00117593,-0.00393179,-0.01
 274410,-0.02575682,-0.03877814,-0.10556824,-0.23745859,-0.00000386,-0.
 00002053,0.00000743,-0.00014070,-0.00010194,0.00002943,-0.00000799,0.0
 0012475,0.00004269,0.00033738,-0.00017470,0.00015085,-0.00081747,0.000
 09555,0.00093497,0.00005558,-0.00002963,-0.00014633,0.00006704,0.00003
 632,0.00001166,0.00017664,-0.00006363,-0.00017314,-0.00006561,-0.00007
 220,0.00024522,-0.00031685,-0.00012543,0.00134787,0.04555977,0.1128847
 0,0.25316590,0.00000484,-0.00025949,0.00013878,-0.00000594,-0.00006994
 ,0.00006916,-0.00062912,0.00051584,0.00166891,0.00000407,0.00000641,-0
 .00007030,0.00082171,0.00131050,-0.00071029,-0.03524743,0.02129117,0.0
 0760456,-0.00097165,0.00062816,-0.00016933,0.00006547,-0.00002400,-0.0
 0006857,-0.00008549,0.00010359,-0.00023512,0.00017756,0.00034413,-0.00
 004448,0.00287380,-0.00097808,-0.00066187,-0.14928535,0.12449546,0.017
 50647,0.00000433,-0.00006582,-0.00001740,-0.00000525,0.00000990,-0.000
 00112,-0.00002768,-0.00007620,-0.00011900,-0.00001620,0.00000066,-0.00
 002468,-0.00475647,-0.00294544,-0.00077255,-0.00109826,-0.00135192,0.0
 0107305,-0.00000437,0.00000113,0.00000045,-0.00002074,-0.00007521,0.00
 004127,0.00003343,-0.00002359,0.00002926,0.00044198,-0.00080961,0.0008
 6019,0.00638220,-0.00433844,-0.00051050,0.18134455,-0.00015735,0.00020
 952,-0.00015355,-0.00000421,0.00007073,-0.00007993,0.00085020,-0.00056
 912,-0.00212782,0.00000065,-0.00004911,0.00030487,-0.00147234,0.000680
 59,0.00014197,-0.01588331,0.01470070,0.00321507,0.00040009,-0.00095225
 ,0.00024634,-0.00007505,0.00005689,0.00013027,0.00012059,-0.00029905,0
 .00074041,-0.00055282,0.00029701,-0.00106292,0.01430939,-0.01426993,-0
 .00259047,0.13741540,-0.21447969,-0.02683051,0.00004193,0.00004999,0.0
 0001502,0.00003889,0.00001162,-0.00001812,0.00004938,0.00019992,0.0002
 1882,-0.00012131,0.00005207,-0.00022351,-0.00426312,0.00026692,0.00018
 921,-0.00109254,-0.00020201,0.00017309,-0.00000960,-0.00000055,0.00000
 888,-0.00009919,0.00013695,-0.00004577,0.00007544,0.00015891,0.0002798
 9,-0.00078005,-0.00156769,0.00345153,0.00889814,-0.00929274,-0.0010455
 9,-0.13768921,0.22479030,0.00015787,0.00006680,-0.00005021,-0.00003068
 ,-0.00004196,-0.00001544,0.00037405,-0.00035800,-0.00036750,0.00013055
 ,-0.00027199,-0.00001762,0.00106485,-0.00106267,0.00047165,0.00351877,
 -0.00136330,0.00125361,0.00026075,-0.00001396,0.00033505,0.00007428,0.
 00007021,0.00000061,0.00006694,0.00054955,-0.00070071,-0.00027173,-0.0
 0021800,0.00152876,-0.01825887,0.02027447,0.00332422,0.02146396,-0.027
 12071,-0.05581864,-0.00002731,0.00001424,0.00001063,-0.00000585,0.0000
 0344,0.00001054,0.00002465,-0.00012133,-0.00003365,0.00011625,-0.00004
 110,0.00022747,0.00011397,0.00078857,0.00087681,0.00063995,0.00033542,
 -0.00037133,-0.00000082,-0.00000723,-0.00001512,0.00006577,-0.00003717
 ,0.00003486,-0.00000517,-0.00015443,-0.00004277,-0.00005706,0.00375316
 ,-0.00332855,0.01617172,-0.02010683,-0.00200779,-0.02558686,0.02506281
 ,0.05469515\\-0.00001345,0.00000014,-0.00001588,-0.00001391,-0.0000154
 4,-0.00000723,0.00001222,-0.00000961,0.00001995,-0.00000668,-0.0000085
 8,0.00000486,-0.00000647,0.00000322,-0.00000142,0.00001131,-0.00000006
 ,0.00002208,0.00002172,0.00000244,-0.00000648,-0.00000985,0.00000434,-
 0.00001071,-0.00000138,0.00000232,-0.00000129,-0.00000742,-0.00000185,
 -0.00000032,0.00001129,0.00000659,-0.00000258,-0.00000229,0.00000173,0
 .00000165,-0.00000162,0.00000272,-0.00001578,-0.00000193,-0.00000398,-
 0.00000584,-0.00000325,0.00000269,0.00000805,-0.00000400,-0.00000381,0
 .00000050,0.00000486,0.00000726,0.00000294,0.00000198,0.00000624,-0.00
 000435,-0.00000093,-0.00000003,-0.00000248,-0.00000735,-0.00000776,0.0
 0000529,0.00000131,-0.00000911,0.00001147,0.00000128,0.00000296,-0.000
 00568,0.00000727,0.00000884,0.00000274,0.00000729,0.00000874,0.0000005
 0\\\@


 ... IT IS NO ONE DREAME THAT
     CAN PLEASE THESE ALL ...

                -- BEN JONSON
 Job cpu time:  0 days  7 hours 13 minutes 13.9 seconds.
 File lengths (MBytes):  RWF=    447 Int=      0 D2E=      0 Chk=     18 Scr=      1
 Normal termination of Gaussian 09 at Sun Mar 22 13:07:47 2015.
Gaussian '09 finished on node028 at Sun Mar 22 13:07:47 EDT 2015.
