Gaussian '09 started on node005 at Fri Feb 12 09:12:55 EST 2016.
 Entering Gaussian System, Link 0=/usr/local/gaussian/g09/g09
 Initial command:
 /usr/local/gaussian/g09/l1.exe /home/srmcgrat/thesis/gaussian/cellobiose/400/5000/1/2dfp/gaussian7520/Gau-7556.inp -scrdir=/home/srmcgrat/thesis/gaussian/cellobiose/400/5000/1/2dfp/gaussian7520/
 Entering Link 1 = /usr/local/gaussian/g09/l1.exe PID=      7558.
  
 Copyright (c) 1988,1990,1992,1993,1995,1998,2003,2009,2010,
            Gaussian, Inc.  All Rights Reserved.
  
 This is part of the Gaussian(R) 09 program.  It is based on
 the Gaussian(R) 03 system (copyright 2003, Gaussian, Inc.),
 the Gaussian(R) 98 system (copyright 1998, Gaussian, Inc.),
 the Gaussian(R) 94 system (copyright 1995, Gaussian, Inc.),
 the Gaussian 92(TM) system (copyright 1992, Gaussian, Inc.),
 the Gaussian 90(TM) system (copyright 1990, Gaussian, Inc.),
 the Gaussian 88(TM) system (copyright 1988, Gaussian, Inc.),
 the Gaussian 86(TM) system (copyright 1986, Carnegie Mellon
 University), and the Gaussian 82(TM) system (copyright 1983,
 Carnegie Mellon University). Gaussian is a federally registered
 trademark of Gaussian, Inc.
  
 This software contains proprietary and confidential information,
 including trade secrets, belonging to Gaussian, Inc.
  
 This software is provided under written license and may be
 used, copied, transmitted, or stored only in accord with that
 written license.
  
 The following legend is applicable only to US Government
 contracts under FAR:
  
                    RESTRICTED RIGHTS LEGEND
  
 Use, reproduction and disclosure by the US Government is
 subject to restrictions as set forth in subparagraphs (a)
 and (c) of the Commercial Computer Software - Restricted
 Rights clause in FAR 52.227-19.
  
 Gaussian, Inc.
 340 Quinnipiac St., Bldg. 40, Wallingford CT 06492
  
  
 ---------------------------------------------------------------
 Warning -- This program may not be used in any manner that
 competes with the business of Gaussian, Inc. or will provide
 assistance to any competitor of Gaussian, Inc.  The licensee
 of this program is prohibited from giving any competitor of
 Gaussian, Inc. access to this program.  By using this program,
 the user acknowledges that Gaussian, Inc. is engaged in the
 business of creating and licensing software in the field of
 computational chemistry and represents and warrants to the
 licensee that it is not a competitor of Gaussian, Inc. and that
 it will not use this program in any manner prohibited above.
 ---------------------------------------------------------------
  

 Cite this work as:
 Gaussian 09, Revision B.01,
 M. J. Frisch, G. W. Trucks, H. B. Schlegel, G. E. Scuseria, 
 M. A. Robb, J. R. Cheeseman, G. Scalmani, V. Barone, B. Mennucci, 
 G. A. Petersson, H. Nakatsuji, M. Caricato, X. Li, H. P. Hratchian, 
 A. F. Izmaylov, J. Bloino, G. Zheng, J. L. Sonnenberg, M. Hada, 
 M. Ehara, K. Toyota, R. Fukuda, J. Hasegawa, M. Ishida, T. Nakajima, 
 Y. Honda, O. Kitao, H. Nakai, T. Vreven, J. A. Montgomery, Jr., 
 J. E. Peralta, F. Ogliaro, M. Bearpark, J. J. Heyd, E. Brothers, 
 K. N. Kudin, V. N. Staroverov, T. Keith, R. Kobayashi, J. Normand, 
 K. Raghavachari, A. Rendell, J. C. Burant, S. S. Iyengar, J. Tomasi, 
 M. Cossi, N. Rega, J. M. Millam, M. Klene, J. E. Knox, J. B. Cross, 
 V. Bakken, C. Adamo, J. Jaramillo, R. Gomperts, R. E. Stratmann, 
 O. Yazyev, A. J. Austin, R. Cammi, C. Pomelli, J. W. Ochterski, 
 R. L. Martin, K. Morokuma, V. G. Zakrzewski, G. A. Voth, 
 P. Salvador, J. J. Dannenberg, S. Dapprich, A. D. Daniels, 
 O. Farkas, J. B. Foresman, J. V. Ortiz, J. Cioslowski, 
 and D. J. Fox, Gaussian, Inc., Wallingford CT, 2010.
 
 ******************************************
 Gaussian 09:  EM64L-G09RevB.01 12-Aug-2010
                12-Feb-2016 
 ******************************************
 --------------------------------------------------
 # freq=raman b3lyp/6-31+g(2df,p) geom=connectivity
 --------------------------------------------------
 1/10=4,30=1,38=1,57=2/1,3;
 2/12=2,17=6,18=5,40=1/2;
 3/5=1,6=6,7=114,11=2,16=1,25=1,30=1,71=2,74=-5/1,2,3;
 4//1;
 5/5=2,38=5,98=1/2;
 8/6=4,10=90,11=11/1;
 10/13=10,15=4/2;
 11/6=3,8=1,9=11,15=111,16=1/1,2,10;
 10/6=1/2;
 6/7=2,8=2,9=2,10=2,18=1,28=1/1;
 7/8=1,10=1,25=1/1,2,3,16;
 1/10=4,30=1/3;
 99//99;
 ------------
 400 5000.com
 ------------
 Symbolic Z-matrix:
 Charge =  0 Multiplicity = 1
 O                     8.712     7.685     11.959 
 C                     9.427     7.905     13.184 
 C                     8.982     9.248     13.739 
 O                     9.039     10.282    12.746 
 H                     9.005     9.904     11.821 
 C                     9.523     9.605     15.114 
 O                     8.843     10.793    15.542 
 H                     9.078     10.955    16.5 
 C                     9.001     5.507     14.11 
 O                     8.203     4.832     13.126 
 H                     8.156     3.863     13.368 
 C                     9.04      7.008     14.348 
 O                     9.746     7.277     15.567 
 C                     9.167     8.486     16.08 
 O                     9.928     8.798     17.256 
 C                     9.349     8.411     18.511 
 C                     9.912     7.096     19.027 
 O                     9.859     6.128     17.968 
 H                     9.958     6.693     17.149 
 C                     9.292     6.648     20.34 
 O                     9.551     5.349     20.891 
 H                     9.28      5.121     21.827 
 C                     9.338     10.754    19.214 
 O                     9.881     11.423    18.066 
 H                     9.845     12.422    18.079 
 C                     9.766     9.355     19.627 
 O                     9.126     9.028     20.869 
 C                     9.434     7.73      21.398 
 O                     8.608     7.606     22.565 
 H                     9.16397   7.52331   23.34324 
 H                     10.45469   7.7389    21.71897 
 H                     8.24374   6.62451   20.1267 
 H                     10.94876   7.2677    19.22834 
 H                     8.28263   8.3618    18.43799 
 H                     10.82859   9.32357   19.7487 
 H                     9.52407   11.39019   20.05396 
 H                     8.27781   10.71952   19.07365 
 H                     9.33741   7.55626   11.24214 
 H                     8.73451   5.0704    15.04982 
 H                     10.01205   5.21748   13.91288 
 H                     8.02469   7.27255   14.5579 
 H                     10.48466   7.89088   13.02259 
 H                     7.93375   9.11786   13.90967 
 H                     10.58112   9.76048   15.08075 
 H                     8.11645   8.40709   16.26713 
 

 GradGradGradGradGradGradGradGradGradGradGradGradGradGradGradGradGradGrad
 Berny optimization.
 Initialization pass.
 Trust Radius=3.00D-01 FncErr=1.00D-07 GrdErr=1.00D-07
 Number of steps in this run=      2 maximum allowed number of steps=      2.
 GradGradGradGradGradGradGradGradGradGradGradGradGradGradGradGradGradGrad

                          Input orientation:                          
 ---------------------------------------------------------------------
 Center     Atomic      Atomic             Coordinates (Angstroms)
 Number     Number       Type             X           Y           Z
 ---------------------------------------------------------------------
      1          8           0        8.712000    7.685000   11.959000
      2          6           0        9.427000    7.905000   13.184000
      3          6           0        8.982000    9.248000   13.739000
      4          8           0        9.039000   10.282000   12.746000
      5          1           0        9.005000    9.904000   11.821000
      6          6           0        9.523000    9.605000   15.114000
      7          8           0        8.843000   10.793000   15.542000
      8          1           0        9.078000   10.955000   16.500000
      9          6           0        9.001000    5.507000   14.110000
     10          8           0        8.203000    4.832000   13.126000
     11          1           0        8.156000    3.863000   13.368000
     12          6           0        9.040000    7.008000   14.348000
     13          8           0        9.746000    7.277000   15.567000
     14          6           0        9.167000    8.486000   16.080000
     15          8           0        9.928000    8.798000   17.256000
     16          6           0        9.349000    8.411000   18.511000
     17          6           0        9.912000    7.096000   19.027000
     18          8           0        9.859000    6.128000   17.968000
     19          1           0        9.958000    6.693000   17.149000
     20          6           0        9.292000    6.648000   20.340000
     21          8           0        9.551000    5.349000   20.891000
     22          1           0        9.280000    5.121000   21.827000
     23          6           0        9.338000   10.754000   19.214000
     24          8           0        9.881000   11.423000   18.066000
     25          1           0        9.845000   12.422000   18.079000
     26          6           0        9.766000    9.355000   19.627000
     27          8           0        9.126000    9.028000   20.869000
     28          6           0        9.434000    7.730000   21.398000
     29          8           0        8.608000    7.606000   22.565000
     30          1           0        9.163967    7.523307   23.343243
     31          1           0       10.454686    7.738903   21.718969
     32          1           0        8.243739    6.624508   20.126701
     33          1           0       10.948764    7.267705   19.228343
     34          1           0        8.282628    8.361797   18.437994
     35          1           0       10.828592    9.323574   19.748702
     36          1           0        9.524067   11.390191   20.053965
     37          1           0        8.277805   10.719519   19.073652
     38          1           0        9.337407    7.556257   11.242137
     39          1           0        8.734513    5.070396   15.049820
     40          1           0       10.012048    5.217477   13.912875
     41          1           0        8.024691    7.272555   14.557899
     42          1           0       10.484661    7.890882   13.022587
     43          1           0        7.933747    9.117856   13.909669
     44          1           0       10.581121    9.760482   15.080749
     45          1           0        8.116450    8.407087   16.267130
 ---------------------------------------------------------------------
                    Distance matrix (angstroms):
                    1          2          3          4          5
     1  O    0.000000
     2  C    1.435357   0.000000
     3  C    2.384171   1.519769   0.000000
     4  O    2.733259   2.447962   1.434731   0.000000
     5  H    2.242511   2.455983   2.027212   0.999832   0.000000
     6  C    3.781289   2.573736   1.520117   2.509982   3.346875
     7  O    4.744967   3.773826   2.378477   2.849062   3.829152
     8  H    5.607810   4.518867   3.247489   3.814049   4.796141
     9  C    3.074737   2.605639   3.759399   4.966142   4.957131
    10  O    3.124193   3.308303   4.525888   5.526825   5.298246
    11  H    4.111216   4.241116   5.460599   6.509235   6.293464
    12  C    2.504642   1.519630   2.322035   3.644925   3.843666
    13  O    3.775352   2.484921   2.794659   4.181855   4.634946
    14  C    4.222708   2.965127   2.468836   3.789137   4.491776
    15  O    5.547579   4.198766   3.669701   4.830391   5.622668
    16  C    6.622805   5.351546   4.858728   6.068935   6.863198
    17  C    7.193299   5.918645   5.784371   7.096738   7.786780
    18  O    6.312522   5.121622   5.328036   6.722901   7.264510
    19  H    5.428875   4.179968   4.371350   5.754293   6.293355
    20  C    8.464805   7.266816   7.101359   8.422517   9.124542
    21  O    9.270461   8.120736   8.165603   9.536124  10.164204
    22  H   10.211471   9.081504   9.084970  10.447898  11.093816
    23  C    7.902257   6.669754   5.689499   6.492088   7.449150
    24  O    7.254974   6.034597   4.925622   5.505747   6.486506
    25  H    7.821589   6.673757   5.445608   5.802596   6.797683
    26  C    7.918209   6.612841   5.940930   6.981119   7.862198
    27  O    9.020152   7.772448   7.134847   8.219685   9.091112
    28  C    9.466680   8.215867   7.821055   9.029166   9.830018
    29  O   10.606804   9.421429   8.985228  10.186241  10.994178
    30  H   11.394359  10.169813   9.759568  10.951145  11.766693
    31  H    9.914477   8.598222   8.253852   9.433222  10.235185
    32  H    8.249561   7.158273   6.944816   8.275533   8.962102
    33  H    7.617125   6.265460   6.158134   7.399590   8.099197
    34  H    6.528382   5.396545   4.832703   6.054591   6.832629
    35  H    8.236768   6.860913   6.287458   7.291026   8.155418
    36  H    8.939594   7.704050   6.690411   7.407410   8.382118
    37  H    7.746941   6.627983   5.578509   6.388272   7.334496
    38  H    0.960000   1.974963   3.036878   3.127351   2.440793
    39  H    4.048435   3.463496   4.385416   5.706235   5.819121
    40  H    3.405352   2.845404   4.163694   5.287515   5.230066
    41  H    2.719703   2.062537   2.342952   3.656305   3.921241
    42  H    2.077482   1.070000   2.147791   2.807825   2.772337
    43  H    2.542413   2.056069   1.070000   1.982660   2.475509
    44  H    4.188861   2.893521   2.149445   2.846256   3.623633
    45  H    4.408637   3.387525   2.801385   4.094479   4.774761
                    6          7          8          9         10
     6  C    0.000000
     7  O    1.434199   0.000000
     8  H    1.985326   0.999616   0.000000
     9  C    4.251365   5.478812   5.949683   0.000000
    10  O    5.336298   6.463759   7.045611   1.435509   0.000000
    11  H    6.155304   7.295419   7.807431   1.991814   0.999867
    12  C    2.750355   3.973748   4.495704   1.520252   2.632267
    13  O    2.382126   3.630191   3.852843   2.410555   3.783828
    14  C    1.520544   2.390956   2.506049   3.575318   4.796575
    15  O    2.324530   2.845179   2.438583   4.646216   5.980107
    16  C    3.604930   3.839912   3.254151   5.284233   6.566642
    17  C    4.664544   5.191897   4.687554   5.247069   6.547379
    18  O    4.510847   5.355367   5.105381   4.000746   5.278912
    19  H    3.579133   4.542651   4.400028   3.399701   4.767376
    20  C    6.009017   6.356369   5.774222   6.340305   7.518349
    21  O    7.175517   7.664868   7.136655   6.805103   7.898077
    22  H    8.076489   8.477251   7.902739   7.731683   8.772163
    23  C    4.261974   3.705419   2.733825   7.327714   8.568667
    24  O    3.485340   2.800878   1.821041   7.171011   8.405984
    25  H    4.102487   3.177108   2.287710   8.017638   9.210672
    26  C    4.526447   4.427979   3.579312   6.769758   8.072391
    27  O    5.797462   5.618918   4.775332   7.622148   8.855077
    28  C    6.558369   6.635057   5.875182   7.631786   8.850974
    29  O    7.768567   7.715875   6.944129   8.720509   9.846513
    30  H    8.496046   8.464828   7.655970   9.452240  10.609366
    31  H    6.926469   7.076721   6.283007   8.061699   9.346619
    32  H    5.970512   6.225346   5.709826   6.166276   7.226657
    33  H    4.942020   5.518249   4.953762   5.752503   7.121128
    34  H    3.759389   3.822505   3.333637   5.234258   6.378329
    35  H    4.823301   4.878333   4.034872   7.049914   8.421885
    36  H    5.252633   4.601990   3.608189   8.379514   9.630772
    37  H    4.297849   3.577346   2.705447   7.234031   8.369172
    38  H    4.384417   5.404605   6.266088   3.540799   3.501056
    39  H    4.603093   5.744755   6.070385   1.070000   2.010080
    40  H    4.575175   5.925131   6.362769   1.070000   2.010080
    41  H    2.827451   3.745880   4.294371   2.066634   2.835214
    42  H    2.870017   4.179088   4.843544   3.011081   3.817516
    43  H    2.052668   2.509452   3.375533   3.770603   4.365226
    44  H    1.070000   2.073622   2.387576   4.640177   5.810890
    45  H    2.177863   2.597359   2.733252   3.721040   4.759773
                   11         12         13         14         15
    11  H    0.000000
    12  C    3.410701   0.000000
    13  O    4.361089   1.434140   0.000000
    14  C    5.454282   2.280447   1.435302   0.000000
    15  O    6.527691   3.528329   2.280194   1.435075   0.000000
    16  C    6.968357   4.403914   3.179733   2.438957   1.435282
    17  C    6.749823   4.760375   3.468705   3.342444   2.456319
    18  O    5.402817   3.814389   2.664164   3.098963   2.764164
    19  H    5.054905   2.964380   1.699625   2.232329   2.107931
    20  C    7.593122   6.008092   4.835627   4.641279   3.812880
    21  O    7.794213   6.769361   5.665703   5.756209   5.025033
    22  H    8.625579   7.717112   6.637250   6.660631   5.902057
    23  C    9.113656   6.148112   5.055354   3.872341   2.829806
    24  O    9.066445   5.832926   4.842782   3.616623   2.747532
    25  H    9.914773   6.624182   5.726340   4.466294   3.717202
    26  C    8.481111   5.822656   4.560930   3.700699   2.440929
    27  O    9.158773   6.827242   5.617972   4.819748   3.708082
    28  C    9.003770   7.097818   5.856886   5.378099   4.305906
    29  O    9.939777   8.250050   7.097555   6.568265   5.598995
    30  H   10.673300   9.010844   7.801884   7.326765   6.266029
    31  H    9.489218   7.541003   6.209856   5.832174   4.617052
    32  H    7.301621   5.845895   4.844937   4.548995   3.975139
    33  H    7.330427   5.246767   3.853849   3.817196   2.697016
    34  H    6.779384   4.374292   3.400125   2.521443   2.072349
    35  H    8.813284   6.142355   4.779864   4.113611   2.702010
    36  H   10.160331   7.210822   6.091013   4.934999   3.835521
    37  H    8.920827   6.057070   5.128659   3.839430   3.117569
    38  H    4.422122   3.167873   4.353087   4.929338   6.169057
    39  H    2.149651   2.083311   2.481871   3.593699   4.492959
    40  H    2.361443   2.083311   2.654910   4.011705   4.899356
    41  H    3.613608   1.070000   1.995297   2.257014   3.637213
    42  H    4.665384   2.150173   2.719652   3.382036   4.365148
    43  H    5.287373   2.422277   3.069163   2.574974   3.908617
    44  H    6.602652   3.238538   2.664873   2.150010   2.466709
    45  H    5.390292   2.548225   2.103024   1.070000   2.100569
                   16         17         18         19         20
    16  C    0.000000
    17  C    1.520674   0.000000
    18  O    2.401466   1.435728   0.000000
    19  H    2.275401   1.921304   0.999893   0.000000
    20  C    2.540996   1.519563   2.493647   3.260071   0.000000
    21  O    3.883433   2.580083   3.040663   3.996817   1.434602
    22  H    4.671693   3.484257   4.030034   4.981421   2.131441
    23  C    2.446217   3.707480   4.819111   4.597863   4.257843
    24  O    3.090824   4.432540   5.295953   4.818684   5.321524
    25  H    4.064574   5.410127   6.294994   5.805093   6.225513
    26  C    1.520027   2.341879   3.629664   3.641921   2.839171
    27  O    2.447567   2.782694   4.166904   4.470218   2.443726
    28  C    2.967449   2.500416   3.809453   4.404991   1.519951
    29  O    4.199050   3.804991   4.988175   5.655893   2.517190
    30  H    4.916585   4.401375   5.596713   6.299885   3.130819
    31  H    3.459092   2.820377   4.125483   4.714363   2.107952
    32  H    2.650217   2.052984   2.741456   3.436581   1.070000
    33  H    2.093071   1.070000   2.018657   2.373934   2.089182
    34  H    1.070000   2.145699   2.774111   2.693188   2.752011
    35  H    2.133984   2.514573   3.784534   3.799513   3.141567
    36  H    3.359608   4.432293   5.670457   5.539920   4.756474
    37  H    2.606395   3.975256   4.980431   4.768668   4.382864
    38  H    7.318954   7.819596   6.895593   6.001781   9.143199
    39  H    4.849433   4.616006   3.301329   2.921699   5.548481
    40  H    5.637462   5.449140   4.158908   3.557048   6.623654
    41  H    4.321673   4.854479   4.037757   3.284413   5.952212
    42  H    5.628759   6.083811   5.287373   4.328923   7.517428
    43  H    4.865679   5.847090   5.395914   4.524466   7.020983
    44  H    3.886624   4.808335   4.696020   3.751718   6.245726
    45  H    2.560106   3.543985   3.335217   2.665913   4.589615
                   21         22         23         24         25
    21  O    0.000000
    22  H    1.000760   0.000000
    23  C    5.663190   6.209817   0.000000
    24  O    6.706937   7.363527   1.435379   0.000000
    25  H    7.617159   8.226259   2.080264   0.999733   0.000000
    26  C    4.206181   4.796139   1.520182   2.593563   3.436428
    27  O    3.703532   4.025684   2.400634   3.763357   4.451999
    28  C    2.437191   2.648516   3.731440   4.994025   5.761905
    29  O    2.964047   2.677957   4.655320   6.035811   6.696881
    30  H    3.300137   2.843156   5.245790   6.600836   7.223105
    31  H    2.685854   2.871406   4.075864   5.219758   5.962591
    32  H    1.979900   2.495073   4.368425   5.472901   6.353584
    33  H    2.898207   3.761135   3.840445   4.444956   5.395001
    34  H    4.086925   4.794047   2.727385   3.473346   4.365218
    35  H    4.328316   4.937518   2.133984   2.852544   3.654532
    36  H    6.098962   6.519661   1.070000   2.020020   2.251247
    37  H    5.810874   6.318919   1.070000   2.020020   2.518704
    38  H    9.900412  10.861542   8.589304   7.862079   8.406890
    39  H    5.904546   6.799286   7.071630   7.125122   8.028400
    40  H    6.994575   7.948495   7.694761   7.468208   8.324041
    41  H    6.792485   7.684062   5.960245   5.742722   6.498343
    42  H    8.321346   9.308122   6.917071   6.186782   6.819641
    43  H    8.096837   8.970585   5.725803   5.136202   5.652749
    44  H    7.367587   8.290332   4.429017   3.487959   4.076158
    45  H    5.726255   6.562344   3.960332   3.930051   4.731837
                   26         27         28         29         30
    26  C    0.000000
    27  O    1.434954   0.000000
    28  C    2.426374   1.435099   0.000000
    29  O    3.609960   2.273065   1.435110   0.000000
    30  H    4.186646   2.896105   1.974743   0.960000   0.000000
    31  H    2.731738   2.037063   1.070000   2.035603   2.085835
    32  H    3.165844   2.665739   2.062774   2.653547   3.464217
    33  H    2.432007   3.018752   2.686194   4.089853   4.492576
    34  H    2.144896   2.657987   3.238281   4.208239   5.053840
    35  H    1.070000   2.059429   2.684129   3.976509   4.351168
    36  H    2.093521   2.530353   3.900197   4.632988   5.089382
    37  H    2.093521   2.608438   3.959370   4.689621   5.406521
    38  H    8.586331   9.741006  10.157808  11.346441  12.102394
    39  H    6.353926   7.048316   6.918249   7.932416   8.659220
    40  H    7.059098   7.980779   7.916691   9.084914   9.745149
    41  H    5.750176   6.642625   6.998742   8.035241   8.862454
    42  H    6.802822   8.043954   8.442589   9.729371  10.411306
    43  H    6.008433   7.061291   7.762217   8.812212   9.646157
    44  H    4.636511   6.013132   6.733974   8.034240   8.676525
    45  H    3.861124   4.752045   5.340431   6.367615   7.207616
                   31         32         33         34         35
    31  H    0.000000
    32  H    2.943718   0.000000
    33  H    2.582510   2.921970   0.000000
    34  H    3.983796   2.423102   2.988305   0.000000
    35  H    2.555961   3.756235   2.124103   3.020745   0.000000
    36  H    4.119490   4.935207   4.439178   3.650164   2.462900
    37  H    4.540990   4.228380   4.367261   2.441913   2.985108
    38  H   10.537821   8.999986   8.152252   7.317226   8.815253
    39  H    7.386303   5.332059   5.214511   4.745234   6.674892
    40  H    8.215145   6.611981   5.773652   5.775322   7.182176
    41  H    7.576495   5.610660   5.510287   4.038330   6.246037
    42  H    8.697761   7.556049   6.254210   5.864924   6.885602
    43  H    8.321166   6.705548   6.387619   4.604244   6.520487
    44  H    6.940369   6.384303   4.853002   4.302381   4.694882
    45  H    5.969619   4.253243   4.253113   2.177685   4.507438
                   36         37         38         39         40
    36  H    0.000000
    37  H    1.721622   0.000000
    38  H    9.611565   8.512438   0.000000
    39  H    8.099671   6.950713   4.587094   0.000000
    40  H    8.720866   7.740393   3.613568   1.716500   0.000000
    41  H    7.029210   5.686620   3.577427   2.365447   2.930698
    42  H    7.912533   7.034684   2.144334   3.889452   2.857109
    43  H    6.741290   5.417602   3.394787   4.280550   4.419537
    44  H    5.339119   4.708321   4.597866   5.040618   4.725110
    45  H    5.021992   3.640047   5.240725   3.605184   4.394248
                   41         42         43         44         45
    41  H    0.000000
    42  H    2.964956   0.000000
    43  H    1.957961   2.966402   0.000000
    44  H    3.605342   2.782218   2.965297   0.000000
    45  H    2.053547   4.049932   2.469048   3.051849   0.000000
 Stoichiometry    C12H22O11
 Framework group  C1[X(C12H22O11)]
 Deg. of freedom   129
 Full point group                 C1      NOp   1
 Largest Abelian subgroup         C1      NOp   1
 Largest concise Abelian subgroup C1      NOp   1
                         Standard orientation:                         
 ---------------------------------------------------------------------
 Center     Atomic      Atomic             Coordinates (Angstroms)
 Number     Number       Type             X           Y           Z
 ---------------------------------------------------------------------
      1          8           0        5.066997   -0.422763   -0.288019
      2          6           0        3.805325   -0.176299    0.350485
      3          6           0        3.265959    1.136555   -0.192838
      4          8           0        4.248387    2.180807   -0.139681
      5          1           0        5.176184    1.809687   -0.106090
      6          6           0        1.862664    1.509371    0.257190
      7          8           0        1.463228    2.656221   -0.505773
      8          1           0        0.493385    2.821912   -0.329182
      9          6           0        2.917177   -2.601403    0.004914
     10          8           0        3.945233   -3.308698   -0.704677
     11          1           0        3.711873   -4.280919   -0.712728
     12          6           0        2.668376   -1.102575   -0.047802
     13          8           0        1.412863   -0.807600    0.579444
     14          6           0        0.923189    0.364777   -0.088271
     15          8           0       -0.292489    0.705957    0.593759
     16          6           0       -1.513473    0.278076   -0.027652
     17          6           0       -2.049929   -1.010033    0.576864
     18          8           0       -0.983752   -1.970137    0.629594
     19          1           0       -0.174415   -1.393543    0.740505
     20          6           0       -3.326342   -1.501489   -0.085189
     21          8           0       -3.882116   -2.789890    0.213511
     22          1           0       -4.801436   -3.040021   -0.092764
     23          6           0       -2.229164    2.610998   -0.198647
     24          8           0       -1.114883    3.317649    0.366453
     25          1           0       -1.132063    4.313228    0.277047
     26          6           0       -2.655264    1.232825    0.280969
     27          8           0       -3.860473    0.861771   -0.403782
     28          6           0       -4.396818   -0.422865   -0.055138
     29          8           0       -5.518734   -0.600314   -0.932268
     30          1           0       -6.324191   -0.660537   -0.413410
     31          1           0       -4.770226   -0.363204    0.945815
     32          1           0       -3.058942   -1.578113   -1.118400
     33          1           0       -2.305693   -0.785905    1.591384
     34          1           0       -1.385081    0.173594   -1.084771
     35          1           0       -2.831600    1.256166    1.336081
     36          1           0       -3.081476    3.248675   -0.089873
     37          1           0       -2.033931    2.522134   -1.246925
     38          1           0        5.751302   -0.512186    0.379312
     39          1           0        1.995074   -3.059639   -0.286024
     40          1           0        3.063468   -2.835698    1.038648
     41          1           0        2.509699   -0.893550   -1.085120
     42          1           0        3.911869   -0.133445    1.414305
     43          1           0        3.150560    0.950057   -1.240121
     44          1           0        1.840168    1.720482    1.305916
     45          1           0        0.791158    0.229171   -1.141399
 ---------------------------------------------------------------------
 Rotational constants (GHZ):      0.4102618      0.1454454      0.1110887
 Standard basis: 6-31+G(2df,p) (6D, 7F)
 There are   846 symmetry adapted basis functions of A   symmetry.
 Integral buffers will be    131072 words long.
 Raffenetti 2 integral format.
 Two-electron integral symmetry is turned on.
   846 basis functions,  1258 primitive gaussians,   915 cartesian basis functions
    91 alpha electrons       91 beta electrons
       nuclear repulsion energy      2291.8768507622 Hartrees.
 NAtoms=   45 NActive=   45 NUniq=   45 SFac= 1.00D+00 NAtFMM=   50 NAOKFM=F Big=F
 One-electron integrals computed using PRISM.
 NBasis=   846 RedAO= T  NBF=   846
 NBsUse=   846 1.00D-06 NBFU=   846
 Harris functional with IExCor=  402 diagonalized for initial guess.
 ExpMin= 4.38D-02 ExpMax= 5.48D+03 ExpMxC= 8.25D+02 IAcc=2 IRadAn=         0 AccDes= 0.00D+00
 HarFok:  IExCor=  402 AccDes= 0.00D+00 IRadAn=         0 IDoV= 1
 ScaDFX=  1.000000  1.000000  1.000000  1.000000
 FoFCou: FMM=F IPFlag=           0 FMFlag=      100000 FMFlg1=           0
         NFxFlg=           0 DoJE=T BraDBF=F KetDBF=T FulRan=T
         Omega=  0.000000  0.000000  1.000000  0.000000  0.000000 ICntrl=     500 IOpCl=  0
         NMat0=    1 NMatS0=    1 NMatT0=    0 NMatD0=    1 NMtDS0=    0 NMtDT0=    0
         I1Cent=           4 NGrid=           0.
 Petite list used in FoFCou.
 Initial guess orbital symmetries:
       Occupied  (A) (A) (A) (A) (A) (A) (A) (A) (A) (A) (A) (A)
                 (A) (A) (A) (A) (A) (A) (A) (A) (A) (A) (A) (A)
                 (A) (A) (A) (A) (A) (A) (A) (A) (A) (A) (A) (A)
                 (A) (A) (A) (A) (A) (A) (A) (A) (A) (A) (A) (A)
                 (A) (A) (A) (A) (A) (A) (A) (A) (A) (A) (A) (A)
                 (A) (A) (A) (A) (A) (A) (A) (A) (A) (A) (A) (A)
                 (A) (A) (A) (A) (A) (A) (A) (A) (A) (A) (A) (A)
                 (A) (A) (A) (A) (A) (A) (A)
       Virtual   (A) (A) (A) (A) (A) (A) (A) (A) (A) (A) (A) (A)
                 (A) (A) (A) (A) (A) (A) (A) (A) (A) (A) (A) (A)
                 (A) (A) (A) (A) (A) (A) (A) (A) (A) (A) (A) (A)
                 (A) (A) (A) (A) (A) (A) (A) (A) (A) (A) (A) (A)
                 (A) (A) (A) (A) (A) (A) (A) (A) (A) (A) (A) (A)
                 (A) (A) (A) (A) (A) (A) (A) (A) (A) (A) (A) (A)
                 (A) (A) (A) (A) (A) (A) (A) (A) (A) (A) (A) (A)
                 (A) (A) (A) (A) (A) (A) (A) (A) (A) (A) (A) (A)
                 (A) (A) (A) (A) (A) (A) (A) (A) (A) (A) (A) (A)
                 (A) (A) (A) (A) (A) (A) (A) (A) (A) (A) (A) (A)
                 (A) (A) (A) (A) (A) (A) (A) (A) (A) (A) (A) (A)
                 (A) (A) (A) (A) (A) (A) (A) (A) (A) (A) (A) (A)
                 (A) (A) (A) (A) (A) (A) (A) (A) (A) (A) (A) (A)
                 (A) (A) (A) (A) (A) (A) (A) (A) (A) (A) (A) (A)
                 (A) (A) (A) (A) (A) (A) (A) (A) (A) (A) (A) (A)
                 (A) (A) (A) (A) (A) (A) (A) (A) (A) (A) (A) (A)
                 (A) (A) (A) (A) (A) (A) (A) (A) (A) (A) (A) (A)
                 (A) (A) (A) (A) (A) (A) (A) (A) (A) (A) (A) (A)
                 (A) (A) (A) (A) (A) (A) (A) (A) (A) (A) (A) (A)
                 (A) (A) (A) (A) (A) (A) (A) (A) (A) (A) (A) (A)
                 (A) (A) (A) (A) (A) (A) (A) (A) (A) (A) (A) (A)
                 (A) (A) (A) (A) (A) (A) (A) (A) (A) (A) (A) (A)
                 (A) (A) (A) (A) (A) (A) (A) (A) (A) (A) (A) (A)
                 (A) (A) (A) (A) (A) (A) (A) (A) (A) (A) (A) (A)
                 (A) (A) (A) (A) (A) (A) (A) (A) (A) (A) (A) (A)
                 (A) (A) (A) (A) (A) (A) (A) (A) (A) (A) (A) (A)
                 (A) (A) (A) (A) (A) (A) (A) (A) (A) (A) (A) (A)
                 (A) (A) (A) (A) (A) (A) (A) (A) (A) (A) (A) (A)
                 (A) (A) (A) (A) (A) (A) (A) (A) (A) (A) (A) (A)
                 (A) (A) (A) (A) (A) (A) (A) (A) (A) (A) (A) (A)
                 (A) (A) (A) (A) (A) (A) (A) (A) (A) (A) (A) (A)
                 (A) (A) (A) (A) (A) (A) (A) (A) (A) (A) (A) (A)
                 (A) (A) (A) (A) (A) (A) (A) (A) (A) (A) (A) (A)
                 (A) (A) (A) (A) (A) (A) (A) (A) (A) (A) (A) (A)
                 (A) (A) (A) (A) (A) (A) (A) (A) (A) (A) (A) (A)
                 (A) (A) (A) (A) (A) (A) (A) (A) (A) (A) (A) (A)
                 (A) (A) (A) (A) (A) (A) (A) (A) (A) (A) (A) (A)
                 (A) (A) (A) (A) (A) (A) (A) (A) (A) (A) (A) (A)
                 (A) (A) (A) (A) (A) (A) (A) (A) (A) (A) (A) (A)
                 (A) (A) (A) (A) (A) (A) (A) (A) (A) (A) (A) (A)
                 (A) (A) (A) (A) (A) (A) (A) (A) (A) (A) (A) (A)
                 (A) (A) (A) (A) (A) (A) (A) (A) (A) (A) (A) (A)
                 (A) (A) (A) (A) (A) (A) (A) (A) (A) (A) (A) (A)
                 (A) (A) (A) (A) (A) (A) (A) (A) (A) (A) (A) (A)
                 (A) (A) (A) (A) (A) (A) (A) (A) (A) (A) (A) (A)
                 (A) (A) (A) (A) (A) (A) (A) (A) (A) (A) (A) (A)
                 (A) (A) (A) (A) (A) (A) (A) (A) (A) (A) (A) (A)
                 (A) (A) (A) (A) (A) (A) (A) (A) (A) (A) (A) (A)
                 (A) (A) (A) (A) (A) (A) (A) (A) (A) (A) (A) (A)
                 (A) (A) (A) (A) (A) (A) (A) (A) (A) (A) (A) (A)
                 (A) (A) (A) (A) (A) (A) (A) (A) (A) (A) (A) (A)
                 (A) (A) (A) (A) (A) (A) (A) (A) (A) (A) (A) (A)
                 (A) (A) (A) (A) (A) (A) (A) (A) (A) (A) (A) (A)
                 (A) (A) (A) (A) (A) (A) (A) (A) (A) (A) (A) (A)
                 (A) (A) (A) (A) (A) (A) (A) (A) (A) (A) (A) (A)
                 (A) (A) (A) (A) (A) (A) (A) (A) (A) (A) (A) (A)
                 (A) (A) (A) (A) (A) (A) (A) (A) (A) (A) (A) (A)
                 (A) (A) (A) (A) (A) (A) (A) (A) (A) (A) (A) (A)
                 (A) (A) (A) (A) (A) (A) (A) (A) (A) (A) (A) (A)
                 (A) (A) (A) (A) (A) (A) (A) (A) (A) (A) (A) (A)
                 (A) (A) (A) (A) (A) (A) (A) (A) (A) (A) (A) (A)
                 (A) (A) (A) (A) (A) (A) (A) (A) (A) (A) (A) (A)
                 (A) (A) (A) (A) (A) (A) (A) (A) (A) (A) (A)
 The electronic state of the initial guess is 1-A.
 Requested convergence on RMS density matrix=1.00D-08 within 128 cycles.
 Requested convergence on MAX density matrix=1.00D-06.
 Requested convergence on             energy=1.00D-06.
 No special actions if energy rises.
 SCF Done:  E(RB3LYP) =  -1297.96501497     A.U. after   13 cycles
             Convg  =    0.4459D-08             -V/T =  2.0065
 Range of M.O.s used for correlation:     1   846
 NBasis=   846 NAE=    91 NBE=    91 NFC=     0 NFV=     0
 NROrb=    846 NOA=    91 NOB=    91 NVA=   755 NVB=   755

 **** Warning!!: The largest alpha MO coefficient is  0.74521388D+02

          Differentiating once with respect to electric field.
                with respect to dipole field.
          Electric field/nuclear overlap derivatives assumed to be zero.
          There are     3 degrees of freedom in the 1st order CPHF.  IDoFFX=0.
      3 vectors produced by pass  0 Test12= 2.29D-12 3.33D-08 XBig12= 1.26D+02 9.72D-01.
 AX will form     3 AO Fock derivatives at one time.
      3 vectors produced by pass  1 Test12= 2.29D-12 3.33D-08 XBig12= 2.47D+01 4.19D-01.
      3 vectors produced by pass  2 Test12= 2.29D-12 3.33D-08 XBig12= 1.01D+01 2.34D-01.
      3 vectors produced by pass  3 Test12= 2.29D-12 3.33D-08 XBig12= 1.25D+00 1.09D-01.
      3 vectors produced by pass  4 Test12= 2.29D-12 3.33D-08 XBig12= 3.97D-01 6.34D-02.
      3 vectors produced by pass  5 Test12= 2.29D-12 3.33D-08 XBig12= 6.50D-02 2.36D-02.
      3 vectors produced by pass  6 Test12= 2.29D-12 3.33D-08 XBig12= 2.49D-02 2.11D-02.
      3 vectors produced by pass  7 Test12= 2.29D-12 3.33D-08 XBig12= 3.84D-03 8.44D-03.
      3 vectors produced by pass  8 Test12= 2.29D-12 3.33D-08 XBig12= 6.78D-04 2.87D-03.
      3 vectors produced by pass  9 Test12= 2.29D-12 3.33D-08 XBig12= 1.90D-04 1.32D-03.
      3 vectors produced by pass 10 Test12= 2.29D-12 3.33D-08 XBig12= 4.41D-05 5.27D-04.
      3 vectors produced by pass 11 Test12= 2.29D-12 3.33D-08 XBig12= 1.36D-05 3.42D-04.
      3 vectors produced by pass 12 Test12= 2.29D-12 3.33D-08 XBig12= 1.33D-06 9.88D-05.
      3 vectors produced by pass 13 Test12= 2.29D-12 3.33D-08 XBig12= 4.21D-07 4.66D-05.
      3 vectors produced by pass 14 Test12= 2.29D-12 3.33D-08 XBig12= 4.80D-08 1.73D-05.
      3 vectors produced by pass 15 Test12= 2.29D-12 3.33D-08 XBig12= 6.99D-09 5.80D-06.
      3 vectors produced by pass 16 Test12= 2.29D-12 3.33D-08 XBig12= 1.67D-09 2.82D-06.
      3 vectors produced by pass 17 Test12= 2.29D-12 3.33D-08 XBig12= 1.68D-10 1.25D-06.
      3 vectors produced by pass 18 Test12= 2.29D-12 3.33D-08 XBig12= 3.71D-11 3.61D-07.
      3 vectors produced by pass 19 Test12= 2.29D-12 3.33D-08 XBig12= 3.03D-11 3.49D-07.
      3 vectors produced by pass 20 Test12= 2.29D-12 3.33D-08 XBig12= 1.00D-11 3.10D-07.
      2 vectors produced by pass 21 Test12= 2.29D-12 3.33D-08 XBig12= 2.17D-12 1.10D-07.
      2 vectors produced by pass 22 Test12= 2.29D-12 3.33D-08 XBig12= 9.28D-13 6.61D-08.
 Inverted reduced A of dimension    67 with in-core refinement.
 End of Minotr Frequency-dependent properties file   721 does not exist.
 End of Minotr Frequency-dependent properties file   722 does not exist.
 Symmetrizing basis deriv contribution to polar:
 IMax=3 JMax=2 DiffMx= 0.00D+00
 G2DrvN: will do     8 centers at a time, making    6 passes doing MaxLOS=3.
 Calling FoFCou, ICntrl=  3107 FMM=F I1Cent=   0 AccDes= 0.00D+00.
 Calling FoFCou, ICntrl=  3107 FMM=F I1Cent=   0 AccDes= 0.00D+00.
 Calling FoFCou, ICntrl=  3107 FMM=F I1Cent=   0 AccDes= 0.00D+00.
 Calling FoFCou, ICntrl=  3107 FMM=F I1Cent=   0 AccDes= 0.00D+00.
 Calling FoFCou, ICntrl=  3107 FMM=F I1Cent=   0 AccDes= 0.00D+00.
 Calling FoFCou, ICntrl=  3107 FMM=F I1Cent=   0 AccDes= 0.00D+00.
 FoFDir/FoFCou used for L=0 through L=3.
 End of G2Drv Frequency-dependent properties file   721 does not exist.
 End of G2Drv Frequency-dependent properties file   722 does not exist.
          IDoAtm=111111111111111111111111111111111111111111111
          Differentiating once with respect to electric field.
                with respect to dipole field.
          Differentiating once with respect to nuclear coordinates.
          There are   138 degrees of freedom in the 1st order CPHF.  IDoFFX=5.
 Will reuse    3 saved solutions.
    135 vectors produced by pass  0 Test12= 6.87D-14 1.00D-09 XBig12= 1.70D-01 9.17D-02.
 AX will form    27 AO Fock derivatives at one time.
    135 vectors produced by pass  1 Test12= 6.87D-14 1.00D-09 XBig12= 2.20D-02 1.38D-02.
    132 vectors produced by pass  2 Test12= 6.87D-14 1.00D-09 XBig12= 1.77D-04 1.24D-03.
    132 vectors produced by pass  3 Test12= 6.87D-14 1.00D-09 XBig12= 9.59D-07 8.23D-05.
    132 vectors produced by pass  4 Test12= 6.87D-14 1.00D-09 XBig12= 2.30D-09 2.86D-06.
    132 vectors produced by pass  5 Test12= 6.87D-14 1.00D-09 XBig12= 5.22D-12 1.46D-07.
     95 vectors produced by pass  6 Test12= 6.87D-14 1.00D-09 XBig12= 2.34D-13 3.07D-08.
 Inverted reduced A of dimension   893 with in-core refinement.
 Isotropic polarizability for W=    0.000000      192.52 Bohr**3.
 End of Minotr Frequency-dependent properties file   721 does not exist.
 End of Minotr Frequency-dependent properties file   722 does not exist.

 **********************************************************************

            Population analysis using the SCF density.

 **********************************************************************

 Orbital symmetries:
       Occupied  (A) (A) (A) (A) (A) (A) (A) (A) (A) (A) (A) (A)
                 (A) (A) (A) (A) (A) (A) (A) (A) (A) (A) (A) (A)
                 (A) (A) (A) (A) (A) (A) (A) (A) (A) (A) (A) (A)
                 (A) (A) (A) (A) (A) (A) (A) (A) (A) (A) (A) (A)
                 (A) (A) (A) (A) (A) (A) (A) (A) (A) (A) (A) (A)
                 (A) (A) (A) (A) (A) (A) (A) (A) (A) (A) (A) (A)
                 (A) (A) (A) (A) (A) (A) (A) (A) (A) (A) (A) (A)
                 (A) (A) (A) (A) (A) (A) (A)
       Virtual   (A) (A) (A) (A) (A) (A) (A) (A) (A) (A) (A) (A)
                 (A) (A) (A) (A) (A) (A) (A) (A) (A) (A) (A) (A)
                 (A) (A) (A) (A) (A) (A) (A) (A) (A) (A) (A) (A)
                 (A) (A) (A) (A) (A) (A) (A) (A) (A) (A) (A) (A)
                 (A) (A) (A) (A) (A) (A) (A) (A) (A) (A) (A) (A)
                 (A) (A) (A) (A) (A) (A) (A) (A) (A) (A) (A) (A)
                 (A) (A) (A) (A) (A) (A) (A) (A) (A) (A) (A) (A)
                 (A) (A) (A) (A) (A) (A) (A) (A) (A) (A) (A) (A)
                 (A) (A) (A) (A) (A) (A) (A) (A) (A) (A) (A) (A)
                 (A) (A) (A) (A) (A) (A) (A) (A) (A) (A) (A) (A)
                 (A) (A) (A) (A) (A) (A) (A) (A) (A) (A) (A) (A)
                 (A) (A) (A) (A) (A) (A) (A) (A) (A) (A) (A) (A)
                 (A) (A) (A) (A) (A) (A) (A) (A) (A) (A) (A) (A)
                 (A) (A) (A) (A) (A) (A) (A) (A) (A) (A) (A) (A)
                 (A) (A) (A) (A) (A) (A) (A) (A) (A) (A) (A) (A)
                 (A) (A) (A) (A) (A) (A) (A) (A) (A) (A) (A) (A)
                 (A) (A) (A) (A) (A) (A) (A) (A) (A) (A) (A) (A)
                 (A) (A) (A) (A) (A) (A) (A) (A) (A) (A) (A) (A)
                 (A) (A) (A) (A) (A) (A) (A) (A) (A) (A) (A) (A)
                 (A) (A) (A) (A) (A) (A) (A) (A) (A) (A) (A) (A)
                 (A) (A) (A) (A) (A) (A) (A) (A) (A) (A) (A) (A)
                 (A) (A) (A) (A) (A) (A) (A) (A) (A) (A) (A) (A)
                 (A) (A) (A) (A) (A) (A) (A) (A) (A) (A) (A) (A)
                 (A) (A) (A) (A) (A) (A) (A) (A) (A) (A) (A) (A)
                 (A) (A) (A) (A) (A) (A) (A) (A) (A) (A) (A) (A)
                 (A) (A) (A) (A) (A) (A) (A) (A) (A) (A) (A) (A)
                 (A) (A) (A) (A) (A) (A) (A) (A) (A) (A) (A) (A)
                 (A) (A) (A) (A) (A) (A) (A) (A) (A) (A) (A) (A)
                 (A) (A) (A) (A) (A) (A) (A) (A) (A) (A) (A) (A)
                 (A) (A) (A) (A) (A) (A) (A) (A) (A) (A) (A) (A)
                 (A) (A) (A) (A) (A) (A) (A) (A) (A) (A) (A) (A)
                 (A) (A) (A) (A) (A) (A) (A) (A) (A) (A) (A) (A)
                 (A) (A) (A) (A) (A) (A) (A) (A) (A) (A) (A) (A)
                 (A) (A) (A) (A) (A) (A) (A) (A) (A) (A) (A) (A)
                 (A) (A) (A) (A) (A) (A) (A) (A) (A) (A) (A) (A)
                 (A) (A) (A) (A) (A) (A) (A) (A) (A) (A) (A) (A)
                 (A) (A) (A) (A) (A) (A) (A) (A) (A) (A) (A) (A)
                 (A) (A) (A) (A) (A) (A) (A) (A) (A) (A) (A) (A)
                 (A) (A) (A) (A) (A) (A) (A) (A) (A) (A) (A) (A)
                 (A) (A) (A) (A) (A) (A) (A) (A) (A) (A) (A) (A)
                 (A) (A) (A) (A) (A) (A) (A) (A) (A) (A) (A) (A)
                 (A) (A) (A) (A) (A) (A) (A) (A) (A) (A) (A) (A)
                 (A) (A) (A) (A) (A) (A) (A) (A) (A) (A) (A) (A)
                 (A) (A) (A) (A) (A) (A) (A) (A) (A) (A) (A) (A)
                 (A) (A) (A) (A) (A) (A) (A) (A) (A) (A) (A) (A)
                 (A) (A) (A) (A) (A) (A) (A) (A) (A) (A) (A) (A)
                 (A) (A) (A) (A) (A) (A) (A) (A) (A) (A) (A) (A)
                 (A) (A) (A) (A) (A) (A) (A) (A) (A) (A) (A) (A)
                 (A) (A) (A) (A) (A) (A) (A) (A) (A) (A) (A) (A)
                 (A) (A) (A) (A) (A) (A) (A) (A) (A) (A) (A) (A)
                 (A) (A) (A) (A) (A) (A) (A) (A) (A) (A) (A) (A)
                 (A) (A) (A) (A) (A) (A) (A) (A) (A) (A) (A) (A)
                 (A) (A) (A) (A) (A) (A) (A) (A) (A) (A) (A) (A)
                 (A) (A) (A) (A) (A) (A) (A) (A) (A) (A) (A) (A)
                 (A) (A) (A) (A) (A) (A) (A) (A) (A) (A) (A) (A)
                 (A) (A) (A) (A) (A) (A) (A) (A) (A) (A) (A) (A)
                 (A) (A) (A) (A) (A) (A) (A) (A) (A) (A) (A) (A)
                 (A) (A) (A) (A) (A) (A) (A) (A) (A) (A) (A) (A)
                 (A) (A) (A) (A) (A) (A) (A) (A) (A) (A) (A) (A)
                 (A) (A) (A) (A) (A) (A) (A) (A) (A) (A) (A) (A)
                 (A) (A) (A) (A) (A) (A) (A) (A) (A) (A) (A) (A)
                 (A) (A) (A) (A) (A) (A) (A) (A) (A) (A) (A) (A)
                 (A) (A) (A) (A) (A) (A) (A) (A) (A) (A) (A)
 The electronic state is 1-A.
 Alpha  occ. eigenvalues --  -19.19769 -19.19356 -19.18476 -19.18425 -19.18376
 Alpha  occ. eigenvalues --  -19.17772 -19.16025 -19.15878 -19.14258 -19.13752
 Alpha  occ. eigenvalues --  -19.13498 -10.31267 -10.31027 -10.26428 -10.25968
 Alpha  occ. eigenvalues --  -10.25923 -10.25580 -10.25502 -10.25196 -10.24534
 Alpha  occ. eigenvalues --  -10.24425 -10.23676 -10.23597  -1.11410  -1.09222
 Alpha  occ. eigenvalues --   -1.06044  -1.05291  -1.04496  -1.03455  -1.02410
 Alpha  occ. eigenvalues --   -1.02165  -1.01645  -1.00541  -0.99794  -0.83037
 Alpha  occ. eigenvalues --   -0.81333  -0.79790  -0.78243  -0.72119  -0.70418
 Alpha  occ. eigenvalues --   -0.67599  -0.65169  -0.63323  -0.62408  -0.62207
 Alpha  occ. eigenvalues --   -0.61026  -0.56680  -0.56066  -0.55609  -0.55111
 Alpha  occ. eigenvalues --   -0.54209  -0.54013  -0.52724  -0.51580  -0.51233
 Alpha  occ. eigenvalues --   -0.50679  -0.50500  -0.49384  -0.48824  -0.47002
 Alpha  occ. eigenvalues --   -0.46416  -0.45452  -0.44186  -0.44051  -0.43778
 Alpha  occ. eigenvalues --   -0.42367  -0.42203  -0.41092  -0.40977  -0.39141
 Alpha  occ. eigenvalues --   -0.38719  -0.37915  -0.37383  -0.36475  -0.36076
 Alpha  occ. eigenvalues --   -0.35233  -0.34543  -0.34403  -0.34112  -0.33493
 Alpha  occ. eigenvalues --   -0.33173  -0.31747  -0.30952  -0.30416  -0.30123
 Alpha  occ. eigenvalues --   -0.29456  -0.28137  -0.27743  -0.27434  -0.26634
 Alpha  occ. eigenvalues --   -0.26374
 Alpha virt. eigenvalues --   -0.02210  -0.02072  -0.01940  -0.00533  -0.00050
 Alpha virt. eigenvalues --    0.00631   0.01934   0.02093   0.03036   0.03379
 Alpha virt. eigenvalues --    0.03940   0.04227   0.04764   0.05090   0.05584
 Alpha virt. eigenvalues --    0.05844   0.06710   0.07409   0.07808   0.07909
 Alpha virt. eigenvalues --    0.08434   0.08552   0.08992   0.09615   0.09819
 Alpha virt. eigenvalues --    0.10535   0.11161   0.11273   0.11495   0.11690
 Alpha virt. eigenvalues --    0.12328   0.12669   0.12904   0.13288   0.13706
 Alpha virt. eigenvalues --    0.13884   0.14044   0.14336   0.15048   0.15113
 Alpha virt. eigenvalues --    0.15627   0.16502   0.16594   0.16858   0.16956
 Alpha virt. eigenvalues --    0.17057   0.17217   0.17699   0.17739   0.18276
 Alpha virt. eigenvalues --    0.18526   0.19009   0.19117   0.19886   0.20273
 Alpha virt. eigenvalues --    0.20416   0.20698   0.20975   0.21086   0.21590
 Alpha virt. eigenvalues --    0.21829   0.22275   0.22414   0.22555   0.22979
 Alpha virt. eigenvalues --    0.23315   0.23602   0.24241   0.24729   0.24739
 Alpha virt. eigenvalues --    0.24914   0.25126   0.25353   0.25649   0.26049
 Alpha virt. eigenvalues --    0.26312   0.26463   0.26614   0.26869   0.27029
 Alpha virt. eigenvalues --    0.27334   0.27767   0.28093   0.28399   0.28709
 Alpha virt. eigenvalues --    0.28913   0.29325   0.29773   0.29838   0.30421
 Alpha virt. eigenvalues --    0.30960   0.31100   0.31548   0.32124   0.32218
 Alpha virt. eigenvalues --    0.32764   0.32967   0.33420   0.33560   0.33866
 Alpha virt. eigenvalues --    0.34260   0.35049   0.35189   0.35490   0.35782
 Alpha virt. eigenvalues --    0.36106   0.36296   0.36764   0.36889   0.37347
 Alpha virt. eigenvalues --    0.38133   0.38332   0.38550   0.38607   0.39377
 Alpha virt. eigenvalues --    0.39925   0.40330   0.40463   0.40740   0.41202
 Alpha virt. eigenvalues --    0.41389   0.41644   0.43077   0.43417   0.44020
 Alpha virt. eigenvalues --    0.44537   0.44987   0.46366   0.46624   0.46731
 Alpha virt. eigenvalues --    0.47502   0.47938   0.48606   0.48997   0.49990
 Alpha virt. eigenvalues --    0.50287   0.51314   0.52453   0.56659   0.57930
 Alpha virt. eigenvalues --    0.58093   0.58926   0.59927   0.60283   0.61261
 Alpha virt. eigenvalues --    0.62890   0.63057   0.63773   0.65516   0.65968
 Alpha virt. eigenvalues --    0.66538   0.67624   0.67851   0.68779   0.69404
 Alpha virt. eigenvalues --    0.70043   0.70471   0.71407   0.72517   0.73215
 Alpha virt. eigenvalues --    0.73932   0.75285   0.76106   0.76798   0.77138
 Alpha virt. eigenvalues --    0.77570   0.77994   0.78695   0.79940   0.81475
 Alpha virt. eigenvalues --    0.81916   0.82515   0.83477   0.84754   0.85162
 Alpha virt. eigenvalues --    0.86121   0.87281   0.87491   0.88237   0.88423
 Alpha virt. eigenvalues --    0.89020   0.89281   0.90271   0.90532   0.91047
 Alpha virt. eigenvalues --    0.91249   0.91770   0.91965   0.92201   0.92875
 Alpha virt. eigenvalues --    0.93526   0.93985   0.94860   0.95107   0.95468
 Alpha virt. eigenvalues --    0.95630   0.96516   0.97793   0.97939   0.98927
 Alpha virt. eigenvalues --    0.99145   1.00020   1.00587   1.01777   1.02565
 Alpha virt. eigenvalues --    1.03045   1.03382   1.03706   1.05029   1.05572
 Alpha virt. eigenvalues --    1.05686   1.06315   1.06994   1.07548   1.07987
 Alpha virt. eigenvalues --    1.08632   1.08921   1.09332   1.09636   1.10530
 Alpha virt. eigenvalues --    1.10914   1.11009   1.11812   1.12873   1.13143
 Alpha virt. eigenvalues --    1.13781   1.14256   1.15182   1.15706   1.16403
 Alpha virt. eigenvalues --    1.16652   1.17054   1.17513   1.18202   1.18497
 Alpha virt. eigenvalues --    1.19259   1.20136   1.20203   1.20664   1.21711
 Alpha virt. eigenvalues --    1.22336   1.22669   1.23181   1.24155   1.24511
 Alpha virt. eigenvalues --    1.25032   1.25429   1.25828   1.26837   1.27325
 Alpha virt. eigenvalues --    1.27806   1.28891   1.29142   1.29479   1.29845
 Alpha virt. eigenvalues --    1.30743   1.31505   1.31847   1.32996   1.33559
 Alpha virt. eigenvalues --    1.33711   1.34582   1.35456   1.35911   1.37227
 Alpha virt. eigenvalues --    1.37610   1.38026   1.38748   1.39145   1.40068
 Alpha virt. eigenvalues --    1.40634   1.41092   1.41317   1.42063   1.43963
 Alpha virt. eigenvalues --    1.44532   1.45884   1.45954   1.46619   1.47334
 Alpha virt. eigenvalues --    1.47750   1.48178   1.49060   1.49646   1.50499
 Alpha virt. eigenvalues --    1.52017   1.52800   1.52943   1.53585   1.54013
 Alpha virt. eigenvalues --    1.56510   1.56649   1.57820   1.58027   1.58416
 Alpha virt. eigenvalues --    1.59598   1.60502   1.62164   1.63210   1.63435
 Alpha virt. eigenvalues --    1.64048   1.64737   1.65585   1.67022   1.67224
 Alpha virt. eigenvalues --    1.68667   1.68809   1.70818   1.70992   1.72337
 Alpha virt. eigenvalues --    1.72667   1.73936   1.74637   1.75312   1.76180
 Alpha virt. eigenvalues --    1.77211   1.78168   1.80163   1.81460   1.81698
 Alpha virt. eigenvalues --    1.83459   1.84089   1.84653   1.85469   1.86245
 Alpha virt. eigenvalues --    1.86992   1.87830   1.89178   1.90222   1.90609
 Alpha virt. eigenvalues --    1.91211   1.91488   1.92690   1.93259   1.95048
 Alpha virt. eigenvalues --    1.95654   1.96579   1.97090   1.97837   2.01468
 Alpha virt. eigenvalues --    2.02449   2.02977   2.03611   2.03998   2.05433
 Alpha virt. eigenvalues --    2.07186   2.07476   2.08755   2.10839   2.12512
 Alpha virt. eigenvalues --    2.13563   2.14742   2.16659   2.20068   2.20457
 Alpha virt. eigenvalues --    2.21978   2.22710   2.23950   2.25170   2.26214
 Alpha virt. eigenvalues --    2.28643   2.29728   2.30182   2.30242   2.32673
 Alpha virt. eigenvalues --    2.34125   2.36336   2.40343   2.40875   2.42062
 Alpha virt. eigenvalues --    2.43476   2.44079   2.44881   2.47700   2.48168
 Alpha virt. eigenvalues --    2.51125   2.51818   2.52124   2.53434   2.54554
 Alpha virt. eigenvalues --    2.55221   2.55508   2.56912   2.58742   2.59942
 Alpha virt. eigenvalues --    2.61074   2.62392   2.62766   2.65973   2.66541
 Alpha virt. eigenvalues --    2.67805   2.68216   2.69566   2.70212   2.71613
 Alpha virt. eigenvalues --    2.72663   2.74199   2.74912   2.75936   2.77237
 Alpha virt. eigenvalues --    2.78712   2.80638   2.81556   2.82828   2.83937
 Alpha virt. eigenvalues --    2.84526   2.85223   2.86282   2.86952   2.89346
 Alpha virt. eigenvalues --    2.89467   2.89946   2.90712   2.92108   2.92714
 Alpha virt. eigenvalues --    2.94792   2.95075   2.96014   2.96389   2.96877
 Alpha virt. eigenvalues --    2.98795   2.99486   3.01360   3.02717   3.03984
 Alpha virt. eigenvalues --    3.04643   3.05427   3.05930   3.06092   3.06827
 Alpha virt. eigenvalues --    3.07596   3.07857   3.08662   3.10096   3.11641
 Alpha virt. eigenvalues --    3.12272   3.12534   3.13976   3.15639   3.16891
 Alpha virt. eigenvalues --    3.18623   3.20135   3.21145   3.22598   3.24118
 Alpha virt. eigenvalues --    3.24623   3.24831   3.25807   3.26477   3.27849
 Alpha virt. eigenvalues --    3.28306   3.30323   3.31767   3.31830   3.33381
 Alpha virt. eigenvalues --    3.33843   3.34419   3.35554   3.37963   3.38759
 Alpha virt. eigenvalues --    3.39881   3.41458   3.42721   3.44122   3.44733
 Alpha virt. eigenvalues --    3.45656   3.48426   3.49306   3.51318   3.52584
 Alpha virt. eigenvalues --    3.53909   3.55447   3.58258   3.58817   3.60452
 Alpha virt. eigenvalues --    3.62384   3.63299   3.64570   3.65143   3.67404
 Alpha virt. eigenvalues --    3.68334   3.70138   3.71444   3.72445   3.73903
 Alpha virt. eigenvalues --    3.75950   3.77435   3.78663   3.79955   3.80620
 Alpha virt. eigenvalues --    3.81878   3.83441   3.84310   3.85699   3.86432
 Alpha virt. eigenvalues --    3.87258   3.88374   3.90413   3.91679   3.92110
 Alpha virt. eigenvalues --    3.96235   3.96722   3.99271   4.00525   4.02658
 Alpha virt. eigenvalues --    4.05017   4.05759   4.08757   4.09458   4.13741
 Alpha virt. eigenvalues --    4.14547   4.15655   4.17944   4.18505   4.19303
 Alpha virt. eigenvalues --    4.19952   4.22094   4.22851   4.23733   4.24618
 Alpha virt. eigenvalues --    4.26513   4.26547   4.27733   4.27959   4.29127
 Alpha virt. eigenvalues --    4.29705   4.30452   4.31925   4.32712   4.34676
 Alpha virt. eigenvalues --    4.34796   4.35844   4.36826   4.37953   4.39456
 Alpha virt. eigenvalues --    4.40055   4.40938   4.41511   4.42492   4.43223
 Alpha virt. eigenvalues --    4.43674   4.44216   4.45666   4.46341   4.47138
 Alpha virt. eigenvalues --    4.47744   4.48717   4.49396   4.50073   4.50498
 Alpha virt. eigenvalues --    4.51362   4.52210   4.54046   4.54566   4.54924
 Alpha virt. eigenvalues --    4.55221   4.56574   4.56667   4.57736   4.58203
 Alpha virt. eigenvalues --    4.58867   4.59405   4.60141   4.60406   4.61939
 Alpha virt. eigenvalues --    4.62606   4.63113   4.64327   4.64668   4.65443
 Alpha virt. eigenvalues --    4.66398   4.66846   4.67206   4.67649   4.67939
 Alpha virt. eigenvalues --    4.69528   4.69972   4.70473   4.71018   4.71944
 Alpha virt. eigenvalues --    4.72863   4.73250   4.73560   4.74061   4.75491
 Alpha virt. eigenvalues --    4.76309   4.77461   4.77777   4.78514   4.79356
 Alpha virt. eigenvalues --    4.79874   4.80636   4.80981   4.81667   4.81997
 Alpha virt. eigenvalues --    4.82899   4.83788   4.84780   4.85237   4.85920
 Alpha virt. eigenvalues --    4.87154   4.87560   4.88465   4.90067   4.91942
 Alpha virt. eigenvalues --    4.92412   4.93093   4.93185   4.94029   4.95162
 Alpha virt. eigenvalues --    4.96973   4.98965   4.99803   5.00636   5.01729
 Alpha virt. eigenvalues --    5.02942   5.05165   5.06850   5.08358   5.09033
 Alpha virt. eigenvalues --    5.12516   5.14348   5.14973   5.16518   5.17831
 Alpha virt. eigenvalues --    5.18783   5.19796   5.21231   5.21781   5.22087
 Alpha virt. eigenvalues --    5.22548   5.23587   5.24803   5.25639   5.27333
 Alpha virt. eigenvalues --    5.29120   5.29631   5.31977   5.32949   5.33915
 Alpha virt. eigenvalues --    5.34510   5.35844   5.37882   5.39065   5.39550
 Alpha virt. eigenvalues --    5.40664   5.41021   5.41512   5.42293   5.44007
 Alpha virt. eigenvalues --    5.45118   5.45526   5.46194   5.47204   5.47554
 Alpha virt. eigenvalues --    5.48299   5.49512   5.50195   5.50641   5.51928
 Alpha virt. eigenvalues --    5.53749   5.55146   5.55961   5.58917   5.60287
 Alpha virt. eigenvalues --    5.60593   5.62890   5.64381   5.65587   5.67033
 Alpha virt. eigenvalues --    5.68678   5.70397   5.71823   5.73410   5.76392
 Alpha virt. eigenvalues --    5.77010   5.78388   5.79581   5.81961   5.82646
 Alpha virt. eigenvalues --    5.84898   5.86232   5.88652   5.89579   5.91135
 Alpha virt. eigenvalues --    5.92789   5.92941   5.93567   5.94423   5.94884
 Alpha virt. eigenvalues --    5.95727   5.96213   5.96591   5.97402   5.98555
 Alpha virt. eigenvalues --    5.99759   5.99969   6.02822   6.03890   6.04407
 Alpha virt. eigenvalues --    6.06045   6.07584   6.09767   6.10132   6.11994
 Alpha virt. eigenvalues --    6.13171   6.16156   6.16917   6.21088   6.24734
 Alpha virt. eigenvalues --    6.25873   6.27354   6.28031   6.34894   6.41349
 Alpha virt. eigenvalues --    6.52983   6.66654   7.04161   7.07207   7.09528
 Alpha virt. eigenvalues --    7.13098   7.17327   7.23588   7.24446   7.29828
 Alpha virt. eigenvalues --    7.31470   7.37439   7.52066   7.66763   7.78495
 Alpha virt. eigenvalues --    7.96858   8.22991  12.01956  12.10718  12.26035
 Alpha virt. eigenvalues --   12.28245  12.44332  12.53493  12.81640  12.92654
 Alpha virt. eigenvalues --   13.08241  13.17406  13.30594  13.32909  13.37828
 Alpha virt. eigenvalues --   13.44203  13.51501  13.55119  13.57756  13.62916
 Alpha virt. eigenvalues --   13.68466  13.83279  13.89275  14.16336  14.31408
          Condensed to atoms (all electrons):
              1          2          3          4          5          6
     1  O    8.081493   0.183260  -0.043148  -0.030751   0.022974   0.069057
     2  C    0.183260   8.175762   0.076084   0.041255  -0.052086  -1.764076
     3  C   -0.043148   0.076084   6.776264   0.217638  -0.020668  -0.301332
     4  O   -0.030751   0.041255   0.217638   8.156127   0.240653  -0.161526
     5  H    0.022974  -0.052086  -0.020668   0.240653   0.416615   0.016558
     6  C    0.069057  -1.764076  -0.301332  -0.161526   0.016558  10.141504
     7  O   -0.000740   0.040801  -0.110664   0.012695  -0.000406   0.226676
     8  H    0.000015  -0.006467  -0.002113  -0.000039   0.000009   0.022661
     9  C    0.022346  -0.863106  -0.230227   0.008632  -0.001893   0.580263
    10  O   -0.007540   0.004063  -0.009093  -0.000016  -0.000002   0.009690
    11  H    0.000380  -0.005992   0.001224  -0.000002   0.000000  -0.000352
    12  C   -0.071480  -1.242255  -0.212382   0.003608   0.018619   1.046866
    13  O    0.002467   0.001483  -0.033342  -0.002181  -0.000137  -0.067856
    14  C   -0.049352   1.122993   0.012684   0.022163   0.010024  -3.295330
    15  O    0.000035  -0.025561  -0.003922   0.001052   0.000002   0.025835
    16  C    0.001174   0.127752  -0.137711   0.000352   0.000627  -0.405253
    17  C   -0.000163  -0.018876   0.029045   0.000609   0.000025  -0.045126
    18  O   -0.000015   0.002361  -0.000677  -0.000004   0.000000   0.008650
    19  H    0.000005  -0.002267   0.004511   0.000006   0.000000   0.000375
    20  C    0.000045  -0.001950  -0.007498  -0.000081   0.000002   0.119009
    21  O    0.000000  -0.000003  -0.000034   0.000000   0.000000  -0.000460
    22  H    0.000000   0.000002   0.000001   0.000000   0.000000  -0.000035
    23  C    0.000032   0.011592  -0.008600  -0.000359  -0.000002  -0.101198
    24  O    0.000000  -0.000159  -0.012144  -0.000003  -0.000001  -0.021116
    25  H    0.000000   0.000147   0.001931   0.000002   0.000000  -0.000454
    26  C   -0.000023   0.013118  -0.025725   0.000615   0.000006  -0.161489
    27  O    0.000000   0.000040   0.000263   0.000000   0.000000   0.001923
    28  C    0.000001   0.002739  -0.001094   0.000015   0.000000  -0.026865
    29  O    0.000000   0.000009   0.000015   0.000000   0.000000  -0.000296
    30  H    0.000000   0.000000   0.000000   0.000000   0.000000   0.000007
    31  H    0.000000   0.000007   0.000002   0.000000   0.000000  -0.000117
    32  H    0.000000   0.000225  -0.000051   0.000000   0.000000   0.001284
    33  H    0.000000  -0.000254   0.000298   0.000000   0.000000   0.009405
    34  H   -0.000001  -0.001935   0.003610   0.000001   0.000000   0.019194
    35  H    0.000000  -0.000043   0.000675   0.000000   0.000000  -0.004406
    36  H    0.000000  -0.000028  -0.000056   0.000000   0.000000   0.001472
    37  H    0.000000   0.000283   0.000843   0.000000   0.000000  -0.010067
    38  H    0.266144   0.066510  -0.054442   0.002507  -0.002926  -0.000723
    39  H    0.000124  -0.001571  -0.007212   0.000034   0.000000   0.004449
    40  H    0.001678  -0.048726  -0.003758   0.000023  -0.000001   0.012588
    41  H    0.003364   0.060091  -0.094252   0.002937  -0.000004  -0.049354
    42  H   -0.014882   0.368182  -0.043449   0.002330   0.000282  -0.055885
    43  H   -0.004652   0.002983   0.331875  -0.022071   0.001308  -0.295334
    44  H   -0.000276   0.007315  -0.061527   0.004000  -0.000136   0.307303
    45  H    0.000121  -0.014328  -0.025363  -0.000353   0.000000   0.057555
              7          8          9         10         11         12
     1  O   -0.000740   0.000015   0.022346  -0.007540   0.000380  -0.071480
     2  C    0.040801  -0.006467  -0.863106   0.004063  -0.005992  -1.242255
     3  C   -0.110664  -0.002113  -0.230227  -0.009093   0.001224  -0.212382
     4  O    0.012695  -0.000039   0.008632  -0.000016  -0.000002   0.003608
     5  H   -0.000406   0.000009  -0.001893  -0.000002   0.000000   0.018619
     6  C    0.226676   0.022661   0.580263   0.009690  -0.000352   1.046866
     7  O    8.122135   0.246855   0.002050   0.000005   0.000000  -0.010387
     8  H    0.246855   0.340712   0.000290   0.000000   0.000000   0.003164
     9  C    0.002050   0.000290   9.119734   0.193422  -0.053781  -1.593659
    10  O    0.000005   0.000000   0.193422   8.102821   0.246849  -0.012423
    11  H    0.000000   0.000000  -0.053781   0.246849   0.429741   0.049069
    12  C   -0.010387   0.003164  -1.593659  -0.012423   0.049069  10.144759
    13  O    0.002283  -0.000277  -0.049601   0.002000  -0.000552   0.116702
    14  C   -0.044617  -0.048514  -1.559745  -0.004844  -0.001164  -1.991245
    15  O    0.000480   0.011026   0.016420   0.000146   0.000001  -0.013398
    16  C    0.052365   0.014533  -0.223030  -0.001028  -0.000062  -0.209498
    17  C   -0.001982  -0.002188  -0.036939  -0.000707  -0.000058  -0.119969
    18  O    0.000022  -0.000057   0.013497  -0.000182  -0.000001  -0.014000
    19  H    0.000045  -0.000011  -0.002374   0.000016   0.000000  -0.014050
    20  C    0.002326   0.000990   0.012217   0.000192   0.000017  -0.032555
    21  O   -0.000005   0.000000   0.000622  -0.000001   0.000000  -0.000220
    22  H    0.000000   0.000000  -0.000024   0.000000   0.000000   0.000032
    23  C    0.024132   0.008975  -0.005409  -0.000006   0.000000  -0.021592
    24  O   -0.052422   0.014484  -0.000261   0.000000   0.000000   0.002639
    25  H    0.002873  -0.002938  -0.000021   0.000000   0.000000  -0.000605
    26  C   -0.028527  -0.017262  -0.018054  -0.000103  -0.000006   0.004070
    27  O    0.000034  -0.000104  -0.000105   0.000000   0.000000   0.000090
    28  C   -0.000589  -0.000071  -0.003830  -0.000002   0.000000   0.009450
    29  O   -0.000001   0.000000  -0.000039   0.000000   0.000000   0.000078
    30  H    0.000000   0.000000   0.000000   0.000000   0.000000  -0.000001
    31  H    0.000000   0.000000  -0.000002   0.000000   0.000000   0.000092
    32  H    0.000002   0.000000  -0.000276   0.000000   0.000000   0.000908
    33  H    0.000003  -0.000002  -0.000007   0.000000   0.000000  -0.002161
    34  H   -0.001238  -0.000222  -0.000112   0.000001   0.000000  -0.001440
    35  H   -0.000102  -0.000011   0.000074   0.000000   0.000000   0.000844
    36  H   -0.000684   0.000340   0.000004   0.000000   0.000000   0.000195
    37  H    0.002200  -0.000762  -0.000076   0.000000   0.000000  -0.001211
    38  H    0.000017   0.000000   0.008883  -0.000434  -0.000007  -0.025396
    39  H   -0.000005   0.000000   0.463588  -0.024659  -0.010111  -0.069474
    40  H    0.000001   0.000000   0.593526  -0.054775  -0.001384  -0.211536
    41  H    0.000017   0.000016   0.017279  -0.002424  -0.000124   0.053222
    42  H    0.000209   0.000001  -0.097777  -0.001046   0.000001  -0.062588
    43  H    0.008139  -0.000347   0.000973  -0.000716   0.000000  -0.004029
    44  H   -0.019862  -0.002378   0.017788  -0.000002   0.000000   0.084085
    45  H    0.001144  -0.000192   0.039109   0.000051   0.000001   0.101776
             13         14         15         16         17         18
     1  O    0.002467  -0.049352   0.000035   0.001174  -0.000163  -0.000015
     2  C    0.001483   1.122993  -0.025561   0.127752  -0.018876   0.002361
     3  C   -0.033342   0.012684  -0.003922  -0.137711   0.029045  -0.000677
     4  O   -0.002181   0.022163   0.001052   0.000352   0.000609  -0.000004
     5  H   -0.000137   0.010024   0.000002   0.000627   0.000025   0.000000
     6  C   -0.067856  -3.295330   0.025835  -0.405253  -0.045126   0.008650
     7  O    0.002283  -0.044617   0.000480   0.052365  -0.001982   0.000022
     8  H   -0.000277  -0.048514   0.011026   0.014533  -0.002188  -0.000057
     9  C   -0.049601  -1.559745   0.016420  -0.223030  -0.036939   0.013497
    10  O    0.002000  -0.004844   0.000146  -0.001028  -0.000707  -0.000182
    11  H   -0.000552  -0.001164   0.000001  -0.000062  -0.000058  -0.000001
    12  C    0.116702  -1.991245  -0.013398  -0.209498  -0.119969  -0.014000
    13  O    7.917655   0.282132  -0.016727   0.012967  -0.017686   0.010234
    14  C    0.282132  12.257673   0.144872  -0.744049   0.080948   0.003892
    15  O   -0.016727   0.144872   7.849019   0.221250   0.002898  -0.016303
    16  C    0.012967  -0.744049   0.221250  11.689029  -2.515046   0.022498
    17  C   -0.017686   0.080948   0.002898  -2.515046   9.181651   0.222208
    18  O    0.010234   0.003892  -0.016303   0.022498   0.222208   8.112136
    19  H   -0.008794   0.005297   0.028022  -0.077203   0.022133   0.231074
    20  C   -0.010270  -0.184329  -0.001345  -0.661876  -0.432394  -0.086223
    21  O    0.000062   0.005912   0.000034   0.046665  -0.185917   0.011781
    22  H    0.000001  -0.000972   0.000001  -0.012704   0.033532  -0.000566
    23  C    0.006153   0.073494  -0.004488   0.789045  -0.625950   0.016446
    24  O   -0.001163   0.101203  -0.040672  -0.028543   0.002326  -0.000245
    25  H    0.000012  -0.010416   0.003528  -0.008554  -0.000085   0.000001
    26  C   -0.021504  -0.562480  -0.117668  -2.804764   0.534997  -0.019051
    27  O    0.000179   0.020838   0.003265   0.098089   0.001190  -0.001532
    28  C    0.003496  -0.038487   0.010881   0.712105  -0.238208  -0.006671
    29  O    0.000018  -0.000806  -0.000121  -0.038435   0.015883  -0.000041
    30  H    0.000000   0.000078   0.000000   0.002855   0.001994   0.000009
    31  H    0.000019   0.000817   0.000447   0.044591  -0.031767   0.000676
    32  H    0.000234  -0.014685   0.001632   0.117039  -0.298374   0.008290
    33  H   -0.000917  -0.010216  -0.003376  -0.050710   0.132005  -0.018362
    34  H   -0.002827  -0.047204  -0.019780   0.103459   0.043258   0.000400
    35  H   -0.000231   0.041902   0.000616   0.034269  -0.023553   0.001199
    36  H    0.000018   0.012549   0.000361   0.018529   0.005892   0.000012
    37  H    0.000040  -0.004801   0.004035   0.096649  -0.010223   0.000081
    38  H   -0.000607  -0.000377   0.000002   0.000133  -0.000027   0.000000
    39  H   -0.003423  -0.028480  -0.000198   0.001423  -0.000009  -0.000019
    40  H   -0.003418   0.012692   0.000046  -0.001898   0.000052   0.000032
    41  H   -0.036952   0.254521   0.002311   0.011849   0.004729  -0.000578
    42  H    0.002543   0.160410  -0.000539   0.000976   0.000853   0.000030
    43  H    0.006683   0.180068   0.001014  -0.001809   0.002121   0.000105
    44  H    0.004786  -0.045971  -0.008504  -0.026886  -0.002465   0.000208
    45  H   -0.031386   0.179847  -0.018301  -0.037955   0.004549  -0.001852
             19         20         21         22         23         24
     1  O    0.000005   0.000045   0.000000   0.000000   0.000032   0.000000
     2  C   -0.002267  -0.001950  -0.000003   0.000002   0.011592  -0.000159
     3  C    0.004511  -0.007498  -0.000034   0.000001  -0.008600  -0.012144
     4  O    0.000006  -0.000081   0.000000   0.000000  -0.000359  -0.000003
     5  H    0.000000   0.000002   0.000000   0.000000  -0.000002  -0.000001
     6  C    0.000375   0.119009  -0.000460  -0.000035  -0.101198  -0.021116
     7  O    0.000045   0.002326  -0.000005   0.000000   0.024132  -0.052422
     8  H   -0.000011   0.000990   0.000000   0.000000   0.008975   0.014484
     9  C   -0.002374   0.012217   0.000622  -0.000024  -0.005409  -0.000261
    10  O    0.000016   0.000192  -0.000001   0.000000  -0.000006   0.000000
    11  H    0.000000   0.000017   0.000000   0.000000   0.000000   0.000000
    12  C   -0.014050  -0.032555  -0.000220   0.000032  -0.021592   0.002639
    13  O   -0.008794  -0.010270   0.000062   0.000001   0.006153  -0.001163
    14  C    0.005297  -0.184329   0.005912  -0.000972   0.073494   0.101203
    15  O    0.028022  -0.001345   0.000034   0.000001  -0.004488  -0.040672
    16  C   -0.077203  -0.661876   0.046665  -0.012704   0.789045  -0.028543
    17  C    0.022133  -0.432394  -0.185917   0.033532  -0.625950   0.002326
    18  O    0.231074  -0.086223   0.011781  -0.000566   0.016446  -0.000245
    19  H    0.361785   0.015630  -0.000688   0.000008  -0.004833   0.000104
    20  C    0.015630   7.424303   0.289442  -0.047267   0.048308  -0.003523
    21  O   -0.000688   0.289442   8.103328   0.249331   0.001234   0.000001
    22  H    0.000008  -0.047267   0.249331   0.401342  -0.000088   0.000000
    23  C   -0.004833   0.048308   0.001234  -0.000088   6.733096   0.038697
    24  O    0.000104  -0.003523   0.000001   0.000000   0.038697   8.261766
    25  H    0.000000   0.000644   0.000000   0.000000  -0.033754   0.255855
    26  C    0.012210   0.403221  -0.009303   0.005785  -1.455635   0.076331
    27  O    0.000070  -0.103234   0.001447   0.000149  -0.091859   0.002753
    28  C   -0.002003  -0.980248   0.012198   0.003883  -0.065532   0.003058
    29  O   -0.000001  -0.033354  -0.000339   0.010163   0.006329  -0.000017
    30  H    0.000000  -0.013472  -0.000445  -0.001442  -0.000277  -0.000001
    31  H   -0.000003  -0.137822   0.002558   0.000139   0.003555   0.000026
    32  H   -0.000238   0.356156  -0.037331  -0.000895   0.013436   0.000017
    33  H   -0.001630   0.094184  -0.003315  -0.000169   0.022867  -0.000118
    34  H    0.000392   0.049968  -0.000638   0.000002  -0.046210   0.001247
    35  H    0.000047  -0.044512   0.000210   0.000003   0.080329   0.000336
    36  H    0.000001  -0.000860  -0.000008   0.000000   0.375030  -0.019628
    37  H   -0.000001  -0.001853   0.000005   0.000000   0.628243  -0.067645
    38  H    0.000000   0.000000   0.000000   0.000000   0.000001   0.000000
    39  H    0.000398  -0.001032   0.000003   0.000000  -0.000053   0.000000
    40  H   -0.000004   0.000281   0.000000   0.000000   0.000013   0.000000
    41  H    0.000267   0.000856  -0.000001   0.000000   0.000308  -0.000001
    42  H   -0.000012  -0.000016   0.000000   0.000000   0.000074   0.000007
    43  H   -0.000009  -0.000165   0.000000   0.000000   0.000257   0.000063
    44  H   -0.000071  -0.000063   0.000000   0.000000   0.003450  -0.000065
    45  H   -0.000411   0.005919   0.000013   0.000000  -0.003031  -0.000040
             25         26         27         28         29         30
     1  O    0.000000  -0.000023   0.000000   0.000001   0.000000   0.000000
     2  C    0.000147   0.013118   0.000040   0.002739   0.000009   0.000000
     3  C    0.001931  -0.025725   0.000263  -0.001094   0.000015   0.000000
     4  O    0.000002   0.000615   0.000000   0.000015   0.000000   0.000000
     5  H    0.000000   0.000006   0.000000   0.000000   0.000000   0.000000
     6  C   -0.000454  -0.161489   0.001923  -0.026865  -0.000296   0.000007
     7  O    0.002873  -0.028527   0.000034  -0.000589  -0.000001   0.000000
     8  H   -0.002938  -0.017262  -0.000104  -0.000071   0.000000   0.000000
     9  C   -0.000021  -0.018054  -0.000105  -0.003830  -0.000039   0.000000
    10  O    0.000000  -0.000103   0.000000  -0.000002   0.000000   0.000000
    11  H    0.000000  -0.000006   0.000000   0.000000   0.000000   0.000000
    12  C   -0.000605   0.004070   0.000090   0.009450   0.000078  -0.000001
    13  O    0.000012  -0.021504   0.000179   0.003496   0.000018   0.000000
    14  C   -0.010416  -0.562480   0.020838  -0.038487  -0.000806   0.000078
    15  O    0.003528  -0.117668   0.003265   0.010881  -0.000121   0.000000
    16  C   -0.008554  -2.804764   0.098089   0.712105  -0.038435   0.002855
    17  C   -0.000085   0.534997   0.001190  -0.238208   0.015883   0.001994
    18  O    0.000001  -0.019051  -0.001532  -0.006671  -0.000041   0.000009
    19  H    0.000000   0.012210   0.000070  -0.002003  -0.000001   0.000000
    20  C    0.000644   0.403221  -0.103234  -0.980248  -0.033354  -0.013472
    21  O    0.000000  -0.009303   0.001447   0.012198  -0.000339  -0.000445
    22  H    0.000000   0.005785   0.000149   0.003883   0.010163  -0.001442
    23  C   -0.033754  -1.455635  -0.091859  -0.065532   0.006329  -0.000277
    24  O    0.255855   0.076331   0.002753   0.003058  -0.000017  -0.000001
    25  H    0.386562   0.034063  -0.000717  -0.000683  -0.000002   0.000000
    26  C    0.034063  10.713299   0.076280  -0.674913  -0.003770  -0.001820
    27  O   -0.000717   0.076280   7.890628   0.238545  -0.036734   0.000851
    28  C   -0.000683  -0.674913   0.238545   6.276697   0.303367  -0.003077
    29  O   -0.000002  -0.003770  -0.036734   0.303367   7.996708   0.268437
    30  H    0.000000  -0.001820   0.000851  -0.003077   0.268437   0.406417
    31  H    0.000000  -0.007348  -0.047362   0.453362  -0.027173  -0.009191
    32  H    0.000000   0.004759  -0.001693   0.072126  -0.005343   0.000067
    33  H    0.000000   0.090262  -0.000996  -0.046576   0.000212   0.000011
    34  H   -0.000008   0.148934   0.003431  -0.003261  -0.000480   0.000002
    35  H   -0.000154   0.124716  -0.022597   0.056156  -0.001065   0.000015
    36  H   -0.010503  -0.062026  -0.002193   0.001768  -0.000100   0.000000
    37  H    0.000572  -0.350376   0.004889   0.004903  -0.000126   0.000000
    38  H    0.000000   0.000000   0.000000   0.000000   0.000000   0.000000
    39  H    0.000000   0.000475   0.000000   0.000088   0.000000   0.000000
    40  H    0.000000  -0.000331   0.000000  -0.000006   0.000000   0.000000
    41  H    0.000000  -0.001128   0.000001  -0.000051   0.000000   0.000000
    42  H    0.000000  -0.000085   0.000000  -0.000002   0.000000   0.000000
    43  H    0.000000  -0.000561   0.000000  -0.000006   0.000000   0.000000
    44  H    0.000001  -0.006969  -0.000004  -0.000007   0.000000   0.000000
    45  H    0.000008   0.011327   0.000173  -0.000194  -0.000001   0.000000
             31         32         33         34         35         36
     1  O    0.000000   0.000000   0.000000  -0.000001   0.000000   0.000000
     2  C    0.000007   0.000225  -0.000254  -0.001935  -0.000043  -0.000028
     3  C    0.000002  -0.000051   0.000298   0.003610   0.000675  -0.000056
     4  O    0.000000   0.000000   0.000000   0.000001   0.000000   0.000000
     5  H    0.000000   0.000000   0.000000   0.000000   0.000000   0.000000
     6  C   -0.000117   0.001284   0.009405   0.019194  -0.004406   0.001472
     7  O    0.000000   0.000002   0.000003  -0.001238  -0.000102  -0.000684
     8  H    0.000000   0.000000  -0.000002  -0.000222  -0.000011   0.000340
     9  C   -0.000002  -0.000276  -0.000007  -0.000112   0.000074   0.000004
    10  O    0.000000   0.000000   0.000000   0.000001   0.000000   0.000000
    11  H    0.000000   0.000000   0.000000   0.000000   0.000000   0.000000
    12  C    0.000092   0.000908  -0.002161  -0.001440   0.000844   0.000195
    13  O    0.000019   0.000234  -0.000917  -0.002827  -0.000231   0.000018
    14  C    0.000817  -0.014685  -0.010216  -0.047204   0.041902   0.012549
    15  O    0.000447   0.001632  -0.003376  -0.019780   0.000616   0.000361
    16  C    0.044591   0.117039  -0.050710   0.103459   0.034269   0.018529
    17  C   -0.031767  -0.298374   0.132005   0.043258  -0.023553   0.005892
    18  O    0.000676   0.008290  -0.018362   0.000400   0.001199   0.000012
    19  H   -0.000003  -0.000238  -0.001630   0.000392   0.000047   0.000001
    20  C   -0.137822   0.356156   0.094184   0.049968  -0.044512  -0.000860
    21  O    0.002558  -0.037331  -0.003315  -0.000638   0.000210  -0.000008
    22  H    0.000139  -0.000895  -0.000169   0.000002   0.000003   0.000000
    23  C    0.003555   0.013436   0.022867  -0.046210   0.080329   0.375030
    24  O    0.000026   0.000017  -0.000118   0.001247   0.000336  -0.019628
    25  H    0.000000   0.000000   0.000000  -0.000008  -0.000154  -0.010503
    26  C   -0.007348   0.004759   0.090262   0.148934   0.124716  -0.062026
    27  O   -0.047362  -0.001693  -0.000996   0.003431  -0.022597  -0.002193
    28  C    0.453362   0.072126  -0.046576  -0.003261   0.056156   0.001768
    29  O   -0.027173  -0.005343   0.000212  -0.000480  -0.001065  -0.000100
    30  H   -0.009191   0.000067   0.000011   0.000002   0.000015   0.000000
    31  H    0.619559   0.006789   0.003489  -0.000020   0.003496  -0.000032
    32  H    0.006789   0.640045   0.008428   0.003841  -0.000018   0.000000
    33  H    0.003489   0.008428   0.657689   0.006284   0.002158   0.000005
    34  H   -0.000020   0.003841   0.006284   0.598187   0.005267   0.000105
    35  H    0.003496  -0.000018   0.002158   0.005267   0.605819  -0.003545
    36  H   -0.000032   0.000000   0.000005   0.000105  -0.003545   0.577117
    37  H   -0.000007  -0.000029  -0.000026   0.002066   0.006169  -0.039444
    38  H    0.000000   0.000000   0.000000   0.000000   0.000000   0.000000
    39  H    0.000000   0.000000   0.000000  -0.000001   0.000000   0.000000
    40  H    0.000000   0.000000   0.000000   0.000000   0.000000   0.000000
    41  H    0.000000   0.000000   0.000000  -0.000028   0.000000   0.000000
    42  H    0.000000   0.000000   0.000000   0.000000   0.000000   0.000000
    43  H    0.000000   0.000000   0.000000  -0.000004   0.000000   0.000000
    44  H    0.000000   0.000000  -0.000006  -0.000016  -0.000001   0.000000
    45  H    0.000000  -0.000003  -0.000020   0.006627  -0.000004  -0.000001
             37         38         39         40         41         42
     1  O    0.000000   0.266144   0.000124   0.001678   0.003364  -0.014882
[...]
 03195,0.00006470,-0.00000244,-0.00002630,0.00002906,-0.00881606,0.0018
 6777,0.00190345,0.00172439,0.00030333,0.00087088,0.00005081,-0.0001745
 2,-0.00019988,0.00013891,0.00002781,0.00018757,-0.00000284,0.00001835,
 -0.00005017,-0.00002156,0.00000413,0.00000852,0.00004366,-0.00003070,0
 .00001748,-0.00004635,0.00004285,-0.00003455,-0.00000553,0.00000789,-0
 .00000701,0.00000930,-0.00001178,0.00001024,-0.00000342,0.00000060,-0.
 00000224,-0.00000798,-0.00000157,-0.00000436,0.00003927,0.00001207,0.0
 0003359,-0.00001496,-0.00000427,0.00000043,-0.00001419,-0.00000823,-0.
 00001034,0.00001039,-0.00000575,0.00001622,-0.00000971,0.00001009,-0.0
 0001364,0.00000186,-0.00000210,0.00000692,-0.00000148,0.00000030,-0.00
 000148,0.00000381,0.,0.00000289,0.00000653,0.00000003,-0.00000121,0.00
 000676,0.00000230,0.00000785,0.00000533,-0.00000226,-0.00000282,0.0000
 0535,-0.00000008,0.00000549,0.00000005,0.00000115,0.00000315,0.0000047
 7,-0.00000072,-0.00000318,0.00092046,0.00001823,-0.00034629,0.00014854
 ,-0.00007127,-0.00000696,0.00017753,-0.00070671,-0.00001895,0.00015376
 ,-0.00072075,0.00080112,0.37350999,-0.00798504,0.00090543,-0.00211977,
 0.00594159,-0.04347594,0.00096477,0.03276889,-0.00016057,-0.00820452,-
 0.00241700,0.00273529,0.00007771,0.00033592,-0.00011601,0.00060056,0.0
 0061653,0.00128852,0.00134724,-0.00046560,-0.00028257,-0.00009438,-0.0
 0010513,-0.00000940,0.00005498,-0.00059910,0.00166408,-0.00041293,0.00
 022957,-0.00005932,0.00002993,-0.00001170,-0.00002188,0.00001035,-0.02
 522213,0.00156774,0.00593537,0.00141867,0.00076924,-0.00169200,0.00029
 329,-0.00046251,-0.00015267,0.00003526,0.00010034,-0.00000915,-0.00002
 442,0.00002265,-0.00002822,0.00000157,0.00000579,-0.00000364,0.0000149
 9,-0.00000651,-0.00002666,-0.00000764,0.00001327,0.00001207,-0.0000068
 6,0.00000156,-0.00000164,0.00000315,-0.00000174,0.00000021,-0.00000074
 ,0.00000030,-0.00000036,0.00000065,-0.00000861,0.00000479,-0.00003344,
 -0.00000643,-0.00004702,0.00001122,0.00000506,-0.00000101,0.00000353,-
 0.00000462,0.00000039,-0.00000176,0.00000163,-0.00000134,0.00000135,-0
 .00000045,0.00000190,0.00000096,-0.00000049,-0.00000242,0.00000008,0.0
 0000047,0.00000047,0.00000008,0.00000068,0.00000014,0.00000160,-0.0000
 0053,-0.00000025,0.00000011,0.00000127,0.00000008,0.00000032,-0.000006
 11,0.00000667,-0.00000110,0.00000175,-0.00000059,0.00000062,0.00000170
 ,-0.00000427,-0.00000146,-0.00000036,0.00000346,-0.00018909,0.00122565
 ,0.00045314,0.00043812,-0.00005102,-0.00012854,0.00067984,-0.00034801,
 -0.00022239,-0.00119882,-0.00226914,0.00332648,-0.00600698,0.04196085,
 -0.03901199,-0.00161740,-0.01047076,0.05836184,-0.00039306,-0.05267633
 ,0.01230417,0.00138782,-0.00270395,-0.00102209,0.00001631,0.00124315,-
 0.00035501,-0.00053928,-0.00000511,0.00080965,0.00058080,0.00068867,-0
 .00036111,-0.00010945,-0.00006428,0.00000788,0.00004154,0.00004674,-0.
 00022141,-0.00099041,0.00016297,-0.00006648,0.00006110,0.00015008,0.00
 000318,-0.00003987,0.00005701,0.02412236,-0.00170896,-0.00422875,-0.00
 119488,-0.00048905,0.00224422,0.00071932,-0.00029015,-0.00014792,-0.00
 021945,0.00001218,-0.00025550,-0.00000659,-0.00006120,0.00007324,0.000
 02418,-0.00000735,0.00000550,-0.00005590,0.00001112,0.00000410,0.00005
 870,-0.00001290,-0.00001782,0.00000513,-0.00001545,0.00001730,-0.00000
 962,0.00002343,-0.00002234,0.00000286,-0.00000197,0.00000455,0.0000099
 6,0.00000900,0.00000389,-0.00003336,-0.00001884,-0.00002878,0.00001229
 ,0.00000568,0.00000059,0.00001259,0.00002040,0.00002256,-0.00000960,0.
 00000961,-0.00003715,0.00000738,-0.00001669,0.00003401,0.00000456,0.00
 000279,-0.00002201,0.00000107,0.,0.00000463,-0.00000444,0.00000012,-0.
 00000476,-0.00000859,-0.00000011,0.00000249,-0.00000983,-0.00000281,-0
 .00001260,-0.00000913,0.00000365,0.00001460,-0.00000606,-0.00000255,-0
 .00000901,-0.00000195,-0.00000476,-0.00000452,-0.00000568,0.00000257,0
 .00000509,-0.00233447,0.00035564,0.00379112,-0.00019339,0.00002175,0.0
 0008403,-0.00044991,0.00047980,0.00018652,0.00161003,0.00224410,-0.003
 62200,-0.05272531,0.00310038,0.06650051,0.00199161,-0.00008183,-0.0005
 4528,-0.01788344,0.00267436,0.00239986,-0.33812623,-0.02769899,0.03746
 631,0.00438814,-0.00757249,0.00940927,-0.00047900,-0.00090811,-0.00040
 340,-0.02171108,-0.00089469,-0.00252962,0.00254663,0.00072879,0.001342
 65,0.00028992,0.00011700,0.00000978,0.00120533,0.00010803,-0.00029351,
 -0.00007432,-0.00009452,-0.00008650,0.00001933,0.00003479,-0.00000033,
 -0.00141955,-0.00313589,0.00205778,0.00100356,0.00063651,0.00013912,-0
 .00109741,-0.00158671,0.00074026,0.00071579,0.00006622,0.00000584,-0.0
 0001944,0.00010658,-0.00015609,0.00000083,-0.00004073,-0.00007706,0.00
 004817,0.00000925,0.00009386,-0.00003201,0.00001086,-0.00007862,-0.000
 02244,0.00002151,-0.00000764,0.00001681,-0.00000567,0.00001494,-0.0000
 0618,0.00000130,-0.00000625,-0.00005017,-0.00003735,0.00005760,0.00008
 818,0.00005558,0.00003396,-0.00002549,-0.00000873,0.00001288,-0.000009
 27,-0.00000885,-0.00000882,0.00001661,0.00001535,0.00000078,-0.0000082
 3,-0.00001793,-0.00001758,0.00000107,0.00000606,0.00001510,-0.00000152
 ,-0.00000124,-0.00000408,0.00000484,0.00000208,0.00000446,0.00001064,-
 0.00000014,-0.00000222,0.00001621,0.00000587,0.00001663,0.00001356,0.0
 0000242,-0.00005778,0.00000909,-0.00000286,0.00001169,0.00000593,0.000
 00522,-0.00000031,0.00001916,0.00000175,-0.00001302,0.00036287,-0.0004
 4009,-0.00043450,-0.00001641,0.00016736,-0.00000833,0.00007102,-0.0005
 9422,-0.00003579,0.00260732,-0.00018239,-0.00081546,0.00025331,0.00210
 560,0.00084476,0.36455851,-0.00135318,0.00216988,0.00189498,0.03135250
 ,-0.00616926,-0.00478869,-0.03170702,-0.03659001,-0.00383319,-0.026061
 01,-0.01713543,0.02517401,-0.00197733,-0.00114379,-0.00011450,-0.01298
 003,0.00069217,-0.00135037,-0.00005233,0.00080519,0.00098110,0.0000217
 2,-0.00002041,0.00001225,0.00038554,-0.00005721,0.00002240,-0.00011028
 ,0.00000478,-0.00004698,0.00000564,0.00001494,-0.00000746,0.00496097,-
 0.00183323,-0.00141055,-0.00032046,-0.00031068,0.00036803,0.00061667,-
 0.00006470,0.00067359,0.00017180,-0.00010634,-0.00015904,0.00001718,0.
 00004660,-0.00003663,0.00001113,-0.00001703,-0.00002614,-0.00001043,-0
 .00000013,0.00004115,0.00000974,-0.00000528,-0.00004302,-0.00000698,0.
 00000571,0.00000295,0.00000269,0.00000170,-0.00000524,-0.00000123,0.00
 000178,-0.00000057,-0.00002163,0.00000923,-0.00000174,0.00009055,0.000
 01291,0.00008456,-0.00002760,-0.00000782,-0.00000518,-0.00000408,0.000
 02437,0.00000704,0.00000573,-0.00001089,-0.00001004,-0.00000261,0.0000
 0238,0.00000069,0.00000166,-0.00000052,-0.00000006,-0.00000028,0.00000
 021,-0.00000045,0.00000118,-0.00000048,0.00000033,0.00000054,0.0000009
 4,0.00000077,0.00000130,0.00000054,0.00000198,0.00000273,0.00000976,-0
 .00002105,0.00000350,-0.00000607,0.00000271,0.00000155,-0.00000261,0.0
 0000349,0.00000890,0.00000314,-0.00000976,0.00009424,0.00020848,0.0004
 2221,-0.00006546,0.00000364,-0.00000490,-0.00023577,-0.00004721,0.0000
 8442,0.00029094,-0.00264670,0.00083716,0.00118086,-0.00478522,-0.00203
 862,0.03613525,0.06675079,-0.00026907,0.00099001,0.00158911,0.01682039
 ,-0.00393116,-0.00165300,0.04012249,-0.00412879,-0.04233546,0.02475136
 ,0.02238522,-0.01847983,0.00212501,0.00111853,-0.00042920,-0.03529504,
 -0.00549358,-0.00329109,0.00096563,0.00175052,0.00236066,-0.00011061,0
 .00028772,-0.00001540,-0.00038054,-0.00005774,0.00001907,-0.00000303,0
 .00001166,0.00000823,-0.00000745,-0.00000072,-0.00000511,-0.00059307,0
 .00327500,-0.00074586,0.00011190,0.00030369,-0.00044053,-0.00188941,-0
 .00007645,0.00089313,0.00037286,0.00000042,0.00017700,0.00011166,0.000
 04290,0.00005263,0.00000325,-0.00000184,-0.00000032,0.00001574,0.00001
 223,-0.00002012,-0.00002595,-0.00001860,0.00001759,-0.00000523,-0.0000
 0356,0.00000610,0.00000064,0.00000966,-0.00001191,-0.00000004,-0.00000
 035,0.00000132,-0.00001565,0.00000071,0.00001735,0.00012341,0.00000533
 ,0.00010530,-0.00001603,0.00000223,-0.00001924,-0.00000919,0.00001032,
 0.00002291,0.00000537,0.00000274,-0.00002242,-0.00000068,-0.00000828,0
 .00001555,0.00000586,0.00000085,-0.00001219,-0.00000021,0.00000070,0.0
 0000261,-0.00000037,0.00000090,-0.00000048,-0.00000026,0.00000161,-0.0
 0000110,0.00000241,-0.00000223,0.00000403,0.00002821,0.00001545,-0.000
 06259,0.00000553,-0.00000430,0.00000801,0.00000122,-0.00000258,-0.0000
 0129,0.00000947,0.00000267,-0.00001132,-0.00004429,0.00042668,0.000186
 15,-0.00003581,-0.00005133,0.00000038,-0.00006377,0.00020547,-0.000017
 34,-0.00085220,0.00168820,0.00064620,0.00081858,-0.00229680,-0.0009938
 4,-0.04561129,-0.01484193,0.06816234,0.00035862,-0.00003963,-0.0000987
 3,-0.00043707,0.00061283,0.00008798,-0.01154822,-0.00448229,-0.0001166
 8,0.00132597,0.00088686,-0.00037773,-0.00001321,0.00006647,-0.00000271
 ,-0.34673038,-0.05740033,0.00655360,-0.01509366,0.01151138,0.00591286,
 -0.00039701,0.00015973,-0.00147032,0.00003420,-0.00000554,0.00001422,0
 .00004336,0.00004210,0.00002033,-0.00000642,0.00000118,0.00001091,-0.0
 0021142,0.00003564,-0.00003247,0.00198531,-0.00065648,-0.00045540,-0.0
 0792541,-0.00009790,-0.00119238,0.00111911,0.00051318,-0.00135849,0.00
 036605,0.00016206,0.00017196,0.00003804,0.00003115,-0.00000503,0.00004
 165,0.00002180,-0.00008404,-0.00005393,-0.00007757,0.00004088,-0.00003
 224,0.00001421,0.00002397,0.00001420,0.00000794,-0.00003509,-0.0000047
 5,0.00000455,0.00000116,-0.00000377,0.00012009,-0.00007799,0.00040821,
 -0.00008858,0.00057992,-0.00009096,-0.00003736,-0.00009427,-0.00002116
 ,0.00010889,0.00006720,0.00001755,-0.00006976,-0.00003666,-0.00001540,
 0.00003201,0.00002247,0.00001314,-0.00001079,-0.00002194,-0.00000096,0
 .00000202,0.00000348,0.00000433,-0.00000212,0.00000088,0.00000551,0.00
 000213,0.00000129,0.00000157,-0.00001242,0.00001011,0.00005439,0.00006
 175,-0.00029710,0.00001343,-0.00001816,0.00001307,0.00000141,-0.000029
 71,0.00003480,0.00002433,0.00000669,-0.00004806,-0.00003581,-0.0000858
 0,-0.00008146,-0.00000250,-0.00001429,-0.00000824,0.00001551,-0.000043
 99,-0.00000851,0.00012231,0.00017762,-0.00005177,0.00044065,-0.0005537
 2,-0.00026306,0.00006561,-0.00058828,-0.00158184,0.37586935,0.00016686
 ,-0.00000041,-0.00001440,-0.00053082,0.00053170,0.00053984,-0.00897126
 ,-0.00061640,0.00006452,0.00075145,0.00067703,-0.00071543,-0.00003429,
 0.00002665,0.00003452,-0.05616356,-0.04901400,0.00411237,0.03821542,-0
 .00781783,-0.00655033,0.00084246,0.00110851,0.00159957,0.00000257,0.00
 010476,0.00003566,0.00000688,-0.00003744,-0.00000160,-0.00000162,0.000
 00923,0.00000010,-0.00029506,-0.00008676,-0.00005793,0.00096461,0.0016
 9471,-0.00021937,-0.02558732,-0.00480527,0.00070532,0.00083230,0.00091
 159,-0.00193223,-0.00016008,0.00027593,-0.00006635,0.00005473,-0.00002
 832,-0.00016508,0.00013882,-0.00002105,0.00007757,-0.00017018,0.000039
 28,-0.00005005,-0.00003277,0.00003323,0.00000556,0.00001241,0.00000995
 ,-0.00000509,-0.00000264,0.00000060,-0.00000256,-0.00000940,-0.0000584
 3,0.00012767,-0.00043684,-0.00011229,-0.00038185,0.00013234,0.00003583
 ,-0.00002051,0.00005145,-0.00006604,0.00000671,-0.00000298,0.00005023,
 -0.00002959,0.00000468,-0.00004825,0.00001121,0.00000275,0.00001229,-0
 .00000319,0.00000021,-0.00000104,0.00000091,-0.00000113,0.00000555,0.0
 0000141,0.00001058,0.00000237,-0.00000500,0.00002477,-0.00000445,0.000
 03285,0.00018218,0.00000391,-0.00005219,0.00000522,0.00002739,0.000017
 79,-0.00000490,0.00001134,-0.00001963,-0.00002128,-0.00001787,0.000053
 07,0.00001942,0.00001826,-0.00001332,-0.00000578,-0.00000896,0.0000144
 4,0.00002526,-0.00005860,-0.00001832,0.00023193,0.00018515,0.00001828,
 0.00022163,-0.00003463,-0.00005947,-0.00035986,-0.00008476,-0.00194163
 ,0.05001611,0.05990407,0.00052336,0.00012044,-0.00043562,-0.00089145,0
 .00149274,0.00135417,-0.03323395,-0.00824232,0.00020347,0.00240956,0.0
 0067158,0.00216965,0.00006422,-0.00012017,0.00015645,0.00321248,0.0035
 2277,-0.04373579,0.01258773,-0.00540372,0.00103058,0.00112552,0.000256
 67,0.00060646,-0.00005361,0.00001668,0.00003483,0.00000788,-0.00001399
 ,0.00001293,0.00000603,-0.00000312,0.00000078,-0.00037035,-0.00012104,
 -0.00044851,-0.00117679,-0.00096229,0.00049474,0.02359908,0.00698226,-
 0.00211842,0.00014989,-0.00033688,0.00175626,0.00042025,-0.00019220,0.
 00000259,-0.00004109,0.00003234,0.00018293,-0.00013032,-0.00000182,-0.
 00008331,0.00015901,0.00001234,0.00009745,0.00003310,-0.00003850,-0.00
 001523,-0.00001544,-0.00001543,0.00001599,0.00000288,-0.00000264,0.000
 00238,0.00012125,0.00009141,-0.00008678,-0.00033962,-0.00007793,-0.000
 03617,0.00004951,-0.00000178,0.00004773,-0.00003342,0.00000506,-0.0000
 1881,-0.00003678,-0.00003527,0.00008023,0.00000783,0.00004929,-0.00002
 510,-0.00001152,-0.00001004,0.00001380,0.00000068,-0.00000031,-0.00000
 266,-0.00000124,-0.00000395,-0.00000266,-0.00001419,-0.00000535,0.0000
 0778,-0.00004247,0.00001800,-0.00003350,-0.00029090,-0.00004027,-0.000
 01969,-0.00003507,-0.00000422,-0.00005652,-0.00002170,-0.00001517,0.00
 002650,-0.00004868,-0.00001056,0.00004276,0.00006709,-0.00013256,-0.00
 011575,-0.00000029,-0.00004031,0.00001264,0.00000867,-0.00001874,-0.00
 000289,0.00017503,0.00012736,-0.00026703,0.00054697,-0.00037580,-0.000
 09995,-0.00285422,-0.00190896,-0.00529920,-0.00606257,0.00225028,0.046
 96544,0.00001899,-0.00006958,0.00019278,0.00045936,0.00040201,-0.00005
 392,-0.00030286,-0.00037792,-0.00023620,0.00013916,0.00014703,-0.00020
 620,0.00003414,0.00001162,0.00004137,-0.00590164,0.00106867,0.00095845
 ,0.00200175,0.00021374,-0.00116566,-0.00040884,-0.00030660,-0.00010576
 ,0.00078673,-0.00024017,0.00008214,-0.00000302,0.00016964,0.00004269,0
 .00000347,0.00001527,0.00003044,-0.00017925,-0.00096972,-0.00205337,-0
 .01041610,0.00737870,0.00477688,-0.34584344,-0.03165216,0.05880031,-0.
 01618788,-0.00436377,-0.00516010,0.00036900,-0.00043741,0.00335566,0.0
 0015619,0.00016791,-0.00022300,0.00059442,-0.00002834,-0.00034040,-0.0
 0063838,-0.00022451,0.00082377,-0.00008949,0.00008664,0.00000532,0.000
 03797,0.00000263,-0.00002660,-0.00000487,0.00000842,-0.00000752,-0.000
 23952,0.00005367,0.00010379,0.00015005,-0.00006623,0.00005007,-0.00000
 719,-0.00003767,-0.00004301,0.00059005,0.00004966,-0.00004273,0.000004
 23,-0.00006788,-0.00020498,-0.00000713,-0.00003827,0.00001016,0.000009
 88,0.00000580,-0.00001411,0.00000066,0.00000132,0.00000032,0.00000423,
 0.00000832,0.00000457,0.00004324,0.00001402,-0.00002058,0.00007992,-0.
 00014827,0.00015255,0.00111169,0.00029946,-0.00105425,0.00008871,0.000
 10369,0.00025075,0.00004462,-0.00000040,0.00000041,0.00009054,-0.00002
 412,-0.00002574,0.00001421,-0.00000091,0.00001807,-0.00004297,-0.00000
 138,0.00002937,0.00000499,-0.00032632,-0.00008635,0.00143211,-0.000168
 20,0.00042784,0.00001794,-0.00007179,-0.00034264,0.00065213,0.00015151
 ,0.00041004,0.00024048,-0.00012527,0.00042763,0.37109171,-0.00002911,0
 .00031229,-0.00023522,-0.00048460,-0.00034277,-0.00008623,-0.00127379,
 -0.00030317,-0.00127398,0.00045927,0.00007004,0.00029218,0.00012142,-0
 .00009180,0.00001092,-0.02226808,-0.00086008,0.00546477,0.00084586,0.0
 0289982,-0.00079660,-0.00051390,-0.00031351,-0.00019259,0.00025762,0.0
 0008047,-0.00006841,-0.00023864,-0.00017427,-0.00006166,0.00002000,0.0
 0002466,-0.00003873,0.00572464,0.00028871,0.00439271,0.03168175,-0.009
 55876,-0.01579676,-0.03466108,-0.04452615,0.00922315,-0.00855297,0.002
 51490,-0.00240959,0.00015416,-0.00056219,0.00131744,0.00018488,-0.0000
 9795,-0.00004762,-0.00029297,0.00007569,0.00046574,0.00015936,0.000005
 20,-0.00144507,0.00003142,0.00001357,0.00009461,-0.00001222,0.00007382
 ,-0.00008271,0.00000086,0.00000163,0.00001008,-0.00014389,0.00006312,-
 0.00002827,0.00010637,-0.00004344,0.00007095,-0.00002623,-0.00002017,-
 0.00002050,-0.00002410,0.00014399,0.00006808,0.00001186,-0.00001658,-0
 .00015369,-0.00000678,-0.00004054,0.00010335,0.00002075,0.00000644,-0.
 00005705,0.00000091,0.00000156,0.00001170,-0.00000683,-0.00000300,-0.0
 0001211,-0.00002353,0.00000510,0.00000393,0.00001478,-0.00003801,0.000
 03352,0.00028104,0.00024704,-0.00017074,0.00002272,-0.00002160,0.00002
 022,0.00003663,-0.00002436,0.00000294,0.00004354,-0.00002512,-0.000045
 60,-0.00002098,0.00002515,0.00001221,0.00004017,-0.00008415,0.00002187
 ,-0.00020317,0.00003669,0.00003998,-0.00111803,0.00033436,-0.00047573,
 -0.00007821,-0.00016118,0.00003056,0.00065558,0.00027668,0.00031045,-0
 .00028369,-0.00275675,0.00248615,0.02938717,0.05256462,-0.00008164,-0.
 00004601,-0.00022699,-0.00023086,0.00050437,-0.00023304,0.00187951,-0.
 00004001,0.00119115,-0.00059425,-0.00001232,-0.00003538,-0.00003128,-0
 .00002348,0.00001217,0.02175315,0.00225518,-0.00111695,-0.00186733,-0.
 00157261,0.00120841,-0.00011828,0.00020329,-0.00007064,0.00015753,-0.0
 0016705,-0.00015218,-0.00011850,-0.00010295,-0.00006531,0.00001246,0.0
 0000647,-0.00001796,0.00419436,-0.00114946,0.00238647,0.00828115,-0.00
 558910,-0.00335453,0.06376991,0.01209742,-0.05479532,-0.03199348,-0.00
 548412,-0.00942818,-0.00583923,-0.00179139,0.00472215,0.00017110,0.000
 18407,-0.00052136,0.00011012,0.00010625,0.00024639,-0.00019669,-0.0002
 3715,-0.00049799,-0.00006155,0.00009800,0.00006595,0.00003000,0.000048
 68,-0.00005845,0.00000096,0.00000816,-0.00000191,-0.00019751,0.0001528
 2,0.00015845,0.00007512,-0.00017598,0.00005760,0.00003182,-0.00004199,
 -0.00006787,-0.00011956,-0.00007158,-0.00003725,0.00014598,0.00007030,
 -0.00018063,-0.00000205,-0.00010627,0.00007543,0.00002200,0.00002136,-
 0.00004870,0.00000102,0.00000233,0.00000695,-0.00000505,0.00000560,0.0
 0000551,0.00004752,0.00001984,-0.00005116,0.00022098,-0.00007369,0.000
 06138,0.00103716,0.00013708,-0.00059413,0.00018613,0.00005578,0.000043
 87,0.00002714,-0.00001505,-0.00000363,0.00004457,-0.00004449,-0.000016
 38,-0.00002421,-0.00000156,0.00000630,-0.00001820,0.00001268,-0.000018
 02,-0.00012243,0.00003799,-0.00000427,-0.00043109,-0.00085274,-0.00098
 268,-0.00022582,-0.00010472,0.00007981,-0.00062982,0.00004925,-0.00042
 683,0.00029143,0.00261544,-0.00241495,-0.05958227,-0.00098864,0.065094
 71\\-0.00216514,0.00299220,-0.01309252,-0.00022078,-0.01707532,-0.0128
 3813,0.01368349,-0.01814872,0.03656996,-0.01877866,-0.00183604,0.01186
 764,0.00251943,-0.00361978,-0.03512652,0.02865946,-0.02562731,0.007637
 64,-0.00633928,0.00523692,-0.01422514,-0.00247380,0.00177471,0.0210215
 0,-0.02028746,0.03164516,-0.00864743,0.01216791,0.00386600,0.00319672,
 -0.00394281,-0.03525736,0.00400879,0.03458226,0.03593088,0.02190724,0.
 01118782,-0.00422957,0.02081072,-0.06796200,-0.01331015,-0.01001492,0.
 02183804,0.01180079,-0.00607587,-0.01903656,0.01358097,-0.02551829,-0.
 02124050,0.04147961,0.02782764,0.00645413,-0.01485189,-0.00219037,-0.0
 0158454,0.03126610,-0.01649705,0.05533140,0.00899027,-0.02882088,-0.02
 593865,0.01358911,-0.00023806,-0.00098161,-0.02790155,0.03263895,0.012
 29076,-0.03709863,-0.01975597,-0.01517302,-0.00726934,0.01333763,0.003
 14851,0.03525279,-0.01322080,0.00796542,-0.01936612,0.02513831,0.00363
 010,-0.00405750,0.01350517,0.00063185,-0.02192562,-0.01252676,-0.00359
 842,0.01015485,0.02736361,-0.00247863,-0.00250415,0.00038869,-0.021762
 83,-0.00069374,-0.00754579,0.02500948,-0.00102123,0.00471406,-0.023939
 27,-0.00414135,-0.00096059,0.01782363,-0.00137218,0.00187119,-0.019316
 61,0.00126559,-0.00134398,-0.00039520,-0.01001383,-0.01724202,0.020409
 13,0.00148621,-0.00069783,-0.00128946,0.00499255,-0.00092841,0.0011625
 9,0.00290265,-0.01995150,-0.02290198,0.00625672,0.00077306,0.02161003,
 -0.00216486,-0.00033130,-0.01817229,0.00262153,0.00466955,0.02262822,0
 .00207906,-0.00254574,-0.01874300,0.00009853,-0.00416779,0.01598882,0.
 00422303,-0.00474442\\\@


 NEVER TEACH A PIG TO SING.
 IT WASTES YOUR TIME AND ANNOYS THE PIG.
     -- SEEN ON A GREETING CARD
 Job cpu time:  3 days 23 hours 14 minutes 52.5 seconds.
 File lengths (MBytes):  RWF=   2340 Int=      0 D2E=      0 Chk=     43 Scr=      1
 Normal termination of Gaussian 09 at Tue Feb 16 08:28:46 2016.
Gaussian '09 finished on node005 at Tue Feb 16 08:28:46 EST 2016.
