Gaussian '09 started on node031 at Thu Jan 21 04:54:51 EST 2016.
 Entering Gaussian System, Link 0=/usr/local/gaussian/g09/g09
 Initial command:
 /usr/local/gaussian/g09/l1.exe /home/srmcgrat/thesis/gaussian/cellobiose/350/8000/gaussian28614/Gau-28650.inp -scrdir=/home/srmcgrat/thesis/gaussian/cellobiose/350/8000/gaussian28614/
 Entering Link 1 = /usr/local/gaussian/g09/l1.exe PID=     28652.
  
 Copyright (c) 1988,1990,1992,1993,1995,1998,2003,2009,2010,
            Gaussian, Inc.  All Rights Reserved.
  
 This is part of the Gaussian(R) 09 program.  It is based on
 the Gaussian(R) 03 system (copyright 2003, Gaussian, Inc.),
 the Gaussian(R) 98 system (copyright 1998, Gaussian, Inc.),
 the Gaussian(R) 94 system (copyright 1995, Gaussian, Inc.),
 the Gaussian 92(TM) system (copyright 1992, Gaussian, Inc.),
 the Gaussian 90(TM) system (copyright 1990, Gaussian, Inc.),
 the Gaussian 88(TM) system (copyright 1988, Gaussian, Inc.),
 the Gaussian 86(TM) system (copyright 1986, Carnegie Mellon
 University), and the Gaussian 82(TM) system (copyright 1983,
 Carnegie Mellon University). Gaussian is a federally registered
 trademark of Gaussian, Inc.
  
 This software contains proprietary and confidential information,
 including trade secrets, belonging to Gaussian, Inc.
  
 This software is provided under written license and may be
 used, copied, transmitted, or stored only in accord with that
 written license.
  
 The following legend is applicable only to US Government
 contracts under FAR:
  
                    RESTRICTED RIGHTS LEGEND
  
 Use, reproduction and disclosure by the US Government is
 subject to restrictions as set forth in subparagraphs (a)
 and (c) of the Commercial Computer Software - Restricted
 Rights clause in FAR 52.227-19.
  
 Gaussian, Inc.
 340 Quinnipiac St., Bldg. 40, Wallingford CT 06492
  
  
 ---------------------------------------------------------------
 Warning -- This program may not be used in any manner that
 competes with the business of Gaussian, Inc. or will provide
 assistance to any competitor of Gaussian, Inc.  The licensee
 of this program is prohibited from giving any competitor of
 Gaussian, Inc. access to this program.  By using this program,
 the user acknowledges that Gaussian, Inc. is engaged in the
 business of creating and licensing software in the field of
 computational chemistry and represents and warrants to the
 licensee that it is not a competitor of Gaussian, Inc. and that
 it will not use this program in any manner prohibited above.
 ---------------------------------------------------------------
  

 Cite this work as:
 Gaussian 09, Revision B.01,
 M. J. Frisch, G. W. Trucks, H. B. Schlegel, G. E. Scuseria, 
 M. A. Robb, J. R. Cheeseman, G. Scalmani, V. Barone, B. Mennucci, 
 G. A. Petersson, H. Nakatsuji, M. Caricato, X. Li, H. P. Hratchian, 
 A. F. Izmaylov, J. Bloino, G. Zheng, J. L. Sonnenberg, M. Hada, 
 M. Ehara, K. Toyota, R. Fukuda, J. Hasegawa, M. Ishida, T. Nakajima, 
 Y. Honda, O. Kitao, H. Nakai, T. Vreven, J. A. Montgomery, Jr., 
 J. E. Peralta, F. Ogliaro, M. Bearpark, J. J. Heyd, E. Brothers, 
 K. N. Kudin, V. N. Staroverov, T. Keith, R. Kobayashi, J. Normand, 
 K. Raghavachari, A. Rendell, J. C. Burant, S. S. Iyengar, J. Tomasi, 
 M. Cossi, N. Rega, J. M. Millam, M. Klene, J. E. Knox, J. B. Cross, 
 V. Bakken, C. Adamo, J. Jaramillo, R. Gomperts, R. E. Stratmann, 
 O. Yazyev, A. J. Austin, R. Cammi, C. Pomelli, J. W. Ochterski, 
 R. L. Martin, K. Morokuma, V. G. Zakrzewski, G. A. Voth, 
 P. Salvador, J. J. Dannenberg, S. Dapprich, A. D. Daniels, 
 O. Farkas, J. B. Foresman, J. V. Ortiz, J. Cioslowski, 
 and D. J. Fox, Gaussian, Inc., Wallingford CT, 2010.
 
 ******************************************
 Gaussian 09:  EM64L-G09RevB.01 12-Aug-2010
                21-Jan-2016 
 ******************************************
 ------------------------------------------------
 # freq=raman b3lyp/6-31+g(d,p) geom=connectivity
 ------------------------------------------------
 1/10=4,30=1,38=1,57=2/1,3;
 2/12=2,17=6,18=5,40=1/2;
 3/5=1,6=6,7=111,11=2,16=1,25=1,30=1,71=2,74=-5/1,2,3;
 4//1;
 5/5=2,38=5,98=1/2;
 8/6=4,10=90,11=11/1;
 10/13=10,15=4/2;
 11/6=3,8=1,9=11,15=111,16=1/1,2,10;
 10/6=1/2;
 6/7=2,8=2,9=2,10=2,18=1,28=1/1;
 7/8=1,10=1,25=1/1,2,3,16;
 1/10=4,30=1/3;
 99//99;
 ------------
 350 8000.com
 ------------
 Symbolic Z-matrix:
 Charge =  0 Multiplicity = 1
 O                     7.885     7.613     12.247 
 C                     8.476     8.003     13.495 
 C                     7.95      9.344     13.978 
 O                     7.896     10.338    12.945 
 H                     7.776     9.871     12.07 
 C                     8.396     9.817     15.352 
 O                     7.559     10.829    15.931 
 H                     7.852     11.114    16.844 
 C                     8.585     5.503     14.305 
 O                     8.057     4.8       13.171 
 H                     8.327     3.843     13.275 
 C                     8.108     6.932     14.509 
 O                     8.595     7.41      15.771 
 C                     8.155     8.664     16.313 
 O                     8.987     8.821     17.472 
 C                     8.346     8.476     18.709 
 C                     9.027     7.246     19.287 
 O                     8.608     6.128     18.491 
 H                     8.601     6.366     17.519 
 C                     8.525     6.838     20.662 
 O                     9.283     5.72      21.148 
 H                     8.964     5.329     22.011 
 C                     8.045     10.934    19.34 
 O                     8.571     11.632    18.202 
 H                     8.467     12.61     18.385 
 C                     8.568     9.565     19.745 
 O                     8.095     9.25      21.062 
 C                     8.615     8.027     21.605 
 O                     7.818     7.796     22.775 
 H                     8.39272   7.64705   23.5294 
 H                     8.57796   7.41483   11.61286 
 H                     8.33669   4.94457   15.18329 
 H                     9.65092   5.52169   14.21359 
 H                     7.0399    6.90306   14.56572 
 H                     9.53988   8.04971   13.3907 
 H                     6.91411   9.13291   14.14315 
 H                     9.42434   10.11266   15.35177 
 H                     7.12366   8.61317   16.59345 
 H                     8.17458   11.57744   20.18504 
 H                     6.99246   10.82825   19.17912 
 H                     9.62929   9.67002   19.83185 
 H                     7.30128   8.29814   18.56129 
 H                     10.09205   7.34832   19.27676 
 H                     7.49931   6.54493   20.57854 
 H                     9.63478   8.17317   21.89412 
 

 GradGradGradGradGradGradGradGradGradGradGradGradGradGradGradGradGradGrad
 Berny optimization.
 Initialization pass.
 Trust Radius=3.00D-01 FncErr=1.00D-07 GrdErr=1.00D-07
 Number of steps in this run=      2 maximum allowed number of steps=      2.
 GradGradGradGradGradGradGradGradGradGradGradGradGradGradGradGradGradGrad

                          Input orientation:                          
 ---------------------------------------------------------------------
 Center     Atomic      Atomic             Coordinates (Angstroms)
 Number     Number       Type             X           Y           Z
 ---------------------------------------------------------------------
      1          8           0        7.885000    7.613000   12.247000
      2          6           0        8.476000    8.003000   13.495000
      3          6           0        7.950000    9.344000   13.978000
      4          8           0        7.896000   10.338000   12.945000
      5          1           0        7.776000    9.871000   12.070000
      6          6           0        8.396000    9.817000   15.352000
      7          8           0        7.559000   10.829000   15.931000
      8          1           0        7.852000   11.114000   16.844000
      9          6           0        8.585000    5.503000   14.305000
     10          8           0        8.057000    4.800000   13.171000
     11          1           0        8.327000    3.843000   13.275000
     12          6           0        8.108000    6.932000   14.509000
     13          8           0        8.595000    7.410000   15.771000
     14          6           0        8.155000    8.664000   16.313000
     15          8           0        8.987000    8.821000   17.472000
     16          6           0        8.346000    8.476000   18.709000
     17          6           0        9.027000    7.246000   19.287000
     18          8           0        8.608000    6.128000   18.491000
     19          1           0        8.601000    6.366000   17.519000
     20          6           0        8.525000    6.838000   20.662000
     21          8           0        9.283000    5.720000   21.148000
     22          1           0        8.964000    5.329000   22.011000
     23          6           0        8.045000   10.934000   19.340000
     24          8           0        8.571000   11.632000   18.202000
     25          1           0        8.467000   12.610000   18.385000
     26          6           0        8.568000    9.565000   19.745000
     27          8           0        8.095000    9.250000   21.062000
     28          6           0        8.615000    8.027000   21.605000
     29          8           0        7.818000    7.796000   22.775000
     30          1           0        8.392716    7.647055   23.529399
     31          1           0        8.577956    7.414830   11.612855
     32          1           0        8.336688    4.944566   15.183290
     33          1           0        9.650925    5.521689   14.213594
     34          1           0        7.039896    6.903063   14.565715
     35          1           0        9.539880    8.049706   13.390701
     36          1           0        6.914111    9.132913   14.143155
     37          1           0        9.424340   10.112665   15.351774
     38          1           0        7.123658    8.613167   16.593447
     39          1           0        8.174584   11.577442   20.185038
     40          1           0        6.992463   10.828249   19.179122
     41          1           0        9.629286    9.670018   19.831851
     42          1           0        7.301277    8.298139   18.561289
     43          1           0       10.092047    7.348324   19.276757
     44          1           0        7.499308    6.544931   20.578540
     45          1           0        9.634777    8.173173   21.894116
 ---------------------------------------------------------------------
                    Distance matrix (angstroms):
                    1          2          3          4          5
     1  O    0.000000
     2  C    1.434882   0.000000
     3  C    2.448866   1.519291   0.000000
     4  O    2.812997   2.468020   1.434587   0.000000
     5  H    2.267548   2.451540   1.987075   0.999057   0.000000
     6  C    3.841844   2.597199   1.520040   2.512984   3.340485
     7  O    4.901101   3.842039   2.484414   3.044806   3.983990
     8  H    5.778451   4.613404   3.369935   3.975715   4.933751
     9  C    3.029433   2.630206   3.906845   5.069669   4.972839
    10  O    2.965861   3.246497   4.616344   5.544947   5.196749
    11  H    3.932563   4.168477   5.558537   6.517644   6.171905
    12  C    2.372790   1.520086   2.474807   3.753915   3.833623
    13  O    3.600540   2.354992   2.715001   4.128930   4.519368
    14  C    4.208308   2.912230   2.440625   3.769984   4.427588
    15  O    5.474878   4.092282   3.681974   4.897479   5.634769
    16  C    6.535651   5.237024   4.826241   6.073981   6.807881
    17  C    7.141460   5.867190   5.809218   7.145669   7.780791
    18  O    6.458753   5.337890   5.580572   6.999226   7.478737
    19  H    5.464581   4.346029   4.672362   6.098794   6.531252
    20  C    8.474813   7.261234   7.161461   8.496925   9.142349
    21  O    9.206826   8.026939   8.143658   9.515193  10.095144
    22  H   10.085464   8.939277   9.037561  10.412639  10.993843
    23  C    7.833600   6.552904   5.593583   6.424441   7.352226
    24  O    7.216993   5.944284   4.843837   5.455833   6.429197
    25  H    7.936232   6.718380   5.509600   5.922974   6.918007
    26  C    7.777969   6.442888   5.804227   6.876708   7.721821
    27  O    8.968171   7.678519   7.086107   8.192010   9.019061
    28  C    9.395555   8.111227   7.768387   8.991845   9.747845
    29  O   10.529804   9.305601   8.933137  10.153657  10.904330
    30  H   11.293868  10.041055   9.711068  10.932402  11.689486
    31  H    0.960000   1.974540   3.116077   3.283991   2.623907
    32  H    3.993289   3.496248   4.577911   5.856046   5.854630
    33  H    3.370395   2.837910   4.190312   5.280714   5.198735
    34  H    2.568005   2.102067   2.670557   3.893382   3.947036
    35  H    2.058493   1.070000   2.132565   2.852592   2.858782
    36  H    2.616900   2.033791   1.070000   1.962630   2.363387
    37  H    4.272881   2.966082   2.156798   2.859923   3.680417
    38  H    4.524553   3.435332   2.838577   4.108859   4.740175
    39  H    8.877675   7.591054   6.600457   7.350645   8.302088
    40  H    7.693424   6.518601   5.492863   6.318307   7.215946
    41  H    8.050082   6.653172   6.098677   7.132965   7.982568
    42  H    6.378119   5.209066   4.745651   6.004784   6.695976
    43  H    7.372828   6.038950   6.053752   7.338387   7.979055
    44  H    8.408572   7.297700   7.183665   8.533210   9.139724
    45  H    9.820507   8.480382   8.177665   9.369979  10.141545
                    6          7          8          9         10
     6  C    0.000000
     7  O    1.435254   0.000000
     8  H    2.050417   1.000321   0.000000
     9  C    4.443256   5.662405   6.202188   0.000000
    10  O    5.481056   6.649394   7.307500   1.434904   0.000000
    11  H    6.325138   7.513212   8.113620   1.970549   0.999782
    12  C    3.019407   4.184506   4.796549   1.520259   2.517592
    13  O    2.451288   3.576095   3.927212   2.405391   3.723109
    14  C    1.520201   2.277798   2.525128   3.769467   4.981191
    15  O    2.415719   2.906188   2.634475   4.604413   5.960868
    16  C    3.615277   3.724683   3.268227   5.318935   6.653265
    17  C    4.742618   5.124027   4.723378   5.296578   6.658023
    18  O    4.848400   5.454668   5.305124   4.232464   5.510861
    19  H    4.080112   4.850348   4.853878   3.327885   4.653321
    20  C    6.089925   6.264471   5.771848   6.495943   7.777374
    21  O    7.153027   7.502743   7.047511   6.881929   8.122931
    22  H    8.050283   8.318078   7.835857   7.717276   8.902140
    23  C    4.156325   3.445069   2.509913   7.425536   8.699578
    24  O    3.383393   2.612737   1.621558   7.263019   8.500081
    25  H    4.123709   3.165208   2.234037   8.195717   9.399468
    26  C    4.403582   4.142749   3.365688   6.789237   8.135344
    27  O    5.745972   5.395155   4.617907   7.741909   9.059350
    28  C    6.507847   6.415654   5.725282   7.724084   9.047500
    29  O    7.714885   7.490428   6.796105   8.808350  10.063297
    30  H    8.460409   8.279826   7.550274   9.472247  10.747783
    31  H    4.448004   5.598322   6.447926   3.301937   3.088130
    32  H    4.875715   5.982511   6.407402   1.070000   2.036770
    33  H    4.617413   5.957616   6.436545   1.070000   2.036770
    34  H    3.308820   4.188849   4.856139   2.101308   2.720773
    35  H    2.877235   4.254583   4.915700   2.869399   3.578798
    36  H    2.031078   2.547348   3.478348   3.999292   4.585348
    37  H    1.070000   2.080416   2.387815   4.800962   5.903372
    38  H    2.146918   2.353353   2.616758   4.128638   5.208120
    39  H    5.148441   4.363021   3.388418   8.464168   9.754193
    40  H    4.199929   3.297160   2.504646   7.392667   8.577328
    41  H    4.648834   4.565737   3.764450   7.000046   8.399767
    42  H    3.715494   3.659249   3.343868   5.251356   6.470186
    43  H    4.937069   5.452112   5.011630   5.513146   6.922112
    44  H    6.231149   6.321111   5.911647   6.451484   7.630691
    45  H    6.858281   6.849892   6.109863   8.113356   9.484747
                   11         12         13         14         15
    11  H    0.000000
    12  C    3.333562   0.000000
    13  O    4.361803   1.434677   0.000000
    14  C    5.700971   2.501289   1.435228   0.000000
    15  O    6.544532   3.622200   2.244546   1.435324   0.000000
    16  C    7.140967   4.481136   3.135315   2.410942   1.435296
    17  C    6.943670   4.875699   3.546234   3.408194   2.403425
    18  O    5.701477   4.093011   3.007007   3.373454   2.904178
    19  H    4.944911   3.102177   2.036044   2.633279   2.485605
    20  C    7.973519   6.167831   4.924831   4.731276   3.784420
    21  O    8.149920   6.850247   5.678166   5.772066   4.818381
    22  H    8.884349   7.718960   6.588196   6.651610   5.726876
    23  C    9.335204   6.273638   5.045675   3.785199   2.973476
    24  O    9.219728   5.995216   4.871922   3.542655   2.933884
    25  H   10.148497   6.884180   5.821459   4.467823   3.931983
    26  C    8.640617   5.878774   4.520778   3.572253   2.428091
    27  O    9.482976   6.950907   5.624080   4.785394   3.723950
    28  C    9.326184   7.197867   5.866570   5.350012   4.224986
    29  O   10.302198   8.316090   7.057531   6.528739   5.526210
    30  H   10.937451   9.053174   7.764655   7.291577   6.198661
    31  H    3.947616   2.973489   4.158183   4.881668   6.039388
    32  H    2.203431   2.111127   2.547645   3.891458   4.548389
    33  H    2.334894   2.111127   2.665747   4.064408   4.684385
    34  H    3.561821   1.070000   2.031759   2.719809   3.989510
    35  H    4.379594   2.133105   2.639667   3.291668   4.190175
    36  H    5.543747   2.530461   2.905804   2.543209   3.933875
    37  H    6.695210   3.543959   2.857963   2.152628   2.520916
    38  H    5.934191   2.853098   2.070960   1.070000   2.070529
    39  H   10.372727   7.334983   6.085069   4.845742   3.952034
    40  H    9.243016   6.183464   5.086045   3.774934   3.304768
    41  H    8.868054   6.176066   4.761086   3.945618   2.588872
    42  H    6.988936   4.351802   3.201285   2.432592   2.074029
    43  H    7.171037   5.180856   3.812517   3.777169   2.578188
    44  H    7.831168   6.112254   5.006129   4.807829   4.128475
    45  H    9.733953   7.642742   6.257485   5.794783   4.516017
                   16         17         18         19         20
    16  C    0.000000
    17  C    1.520113   0.000000
    18  O    2.372609   1.434957   0.000000
    19  H    2.435821   2.020322   1.000738   0.000000
    20  C    2.555248   1.519570   2.285657   3.179152   0.000000
    21  O    3.797661   2.420234   2.771595   3.748611   1.435508
    22  H    4.603123   3.331521   3.627056   4.624414   2.071136
    23  C    2.555489   3.816867   4.912780   4.948919   4.330739
    24  O    3.204374   4.541163   5.511706   5.310193   5.388520
    25  H    4.148442   5.468062   6.484400   6.305192   6.205165
    26  C    1.519375   2.407946   3.658837   3.897405   2.877372
    27  O    2.489716   2.834654   4.076775   4.596340   2.482467
    28  C    2.942920   2.480490   3.647362   4.410727   1.520220
    29  O    4.156145   3.732335   4.664652   5.503047   2.425362
    30  H    4.891378   4.308260   5.266814   6.148933   2.982288
    31  H    7.178799   7.689125   6.997550   5.998593   9.067666
    32  H    4.990165   4.755373   3.523503   2.746976   5.799726
    33  H    5.535292   5.394625   4.444267   3.569441   6.676999
    34  H    4.620265   5.133879   4.297387   3.383397   6.274907
    35  H    5.467301   5.972883   5.529412   4.556228   7.441102
    36  H    4.829988   5.872298   5.550002   4.679501   7.096262
    37  H    3.887474   4.884838   5.137966   4.405934   6.303232
    38  H    2.447141   3.570306   3.461219   2.844108   4.654901
    39  H    3.439043   4.504939   5.723114   5.869303   4.776254
    40  H    2.754297   4.121103   5.017551   5.025442   4.524344
    41  H    2.081657   2.556457   3.922601   4.162113   3.151019
    42  H    1.070000   2.147504   2.534160   2.551236   2.835928
    43  H    2.154688   1.070000   2.075813   2.505572   2.152897
    44  H    2.817995   2.119768   2.400178   3.256766   1.070000
    45  H    3.449292   2.833037   4.101000   4.845226   2.128944
                   21         22         23         24         25
    21  O    0.000000
    22  H    0.999705   0.000000
    23  C    5.655732   6.276530   0.000000
    24  O    6.643614   7.375008   1.434895   0.000000
    25  H    7.468074   8.149101   1.974610   1.000394   0.000000
    26  C    4.154956   4.820298   1.520433   2.579408   3.336439
    27  O    3.725539   4.126742   2.409075   3.752346   4.312112
    28  C    2.444856   2.750607   3.729045   4.957658   5.603052
    29  O    3.017139   2.825438   4.658090   6.016164   6.547358
    30  H    3.190173   2.829360   5.336289   6.655280   7.148509
    31  H    9.710228  10.612311   8.507489   7.823133   8.536044
    32  H    6.088890   6.867237   7.296345   7.340933   8.308238
    33  H    6.946991   7.829977   7.625755   7.376281   8.309420
    34  H    7.053909   7.849339   6.328703   6.158709   7.013750
    35  H    8.103654   9.057783   6.778493   6.076195   6.847654
    36  H    8.144168   8.976346   5.615160   5.046280   5.700425
    37  H    7.274044   8.212225   4.299199   3.340712   4.043963
    38  H    5.811810   6.597158   3.711966   3.714242   4.581364
    39  H    6.038668   6.557465   1.070000   2.023009   2.095667
    40  H    5.934412   6.492167   1.070000   2.023009   2.445307
    41  H    4.177895   4.902625   2.085553   2.761477   3.476748
    42  H    4.155129   4.845713   2.847329   3.585515   4.470138
    43  H    2.609128   3.581375   4.129343   4.671035   5.578642
    44  H    2.046058   2.382384   4.593004   5.716182   6.521741
    45  H    2.588145   2.924538   4.083266   5.169799   5.776074
                   26         27         28         29         30
    26  C    0.000000
    27  O    1.434379   0.000000
    28  C    2.413970   1.435611   0.000000
    29  O    3.587863   2.263894   1.434388   0.000000
    30  H    4.246282   2.957385   1.974102   0.960000   0.000000
    31  H    8.411606   9.637813  10.010948  11.194477  11.920245
    32  H    6.497009   7.290707   7.128620   8.126117   8.772920
    33  H    6.936681   7.951218   7.872903   9.045981   9.637660
    34  H    6.020465   6.987351   7.300392   8.294284   9.095673
    35  H    6.604376   7.897924   8.266234   9.544333  10.211332
    36  H    5.856852   7.019874   7.732736   8.781407   9.617464
    37  H    4.509289   5.926045   6.641375   7.940500   8.603314
    38  H    3.595052   4.617037   5.261498   6.273872   7.116973
    39  H    2.097221   2.488450   3.849143   4.597212   5.165295
    40  H    2.097221   2.692896   4.045307   4.775603   5.568268
    41  H    1.070000   2.010899   2.621516   3.931263   4.392419
    42  H    2.147253   2.790984   3.326193   4.274869   5.128085
    43  H    2.730499   3.285067   2.839540   4.196357   4.589328
    44  H    3.310243   2.811758   2.120122   2.547779   3.274205
    45  H    2.773787   2.054966   1.070000   2.053995   2.119827
                   31         32         33         34         35
    31  H    0.000000
    32  H    4.348381   0.000000
    33  H    3.391030   1.732224   0.000000
    34  H    3.368519   2.428740   2.974837   0.000000
    35  H    2.118750   3.781923   2.660894   2.990881   0.000000
    36  H    3.481754   4.543991   4.531672   2.273018   2.938398
    37  H    4.687664   5.283996   4.735383   4.074924   2.848676
    38  H    5.325156   4.113225   4.648442   2.653897   4.051320
    39  H    9.537944   8.308960   8.631911   7.396900   7.776373
    40  H    8.450658   7.238187   7.738441   6.057463   6.907637
    41  H    8.587378   6.753505   6.983832   6.487924   6.642425
    42  H    7.119753   4.871284   5.668507   4.240185   5.639862
    43  H    7.812316   5.061206   5.400630   5.630968   5.953358
    44  H    9.072139   5.689561   6.796250   6.040975   7.621897
    45  H   10.363218   7.559374   8.125334   7.877312   8.504841
                   36         37         38         39         40
    36  H    0.000000
    37  H    2.953290   0.000000
    38  H    2.513558   3.013864   0.000000
    39  H    6.638439   5.202682   4.773982   0.000000
    40  H    5.314252   4.590716   3.407274   1.723534   0.000000
    41  H    6.326288   4.506553   4.228754   2.424699   2.953031
    42  H    4.512943   4.254514   2.000799   3.762055   2.622698
    43  H    6.295864   4.846947   4.196584   4.731499   4.661205
    44  H    6.960912   6.614647   4.505517   5.092840   4.534543
    45  H    8.270461   6.827016   5.881871   4.079480   4.626278
                   41         42         43         44         45
    41  H    0.000000
    42  H    2.985968   0.000000
    43  H    2.431572   3.033552   0.000000
    44  H    3.854935   2.679973   3.010378   0.000000
    45  H    2.548238   4.070452   2.782093   2.990342   0.000000
 Stoichiometry    C12H22O11
 Framework group  C1[X(C12H22O11)]
 Deg. of freedom   129
 Full point group                 C1      NOp   1
 Largest Abelian subgroup         C1      NOp   1
 Largest concise Abelian subgroup C1      NOp   1
                         Standard orientation:                         
 ---------------------------------------------------------------------
 Center     Atomic      Atomic             Coordinates (Angstroms)
 Number     Number       Type             X           Y           Z
 ---------------------------------------------------------------------
      1          8           0        5.020064   -0.390647   -0.269180
      2          6           0        3.730703   -0.103214    0.291014
      3          6           0        3.217452    1.261554   -0.135868
      4          8           0        4.209629    2.294002   -0.048261
      5          1           0        5.107934    1.872831   -0.165636
      6          6           0        1.805655    1.640214    0.281228
      7          8           0        1.224787    2.702597   -0.489413
      8          1           0        0.288047    2.925363   -0.218236
      9          6           0        3.021131   -2.631020    0.133887
     10          8           0        4.206787   -3.239934   -0.397521
     11          1           0        4.130172   -4.220888   -0.220250
     12          6           0        2.780389   -1.172819   -0.222317
     13          8           0        1.478252   -0.788788    0.241641
     14          6           0        0.905718    0.479317   -0.110489
     15          8           0       -0.296380    0.516067    0.672942
     16          6           0       -1.486696    0.185679   -0.057855
     17          6           0       -2.044220   -1.122291    0.479850
     18          8           0       -1.183739   -2.166733    0.002549
     19          1           0       -0.223208   -1.893148    0.065851
     20          6           0       -3.376136   -1.533264   -0.125290
     21          8           0       -3.850090   -2.733439    0.503702
     22          1           0       -4.680257   -3.125280    0.107855
     23          6           0       -2.204598    2.635787   -0.167921
     24          8           0       -1.122395    3.324322    0.475258
     25          1           0       -1.340841    4.300263    0.450566
     26          6           0       -2.576306    1.210440    0.208821
     27          8           0       -3.855556    0.891501   -0.356194
     28          6           0       -4.370924   -0.393416    0.023757
     29          8           0       -5.491829   -0.593548   -0.848590
     30          1           0       -6.265387   -0.822575   -0.328250
     31          1           0        5.628860   -0.627926    0.434145
     32          1           0        2.179366   -3.196532   -0.207475
     33          1           0        3.061825   -2.706927    1.200415
     34          1           0        2.774846   -1.105621   -1.290190
     35          1           0        3.783194   -0.150575    1.358676
     36          1           0        3.109750    1.140511   -1.193530
     37          1           0        1.745586    1.839983    1.330696
     38          1           0        0.676076    0.513039   -1.155011
     39          1           0       -3.080783    3.232765   -0.023639
     40          1           0       -1.990507    2.633204   -1.216280
     41          1           0       -2.716893    1.214240    1.269538
     42          1           0       -1.283113    0.110134   -1.105589
     43          1           0       -2.087967   -1.117911    1.548946
     44          1           0       -3.232777   -1.727585   -1.167685
     45          1           0       -4.713154   -0.352366    1.036719
 ---------------------------------------------------------------------
 Rotational constants (GHZ):      0.4044460      0.1458449      0.1101545
 Standard basis: 6-31+G(d,p) (6D, 7F)
 There are   547 symmetry adapted basis functions of A   symmetry.
 Integral buffers will be    131072 words long.
 Raffenetti 2 integral format.
 Two-electron integral symmetry is turned on.
   547 basis functions,   890 primitive gaussians,   547 cartesian basis functions
    91 alpha electrons       91 beta electrons
       nuclear repulsion energy      2285.6486965886 Hartrees.
 NAtoms=   45 NActive=   45 NUniq=   45 SFac= 1.00D+00 NAtFMM=   50 NAOKFM=F Big=F
 One-electron integrals computed using PRISM.
 NBasis=   547 RedAO= T  NBF=   547
 NBsUse=   547 1.00D-06 NBFU=   547
 Harris functional with IExCor=  402 diagonalized for initial guess.
 ExpMin= 4.38D-02 ExpMax= 5.48D+03 ExpMxC= 8.25D+02 IAcc=2 IRadAn=         0 AccDes= 0.00D+00
 HarFok:  IExCor=  402 AccDes= 0.00D+00 IRadAn=         0 IDoV= 1
 ScaDFX=  1.000000  1.000000  1.000000  1.000000
 FoFCou: FMM=F IPFlag=           0 FMFlag=      100000 FMFlg1=           0
         NFxFlg=           0 DoJE=T BraDBF=F KetDBF=T FulRan=T
         Omega=  0.000000  0.000000  1.000000  0.000000  0.000000 ICntrl=     500 IOpCl=  0
         NMat0=    1 NMatS0=    1 NMatT0=    0 NMatD0=    1 NMtDS0=    0 NMtDT0=    0
         I1Cent=           4 NGrid=           0.
 Petite list used in FoFCou.
 Initial guess orbital symmetries:
       Occupied  (A) (A) (A) (A) (A) (A) (A) (A) (A) (A) (A) (A)
                 (A) (A) (A) (A) (A) (A) (A) (A) (A) (A) (A) (A)
                 (A) (A) (A) (A) (A) (A) (A) (A) (A) (A) (A) (A)
                 (A) (A) (A) (A) (A) (A) (A) (A) (A) (A) (A) (A)
                 (A) (A) (A) (A) (A) (A) (A) (A) (A) (A) (A) (A)
                 (A) (A) (A) (A) (A) (A) (A) (A) (A) (A) (A) (A)
                 (A) (A) (A) (A) (A) (A) (A) (A) (A) (A) (A) (A)
                 (A) (A) (A) (A) (A) (A) (A)
       Virtual   (A) (A) (A) (A) (A) (A) (A) (A) (A) (A) (A) (A)
                 (A) (A) (A) (A) (A) (A) (A) (A) (A) (A) (A) (A)
                 (A) (A) (A) (A) (A) (A) (A) (A) (A) (A) (A) (A)
                 (A) (A) (A) (A) (A) (A) (A) (A) (A) (A) (A) (A)
                 (A) (A) (A) (A) (A) (A) (A) (A) (A) (A) (A) (A)
                 (A) (A) (A) (A) (A) (A) (A) (A) (A) (A) (A) (A)
                 (A) (A) (A) (A) (A) (A) (A) (A) (A) (A) (A) (A)
                 (A) (A) (A) (A) (A) (A) (A) (A) (A) (A) (A) (A)
                 (A) (A) (A) (A) (A) (A) (A) (A) (A) (A) (A) (A)
                 (A) (A) (A) (A) (A) (A) (A) (A) (A) (A) (A) (A)
                 (A) (A) (A) (A) (A) (A) (A) (A) (A) (A) (A) (A)
                 (A) (A) (A) (A) (A) (A) (A) (A) (A) (A) (A) (A)
                 (A) (A) (A) (A) (A) (A) (A) (A) (A) (A) (A) (A)
                 (A) (A) (A) (A) (A) (A) (A) (A) (A) (A) (A) (A)
                 (A) (A) (A) (A) (A) (A) (A) (A) (A) (A) (A) (A)
                 (A) (A) (A) (A) (A) (A) (A) (A) (A) (A) (A) (A)
                 (A) (A) (A) (A) (A) (A) (A) (A) (A) (A) (A) (A)
                 (A) (A) (A) (A) (A) (A) (A) (A) (A) (A) (A) (A)
                 (A) (A) (A) (A) (A) (A) (A) (A) (A) (A) (A) (A)
                 (A) (A) (A) (A) (A) (A) (A) (A) (A) (A) (A) (A)
                 (A) (A) (A) (A) (A) (A) (A) (A) (A) (A) (A) (A)
                 (A) (A) (A) (A) (A) (A) (A) (A) (A) (A) (A) (A)
                 (A) (A) (A) (A) (A) (A) (A) (A) (A) (A) (A) (A)
                 (A) (A) (A) (A) (A) (A) (A) (A) (A) (A) (A) (A)
                 (A) (A) (A) (A) (A) (A) (A) (A) (A) (A) (A) (A)
                 (A) (A) (A) (A) (A) (A) (A) (A) (A) (A) (A) (A)
                 (A) (A) (A) (A) (A) (A) (A) (A) (A) (A) (A) (A)
                 (A) (A) (A) (A) (A) (A) (A) (A) (A) (A) (A) (A)
                 (A) (A) (A) (A) (A) (A) (A) (A) (A) (A) (A) (A)
                 (A) (A) (A) (A) (A) (A) (A) (A) (A) (A) (A) (A)
                 (A) (A) (A) (A) (A) (A) (A) (A) (A) (A) (A) (A)
                 (A) (A) (A) (A) (A) (A) (A) (A) (A) (A) (A) (A)
                 (A) (A) (A) (A) (A) (A) (A) (A) (A) (A) (A) (A)
                 (A) (A) (A) (A) (A) (A) (A) (A) (A) (A) (A) (A)
                 (A) (A) (A) (A) (A) (A) (A) (A) (A) (A) (A) (A)
                 (A) (A) (A) (A) (A) (A) (A) (A) (A) (A) (A) (A)
                 (A) (A) (A) (A) (A) (A) (A) (A) (A) (A) (A) (A)
                 (A) (A) (A) (A) (A) (A) (A) (A) (A) (A) (A) (A)
 The electronic state of the initial guess is 1-A.
 Requested convergence on RMS density matrix=1.00D-08 within 128 cycles.
 Requested convergence on MAX density matrix=1.00D-06.
 Requested convergence on             energy=1.00D-06.
 No special actions if energy rises.
 SCF Done:  E(RB3LYP) =  -1297.93307910     A.U. after   13 cycles
             Convg  =    0.6896D-08             -V/T =  2.0087
 Range of M.O.s used for correlation:     1   547
 NBasis=   547 NAE=    91 NBE=    91 NFC=     0 NFV=     0
 NROrb=    547 NOA=    91 NOB=    91 NVA=   456 NVB=   456

 **** Warning!!: The largest alpha MO coefficient is  0.67426441D+02

          Differentiating once with respect to electric field.
                with respect to dipole field.
          Electric field/nuclear overlap derivatives assumed to be zero.
          There are     3 degrees of freedom in the 1st order CPHF.  IDoFFX=0.
      3 vectors produced by pass  0 Test12= 1.38D-12 3.33D-08 XBig12= 1.20D+02 1.19D+00.
 AX will form     3 AO Fock derivatives at one time.
      3 vectors produced by pass  1 Test12= 1.38D-12 3.33D-08 XBig12= 2.23D+01 4.82D-01.
      3 vectors produced by pass  2 Test12= 1.38D-12 3.33D-08 XBig12= 9.47D+00 2.40D-01.
      3 vectors produced by pass  3 Test12= 1.38D-12 3.33D-08 XBig12= 9.29D-01 8.68D-02.
      3 vectors produced by pass  4 Test12= 1.38D-12 3.33D-08 XBig12= 3.07D-01 4.52D-02.
      3 vectors produced by pass  5 Test12= 1.38D-12 3.33D-08 XBig12= 5.47D-02 1.34D-02.
      3 vectors produced by pass  6 Test12= 1.38D-12 3.33D-08 XBig12= 1.80D-02 1.13D-02.
      3 vectors produced by pass  7 Test12= 1.38D-12 3.33D-08 XBig12= 2.12D-03 4.22D-03.
      3 vectors produced by pass  8 Test12= 1.38D-12 3.33D-08 XBig12= 3.77D-04 1.47D-03.
      3 vectors produced by pass  9 Test12= 1.38D-12 3.33D-08 XBig12= 1.17D-04 7.20D-04.
      3 vectors produced by pass 10 Test12= 1.38D-12 3.33D-08 XBig12= 2.61D-05 3.41D-04.
      3 vectors produced by pass 11 Test12= 1.38D-12 3.33D-08 XBig12= 6.44D-06 1.67D-04.
      3 vectors produced by pass 12 Test12= 1.38D-12 3.33D-08 XBig12= 7.20D-07 5.77D-05.
      3 vectors produced by pass 13 Test12= 1.38D-12 3.33D-08 XBig12= 1.59D-07 2.91D-05.
      3 vectors produced by pass 14 Test12= 1.38D-12 3.33D-08 XBig12= 3.09D-08 1.26D-05.
      3 vectors produced by pass 15 Test12= 1.38D-12 3.33D-08 XBig12= 8.43D-09 6.72D-06.
      3 vectors produced by pass 16 Test12= 1.38D-12 3.33D-08 XBig12= 7.93D-10 1.92D-06.
      3 vectors produced by pass 17 Test12= 1.38D-12 3.33D-08 XBig12= 7.93D-11 5.75D-07.
      3 vectors produced by pass 18 Test12= 1.38D-12 3.33D-08 XBig12= 2.55D-11 3.15D-07.
      3 vectors produced by pass 19 Test12= 1.38D-12 3.33D-08 XBig12= 9.10D-12 1.94D-07.
      2 vectors produced by pass 20 Test12= 1.38D-12 3.33D-08 XBig12= 4.77D-12 2.12D-07.
      2 vectors produced by pass 21 Test12= 1.38D-12 3.33D-08 XBig12= 1.73D-12 1.18D-07.
 Inverted reduced A of dimension    64 with in-core refinement.
 End of Minotr Frequency-dependent properties file   721 does not exist.
 End of Minotr Frequency-dependent properties file   722 does not exist.
 Symmetrizing basis deriv contribution to polar:
 IMax=3 JMax=2 DiffMx= 0.00D+00
 G2DrvN: will do    23 centers at a time, making    2 passes doing MaxLOS=2.
 Calling FoFCou, ICntrl=  3107 FMM=F I1Cent=   0 AccDes= 0.00D+00.
 Calling FoFCou, ICntrl=  3107 FMM=F I1Cent=   0 AccDes= 0.00D+00.
 FoFDir/FoFCou used for L=0 through L=2.
 End of G2Drv Frequency-dependent properties file   721 does not exist.
 End of G2Drv Frequency-dependent properties file   722 does not exist.
          IDoAtm=111111111111111111111111111111111111111111111
          Differentiating once with respect to electric field.
                with respect to dipole field.
          Differentiating once with respect to nuclear coordinates.
          There are   138 degrees of freedom in the 1st order CPHF.  IDoFFX=5.
 Will reuse    3 saved solutions.
    135 vectors produced by pass  0 Test12= 4.15D-14 1.00D-09 XBig12= 2.09D-01 7.65D-02.
 AX will form    68 AO Fock derivatives at one time.
    135 vectors produced by pass  1 Test12= 4.15D-14 1.00D-09 XBig12= 2.73D-02 1.31D-02.
    132 vectors produced by pass  2 Test12= 4.15D-14 1.00D-09 XBig12= 2.24D-04 1.22D-03.
    132 vectors produced by pass  3 Test12= 4.15D-14 1.00D-09 XBig12= 7.82D-07 7.73D-05.
    132 vectors produced by pass  4 Test12= 4.15D-14 1.00D-09 XBig12= 1.23D-09 3.72D-06.
    132 vectors produced by pass  5 Test12= 4.15D-14 1.00D-09 XBig12= 3.09D-12 2.03D-07.
     80 vectors produced by pass  6 Test12= 4.15D-14 1.00D-09 XBig12= 1.22D-13 1.96D-08.
 Inverted reduced A of dimension   878 with in-core refinement.
 Isotropic polarizability for W=    0.000000      188.12 Bohr**3.
 End of Minotr Frequency-dependent properties file   721 does not exist.
 End of Minotr Frequency-dependent properties file   722 does not exist.

 **********************************************************************

            Population analysis using the SCF density.

 **********************************************************************

 Orbital symmetries:
       Occupied  (A) (A) (A) (A) (A) (A) (A) (A) (A) (A) (A) (A)
                 (A) (A) (A) (A) (A) (A) (A) (A) (A) (A) (A) (A)
                 (A) (A) (A) (A) (A) (A) (A) (A) (A) (A) (A) (A)
                 (A) (A) (A) (A) (A) (A) (A) (A) (A) (A) (A) (A)
                 (A) (A) (A) (A) (A) (A) (A) (A) (A) (A) (A) (A)
                 (A) (A) (A) (A) (A) (A) (A) (A) (A) (A) (A) (A)
                 (A) (A) (A) (A) (A) (A) (A) (A) (A) (A) (A) (A)
                 (A) (A) (A) (A) (A) (A) (A)
       Virtual   (A) (A) (A) (A) (A) (A) (A) (A) (A) (A) (A) (A)
                 (A) (A) (A) (A) (A) (A) (A) (A) (A) (A) (A) (A)
                 (A) (A) (A) (A) (A) (A) (A) (A) (A) (A) (A) (A)
                 (A) (A) (A) (A) (A) (A) (A) (A) (A) (A) (A) (A)
                 (A) (A) (A) (A) (A) (A) (A) (A) (A) (A) (A) (A)
                 (A) (A) (A) (A) (A) (A) (A) (A) (A) (A) (A) (A)
                 (A) (A) (A) (A) (A) (A) (A) (A) (A) (A) (A) (A)
                 (A) (A) (A) (A) (A) (A) (A) (A) (A) (A) (A) (A)
                 (A) (A) (A) (A) (A) (A) (A) (A) (A) (A) (A) (A)
                 (A) (A) (A) (A) (A) (A) (A) (A) (A) (A) (A) (A)
                 (A) (A) (A) (A) (A) (A) (A) (A) (A) (A) (A) (A)
                 (A) (A) (A) (A) (A) (A) (A) (A) (A) (A) (A) (A)
                 (A) (A) (A) (A) (A) (A) (A) (A) (A) (A) (A) (A)
                 (A) (A) (A) (A) (A) (A) (A) (A) (A) (A) (A) (A)
                 (A) (A) (A) (A) (A) (A) (A) (A) (A) (A) (A) (A)
                 (A) (A) (A) (A) (A) (A) (A) (A) (A) (A) (A) (A)
                 (A) (A) (A) (A) (A) (A) (A) (A) (A) (A) (A) (A)
                 (A) (A) (A) (A) (A) (A) (A) (A) (A) (A) (A) (A)
                 (A) (A) (A) (A) (A) (A) (A) (A) (A) (A) (A) (A)
                 (A) (A) (A) (A) (A) (A) (A) (A) (A) (A) (A) (A)
                 (A) (A) (A) (A) (A) (A) (A) (A) (A) (A) (A) (A)
                 (A) (A) (A) (A) (A) (A) (A) (A) (A) (A) (A) (A)
                 (A) (A) (A) (A) (A) (A) (A) (A) (A) (A) (A) (A)
                 (A) (A) (A) (A) (A) (A) (A) (A) (A) (A) (A) (A)
                 (A) (A) (A) (A) (A) (A) (A) (A) (A) (A) (A) (A)
                 (A) (A) (A) (A) (A) (A) (A) (A) (A) (A) (A) (A)
                 (A) (A) (A) (A) (A) (A) (A) (A) (A) (A) (A) (A)
                 (A) (A) (A) (A) (A) (A) (A) (A) (A) (A) (A) (A)
                 (A) (A) (A) (A) (A) (A) (A) (A) (A) (A) (A) (A)
                 (A) (A) (A) (A) (A) (A) (A) (A) (A) (A) (A) (A)
                 (A) (A) (A) (A) (A) (A) (A) (A) (A) (A) (A) (A)
                 (A) (A) (A) (A) (A) (A) (A) (A) (A) (A) (A) (A)
                 (A) (A) (A) (A) (A) (A) (A) (A) (A) (A) (A) (A)
                 (A) (A) (A) (A) (A) (A) (A) (A) (A) (A) (A) (A)
                 (A) (A) (A) (A) (A) (A) (A) (A) (A) (A) (A) (A)
                 (A) (A) (A) (A) (A) (A) (A) (A) (A) (A) (A) (A)
                 (A) (A) (A) (A) (A) (A) (A) (A) (A) (A) (A) (A)
                 (A) (A) (A) (A) (A) (A) (A) (A) (A) (A) (A) (A)
 The electronic state is 1-A.
 Alpha  occ. eigenvalues --  -19.20657 -19.19211 -19.19019 -19.18496 -19.18147
 Alpha  occ. eigenvalues --  -19.17880 -19.17286 -19.17202 -19.15445 -19.14428
 Alpha  occ. eigenvalues --  -19.13483 -10.30862 -10.30740 -10.26462 -10.26057
 Alpha  occ. eigenvalues --  -10.25991 -10.25819 -10.25705 -10.25145 -10.24815
 Alpha  occ. eigenvalues --  -10.24766 -10.24631 -10.24367  -1.09763  -1.08892
 Alpha  occ. eigenvalues --   -1.06548  -1.05484  -1.03834  -1.03454  -1.02976
 Alpha  occ. eigenvalues --   -1.02628  -1.01497  -1.00498  -0.99816  -0.82346
 Alpha  occ. eigenvalues --   -0.80050  -0.79376  -0.78465  -0.72316  -0.70397
 Alpha  occ. eigenvalues --   -0.67426  -0.65068  -0.63446  -0.62599  -0.61419
 Alpha  occ. eigenvalues --   -0.59972  -0.56664  -0.56292  -0.55417  -0.55034
 Alpha  occ. eigenvalues --   -0.53943  -0.53574  -0.53108  -0.52036  -0.51066
 Alpha  occ. eigenvalues --   -0.50847  -0.50121  -0.49859  -0.48774  -0.46621
 Alpha  occ. eigenvalues --   -0.46220  -0.45433  -0.44491  -0.44049  -0.43219
 Alpha  occ. eigenvalues --   -0.42697  -0.41885  -0.41261  -0.40322  -0.39014
 Alpha  occ. eigenvalues --   -0.37848  -0.37637  -0.37508  -0.36515  -0.36059
 Alpha  occ. eigenvalues --   -0.35641  -0.34585  -0.34328  -0.34003  -0.33565
 Alpha  occ. eigenvalues --   -0.32492  -0.31496  -0.30589  -0.30340  -0.29810
 Alpha  occ. eigenvalues --   -0.29075  -0.28931  -0.28372  -0.26765  -0.26377
 Alpha  occ. eigenvalues --   -0.26099
 Alpha virt. eigenvalues --   -0.02368  -0.01912  -0.01878  -0.00285   0.00251
 Alpha virt. eigenvalues --    0.00923   0.01721   0.02385   0.02784   0.03653
 Alpha virt. eigenvalues --    0.03922   0.04181   0.04976   0.05216   0.05599
 Alpha virt. eigenvalues --    0.06267   0.06304   0.07443   0.07809   0.07989
 Alpha virt. eigenvalues --    0.08426   0.08982   0.09210   0.09928   0.10099
 Alpha virt. eigenvalues --    0.10575   0.11061   0.11347   0.11872   0.12297
 Alpha virt. eigenvalues --    0.12590   0.12834   0.13054   0.13655   0.13707
 Alpha virt. eigenvalues --    0.13954   0.14001   0.14392   0.14821   0.15195
 Alpha virt. eigenvalues --    0.15586   0.16235   0.16452   0.17091   0.17341
 Alpha virt. eigenvalues --    0.17517   0.17581   0.17857   0.18086   0.18745
 Alpha virt. eigenvalues --    0.18993   0.19087   0.19577   0.19930   0.20161
 Alpha virt. eigenvalues --    0.20655   0.20949   0.21445   0.21686   0.21936
 Alpha virt. eigenvalues --    0.22174   0.22618   0.22759   0.23339   0.23542
 Alpha virt. eigenvalues --    0.23600   0.23985   0.24149   0.24508   0.24590
 Alpha virt. eigenvalues --    0.24867   0.25103   0.25390   0.25763   0.26209
 Alpha virt. eigenvalues --    0.26412   0.26482   0.26703   0.26829   0.27205
 Alpha virt. eigenvalues --    0.27631   0.27936   0.28218   0.28675   0.28954
 Alpha virt. eigenvalues --    0.29112   0.29546   0.29833   0.30414   0.31034
 Alpha virt. eigenvalues --    0.31280   0.31395   0.32065   0.32335   0.32664
 Alpha virt. eigenvalues --    0.32800   0.33053   0.33401   0.33600   0.33896
 Alpha virt. eigenvalues --    0.34504   0.34562   0.35647   0.35814   0.36068
 Alpha virt. eigenvalues --    0.36376   0.36562   0.37471   0.37810   0.37891
 Alpha virt. eigenvalues --    0.38268   0.38456   0.38828   0.39646   0.39956
 Alpha virt. eigenvalues --    0.40491   0.40806   0.41019   0.41440   0.41806
 Alpha virt. eigenvalues --    0.42128   0.42942   0.43001   0.43543   0.43729
 Alpha virt. eigenvalues --    0.44502   0.45204   0.45880   0.46474   0.46936
 Alpha virt. eigenvalues --    0.47252   0.48052   0.48437   0.48858   0.50457
 Alpha virt. eigenvalues --    0.50744   0.52390   0.55761   0.62774   0.63650
 Alpha virt. eigenvalues --    0.65250   0.66161   0.67738   0.68840   0.69440
 Alpha virt. eigenvalues --    0.70073   0.71486   0.72042   0.74548   0.74772
 Alpha virt. eigenvalues --    0.74878   0.76145   0.77275   0.78255   0.79022
 Alpha virt. eigenvalues --    0.79967   0.80857   0.81764   0.82952   0.83763
 Alpha virt. eigenvalues --    0.85007   0.85973   0.87291   0.88433   0.89667
 Alpha virt. eigenvalues --    0.90598   0.91685   0.93168   0.94136   0.95191
 Alpha virt. eigenvalues --    0.95846   0.96215   0.97929   0.98594   1.01100
 Alpha virt. eigenvalues --    1.01355   1.01921   1.02809   1.03296   1.03618
 Alpha virt. eigenvalues --    1.04630   1.05704   1.06334   1.06775   1.07326
 Alpha virt. eigenvalues --    1.08219   1.08555   1.08739   1.09520   1.10417
 Alpha virt. eigenvalues --    1.11561   1.12070   1.13368   1.14164   1.14936
 Alpha virt. eigenvalues --    1.16199   1.16640   1.18671   1.19848   1.21690
 Alpha virt. eigenvalues --    1.21842   1.22762   1.23001   1.23655   1.25367
 Alpha virt. eigenvalues --    1.25505   1.26673   1.27158   1.27364   1.29329
 Alpha virt. eigenvalues --    1.29433   1.30035   1.30358   1.30611   1.31385
 Alpha virt. eigenvalues --    1.32097   1.33024   1.33759   1.34548   1.34737
 Alpha virt. eigenvalues --    1.35686   1.36009   1.36510   1.36937   1.37969
 Alpha virt. eigenvalues --    1.38475   1.39605   1.40784   1.41665   1.42981
 Alpha virt. eigenvalues --    1.45110   1.45381   1.47220   1.47643   1.48191
 Alpha virt. eigenvalues --    1.49531   1.50987   1.51301   1.51834   1.53083
 Alpha virt. eigenvalues --    1.54443   1.54988   1.56725   1.57610   1.58041
 Alpha virt. eigenvalues --    1.58898   1.59472   1.60424   1.61233   1.62312
 Alpha virt. eigenvalues --    1.62486   1.63190   1.65023   1.65477   1.66596
 Alpha virt. eigenvalues --    1.67315   1.67825   1.68340   1.69434   1.70205
 Alpha virt. eigenvalues --    1.70640   1.71601   1.72511   1.73479   1.74292
 Alpha virt. eigenvalues --    1.74623   1.75015   1.76456   1.77567   1.77842
 Alpha virt. eigenvalues --    1.79217   1.80100   1.80896   1.82063   1.82518
 Alpha virt. eigenvalues --    1.83544   1.83983   1.85142   1.86106   1.86341
 Alpha virt. eigenvalues --    1.88032   1.89041   1.89469   1.90422   1.91161
 Alpha virt. eigenvalues --    1.91596   1.92644   1.93814   1.94309   1.94652
 Alpha virt. eigenvalues --    1.95254   1.95798   1.96740   1.97247   1.97904
 Alpha virt. eigenvalues --    1.98937   1.99366   1.99752   2.00583   2.02187
 Alpha virt. eigenvalues --    2.02257   2.03384   2.05002   2.05353   2.07634
 Alpha virt. eigenvalues --    2.07917   2.08776   2.10156   2.10326   2.11839
 Alpha virt. eigenvalues --    2.12505   2.12800   2.13826   2.14574   2.16116
 Alpha virt. eigenvalues --    2.16521   2.17385   2.17709   2.18438   2.20846
 Alpha virt. eigenvalues --    2.21844   2.23562   2.23718   2.26253   2.27857
 Alpha virt. eigenvalues --    2.29171   2.30432   2.31193   2.32701   2.34515
 Alpha virt. eigenvalues --    2.36166   2.36508   2.37139   2.39501   2.39845
 Alpha virt. eigenvalues --    2.40954   2.41219   2.42518   2.43414   2.45211
 Alpha virt. eigenvalues --    2.45682   2.46465   2.48263   2.49148   2.49995
 Alpha virt. eigenvalues --    2.51264   2.51644   2.54199   2.55172   2.55567
 Alpha virt. eigenvalues --    2.57244   2.57977   2.58606   2.59271   2.60296
 Alpha virt. eigenvalues --    2.61320   2.62407   2.63478   2.63850   2.64310
 Alpha virt. eigenvalues --    2.65417   2.66014   2.66716   2.68220   2.69082
 Alpha virt. eigenvalues --    2.70432   2.71539   2.72204   2.73914   2.74784
 Alpha virt. eigenvalues --    2.76023   2.77661   2.78155   2.79130   2.80272
 Alpha virt. eigenvalues --    2.80889   2.83123   2.84188   2.84753   2.85146
 Alpha virt. eigenvalues --    2.86714   2.86856   2.87326   2.88381   2.88674
 Alpha virt. eigenvalues --    2.90195   2.90471   2.90955   2.93047   2.94122
 Alpha virt. eigenvalues --    2.94872   2.97510   2.98643   2.99578   3.00092
 Alpha virt. eigenvalues --    3.00708   3.01727   3.02935   3.03809   3.05330
 Alpha virt. eigenvalues --    3.07079   3.07906   3.08764   3.09569   3.12584
 Alpha virt. eigenvalues --    3.15897   3.19339   3.25153   3.27154   3.27994
 Alpha virt. eigenvalues --    3.30396   3.36328   3.37205   3.39007   3.41607
 Alpha virt. eigenvalues --    3.42627   3.44785   3.45628   3.47050   3.47796
 Alpha virt. eigenvalues --    3.49301   3.50700   3.52555   3.52866   3.54297
 Alpha virt. eigenvalues --    3.56367   3.57272   3.59529   3.61203   3.64348
 Alpha virt. eigenvalues --    3.66115   3.70536   3.74958   4.30117   4.33459
 Alpha virt. eigenvalues --    4.33700   4.34320   4.41164   4.44147   4.46082
 Alpha virt. eigenvalues --    4.48042   4.50808   4.52100   4.53135   4.55799
 Alpha virt. eigenvalues --    4.57744   4.59799   4.62649   4.66483   4.72998
 Alpha virt. eigenvalues --    4.79268   4.79436   4.83551   4.84433   4.89765
 Alpha virt. eigenvalues --    4.94411
          Condensed to atoms (all electrons):
              1          2          3          4          5          6
     1  O    8.311710   0.208972  -0.084635  -0.016720   0.031491   0.113901
     2  C    0.208972   8.998813  -1.091956   0.001658  -0.126860  -2.606346
     3  C   -0.084635  -1.091956   9.238208   0.260842   0.036983  -0.084191
     4  O   -0.016720   0.001658   0.260842   8.258362   0.199854  -0.157564
     5  H    0.031491  -0.126860   0.036983   0.199854   0.418433   0.059209
     6  C    0.113901  -2.606346  -0.084191  -0.157564   0.059209  11.812039
     7  O   -0.001297   0.049112  -0.134073   0.011872  -0.000716   0.187712
     8  H    0.000022  -0.014644   0.017290  -0.000674   0.000006   0.044733
     9  C    0.003631   0.043966  -0.107787   0.003855  -0.003050   0.166532
    10  O   -0.011177   0.017539   0.015006   0.000031  -0.000019  -0.008828
    11  H    0.000500  -0.007037  -0.002182   0.000000   0.000000   0.000678
    12  C   -0.233567  -1.251661  -1.045248   0.031087   0.017069   0.635346
    13  O    0.007839  -0.106930   0.072799  -0.000944   0.000068  -0.089767
    14  C    0.009879   1.115203  -0.271508  -0.029799   0.010630  -3.427388
    15  O    0.000142  -0.030816  -0.015646   0.000493   0.000058   0.149609
    16  C    0.002830   0.122474  -0.469280   0.000416   0.001460  -0.825153
    17  C    0.000053   0.027801  -0.026121   0.000856   0.000045   0.190963
    18  O    0.000035   0.004724  -0.000010  -0.000010   0.000000  -0.013305
    19  H   -0.000037  -0.000220   0.002930  -0.000004   0.000000   0.004262
    20  C    0.000089   0.003661  -0.021364   0.000006   0.000003   0.081340
    21  O    0.000000  -0.000030  -0.000061   0.000000   0.000000  -0.000740
    22  H    0.000000   0.000002   0.000000   0.000000   0.000000  -0.000039
    23  C    0.000098   0.008020  -0.020862  -0.000339   0.000006  -0.341299
    24  O    0.000001   0.005960  -0.000420   0.000187  -0.000003  -0.028104
    25  H    0.000000  -0.000062   0.000367  -0.000002   0.000000  -0.004299
    26  C   -0.000318   0.010980  -0.073488   0.001236   0.000002   0.029442
    27  O    0.000000  -0.000142   0.000877   0.000000   0.000000   0.007881
    28  C    0.000001  -0.001034   0.001629   0.000007   0.000000   0.015390
    29  O    0.000000   0.000004   0.000048   0.000000   0.000000  -0.000329
    30  H    0.000000   0.000000   0.000000   0.000000   0.000000  -0.000001
    31  H    0.230839   0.095033  -0.037544   0.002036  -0.003128  -0.006454
    32  H   -0.000560  -0.002317  -0.008192   0.000029   0.000000  -0.004464
    33  H    0.004055  -0.027443   0.006781  -0.000022   0.000000   0.016115
    34  H    0.008360  -0.002649  -0.050900  -0.000103   0.000010   0.014920
    35  H   -0.043101   0.395033  -0.092972   0.001313  -0.000019   0.006131
    36  H   -0.005937   0.104267   0.161790  -0.061355  -0.002065  -0.237065
    37  H   -0.000745   0.076525  -0.178384   0.004872  -0.000048   0.276628
    38  H    0.000101   0.029488  -0.047591  -0.000503   0.000004  -0.038685
    39  H    0.000000   0.000027   0.000066   0.000000   0.000000  -0.000189
    40  H    0.000000  -0.000116   0.000632   0.000001   0.000000   0.008164
    41  H    0.000000  -0.000081   0.001172   0.000000   0.000000   0.004737
    42  H   -0.000002  -0.000452   0.001405   0.000007   0.000000   0.016073
    43  H    0.000000  -0.000624   0.000956   0.000000   0.000000   0.001070
    44  H    0.000000   0.000013   0.000066   0.000000   0.000000   0.000469
    45  H    0.000000  -0.000004   0.000016   0.000000   0.000000   0.000154
              7          8          9         10         11         12
     1  O   -0.001297   0.000022   0.003631  -0.011177   0.000500  -0.233567
     2  C    0.049112  -0.014644   0.043966   0.017539  -0.007037  -1.251661
     3  C   -0.134073   0.017290  -0.107787   0.015006  -0.002182  -1.045248
     4  O    0.011872  -0.000674   0.003855   0.000031   0.000000   0.031087
     5  H   -0.000716   0.000006  -0.003050  -0.000019   0.000000   0.017069
     6  C    0.187712   0.044733   0.166532  -0.008828   0.000678   0.635346
     7  O    8.291670   0.211538  -0.001319   0.000014   0.000000   0.015034
     8  H    0.211538   0.337643   0.000631   0.000000   0.000000   0.003856
     9  C   -0.001319   0.000631   7.091565  -0.046898   0.034810  -1.504366
    10  O    0.000014   0.000000  -0.046898   8.336677   0.186984   0.124400
    11  H    0.000000   0.000000   0.034810   0.186984   0.447858   0.002608
    12  C    0.015034   0.003856  -1.504366   0.124400   0.002608  10.756520
    13  O    0.012448   0.000360  -0.010599  -0.000390  -0.000270  -0.186643
    14  C   -0.038722  -0.024351  -0.513079   0.020906  -0.005560  -1.194289
    15  O   -0.009274   0.016184   0.003203   0.000016   0.000008   0.039705
    16  C    0.056825  -0.007331  -0.221282  -0.003381  -0.000065   0.047671
    17  C   -0.005157  -0.001694   0.002757   0.000456  -0.000036  -0.200813
    18  O   -0.000008  -0.000005   0.005440  -0.000097   0.000011  -0.012627
    19  H   -0.000090  -0.000006  -0.006156  -0.000035  -0.000003   0.007304
    20  C    0.004785   0.000536   0.007414   0.000071   0.000004  -0.035010
    21  O   -0.000010   0.000000   0.000224   0.000000   0.000000  -0.000126
    22  H    0.000000   0.000000  -0.000002   0.000000   0.000000   0.000044
    23  C    0.046313   0.017910  -0.006245  -0.000029   0.000000   0.001999
    24  O   -0.037629  -0.018981   0.000001  -0.000001   0.000000  -0.002460
    25  H    0.002384  -0.002239  -0.000008   0.000000   0.000000  -0.000215
    26  C   -0.043126  -0.040333   0.002579  -0.000050   0.000005   0.074483
    27  O    0.000014   0.000055  -0.000032   0.000000   0.000000  -0.000351
    28  C   -0.000971  -0.000006  -0.001119   0.000000   0.000000   0.000841
    29  O   -0.000004   0.000000  -0.000005   0.000000   0.000000   0.000102
    30  H    0.000000   0.000000   0.000000   0.000000   0.000000  -0.000001
    31  H   -0.000012   0.000000  -0.012115   0.001461  -0.000004  -0.024261
    32  H   -0.000009   0.000000   0.401129  -0.046086  -0.009534  -0.017706
    33  H   -0.000003   0.000000   0.570561  -0.062808  -0.004397  -0.221174
    34  H   -0.000076   0.000002   0.035677   0.005176  -0.000202   0.191542
    35  H    0.000161   0.000003   0.015692  -0.000077   0.000000  -0.098548
    36  H    0.006784  -0.000157   0.032847  -0.000090   0.000001   0.041981
    37  H   -0.036742  -0.005999   0.005830   0.000003   0.000000   0.016706
    38  H   -0.006816  -0.002218   0.003667   0.000055   0.000000  -0.018284
    39  H   -0.000694   0.000483  -0.000008   0.000000   0.000000  -0.000080
    40  H    0.001964   0.001571   0.000051   0.000000   0.000000   0.000857
    41  H   -0.000069   0.000078   0.000112   0.000000   0.000000   0.000609
    42  H   -0.001674   0.000094   0.000625   0.000002   0.000000   0.002012
    43  H    0.000000   0.000004  -0.000487   0.000000   0.000000   0.002192
    44  H    0.000002   0.000000  -0.000063   0.000000   0.000000   0.000242
    45  H    0.000000   0.000000   0.000004   0.000000   0.000000   0.000008
             13         14         15         16         17         18
     1  O    0.007839   0.009879   0.000142   0.002830   0.000053   0.000035
     2  C   -0.106930   1.115203  -0.030816   0.122474   0.027801   0.004724
     3  C    0.072799  -0.271508  -0.015646  -0.469280  -0.026121  -0.000010
     4  O   -0.000944  -0.029799   0.000493   0.000416   0.000856  -0.000010
     5  H    0.000068   0.010630   0.000058   0.001460   0.000045   0.000000
     6  C   -0.089767  -3.427388   0.149609  -0.825153   0.190963  -0.013305
     7  O    0.012448  -0.038722  -0.009274   0.056825  -0.005157  -0.000008
     8  H    0.000360  -0.024351   0.016184  -0.007331  -0.001694  -0.000005
     9  C   -0.010599  -0.513079   0.003203  -0.221282   0.002757   0.005440
    10  O   -0.000390   0.020906   0.000016  -0.003381   0.000456  -0.000097
    11  H   -0.000270  -0.005560   0.000008  -0.000065  -0.000036   0.000011
    12  C   -0.186643  -1.194289   0.039705   0.047671  -0.200813  -0.012627
    13  O    8.558217   0.239344  -0.015963   0.075376  -0.077534   0.009305
    14  C    0.239344  11.829398   0.104845  -1.074953  -0.422581  -0.027488
    15  O   -0.015963   0.104845   8.232276  -0.088984   0.055230  -0.010855
    16  C    0.075376  -1.074953  -0.088984  13.974009  -2.836901   0.012793
    17  C   -0.077534  -0.422581   0.055230  -2.836901   8.842682   0.151471
    18  O    0.009305  -0.027488  -0.010855   0.012793   0.151471   8.309241
    19  H    0.028008  -0.034366   0.014970  -0.034495   0.045776   0.186207
    20  C   -0.003402  -0.528455   0.040822  -1.734602  -0.004900  -0.116425
    21  O    0.000060   0.002661  -0.000156   0.017922  -0.083128   0.003146
    22  H   -0.000001  -0.000150   0.000031  -0.008316   0.017307  -0.000686
    23  C    0.034539   0.131473  -0.044190   0.621778  -0.665500   0.021532
    24  O   -0.000628   0.058386  -0.022034   0.057085   0.005644   0.000119
    25  H    0.000026  -0.004892   0.001750  -0.008866  -0.001446   0.000002
    26  C   -0.044005  -0.938876  -0.027085  -2.850819   0.319816   0.054553
    27  O    0.000065  -0.001136   0.009039  -0.102466  -0.029938   0.000307
    28  C   -0.000790   0.053489   0.020908   0.702938   0.282158   0.011214
    29  O    0.000023   0.001466   0.000007   0.024989  -0.002385  -0.000492
    30  H    0.000000  -0.000041  -0.000001  -0.008126   0.008052  -0.000071
    31  H   -0.001049   0.005029  -0.000013   0.000400  -0.000033  -0.000001
    32  H   -0.000953   0.000531  -0.000291   0.008039   0.001097  -0.000793
    33  H    0.005732   0.003458  -0.000288  -0.005091   0.000686   0.000108
    34  H   -0.038187   0.076945  -0.000834  -0.007458   0.005303   0.000126
    35  H    0.012540   0.041876  -0.000030  -0.004911   0.001213   0.000046
    36  H    0.005919   0.120820   0.000908   0.005518   0.002018   0.000068
    37  H    0.010232   0.028610  -0.008931   0.042874   0.001193   0.000102
    38  H   -0.067486   0.364113  -0.067389   0.009459   0.043594  -0.000609
    39  H    0.000010  -0.001878   0.000454   0.012990  -0.005466   0.000038
    40  H    0.000052   0.006703   0.004048  -0.004959   0.009229  -0.000029
    41  H   -0.000191   0.070660   0.005334  -0.016845   0.033139  -0.000139
    42  H   -0.000165   0.022075  -0.060309   0.305808   0.038004  -0.005366
    43  H    0.000765   0.062574  -0.013447   0.097191   0.299565  -0.038022
    44  H    0.000208   0.006457  -0.001163   0.109182  -0.136244   0.000407
    45  H    0.000003   0.006727   0.000007   0.108387   0.000283  -0.000939
             19         20         21         22         23         24
     1  O   -0.000037   0.000089   0.000000   0.000000   0.000098   0.000001
     2  C   -0.000220   0.003661  -0.000030   0.000002   0.008020   0.005960
     3  C    0.002930  -0.021364  -0.000061   0.000000  -0.020862  -0.000420
     4  O   -0.000004   0.000006   0.000000   0.000000  -0.000339   0.000187
     5  H    0.000000   0.000003   0.000000   0.000000   0.000006  -0.000003
     6  C    0.004262   0.081340  -0.000740  -0.000039  -0.341299  -0.028104
     7  O   -0.000090   0.004785  -0.000010   0.000000   0.046313  -0.037629
     8  H   -0.000006   0.000536   0.000000   0.000000   0.017910  -0.018981
     9  C   -0.006156   0.007414   0.000224  -0.000002  -0.006245   0.000001
    10  O   -0.000035   0.000071   0.000000   0.000000  -0.000029  -0.000001
    11  H   -0.000003   0.000004   0.000000   0.000000   0.000000   0.000000
    12  C    0.007304  -0.035010  -0.000126   0.000044   0.001999  -0.002460
    13  O    0.028008  -0.003402   0.000060  -0.000001   0.034539  -0.000628
    14  C   -0.034366  -0.528455   0.002661  -0.000150   0.131473   0.058386
    15  O    0.014970   0.040822  -0.000156   0.000031  -0.044190  -0.022034
    16  C   -0.034495  -1.734602   0.017922  -0.008316   0.621778   0.057085
    17  C    0.045776  -0.004900  -0.083128   0.017307  -0.665500   0.005644
    18  O    0.186207  -0.116425   0.003146  -0.000686   0.021532   0.000119
    19  H    0.377285   0.003220  -0.001368   0.000028  -0.006246  -0.000012
    20  C    0.003220   8.736657   0.162447  -0.003090   0.002257  -0.005657
    21  O   -0.001368   0.162447   8.270795   0.209771   0.005799   0.000020
    22  H    0.000028  -0.003090   0.209771   0.425087  -0.000101   0.000000
    23  C   -0.006246   0.002257   0.005799  -0.000101   7.148685  -0.241947
    24  O   -0.000012  -0.005657   0.000020   0.000000  -0.241947   8.589983
    25  H    0.000000   0.000903   0.000000   0.000000   0.052853   0.196681
    26  C    0.020443   0.768309   0.023025   0.001208  -1.431065   0.170578
    27  O    0.000233  -0.155369   0.009356  -0.000297  -0.097829   0.001766
    28  C   -0.000776  -1.231841  -0.049097   0.001796  -0.186838   0.007000
    29  O    0.000057  -0.170261   0.008094   0.010556  -0.006426   0.000073
    30  H    0.000000  -0.015160  -0.001995  -0.001020   0.000543   0.000000
    31  H    0.000000   0.000001   0.000000   0.000000   0.000005   0.000000
    32  H    0.000931  -0.001051  -0.000002   0.000000   0.000010   0.000000
    33  H   -0.000021   0.000304   0.000000   0.000000  -0.000004   0.000000
    34  H    0.000122   0.000722   0.000000   0.000000   0.000166   0.000007
    35  H   -0.000004   0.000037   0.000000   0.000000   0.000067   0.000011
    36  H    0.000003   0.000097   0.000000   0.000000   0.000991   0.000185
    37  H   -0.000012   0.000747   0.000000   0.000000   0.011342   0.003462
    38  H   -0.000172   0.011033  -0.000005   0.000000  -0.000541   0.001451
    39  H    0.000000   0.002143  -0.000005   0.000000   0.450567  -0.039031
    40  H    0.000001  -0.004528  -0.000003   0.000000   0.531770  -0.085791
    41  H    0.000002  -0.054601  -0.000103   0.000003  -0.019133   0.004794
    42  H   -0.001927   0.009555  -0.000603   0.000006   0.006043  -0.000352
    43  H   -0.002984  -0.114678   0.002636  -0.000080   0.030824  -0.000072
    44  H    0.000326   0.386265  -0.043404  -0.006050   0.014412  -0.000015
    45  H    0.000006  -0.158236   0.002510  -0.000652  -0.002702   0.000010
             25         26         27         28         29         30
     1  O    0.000000  -0.000318   0.000000   0.000001   0.000000   0.000000
     2  C   -0.000062   0.010980  -0.000142  -0.001034   0.000004   0.000000
     3  C    0.000367  -0.073488   0.000877   0.001629   0.000048   0.000000
     4  O   -0.000002   0.001236   0.000000   0.000007   0.000000   0.000000
     5  H    0.000000   0.000002   0.000000   0.000000   0.000000   0.000000
     6  C   -0.004299   0.029442   0.007881   0.015390  -0.000329  -0.000001
     7  O    0.002384  -0.043126   0.000014  -0.000971  -0.000004   0.000000
     8  H   -0.002239  -0.040333   0.000055  -0.000006   0.000000   0.000000
     9  C   -0.000008   0.002579  -0.000032  -0.001119  -0.000005   0.000000
    10  O    0.000000  -0.000050   0.000000   0.000000   0.000000   0.000000
    11  H    0.000000   0.000005   0.000000   0.000000   0.000000   0.000000
    12  C   -0.000215   0.074483  -0.000351   0.000841   0.000102  -0.000001
    13  O    0.000026  -0.044005   0.000065  -0.000790   0.000023   0.000000
    14  C   -0.004892  -0.938876  -0.001136   0.053489   0.001466  -0.000041
    15  O    0.001750  -0.027085   0.009039   0.020908   0.000007  -0.000001
    16  C   -0.008866  -2.850819  -0.102466   0.702938   0.024989  -0.008126
    17  C   -0.001446   0.319816  -0.029938   0.282158  -0.002385   0.008052
    18  O    0.000002   0.054553   0.000307   0.011214  -0.000492  -0.000071
    19  H    0.000000   0.020443   0.000233  -0.000776   0.000057   0.000000
    20  C    0.000903   0.768309  -0.155369  -1.231841  -0.170261  -0.015160
    21  O    0.000000   0.023025   0.009356  -0.049097   0.008094  -0.001995
    22  H    0.000000   0.001208  -0.000297   0.001796   0.010556  -0.001020
    23  C    0.052853  -1.431065  -0.097829  -0.186838  -0.006426   0.000543
    24  O    0.196681   0.170578   0.001766   0.007000   0.000073   0.000000
    25  H    0.399901  -0.013164  -0.000525  -0.002432   0.000001   0.000000
    26  C   -0.013164  11.065326   0.371920  -0.982830  -0.068767   0.009822
    27  O   -0.000525   0.371920   8.373221   0.076552  -0.064071   0.001931
    28  C   -0.002432  -0.982830   0.076552   6.171957   0.427562   0.013125
    29  O    0.000001  -0.068767  -0.064071   0.427562   8.220441   0.232611
    30  H    0.000000   0.009822   0.001931   0.013125   0.232611   0.407537
    31  H    0.000000  -0.000009   0.000000   0.000000   0.000000   0.000000
    32  H    0.000000   0.000368   0.000000   0.000059   0.000000   0.000000
    33  H    0.000000  -0.000219   0.000000  -0.000007   0.000000   0.000000
    34  H    0.000000  -0.001122   0.000000  -0.000038   0.000000   0.000000
    35  H    0.000000  -0.000235   0.000000  -0.000006   0.000000   0.000000
    36  H    0.000000  -0.000124  -0.000001  -0.000023   0.000000   0.000000
    37  H   -0.000013  -0.012158  -0.000002  -0.000184   0.000000   0.000000
    38  H    0.000009   0.007359   0.000181  -0.000813  -0.000003   0.000000
    39  H   -0.012553  -0.076535  -0.004441   0.000615  -0.000280  -0.000001
    40  H   -0.000564  -0.210833   0.009596   0.010480  -0.000073   0.000000
    41  H   -0.000200   0.193801  -0.044274   0.050532  -0.001280   0.000019
    42  H    0.000003  -0.111102   0.005476   0.011906  -0.000500   0.000000
    43  H    0.000001  -0.063534   0.001688  -0.012893  -0.000353   0.000003
    44  H    0.000000  -0.017752   0.004047  -0.055858  -0.004896   0.000162
    45  H    0.000000  -0.080304  -0.060923   0.473295  -0.058579  -0.007872
             31         32         33         34         35         36
     1  O    0.230839  -0.000560   0.004055   0.008360  -0.043101  -0.005937
     2  C    0.095033  -0.002317  -0.027443  -0.002649   0.395033   0.104267
     3  C   -0.037544  -0.008192   0.006781  -0.050900  -0.092972   0.161790
     4  O    0.002036   0.000029  -0.000022  -0.000103   0.001313  -0.061355
     5  H   -0.003128   0.000000   0.000000   0.000010  -0.000019  -0.002065
     6  C   -0.006454  -0.004464   0.016115   0.014920   0.006131  -0.237065
     7  O   -0.000012  -0.000009  -0.000003  -0.000076   0.000161   0.006784
     8  H    0.000000   0.000000   0.000000   0.000002   0.000003  -0.000157
     9  C   -0.012115   0.401129   0.570561   0.035677   0.015692   0.032847
    10  O    0.001461  -0.046086  -0.062808   0.005176  -0.000077  -0.000090
    11  H   -0.000004  -0.009534  -0.004397  -0.000202   0.000000   0.000001
    12  C   -0.024261  -0.017706  -0.221174   0.191542  -0.098548   0.041981
    13  O   -0.001049  -0.000953   0.005732  -0.038187   0.012540   0.005919
    14  C    0.005029   0.000531   0.003458   0.076945   0.041876   0.120820
    15  O   -0.000013  -0.000291  -0.000288  -0.000834  -0.000030   0.000908
    16  C    0.000400   0.008039  -0.005091  -0.007458  -0.004911   0.005518
    17  C   -0.000033   0.001097   0.000686   0.005303   0.001213   0.002018
    18  O   -0.000001  -0.000793   0.000108   0.000126   0.000046   0.000068
    19  H    0.000000   0.000931  -0.000021   0.000122  -0.000004   0.000003
    20  C    0.000001  -0.001051   0.000304   0.000722   0.000037   0.000097
    21  O    0.000000  -0.000002   0.000000   0.000000   0.000000   0.000000
    22  H    0.000000   0.000000   0.000000   0.000000   0.000000   0.000000
    23  C    0.000005   0.000010  -0.000004   0.000166   0.000067   0.000991
    24  O    0.000000   0.000000   0.000000   0.000007   0.000011   0.000185
    25  H    0.000000   0.000000   0.000000   0.000000   0.000000   0.000000
    26  C   -0.000009   0.000368  -0.000219  -0.001122  -0.000235  -0.000124
    27  O    0.000000   0.000000   0.000000   0.000000   0.000000  -0.000001
    28  C    0.000000   0.000059  -0.000007  -0.000038  -0.000006  -0.000023
    29  O    0.000000   0.000000   0.000000   0.000000   0.000000   0.000000
    30  H    0.000000   0.000000   0.000000   0.000000   0.000000   0.000000
    31  H    0.393890   0.000001  -0.000115   0.000015  -0.011652  -0.000008
    32  H    0.000001   0.602079  -0.052861  -0.008466   0.000012  -0.000001
    33  H   -0.000115  -0.052861   0.622375   0.007094   0.003940   0.000003
    34  H    0.000015  -0.008466   0.007094   0.613911   0.006186   0.006094
    35  H   -0.011652   0.000012   0.003940   0.006186   0.623981   0.008563
    36  H   -0.000008  -0.000001   0.000003   0.006094   0.008563   0.679191
    37  H    0.000008   0.000001  -0.000007  -0.000003   0.002945   0.008525
    38  H    0.000002  -0.000023  -0.000001   0.005093   0.000006   0.003717
    39  H    0.000000   0.000000   0.000000   0.000000   0.000000   0.000000
    40  H    0.000000   0.000000   0.000000   0.000000   0.000000  -0.000001
    41  H    0.000000   0.000000   0.000000   0.000000   0.000000   0.000000
    42  H    0.000000   0.000000   0.000000  -0.000003   0.000000  -0.000009
    43  H    0.000000   0.000000   0.000000   0.000000   0.000000   0.000000
    44  H    0.000000   0.000000   0.000000   0.000000   0.000000   0.000000
    45  H    0.000000   0.000000   0.000000   0.000000   0.000000   0.000000
             37         38         39         40         41         42
     1  O   -0.000745   0.000101   0.000000   0.000000   0.000000  -0.000002
     2  C    0.076525   0.029488   0.000027  -0.000116  -0.000081  -0.000452
     3  C   -0.178384  -0.047591   0.000066   0.000632   0.001172   0.001405
     4  O    0.004872  -0.000503   0.000000   0.000001   0.000000   0.000007
     5  H   -0.000048   0.000004   0.000000   0.000000   0.000000   0.000000
     6  C    0.276628  -0.038685  -0.000189   0.008164   0.004737   0.016073
     7  O   -0.036742  -0.006816  -0.000694   0.001964  -0.000069  -0.001674
     8  H   -0.005999  -0.002218   0.000483   0.001571   0.000078   0.000094
     9  C    0.005830   0.003667  -0.000008   0.000051   0.000112   0.000625
    10  O    0.000003   0.000055   0.000000   0.000000   0.000000   0.000002
    11  H    0.000000   0.000000   0.000000   0.000000   0.000000   0.000000
    12  C    0.016706  -0.018284  -0.000080   0.000857   0.000609   0.002012
    13  O    0.010232  -0.067486   0.000010   0.000052  -0.000191  -0.000165
    14  C    0.028610   0.364113  -0.001878   0.006703   0.070660   0.022075
    15  O   -0.008931  -0.067389   0.000454   0.004048   0.005334  -0.060309
    16  C    0.042874   0.009459   0.012990  -0.004959  -0.016845   0.305808
    17  C    0.001193   0.043594  -0.005466   0.009229   0.033139   0.038004
    18  O    0.000102  -0.000609   0.000038  -0.000029  -0.000139  -0.005366
    19  H   -0.000012  -0.000172   0.000000   0.000001   0.000002  -0.001927
    20  C    0.000747   0.011033   0.002143  -0.004528  -0.054601   0.009555
    21  O    0.000000  -0.000005  -0.000005  -0.000003  -0.000103  -0.000603
    22  H    0.000000   0.000000   0.000000   0.000000   0.000003   0.000006
    23  C    0.011342  -0.000541   0.450567   0.531770  -0.019133   0.006043
    24  O    0.003462   0.001451  -0.039031  -0.085791   0.004794  -0.000352
    25  H   -0.000013   0.000009  -0.012553  -0.000564  -0.000200   0.000003
    26  C   -0.012158   0.007359  -0.076535  -0.210833   0.193801  -0.111102
    27  O   -0.000002   0.000181  -0.004441   0.009596  -0.044274   0.005476
    28  C   -0.000184  -0.000813   0.000615   0.010480   0.050532   0.011906
    29  O    0.000000  -0.000003  -0.000280  -0.000073  -0.001280  -0.000500
    30  H    0.000000   0.000000  -0.000001   0.000000   0.000019   0.000000
    31  H    0.000008   0.000002   0.000000   0.000000   0.000000   0.000000
    32  H    0.000001  -0.000023   0.000000   0.000000   0.000000   0.000000
    33  H   -0.000007  -0.000001   0.000000   0.000000   0.000000   0.000000
    34  H   -0.000003   0.005093   0.000000   0.000000   0.000000  -0.000003
    35  H    0.002945   0.000006   0.000000   0.000000   0.000000   0.000000
    36  H    0.008525   0.003717   0.000000  -0.000001   0.000000  -0.000009
    37  H    0.603264   0.004465   0.000003  -0.000024  -0.000013  -0.000008
    38  H    0.004465   0.622801   0.000003   0.000027  -0.000010   0.013206
    39  H    0.000003   0.000003   0.581375  -0.040886  -0.007389  -0.000033
    40  H   -0.000024   0.000027  -0.040886   0.600211   0.007146   0.004403
    41  H   -0.000013  -0.000010  -0.007389   0.007146   0.623536   0.006593
    42  H   -0.000008   0.013206  -0.000033   0.004403   0.006593   0.597229
    43  H   -0.000005  -0.000051   0.000009  -0.000003   0.001923   0.004392
    44  H    0.000000  -0.000016   0.000001   0.000000   0.000082   0.001625
    45  H    0.000000   0.000000  -0.000052  -0.000001   0.006100   0.000008
             43         44         45
     1  O    0.000000   0.000000   0.000000
     2  C   -0.000624   0.000013  -0.000004
     3  C    0.000956   0.000066   0.000016
     4  O    0.000000   0.000000   0.000000
     5  H    0.000000   0.000000   0.000000
     6  C    0.001070   0.000469   0.000154
     7  O    0.000000   0.000002   0.000000
     8  H    0.000004   0.000000   0.000000
     9  C   -0.000487  -0.000063   0.000004
    10  O    0.000000   0.000000   0.000000
    11  H    0.000000   0.000000   0.000000
    12  C    0.002192   0.000242   0.000008
    13  O    0.000765   0.000208   0.000003
    14  C    0.062574   0.006457   0.006727
    15  O   -0.013447  -0.001163   0.000007
    16  C    0.097191   0.109182   0.108387
    17  C    0.299565  -0.136244   0.000283
    18  O   -0.038022   0.000407  -0.000939
    19  H   -0.002984   0.000326   0.000006
    20  C   -0.114678   0.386265  -0.158236
    21  O    0.002636  -0.043404   0.002510
    22  H   -0.000080  -0.006050  -0.000652
    23  C    0.030824   0.014412  -0.002702
    24  O   -0.000072  -0.000015   0.000010
    25  H    0.000001   0.000000   0.000000
    26  C   -0.063534  -0.017752  -0.080304
    27  O    0.001688   0.004047  -0.060923
    28  C   -0.012893  -0.055858   0.473295
    29  O   -0.000353  -0.004896  -0.058579
    30  H    0.000003   0.000162  -0.007872
    31  H    0.000000   0.000000   0.000000
    32  H    0.000000   0.000000   0.000000
    33  H    0.000000   0.000000   0.000000
    34  H    0.000000   0.000000   0.000000
    35  H    0.000000   0.000000   0.000000
    36  H    0.000000   0.000000   0.000000
    37  H   -0.000005   0.000000   0.000000
    38  H   -0.000051  -0.000016   0.000000
    39  H    0.000009   0.000001  -0.000052
    40  H   -0.000003   0.000000  -0.000001
    41  H    0.001923   0.000082   0.006100
    42  H    0.004392   0.001625   0.000008
    43  H    0.582096   0.005093   0.001377
    44  H    0.005093   0.572957   0.005627
    45  H    0.001377   0.005627   0.638581
 Mulliken atomic charges:
              1
     1  O   -0.536451
     2  C   -0.047852
     3  C    0.044552
     4  O   -0.510981
     5  H    0.360577
     6  C    0.030713
     7  O   -0.580139
     8  H    0.465642
     9  C    0.001820
    10  O   -0.528829
    11  H    0.355825
    12  C    0.033212
    13  O   -0.428040
    14  C    0.145253
    15  O   -0.282349
    16  C   -0.104129
    17  C    0.113486
    18  O   -0.543016
    19  H    0.396821
    20  C    0.135201
    21  O   -0.537633
    22  H    0.354643
    23  C   -0.068703
    24  O   -0.620270
    25  H    0.396602
    26  C   -0.037401
    27  O   -0.312411
    28  C    0.194104
    29  O   -0.547333
    30  H    0.360484
    31  H    0.367677
    32  H    0.139025
    33  H    0.133249
    34  H    0.132569
    35  H    0.131799
    36  H    0.116546
    37  H    0.144939
    38  H    0.131384
    39  H    0.140739
    40  H    0.150903
    41  H    0.133959
    42  H    0.135955
    43  H    0.152876
    44  H    0.157821
    45  H    0.127160
 Sum of Mulliken atomic charges =   0.00000
 Mulliken charges with hydrogens summed into heavy atoms:
              1
     1  O   -0.168774
     2  C    0.083948
     3  C    0.161098
     4  O   -0.150404
     6  C    0.175651
     7  O   -0.114497
     9  C    0.274094
    10  O   -0.173004
    12  C    0.165781
    13  O   -0.428040
    14  C    0.276637
    15  O   -0.282349
    16  C    0.031826
    17  C    0.266362
    18  O   -0.146195
    20  C    0.293022
    21  O   -0.182990
    23  C    0.222940
    24  O   -0.223668
    26  C    0.096557
    27  O   -0.312411
    28  C    0.321264
    29  O   -0.186849
 Sum of Mulliken charges with hydrogens summed into heavy atoms =   0.00000
 APT atomic charges:
              1
     1  O   -0.641444
     2  C    0.413786
     3  C    0.400021
     4  O   -0.649988
     5  H    0.279207
     6  C    0.375841
     7  O   -0.797955
     8  H    0.515176
     9  C    0.476872
    10  O   -0.605466
    11  H    0.248696
    12  C    0.482226
    13  O   -0.920646
    14  C    0.982864
    15  O   -0.836198
    16  C    0.424639
    17  C    0.349425
    18  O   -0.673517
    19  H    0.347073
    20  C    0.400340
    21  O   -0.622469
    22  H    0.255862
    23  C    0.438157
    24  O   -0.669778
    25  H    0.261216
    26  C    0.450315
    27  O   -0.787222
    28  C    0.914273
    29  O   -0.672629
    30  H    0.263689
    31  H    0.266680
    32  H   -0.048248
    33  H   -0.059517
    34  H   -0.055600
    35  H   -0.057021
    36  H   -0.060386
    37  H   -0.035170
    38  H   -0.054323
    39  H   -0.033720
    40  H   -0.034859
    41  H   -0.058763
    42  H   -0.025553
    43  H   -0.032825
    44  H   -0.024810
    45  H   -0.088251
 Sum of APT charges=   0.00000
 APT Atomic charges with hydrogens summed into heavy atoms:
              1
     1  O   -0.374765
     2  C    0.356765
     3  C    0.339635
     4  O   -0.370781
[...]
 0911,-0.04919222,-0.04631969,-0.01358534,-0.00250364,-0.00429782,0.002
 90550,-0.00212468,0.00061895,-0.00082095,0.00046261,0.00058397,-0.0008
 2328,-0.00025493,0.00067390,0.00044852,0.00010461,-0.00004574,-0.00001
 812,0.00006297,-0.00009842,0.00062463,0.00013644,0.00028830,0.00009581
 ,0.00004511,-0.00008018,0.00003130,-0.00002422,-0.00002280,-0.00294918
 ,-0.00039494,-0.00091381,0.00100478,0.00035423,-0.00117304,-0.00017331
 ,-0.00012380,-0.00007591,0.00006990,0.00001541,-0.00005929,0.00000755,
 -0.00000718,-0.00000670,-0.00000264,-0.00000469,-0.00000159,-0.0000013
 2,0.00001992,-0.00000626,0.00001243,0.00000051,-0.00001248,0.00003113,
 0.00000929,0.00003182,0.00001140,0.00000038,-0.00001143,0.00001248,-0.
 00000181,0.00002895,0.00001875,0.00022643,-0.00030497,0.00194568,0.000
 27996,0.00046471,0.00015428,0.00000621,-0.00002098,0.00028228,-0.00078
 257,0.00000363,0.00070638,-0.00003307,0.00017255,0.36954614,0.00000721
 ,-0.00002917,0.00003119,-0.00000397,0.00005276,-0.00001729,0.00002873,
 0.00000976,0.00001127,0.00000881,-0.00002472,-0.00001512,-0.00000636,0
 .00000873,-0.00000103,-0.00000025,0.00010660,0.00005839,0.00022222,-0.
 00005041,-0.00022972,-0.00022984,-0.00012005,0.00010554,0.00001989,-0.
 00001450,-0.00001872,-0.00000860,0.00001950,0.00003392,0.00000755,-0.0
 0000214,-0.00000568,-0.00005252,0.00001003,-0.00001271,0.00031141,-0.0
 0005832,0.00027330,-0.00144510,0.00123612,-0.00134268,-0.00904977,-0.0
 0117985,0.00349447,-0.05046895,-0.05232748,-0.00910768,0.02904089,0.00
 282844,0.00540609,-0.00094965,0.00341933,0.00053612,0.00065009,-0.0003
 7314,-0.00061591,0.00067629,0.00091145,-0.00087725,-0.00029420,-0.0002
 7478,0.00009003,-0.00012026,-0.00005975,0.00006746,-0.00178154,0.00196
 430,0.00059136,0.00035184,-0.00003794,-0.00012106,0.00000207,-0.000040
 36,0.00000080,-0.02764317,-0.00495177,-0.00521870,0.00183693,0.0016747
 7,0.00098358,0.00027735,-0.00059131,-0.00003126,-0.00003111,0.00013148
 ,0.00003163,-0.00000873,0.00001142,-0.00000633,0.00000050,0.00000133,-
 0.00000214,0.00000627,-0.00001929,0.00000258,-0.00000739,-0.00000329,0
 .00000618,-0.00000759,0.00001845,-0.00000761,0.00000241,-0.00000843,-0
 .00000033,0.00001074,0.00001110,0.00001473,0.00007059,0.00003723,-0.00
 006889,0.00054244,0.00043866,0.00034110,0.00039634,0.00029388,0.000067
 14,0.00093699,-0.00031255,0.00026604,-0.00090555,-0.00329994,-0.003358
 49,0.05647030,0.05500153,-0.00000824,-0.00001279,-0.00003174,0.0000001
 0,0.00001276,0.00002656,-0.00001134,0.00006267,0.00002285,-0.00001912,
 -0.00001822,-0.00002067,-0.00000019,0.00000412,-0.00000271,0.00009168,
 0.00011502,-0.00027973,-0.00024284,-0.00002702,0.00007224,0.00010946,-
 0.00015796,-0.00005860,-0.00002738,0.00002934,-0.00002690,-0.00000246,
 -0.00002843,-0.00000374,0.00000124,-0.00000106,-0.00000548,0.00003996,
 -0.00006666,-0.00010313,-0.00084932,-0.00035438,-0.00012603,0.00847850
 ,0.00164541,0.00185267,0.03288599,0.00931101,-0.01216586,-0.05538735,-
 0.00903317,-0.05117233,-0.01218758,-0.00378797,-0.00083956,0.00173760,
 -0.00114582,0.00050301,0.00035871,0.00006073,0.00009071,-0.00094274,-0
 .00033224,0.00037267,0.00027558,0.00010086,0.00000941,0.00003447,-0.00
 001056,-0.00003337,-0.00013419,0.00137200,0.00033588,0.00014009,0.0000
 1582,0.00009283,-0.00001975,0.00003661,0.00003865,-0.02305976,-0.00436
 478,-0.00247027,0.00130601,0.00119674,0.00191536,-0.00037315,0.0000195
 8,-0.00015491,0.00010154,0.00005178,-0.00018773,0.00001589,-0.00000141
 ,0.00000449,-0.00000101,0.00000332,0.00000311,-0.00000029,-0.00001181,
 0.00000166,-0.00000302,0.00000458,0.00000353,-0.00002013,-0.00002117,-
 0.00005942,-0.00000927,0.00000791,0.00001118,-0.00006232,-0.00002401,-
 0.00004749,-0.00025940,-0.00013107,0.00002935,-0.00125333,0.00024924,-
 0.00113347,0.00014041,0.00016037,-0.00000952,0.00067420,-0.00030274,0.
 00027154,-0.00047438,-0.00324351,-0.00296170,0.04906979,0.00661773,0.0
 6687041,0.00000351,0.00002616,-0.00002603,-0.00001711,-0.00002763,0.00
 001698,-0.00000161,-0.00003907,0.00001034,0.00000314,0.00003530,-0.000
 00012,-0.00000222,-0.00001163,0.00000490,0.00007710,0.00001354,0.00001
 982,0.00004559,0.00008683,0.00004848,-0.00007216,-0.00005059,-0.000091
 01,-0.00002263,-0.00003072,0.00009718,0.00000950,-0.00000408,-0.000065
 96,-0.00001237,0.00000655,0.00002046,-0.00000084,0.00002135,0.00005001
 ,0.00001804,0.00037116,-0.00017633,0.00012580,-0.00053175,-0.00038863,
 0.00192205,-0.00057553,0.00088575,-0.01423725,-0.00141343,0.00166652,-
 0.36115331,-0.02040284,0.01061728,-0.00382259,-0.00959731,-0.00742809,
 -0.00024452,-0.00055994,0.00074999,-0.01007629,0.00003407,0.00050886,0
 .00140310,0.00033529,-0.00031822,0.00024168,0.00003448,-0.00009135,0.0
 0048521,0.00043613,0.00023006,0.00003396,-0.00002873,0.00005365,-0.000
 00323,0.00001000,-0.00000585,-0.00110744,-0.00111739,-0.00057258,0.000
 45158,0.00040493,-0.00004279,-0.00103103,-0.00103222,-0.00046348,0.000
 34406,0.00026105,0.00027229,-0.00003604,-0.00000025,0.00009346,-0.0000
 0374,-0.00000640,0.00000481,0.00001137,0.00003900,-0.00001080,0.000009
 89,0.00000257,-0.00001165,0.00001227,-0.00000697,0.00001435,0.00000633
 ,0.00000097,-0.00000731,0.00000947,-0.00000104,0.00000232,0.00000395,0
 .00002217,-0.00003332,0.00014227,0.00000287,0.00026937,-0.00003325,0.0
 0013541,-0.00001916,0.00014857,-0.00029485,0.00004667,0.00116290,0.000
 45781,0.00040451,-0.00017212,0.00154879,-0.00051368,0.38463053,-0.0000
 0284,0.00002770,-0.00005114,-0.00001995,-0.00004410,0.00002610,0.00000
 953,0.00000142,-0.00001063,-0.00000782,0.00002981,-0.00001599,0.000003
 93,-0.00000899,0.00000222,-0.00013512,-0.00008423,-0.00006795,-0.00006
 033,0.00007972,0.00010328,0.00003011,0.00001653,-0.00008095,-0.0000378
 0,-0.00003257,0.00013427,0.00001424,-0.00002083,-0.00008886,-0.0000191
 0,0.00001006,0.00002140,0.00004594,0.00007933,0.00007705,0.00001102,0.
 00050138,-0.00022631,0.00022981,-0.00012258,-0.00009294,-0.00133796,0.
 00165768,-0.00170891,0.02931094,0.00106457,-0.00048217,-0.02085202,-0.
 04159092,0.00443216,-0.03084954,-0.01277346,-0.01011024,-0.00083353,-0
 .00042555,0.00136456,-0.00780568,0.00108362,0.00193831,-0.00017107,0.0
 0072561,-0.00092674,0.00017444,0.00000838,-0.00024330,0.00000463,-0.00
 007077,-0.00005181,-0.00004863,-0.00003361,0.00007633,-0.00000068,0.00
 001588,-0.00000288,0.00129688,0.00192933,0.00105633,-0.00021387,-0.000
 17296,-0.00028185,0.00021844,-0.00062029,0.00007992,0.00003323,0.00013
 335,0.00034078,-0.00002221,0.00006263,0.00004526,-0.00000450,-0.000002
 41,0.00000576,0.00000080,0.00005354,-0.00001019,0.00001793,0.00001266,
 -0.00002605,0.00000524,-0.00001954,0.00000738,0.00000227,0.00000497,-0
 .00000299,0.00000076,-0.00000132,-0.00000272,-0.00000645,-0.00002009,0
 .00003370,-0.00026870,-0.00004187,-0.00001217,-0.00007953,-0.00008318,
 0.00001291,-0.00022598,0.00002951,-0.00004227,-0.00035799,-0.00055936,
 -0.00037999,0.00148221,-0.00419954,0.00185207,0.03098726,0.05335626,0.
 00001078,0.00001276,-0.00001408,-0.00003376,-0.00001464,0.00000561,-0.
 00000129,-0.00003383,0.00000997,0.00000824,0.00001615,0.00000143,-0.00
 000287,-0.00000479,0.00000364,-0.00001566,0.00002655,0.00005859,0.0000
 5208,0.00001205,-0.00003230,-0.00003208,-0.00000082,0.00003018,-0.0000
 5503,-0.00003653,0.00007838,0.00003033,0.00000423,-0.00003787,-0.00001
 556,0.00000070,0.00001408,-0.00001431,0.00003058,0.00002370,0.00023547
 ,0.00023362,-0.00022466,-0.00042886,-0.00031526,-0.00040454,0.00002040
 ,-0.00118010,0.00146448,-0.01314939,0.00224375,0.00080695,0.01214023,0
 .00496955,-0.04392990,-0.02274846,-0.01193173,-0.00330942,-0.00158743,
 -0.00026698,0.00086225,0.03335459,0.00299544,-0.00051323,-0.00159219,-
 0.00151931,0.00245202,-0.00019606,-0.00033483,0.00038979,0.00007678,0.
 00016989,0.00019435,0.00002596,-0.00001389,-0.00002920,0.00000389,-0.0
 0001399,-0.00000072,0.00024437,-0.00054006,-0.00074896,-0.00004080,-0.
 00042807,-0.00008053,0.00062041,0.00136367,0.00144950,-0.00043393,-0.0
 0024988,-0.00048790,-0.00000467,-0.00011658,-0.00008885,-0.00000492,-0
 .00000270,-0.00000106,-0.00000325,0.00003119,-0.00000716,0.00002697,0.
 00000498,-0.00002976,0.00001849,-0.00000684,0.00001591,0.00001187,0.00
 000149,-0.00001245,0.00001073,0.00000221,0.00000499,0.00001838,0.00003
 012,-0.00002704,0.00021999,0.00002609,-0.00003263,0.00001823,0.0001125
 5,-0.00000744,0.00006378,-0.00007735,-0.00001105,0.00036790,-0.0002847
 6,0.00028973,-0.00091315,0.00163434,-0.00059074,-0.00723261,0.00250255
 ,0.04816331,0.00000056,-0.00000017,-0.00002916,-0.00001015,-0.00000413
 ,0.00001573,-0.00000161,-0.00001885,0.00002163,0.00000366,0.00001406,-
 0.00001951,-0.00000218,-0.00000249,0.00000450,0.00001528,0.00000537,0.
 00002546,0.00001523,0.00002104,-0.00001756,-0.00001124,-0.00001314,0.0
 0000563,-0.00001627,0.00000617,0.00002749,0.00000838,-0.00001474,-0.00
 002515,-0.00000745,0.00000364,0.00000483,0.00000594,0.00002728,0.00004
 846,0.00001497,0.00004656,-0.00012518,-0.00004537,-0.00010853,0.000065
 26,0.00045417,0.00001297,0.00013058,-0.00074207,0.00060502,-0.00022376
 ,-0.01070518,-0.00530195,0.00033416,0.00179962,-0.00011135,-0.00191087
 ,0.00043106,0.00013307,-0.00013384,-0.33135690,-0.09173361,-0.02049819
 ,-0.02074527,0.00937348,-0.00818370,0.00017494,0.00008088,0.00039909,-
 0.00002380,-0.00003462,0.00000426,0.00003498,0.00003678,-0.00001820,-0
 .00000927,-0.00000676,-0.00000242,-0.00016431,-0.00017063,-0.00010393,
 0.00107124,-0.00121977,0.00029830,-0.00245660,-0.00088974,0.00076012,0
 .00135537,0.00037536,-0.00005999,0.00019034,0.00024098,0.00024515,-0.0
 0000307,0.00000102,0.00000384,-0.00000194,0.00001040,-0.00000311,0.000
 00782,0.00000173,-0.00000683,0.00000330,-0.00000447,0.00000062,0.00000
 436,0.00000070,-0.00000373,0.00000590,0.00000062,0.,0.00000227,0.00000
 593,-0.00000682,0.00002381,-0.00000859,0.00002961,0.00000642,0.0000061
 5,0.00001135,0.00002822,-0.00002472,0.00000711,0.00004824,0.00010651,0
 .00003706,0.00057677,-0.00033604,0.00024134,0.00024516,-0.00063015,0.0
 0124648,0.35922858,0.00000257,-0.00000326,0.00000749,-0.00000022,0.000
 00221,-0.00000613,-0.00000522,0.00000131,-0.00000046,0.00000476,-0.000
 00465,0.00000442,-0.00000184,0.00000174,-0.00000120,0.00000220,0.00000
 431,0.00000228,0.00001727,-0.00000340,0.00000204,-0.00001611,-0.000005
 63,-0.00001339,0.00000270,0.00000456,-0.00001710,-0.00000183,0.0000026
 0,0.00001445,0.00000426,-0.00000116,-0.00000521,-0.00000762,0.00000056
 ,-0.00001209,0.00002085,-0.00002314,0.00001164,-0.00004559,0.00002189,
 -0.00000661,0.00021431,0.00000509,0.00004744,-0.00089249,0.00021805,-0
 .00018464,-0.00883862,-0.00165486,-0.00079601,0.00148332,0.00018175,-0
 .00162283,0.00021180,-0.00008216,-0.00007850,-0.09572457,-0.06985352,-
 0.00692308,0.03892609,-0.00463241,0.00891157,0.00044093,0.00155913,-0.
 00053710,-0.00005924,0.00002671,-0.00003085,0.00003058,-0.00001661,0.0
 0000718,-0.00000476,0.00000189,0.00000298,-0.00015270,-0.00028240,0.00
 004954,0.00155970,0.00161603,0.00078308,-0.02875029,-0.00809048,-0.004
 10734,0.00155774,0.00170772,0.00210877,0.00009012,0.00010740,0.0004199
 5,-0.00000004,0.00000105,-0.00000180,0.00000120,-0.00000510,0.00000180
 ,-0.00000109,-0.00000308,0.00000254,0.00000159,0.00000288,0.00000061,0
 .00000111,-0.00000076,-0.00000052,0.00000026,0.00000120,0.00000043,0.0
 0000224,0.00000322,-0.00000427,0.00002254,0.00000049,0.00001879,0.0000
 0738,-0.00001197,0.00000358,0.00004375,-0.00004360,0.00002609,0.000131
 38,0.00016253,-0.00005122,0.00022509,-0.00008665,0.00016084,0.00008119
 ,-0.00015193,0.00142300,0.08915270,0.08268928,-0.00000226,-0.00001269,
 0.00000515,0.00000423,0.00001251,-0.00000554,0.00000515,0.00002191,0.0
 0000122,-0.00000189,-0.00001249,-0.00000864,0.00000022,0.00000566,-0.0
 0000256,-0.00001613,-0.00002030,-0.00002727,-0.00001021,-0.00001734,-0
 .00001173,0.00001091,-0.00000175,0.00001099,0.00001271,0.00001902,-0.0
 0004282,-0.00000872,-0.00000342,0.00002608,0.00000670,-0.00000222,-0.0
 0001034,0.00001242,-0.00000236,-0.00000791,-0.00002544,-0.00019957,0.0
 0006587,0.00005694,0.00027147,0.00019111,-0.00055239,-0.00002906,-0.00
 040231,0.00078596,-0.00065754,0.00086950,0.03154725,0.00968969,-0.0007
 0838,-0.00018507,0.00080879,0.00199665,0.00007350,0.00011752,0.0001530
 5,-0.02008614,-0.00762118,-0.04433676,-0.01603390,0.00466982,-0.000535
 48,-0.00091442,-0.00049857,0.00038288,0.00002410,0.00002116,0.00008792
 ,-0.00000313,-0.00000288,-0.00000674,-0.00000651,-0.00000218,-0.000000
 02,0.00022132,0.00009000,-0.00037374,0.00133285,0.00051489,0.00060446,
 -0.02317278,-0.01065641,-0.00378047,0.00011615,0.00150774,0.00261466,-
 0.00012248,0.00013969,0.00032675,0.00000106,0.00000322,-0.00000167,-0.
 00000115,-0.00001749,0.00000514,-0.00000698,-0.00000183,0.00000874,-0.
 00000893,0.00000428,-0.00001129,-0.00000301,-0.00000115,0.00000395,-0.
 00000372,0.00000115,-0.00000039,-0.00000218,-0.00000859,0.00000803,-0.
 00004039,0.00000562,-0.00004696,-0.00001257,0.00003308,0.00000292,-0.0
 0000620,0.00002022,-0.00000257,-0.00009297,-0.00010465,-0.00013221,-0.
 00035369,0.00035686,-0.00015574,0.00095934,0.00081791,-0.00527944,0.02
 697087,0.00360796,0.05120586,0.00000176,-0.00000972,-0.00003087,-0.000
 01309,0.00000985,0.00001687,0.00000459,-0.00000878,0.00002766,0.000005
 42,0.00000759,-0.00003375,-0.00000406,0.00000073,0.00000419,-0.0000385
 0,0.00001277,0.00001439,0.00001586,-0.00002723,-0.00008564,0.00002101,
 0.00001763,0.00009514,-0.00001534,0.00001583,0.00000590,0.00000749,-0.
 00001759,-0.00001253,-0.00000489,0.00000275,0.00000118,0.00001037,0.00
 001121,0.00004133,0.00002242,-0.00008133,-0.00009770,0.00004651,0.0000
 7580,0.00015610,0.00006277,-0.00009132,-0.00034682,-0.00003954,0.00050
 067,0.00009529,-0.00058456,-0.00063925,0.00010964,0.00037076,0.0000122
 9,-0.00014728,-0.00002716,-0.00002762,-0.00006839,-0.00360315,0.001212
 39,-0.00228837,0.00213225,-0.00029476,0.00160405,-0.00024699,-0.000202
 36,-0.00014087,0.00044446,-0.00020183,-0.00015491,0.00000263,0.0002525
 0,-0.00017748,-0.00002420,-0.00002342,-0.00004243,-0.00047762,-0.00044
 989,0.00106340,-0.00903237,0.01190862,-0.00869699,-0.32203820,-0.05330
 832,-0.08189000,-0.01995314,-0.00656612,0.00678041,0.00022490,0.000315
 58,0.00042409,-0.00000414,0.00000197,0.00000454,-0.00000256,0.00000130
 ,-0.00000073,0.00000626,0.00000018,-0.00000379,0.00000119,-0.00000134,
 -0.00000301,0.00000515,-0.00000054,-0.00000325,0.00000542,0.00000193,0
 .00000036,0.00000570,-0.00000153,-0.00000098,0.00000553,-0.00000316,-0
 .00000380,-0.00001270,-0.00004373,0.00001853,0.00003890,-0.00017086,0.
 00012776,0.00029644,0.00051613,-0.00131056,0.00002807,-0.00007604,0.00
 015968,0.00050271,0.00011182,-0.00032003,0.00054606,0.00026260,-0.0004
 6841,0.35130755,0.00000087,0.00001753,0.00000607,0.00000028,-0.0000193
 4,-0.00000194,-0.00000695,0.00000204,-0.00001076,-0.00000181,0.0000086
 4,0.00001340,0.00000098,-0.00000416,-0.00000130,0.00002591,-0.00004796
 ,-0.00002457,-0.00000350,0.00008174,0.00011218,-0.00004578,-0.00005624
 ,-0.00015256,-0.00000213,-0.00001730,0.00002564,0.00000424,0.00000835,
 -0.00001408,-0.00000465,0.00000067,0.00000623,-0.00000650,0.00001408,0
 .00000187,-0.00000322,0.00017229,-0.00000370,-0.00007182,-0.00012364,-
 0.00014971,-0.00000257,0.00034458,0.00030944,-0.00029892,-0.00077057,0
 .00022627,-0.00065335,-0.00039255,0.00104084,0.00041459,-0.00006551,-0
 .00086878,0.00020621,-0.00009554,-0.00002267,-0.02555672,-0.00364631,-
 0.00998443,0.00051407,0.00366417,0.00147296,-0.00027408,-0.00038259,-0
 .00003426,-0.00009309,0.00020088,0.00009223,-0.00009553,-0.00028115,0.
 00019268,-0.00000709,0.00002986,0.00004359,0.00388356,0.00156615,-0.00
 408731,0.03557846,-0.01014249,0.01944873,-0.05292791,-0.05114660,-0.01
 776517,-0.00602443,0.00265135,0.00215591,-0.00070026,0.00062411,-0.000
 33105,0.00000044,-0.00000338,-0.00000082,0.00000357,0.00001109,-0.0000
 0320,0.00000104,0.00000178,-0.00000179,0.00000197,-0.00000250,0.000002
 09,-0.00000028,0.00000083,-0.00000005,0.00000206,-0.00000106,0.0000018
 9,-0.00000274,0.00000512,-0.00000408,0.00000647,-0.00000216,0.00000635
 ,0.00003402,0.00002385,-0.00001525,-0.00015805,0.00010298,-0.00005160,
 -0.00150728,0.00024326,-0.00016876,0.00003184,-0.00012150,-0.00001377,
 0.00037746,0.00019615,-0.00047454,0.00036605,-0.00336683,-0.00286649,0
 .04699457,0.06071787,-0.00000310,-0.00000591,-0.00004387,-0.00001005,0
 .00000622,0.00002620,0.00000851,-0.00000836,0.00003399,-0.00000058,0.0
 0001501,-0.00004191,-0.00000117,-0.00000108,0.00000526,-0.00002446,-0.
 00001287,-0.00000067,0.00000293,0.00000726,-0.00005976,0.00001263,-0.0
 0000101,0.00006151,-0.00000933,0.00001970,0.00002348,0.00000016,-0.000
 02618,-0.00002983,-0.00000291,0.00000498,0.00000469,0.00002063,0.00002
 402,0.00006520,0.00001042,-0.00004780,-0.00013500,0.00008235,0.0000587
 6,0.00015922,0.00005601,0.00002258,-0.00041806,0.00015613,-0.00007307,
 -0.00000506,-0.00105866,0.00021885,0.00112184,0.00049709,-0.00016612,-
 0.00029445,0.00011484,0.00007407,0.00003148,-0.02495098,-0.00570753,-0
 .00348680,0.00208267,0.00164753,0.00174498,0.00015470,-0.00031608,-0.0
 0010273,0.00018722,0.00001301,0.00001268,0.00006269,0.00018485,-0.0001
 4190,-0.00000614,-0.00001998,-0.00001945,-0.00252415,-0.00081894,0.003
 33572,-0.01550097,0.00961148,-0.00548244,-0.08909104,-0.02111658,-0.07
 284844,0.03998469,0.00792224,-0.00600677,0.00187053,-0.00001856,0.0035
 8369,-0.00000290,0.00000124,0.00000644,0.00000056,0.00000672,-0.000002
 59,0.00000337,-0.00000036,-0.00000370,-0.00000241,-0.00000214,-0.00000
 395,0.00000307,-0.00000058,-0.00000299,0.00000424,0.00000107,-0.000000
 30,0.00000186,-0.00000003,-0.00000189,0.00000408,-0.00000810,0.0000036
 8,-0.00001124,-0.00002752,0.00000616,0.00013375,-0.00013487,0.00003072
 ,0.00117143,-0.00002762,-0.00005026,0.00011087,0.00003677,0.00011274,0
 .00045153,-0.00001118,-0.00041791,0.00043308,-0.00321812,-0.00267997,0
 .08557809,0.01189423,0.08191104\\0.00550648,-0.01806260,-0.00066720,-0
 .00712110,0.01777980,0.00417474,0.04297911,-0.01285878,0.01989865,-0.0
 2030063,0.00554009,0.01460040,-0.00100366,-0.00819480,-0.02675995,0.01
 371584,-0.00436862,-0.02138243,0.00567532,-0.00965581,0.01860098,-0.00
 912718,0.00673190,0.02033628,-0.00942215,0.00489239,0.00613442,-0.0007
 9503,0.01576604,-0.00080098,0.00851025,-0.02996923,0.00275213,0.009804
 01,-0.01804040,-0.00320719,-0.01194576,0.02456843,-0.01323233,-0.04778
 814,0.02080092,0.00425261,0.02448759,-0.00529713,0.00557405,-0.0231156
 3,-0.00240208,-0.02487738,0.03496211,0.04281698,0.02232249,-0.00572269
 ,0.00404157,0.03152801,-0.00677528,0.00287229,-0.02291288,-0.00690794,
 -0.00804558,-0.01554794,-0.00393240,0.00301619,-0.01579264,0.00038131,
 -0.01926507,0.02797930,0.01988733,-0.00999541,-0.01546622,-0.01143492,
 -0.01873189,-0.00815160,-0.00382131,0.03077084,0.00694660,-0.02131922,
 -0.01517378,0.01344780,0.01203597,0.00634770,0.01327367,0.02359032,-0.
 00521095,-0.01773954,-0.00453171,0.00195588,0.01493484,-0.00339484,-0.
 00285670,-0.00388233,-0.00225296,0.00314506,0.00190382,0.00364322,0.00
 471083,-0.01882498,-0.02188445,-0.00076937,-0.00166669,0.02270097,0.00
 105803,0.00285636,-0.02096359,0.00090195,0.00246729,0.02579208,0.00589
 101,-0.00585203,-0.01880820,-0.00449204,-0.00181004,0.01729893,0.00000
 236,-0.00173080,-0.00079312,-0.00720760,-0.01691104,0.02149298,0.00105
 878,0.00062118,-0.02436137,-0.00217305,0.00139287,0.01666294,0.0047428
 2,0.00184424,-0.01916135,-0.00429161,0.00081771,0.01824159,0.00184068,
 0.00327109,-0.02068371,-0.00419005,-0.00471535\\\@


 YE HAVE SOWN MUCH, AND BRING IN LITTLE.
 YE EAT, BUT YE HAVE NOT ENOUGH.
 YE DRINK, BUT YE ARE NOT FILLED WITH DRINK.
 YE CLOTHE YOU, BUT THERE IS NONE WARM.
 AND HE THAT EARNETH WAGES EARNETH WAGES TO PUT
 IT INTO A BAG WITH HOLES.
                                     HAGGAI I,6
 Job cpu time:  0 days 12 hours 54 minutes 23.9 seconds.
 File lengths (MBytes):  RWF=   1327 Int=      0 D2E=      0 Chk=     19 Scr=      1
 Normal termination of Gaussian 09 at Thu Jan 21 17:49:37 2016.
Gaussian '09 finished on node031 at Thu Jan 21 17:49:37 EST 2016.
