Gaussian '09 started on node004 at Fri Feb 12 12:19:00 EST 2016.
 Entering Gaussian System, Link 0=/usr/local/gaussian/g09/g09
 Initial command:
 /usr/local/gaussian/g09/l1.exe /home/srmcgrat/thesis/gaussian/cellobiose/500/6000/1/2dfp/gaussian15719/Gau-15755.inp -scrdir=/home/srmcgrat/thesis/gaussian/cellobiose/500/6000/1/2dfp/gaussian15719/
 Entering Link 1 = /usr/local/gaussian/g09/l1.exe PID=     15757.
  
 Copyright (c) 1988,1990,1992,1993,1995,1998,2003,2009,2010,
            Gaussian, Inc.  All Rights Reserved.
  
 This is part of the Gaussian(R) 09 program.  It is based on
 the Gaussian(R) 03 system (copyright 2003, Gaussian, Inc.),
 the Gaussian(R) 98 system (copyright 1998, Gaussian, Inc.),
 the Gaussian(R) 94 system (copyright 1995, Gaussian, Inc.),
 the Gaussian 92(TM) system (copyright 1992, Gaussian, Inc.),
 the Gaussian 90(TM) system (copyright 1990, Gaussian, Inc.),
 the Gaussian 88(TM) system (copyright 1988, Gaussian, Inc.),
 the Gaussian 86(TM) system (copyright 1986, Carnegie Mellon
 University), and the Gaussian 82(TM) system (copyright 1983,
 Carnegie Mellon University). Gaussian is a federally registered
 trademark of Gaussian, Inc.
  
 This software contains proprietary and confidential information,
 including trade secrets, belonging to Gaussian, Inc.
  
 This software is provided under written license and may be
 used, copied, transmitted, or stored only in accord with that
 written license.
  
 The following legend is applicable only to US Government
 contracts under FAR:
  
                    RESTRICTED RIGHTS LEGEND
  
 Use, reproduction and disclosure by the US Government is
 subject to restrictions as set forth in subparagraphs (a)
 and (c) of the Commercial Computer Software - Restricted
 Rights clause in FAR 52.227-19.
  
 Gaussian, Inc.
 340 Quinnipiac St., Bldg. 40, Wallingford CT 06492
  
  
 ---------------------------------------------------------------
 Warning -- This program may not be used in any manner that
 competes with the business of Gaussian, Inc. or will provide
 assistance to any competitor of Gaussian, Inc.  The licensee
 of this program is prohibited from giving any competitor of
 Gaussian, Inc. access to this program.  By using this program,
 the user acknowledges that Gaussian, Inc. is engaged in the
 business of creating and licensing software in the field of
 computational chemistry and represents and warrants to the
 licensee that it is not a competitor of Gaussian, Inc. and that
 it will not use this program in any manner prohibited above.
 ---------------------------------------------------------------
  

 Cite this work as:
 Gaussian 09, Revision B.01,
 M. J. Frisch, G. W. Trucks, H. B. Schlegel, G. E. Scuseria, 
 M. A. Robb, J. R. Cheeseman, G. Scalmani, V. Barone, B. Mennucci, 
 G. A. Petersson, H. Nakatsuji, M. Caricato, X. Li, H. P. Hratchian, 
 A. F. Izmaylov, J. Bloino, G. Zheng, J. L. Sonnenberg, M. Hada, 
 M. Ehara, K. Toyota, R. Fukuda, J. Hasegawa, M. Ishida, T. Nakajima, 
 Y. Honda, O. Kitao, H. Nakai, T. Vreven, J. A. Montgomery, Jr., 
 J. E. Peralta, F. Ogliaro, M. Bearpark, J. J. Heyd, E. Brothers, 
 K. N. Kudin, V. N. Staroverov, T. Keith, R. Kobayashi, J. Normand, 
 K. Raghavachari, A. Rendell, J. C. Burant, S. S. Iyengar, J. Tomasi, 
 M. Cossi, N. Rega, J. M. Millam, M. Klene, J. E. Knox, J. B. Cross, 
 V. Bakken, C. Adamo, J. Jaramillo, R. Gomperts, R. E. Stratmann, 
 O. Yazyev, A. J. Austin, R. Cammi, C. Pomelli, J. W. Ochterski, 
 R. L. Martin, K. Morokuma, V. G. Zakrzewski, G. A. Voth, 
 P. Salvador, J. J. Dannenberg, S. Dapprich, A. D. Daniels, 
 O. Farkas, J. B. Foresman, J. V. Ortiz, J. Cioslowski, 
 and D. J. Fox, Gaussian, Inc., Wallingford CT, 2010.
 
 ******************************************
 Gaussian 09:  EM64L-G09RevB.01 12-Aug-2010
                12-Feb-2016 
 ******************************************
 --------------------------------------------------
 # freq=raman b3lyp/6-31+g(2df,p) geom=connectivity
 --------------------------------------------------
 1/10=4,30=1,38=1,57=2/1,3;
 2/12=2,17=6,18=5,40=1/2;
 3/5=1,6=6,7=114,11=2,16=1,25=1,30=1,71=2,74=-5/1,2,3;
 4//1;
 5/5=2,38=5,98=1/2;
 8/6=4,10=90,11=11/1;
 10/13=10,15=4/2;
 11/6=3,8=1,9=11,15=111,16=1/1,2,10;
 10/6=1/2;
 6/7=2,8=2,9=2,10=2,18=1,28=1/1;
 7/8=1,10=1,25=1/1,2,3,16;
 1/10=4,30=1/3;
 99//99;
 ------------
 500 6000.com
 ------------
 Symbolic Z-matrix:
 Charge =  0 Multiplicity = 1
 O                     8.841     7.217     12.092 
 C                     9.449     7.356     13.385 
 C                     9.392     8.801     13.851 
 O                     10.353    9.542     13.086 
 H                     10.44     9.171     12.161 
 C                     9.719     9.05      15.315 
 O                     9.24      10.354    15.674 
 H                     10.008    10.996    15.668 
 C                     8.95      4.968     14.158 
 O                     8.498     4.001     15.118 
 H                     8.569     3.162     14.577 
 C                     8.749     6.456     14.391 
 O                     9.111     6.766     15.745 
 C                     9.044     8.094     16.285 
 O                     9.731     7.93      17.534 
 C                     9.18      7.568     18.808 
 C                     8.909     6.122     19.189 
 O                     8.072     5.554     18.171 
 H                     8.468     5.73      17.269 
 C                     8.219     5.973     20.535 
 O                     7.611     4.692     20.754 
 H                     7.066     4.74      19.917 
 C                     10.392    9.556     19.575 
 O                     9.461     10.452    20.199 
 H                     9.726     11.385    19.956 
 C                     10.03     8.125     19.938 
 O                     9.563     7.845     21.266 
 C                     9.212     6.486     21.566 
 O                     8.7       6.659     22.895 
 H                     9.52538   7.14504   11.42264 
 H                     10.0006   4.81167   14.02878 
 H                     8.47497   4.73081   13.22903 
 H                     7.70015   6.64591   14.29747 
 H                     10.47454   7.0589    13.31497 
 H                     8.41594   9.18892   13.64672 
 H                     10.77905   9.00923   15.45479 
 H                     8.02628   8.38003   16.45034 
 H                     11.38184   9.77255   19.91883 
 H                     10.34794   9.67744   18.51283 
 H                     10.95433   7.59031   19.87009 
 H                     9.4313    6.73928   23.51173 
 H                     10.08754   5.8711    21.58097 
 H                     7.41203   6.67563   20.53227 
 H                     9.8368    5.58956   19.21363 
 H                     8.23555   8.06747   18.86667 
 

 GradGradGradGradGradGradGradGradGradGradGradGradGradGradGradGradGradGrad
 Berny optimization.
 Initialization pass.
 Trust Radius=3.00D-01 FncErr=1.00D-07 GrdErr=1.00D-07
 Number of steps in this run=      2 maximum allowed number of steps=      2.
 GradGradGradGradGradGradGradGradGradGradGradGradGradGradGradGradGradGrad

                          Input orientation:                          
 ---------------------------------------------------------------------
 Center     Atomic      Atomic             Coordinates (Angstroms)
 Number     Number       Type             X           Y           Z
 ---------------------------------------------------------------------
      1          8           0        8.841000    7.217000   12.092000
      2          6           0        9.449000    7.356000   13.385000
      3          6           0        9.392000    8.801000   13.851000
      4          8           0       10.353000    9.542000   13.086000
      5          1           0       10.440000    9.171000   12.161000
      6          6           0        9.719000    9.050000   15.315000
      7          8           0        9.240000   10.354000   15.674000
      8          1           0       10.008000   10.996000   15.668000
      9          6           0        8.950000    4.968000   14.158000
     10          8           0        8.498000    4.001000   15.118000
     11          1           0        8.569000    3.162000   14.577000
     12          6           0        8.749000    6.456000   14.391000
     13          8           0        9.111000    6.766000   15.745000
     14          6           0        9.044000    8.094000   16.285000
     15          8           0        9.731000    7.930000   17.534000
     16          6           0        9.180000    7.568000   18.808000
     17          6           0        8.909000    6.122000   19.189000
     18          8           0        8.072000    5.554000   18.171000
     19          1           0        8.468000    5.730000   17.269000
     20          6           0        8.219000    5.973000   20.535000
     21          8           0        7.611000    4.692000   20.754000
     22          1           0        7.066000    4.740000   19.917000
     23          6           0       10.392000    9.556000   19.575000
     24          8           0        9.461000   10.452000   20.199000
     25          1           0        9.726000   11.385000   19.956000
     26          6           0       10.030000    8.125000   19.938000
     27          8           0        9.563000    7.845000   21.266000
     28          6           0        9.212000    6.486000   21.566000
     29          8           0        8.700000    6.659000   22.895000
     30          1           0        9.525383    7.145043   11.422640
     31          1           0       10.000601    4.811667   14.028783
     32          1           0        8.474974    4.730815   13.229026
     33          1           0        7.700150    6.645911   14.297473
     34          1           0       10.474539    7.058904   13.314969
     35          1           0        8.415944    9.188924   13.646719
     36          1           0       10.779046    9.009235   15.454786
     37          1           0        8.026282    8.380025   16.450344
     38          1           0       11.381842    9.772555   19.918826
     39          1           0       10.347940    9.677443   18.512828
     40          1           0       10.954334    7.590309   19.870092
     41          1           0        9.431299    6.739282   23.511730
     42          1           0       10.087544    5.871103   21.580972
     43          1           0        7.412030    6.675632   20.532266
     44          1           0        9.836796    5.589564   19.213626
     45          1           0        8.235549    8.067470   18.866671
 ---------------------------------------------------------------------
                    Distance matrix (angstroms):
                    1          2          3          4          5
     1  O    0.000000
     2  C    1.435561   0.000000
     3  C    2.430378   1.519352   0.000000
     4  O    2.946151   2.384368   1.434513   0.000000
     5  H    2.525802   2.403015   2.022697   1.000417   0.000000
     6  C    3.810315   2.582138   1.520601   2.369063   3.237622
     7  O    4.778148   3.777725   2.399634   2.931869   3.896236
     8  H    5.332026   4.332917   2.915299   2.983264   3.976971
     9  C    3.055853   2.559116   3.870595   4.902965   4.886033
    10  O    4.429106   3.894062   5.044257   6.186496   6.264512
    11  H    4.763637   4.448022   5.744800   6.790445   6.741348
    12  C    2.423424   1.520538   2.490798   3.714732   3.899180
    13  O    3.690625   2.456002   2.794176   4.039681   4.516118
    14  C    4.288541   3.019713   2.558380   3.747504   4.485100
    15  O    5.560201   4.198000   3.799744   4.771806   5.559846
    16  C    6.733705   5.433805   5.112444   6.165540   6.952684
    17  C    7.181299   5.958252   5.992043   7.143399   7.812371
    18  O    6.349108   5.296143   5.563075   6.853053   7.403392
    19  H    5.399225   4.323389   4.686954   5.965070   6.466910
    20  C    8.556791   7.385668   7.351828   8.531080   9.234929
    21  O    9.105974   8.048435   8.228442   9.478359  10.094768
    22  H    8.397427   7.428941   7.661485   8.973635   9.548464
    23  C    7.991984   6.636667   5.859539   6.489132   7.424145
    24  O    8.750604   7.484381   6.559548   7.226239   8.198100
    25  H    8.944157   7.712821   6.637743   7.140496   8.134717
    26  C    7.987359   6.623498   6.157564   7.004436   7.857732
    27  O    9.223771   7.896979   7.478329   8.391443   9.242750
    28  C    9.509399   8.230543   8.056851   9.085781   9.857547
    29  O   10.818320   9.564879   9.319923  10.356668  11.160488
    30  H    0.960000   1.975144   2.942264   3.032675   2.342265
    31  H    3.298702   2.681856   4.039404   4.836226   4.762927
    32  H    2.758246   2.804399   4.218317   5.166715   4.971645
    33  H    2.547899   2.096499   2.775987   4.110062   4.295040
    34  H    2.046728   1.070000   2.119933   2.496591   2.407029
    35  H    2.546823   2.120214   1.070000   2.047255   2.510873
    36  H    4.275098   2.964156   2.130584   2.465056   3.315139
    37  H    4.583837   3.531160   2.966310   4.252366   4.984993
    38  H    8.616609   7.229557   6.459250   6.913695   7.837908
    39  H    7.039295   5.700158   4.838864   5.428520   6.372650
    40  H    8.068721   6.661633   6.335308   7.084815   7.886268
    41  H   11.444951  10.145508   9.878357  10.835157  11.652030
    42  H    9.664673   8.353839   8.295815   9.257997   9.987463
    43  H    8.577478   7.462946   7.285382   8.503661   9.245191
    44  H    7.372768   6.102750   6.266492   7.309994   7.932848
    45  H    6.854637   5.659273   5.199270   6.330403   7.144467
                    6          7          8          9         10
     6  C    0.000000
     7  O    1.434830   0.000000
     8  H    1.998761   1.001011   0.000000
     9  C    4.311929   5.602799   6.303669   0.000000
    10  O    5.198274   6.420304   7.177230   1.435616   0.000000
    11  H    6.044476   7.306060   8.039438   1.892712   1.000821
    12  C    2.919505   4.132986   4.881333   1.519485   2.572655
    13  O    2.402336   3.591020   4.324747   2.403600   2.900711
    14  C    1.520020   2.349327   3.119549   3.782174   4.290997
    15  O    2.485660   3.094585   3.599867   4.558594   4.774347
    16  C    3.832479   4.193728   4.721903   5.332485   5.177327
    17  C    4.923125   5.511317   6.112374   5.161817   4.608753
    18  O    4.805347   5.535272   6.295115   4.149512   3.451680
    19  H    4.050372   4.951907   5.715379   3.239026   2.759917
    20  C    6.242302   6.623060   7.219331   6.496962   5.771526
    21  O    7.281384   7.779350   8.447095   6.736194   5.747064
    22  H    6.840535   7.365210   8.114610   6.063623   5.062326
    23  C    4.342415   4.145083   4.181591   7.243825   7.369539
    24  O    5.087792   4.531453   4.596206   8.174904   8.267970
    25  H    5.195301   4.431104   4.314834   8.683137   8.912782
    26  C    4.724878   4.875883   5.145486   6.673938   6.525856
    27  O    6.073777   6.137579   6.439288   7.692630   7.328606
    28  C    6.775407   7.048253   7.467270   7.566468   6.947066
    29  O    8.013217   8.129420   8.529359   8.902648   8.221162
    30  H    4.337835   5.334127   5.752032   3.542989   4.959456
    31  H    4.438144   5.831184   6.397895   1.070000   2.025187
    32  H    4.955225   6.179270   6.895746   1.070000   2.025187
    33  H    3.300115   4.244513   5.111535   2.096894   2.881906
    34  H    2.921545   4.236363   4.610329   2.721543   4.063053
    35  H    2.121418   2.479181   3.144160   4.285186   5.393139
    36  H    1.070000   2.055508   2.141777   4.621541   5.513530
    37  H    2.145500   2.443849   3.373810   4.213077   4.601469
    38  H    4.947964   4.790002   4.631823   7.885729   8.042097
    39  H    3.318938   3.121570   3.153918   6.564877   6.867979
    40  H    4.940204   5.308872   5.491071   6.597110   6.441979
    41  H    8.521067   8.633238   8.942949   9.532123   8.878285
    42  H    7.035881   7.463713   7.825224   7.563737   6.913317
    43  H    6.178964   6.361966   7.004693   6.775886   6.135737
    44  H    5.214190   5.965314   6.467637   5.170309   4.592391
    45  H    3.972450   4.053430   4.685015   5.682318   5.536930
                   11         12         13         14         15
    11  H    0.000000
    12  C    3.304154   0.000000
    13  O    3.827114   1.435430   0.000000
    14  C    5.240946   2.521370   1.435156   0.000000
    15  O    5.729565   3.607693   2.222570   1.434875   0.000000
    16  C    6.139016   4.575171   3.167007   2.580833   1.434476
    17  C    5.490696   4.812272   3.509512   3.512866   2.585261
    18  O    4.345746   3.944659   2.904125   3.309589   2.967057
    19  H    3.721786   2.981429   1.951748   2.624601   2.550567
    20  C    6.597119   6.185703   4.936458   4.820971   3.888701
    21  O    6.435370   6.700336   5.625083   5.796469   5.034625
    22  H    5.767555   6.026095   5.068756   5.324775   4.791348
    23  C    8.317846   6.259657   4.908560   3.844301   2.691928
    24  O    9.249143   7.085748   5.791996   4.588404   3.679077
    25  H    9.893938   7.497919   6.280598   4.977152   4.219376
    26  C    7.450249   5.932599   4.502521   3.783856   2.430358
    27  O    8.225646   7.060987   5.643579   5.014152   3.736746
    28  C    7.765858   7.189986   5.828605   5.522938   4.314107
    29  O    9.024151   8.506564   7.162602   6.772714   5.605241
    30  H    5.170037   3.144632   4.358690   4.977428   6.164994
    31  H    2.251982   2.097985   2.748856   4.096256   4.699280
    32  H    2.070520   2.097985   3.297974   4.579715   5.508647
    33  H    3.601482   1.070000   2.024908   2.802349   4.030924
    34  H    4.517705   2.121042   2.801799   3.455278   4.371713
    35  H    6.100218   2.851973   3.279702   2.924695   4.292460
    36  H    6.312287   3.430996   2.810463   2.130093   2.566374
    37  H    5.570615   2.909483   2.068623   1.070000   2.069516
    38  H    8.952464   6.963351   5.622892   4.635487   3.436231
    39  H    7.817056   5.470262   4.203259   3.028327   2.095775
    40  H    7.301819   6.014200   4.592793   4.093405   2.658809
    41  H    9.662811   9.150601   7.773378   7.362805   6.102532
    42  H    7.661648   7.336859   5.984401   5.837600   4.554576
    43  H    7.010662   6.288949   5.080609   4.765959   3.992576
    44  H    5.385041   5.019136   3.733918   3.934155   2.882703
    45  H    6.525037   4.784569   3.493576   2.705425   2.007806
                   16         17         18         19         20
    16  C    0.000000
    17  C    1.519710   0.000000
    18  O    2.385294   1.435102   0.000000
    19  H    2.500742   2.008618   1.000698   0.000000
    20  C    2.539700   1.519874   2.405341   3.284480   0.000000
    21  O    3.810519   2.485745   2.761785   3.735923   1.434777
    22  H    3.700873   2.415897   2.173280   3.155568   1.797671
    23  C    2.451403   3.760404   4.834213   4.863917   4.299002
    24  O    3.214234   4.480369   5.480192   5.645196   4.660140
    25  H    4.023122   5.380980   6.318426   6.386044   5.647657
    26  C    1.519753   2.414467   3.683218   3.911449   2.875280
    27  O    2.503035   2.776756   4.129260   4.652769   2.417660
    28  C    2.962822   2.423723   3.700574   4.425978   1.520585
    29  O    4.214291   3.750531   4.891992   5.706903   2.504308
    30  H    7.405520   7.857664   7.084073   6.107399   9.279839
    31  H    5.577784   5.434740   4.629095   3.700163   6.844973
    32  H    6.298542   6.135558   5.026244   4.161708   7.415242
    33  H    4.835810   5.065850   4.041628   3.202883   6.295138
    34  H    5.666427   6.150849   5.622985   4.628881   7.641694
    35  H    5.463515   6.353425   5.813784   5.008771   7.604562
    36  H    3.984739   5.077159   5.161837   4.402918   6.448343
    37  H    2.747543   3.657609   3.308952   2.808549   4.745031
    38  H    3.307885   4.469244   5.639695   5.643962   4.981953
    39  H    2.429189   3.894731   4.722238   4.545722   4.726993
    40  H    2.068042   2.608296   3.916799   4.050714   3.246513
    41  H    4.782782   4.397708   5.637019   6.396740   3.304207
    42  H    3.375273   2.678329   3.973774   4.608247   2.143805
    43  H    2.625859   2.086095   2.696145   3.557836   1.070000
    44  H    2.123705   1.070000   2.050082   2.382204   2.123751
    45  H    1.070000   2.083815   2.613090   2.840837   2.677760
                   21         22         23         24         25
    21  O    0.000000
    22  H    0.999949   0.000000
    23  C    5.725600   5.862857   0.000000
    24  O    6.075206   6.200201   1.434905   0.000000
    25  H    7.064438   7.157733   1.983421   0.999881   0.000000
    26  C    4.278190   4.499329   1.520057   2.409733   3.274193
    27  O    3.743509   4.206642   2.544453   2.818748   3.778130
    28  C    2.537909   3.220719   3.844656   4.202362   5.182325
    29  O    3.104656   3.901410   4.719944   4.715335   5.659105
    30  H    9.836491   9.164439   8.545450   9.378945   9.530777
    31  H    7.138141   6.579370   7.309064   8.377118   8.855282
    32  H    7.574510   6.834785   8.199317   9.071094   9.544393
    33  H    6.746292   5.967724   6.600528   7.239816   7.653885
    34  H    8.315123   7.783461   6.740199   7.741462   7.961074
    35  H    8.448888   7.805876   6.259717   6.754250   6.807792
    36  H    7.533704   7.205861   4.174316   5.130924   5.197508
    37  H    5.682908   5.117580   4.091823   4.517069   4.920217
    38  H    6.381912   6.629714   1.070000   2.056643   2.311531
    39  H    6.112964   6.092715   1.070000   2.056643   2.320626
    40  H    4.512136   4.821369   2.065730   3.244612   3.989469
    41  H    3.887149   4.744877   4.935048   4.975876   5.857710
    42  H    2.864863   3.630141   4.206553   4.825663   5.759714
    43  H    2.005879   2.060330   4.253599   4.309327   5.278701
    44  H    2.851761   2.982248   4.021375   4.975487   5.843841
    45  H    3.917380   3.680094   2.714356   2.993796   3.796589
                   26         27         28         29         30
    26  C    0.000000
    27  O    1.435295   0.000000
    28  C    2.450679   1.435299   0.000000
    29  O    3.558357   2.192032   1.434683   0.000000
    30  H    8.586402   9.868287  10.169577  11.512277   0.000000
    31  H    6.774798   7.859384   7.761116   9.149536   3.530221
    32  H    7.677821   8.687630   8.551551   9.858985   3.192943
    33  H    6.279447   7.312209   7.425816   8.655481   3.441696
    34  H    6.722999   8.041625   8.366704   9.751200   2.118779
    35  H    6.581590   7.821465   8.405624   9.592284   3.217892
    36  H    4.630566   6.050158   6.794798   8.074826   4.615743
    37  H    4.030343   5.083138   5.582400   6.704432   5.389832
    38  H    2.131263   2.972967   4.268822   5.073866   9.084901
    39  H    2.131263   3.399108   4.560431   5.570470   7.573665
    40  H    1.070000   1.987269   2.670455   3.885798   8.579021
    41  H    3.879460   2.506644   1.974363   0.960000  12.096264
    42  H    2.789753   2.066549   1.070000   2.067058  10.253324
    43  H    3.050834   2.555868   2.084337   2.691032   9.363327
    44  H    2.643952   3.061731   2.593768   3.998564   7.950846
    45  H    2.090720   2.751072   3.277328   4.292660   7.611054
                   31         32         33         34         35
    31  H    0.000000
    32  H    1.724439   0.000000
    33  H    2.954441   2.325839   0.000000
    34  H    2.405041   3.070121   2.972055   0.000000
    35  H    4.670920   4.478023   2.720800   2.980747   0.000000
    36  H    4.501004   5.344870   4.050219   2.911242   2.980880
    37  H    4.742898   4.888247   2.783589   4.191647   2.943887
    38  H    7.823736   8.866930   7.411503   7.197085   6.962507
    39  H    6.625940   7.476342   5.828395   5.821555   5.258353
    40  H    6.538451   7.643801   6.521939   6.594106   6.908644
    41  H    9.693611  10.520576   9.375934  10.254972  10.215192
    42  H    7.626632   8.582287   7.703853   8.359871   8.760968
    43  H    7.243643   7.632135   6.241518   7.849537   7.398327
    44  H    5.245431   6.197374   5.463487   6.112268   6.779724
    45  H    6.092686   6.555429   4.815087   6.070558   5.342107
                   36         37         38         39         40
    36  H    0.000000
    37  H    2.994120   0.000000
    38  H    4.568771   5.022877   0.000000
    39  H    3.159742   3.365595   1.747808   0.000000
    40  H    4.641013   4.570757   2.224261   2.562423   0.000000
    41  H    8.478411   7.384395   5.090611   5.870439   4.037996
    42  H    6.917817   6.071807   4.433877   4.895870   2.575676
    43  H    6.524056   4.465909   5.072144   4.659246   3.717933
    44  H    5.168255   4.324391   4.514630   4.178892   2.383867
    45  H    4.358584   2.445429   3.730081   2.679443   2.937061
                   41         42         43         44         45
    41  H    0.000000
    42  H    2.216353   0.000000
    43  H    3.599820   2.984196   0.000000
    44  H    4.467660   2.397179   2.966117   0.000000
    45  H    4.976995   3.952384   2.321552   2.970587   0.000000
 Stoichiometry    C12H22O11
 Framework group  C1[X(C12H22O11)]
 Deg. of freedom   129
 Full point group                 C1      NOp   1
 Largest Abelian subgroup         C1      NOp   1
 Largest concise Abelian subgroup C1      NOp   1
                         Standard orientation:                         
 ---------------------------------------------------------------------
 Center     Atomic      Atomic             Coordinates (Angstroms)
 Number     Number       Type             X           Y           Z
 ---------------------------------------------------------------------
      1          8           0       -5.206120    0.642067   -0.367149
      2          6           0       -3.952692    0.233059    0.200712
      3          6           0       -3.582948   -1.164094   -0.267990
      4          8           0       -4.436609   -2.091683    0.416603
      5          1           0       -5.337433   -1.692109    0.588915
      6          6           0       -2.154405   -1.609325    0.002676
      7          8           0       -1.863720   -2.740922   -0.830228
      8          1           0       -1.945857   -3.576276   -0.284828
      9          6           0       -3.000081    2.596050    0.441293
     10          8           0       -1.958684    3.575946    0.313656
     11          1           0       -2.444561    4.396924    0.616250
     12          6           0       -2.859305    1.217739   -0.182626
     13          8           0       -1.546018    0.712608    0.101236
     14          6           0       -1.094209   -0.575756   -0.341099
     15          8           0        0.132354   -0.715450    0.390268
     16          6           0        1.450295   -0.307787   -0.002877
     17          6           0        1.938995    1.120693    0.170722
     18          8           0        0.998381    1.984316   -0.484197
     19          1           0        0.070420    1.770544   -0.176649
     20          6           0        3.320343    1.360181   -0.416255
     21          8           0        3.650924    2.741903   -0.616621
     22          1           0        2.836756    2.919183   -1.169434
     23          6           0        2.029080   -2.615375    0.588243
     24          8           0        2.630769   -3.246681   -0.551220
     25          1           0        2.314400   -4.194841   -0.577019
     26          6           0        2.502734   -1.173318    0.670085
     27          8           0        3.865381   -0.872459    0.334302
     28          6           0        4.270920    0.502582    0.404177
     29          8           0        5.606018    0.384497   -0.107568
     30          1           0       -5.897879    0.562882    0.293759
     31          1           0       -3.163462    2.449157    1.488493
     32          1           0       -3.889746    3.031974    0.037106
     33          1           0       -2.920292    1.349232   -1.242763
     34          1           0       -4.046530    0.223140    1.266543
     35          1           0       -3.770782   -1.234100   -1.319046
     36          1           0       -2.057821   -1.889857    1.030719
     37          1           0       -0.904952   -0.564886   -1.394172
     38          1           0        2.314754   -3.136529    1.478012
     39          1           0        0.964016   -2.636672    0.487819
     40          1           0        2.431341   -0.927368    1.708984
     41          1           0        6.183991    0.047584    0.580935
     42          1           0        4.289633    0.832847    1.421759
     43          1           0        3.304983    0.925346   -1.393794
     44          1           0        1.959540    1.356369    1.214242
     45          1           0        1.515714   -0.513583   -1.050860
 ---------------------------------------------------------------------
 Rotational constants (GHZ):      0.3995104      0.1454772      0.1104341
 Standard basis: 6-31+G(2df,p) (6D, 7F)
 There are   846 symmetry adapted basis functions of A   symmetry.
 Integral buffers will be    131072 words long.
 Raffenetti 2 integral format.
 Two-electron integral symmetry is turned on.
   846 basis functions,  1258 primitive gaussians,   915 cartesian basis functions
    91 alpha electrons       91 beta electrons
       nuclear repulsion energy      2269.9247809787 Hartrees.
 NAtoms=   45 NActive=   45 NUniq=   45 SFac= 1.00D+00 NAtFMM=   50 NAOKFM=F Big=F
 One-electron integrals computed using PRISM.
 NBasis=   846 RedAO= T  NBF=   846
 NBsUse=   846 1.00D-06 NBFU=   846
 Harris functional with IExCor=  402 diagonalized for initial guess.
 ExpMin= 4.38D-02 ExpMax= 5.48D+03 ExpMxC= 8.25D+02 IAcc=2 IRadAn=         0 AccDes= 0.00D+00
 HarFok:  IExCor=  402 AccDes= 0.00D+00 IRadAn=         0 IDoV= 1
 ScaDFX=  1.000000  1.000000  1.000000  1.000000
 FoFCou: FMM=F IPFlag=           0 FMFlag=      100000 FMFlg1=           0
         NFxFlg=           0 DoJE=T BraDBF=F KetDBF=T FulRan=T
         Omega=  0.000000  0.000000  1.000000  0.000000  0.000000 ICntrl=     500 IOpCl=  0
         NMat0=    1 NMatS0=    1 NMatT0=    0 NMatD0=    1 NMtDS0=    0 NMtDT0=    0
         I1Cent=           4 NGrid=           0.
 Petite list used in FoFCou.
 Initial guess orbital symmetries:
       Occupied  (A) (A) (A) (A) (A) (A) (A) (A) (A) (A) (A) (A)
                 (A) (A) (A) (A) (A) (A) (A) (A) (A) (A) (A) (A)
                 (A) (A) (A) (A) (A) (A) (A) (A) (A) (A) (A) (A)
                 (A) (A) (A) (A) (A) (A) (A) (A) (A) (A) (A) (A)
                 (A) (A) (A) (A) (A) (A) (A) (A) (A) (A) (A) (A)
                 (A) (A) (A) (A) (A) (A) (A) (A) (A) (A) (A) (A)
                 (A) (A) (A) (A) (A) (A) (A) (A) (A) (A) (A) (A)
                 (A) (A) (A) (A) (A) (A) (A)
       Virtual   (A) (A) (A) (A) (A) (A) (A) (A) (A) (A) (A) (A)
                 (A) (A) (A) (A) (A) (A) (A) (A) (A) (A) (A) (A)
                 (A) (A) (A) (A) (A) (A) (A) (A) (A) (A) (A) (A)
                 (A) (A) (A) (A) (A) (A) (A) (A) (A) (A) (A) (A)
                 (A) (A) (A) (A) (A) (A) (A) (A) (A) (A) (A) (A)
                 (A) (A) (A) (A) (A) (A) (A) (A) (A) (A) (A) (A)
                 (A) (A) (A) (A) (A) (A) (A) (A) (A) (A) (A) (A)
                 (A) (A) (A) (A) (A) (A) (A) (A) (A) (A) (A) (A)
                 (A) (A) (A) (A) (A) (A) (A) (A) (A) (A) (A) (A)
                 (A) (A) (A) (A) (A) (A) (A) (A) (A) (A) (A) (A)
                 (A) (A) (A) (A) (A) (A) (A) (A) (A) (A) (A) (A)
                 (A) (A) (A) (A) (A) (A) (A) (A) (A) (A) (A) (A)
                 (A) (A) (A) (A) (A) (A) (A) (A) (A) (A) (A) (A)
                 (A) (A) (A) (A) (A) (A) (A) (A) (A) (A) (A) (A)
                 (A) (A) (A) (A) (A) (A) (A) (A) (A) (A) (A) (A)
                 (A) (A) (A) (A) (A) (A) (A) (A) (A) (A) (A) (A)
                 (A) (A) (A) (A) (A) (A) (A) (A) (A) (A) (A) (A)
                 (A) (A) (A) (A) (A) (A) (A) (A) (A) (A) (A) (A)
                 (A) (A) (A) (A) (A) (A) (A) (A) (A) (A) (A) (A)
                 (A) (A) (A) (A) (A) (A) (A) (A) (A) (A) (A) (A)
                 (A) (A) (A) (A) (A) (A) (A) (A) (A) (A) (A) (A)
                 (A) (A) (A) (A) (A) (A) (A) (A) (A) (A) (A) (A)
                 (A) (A) (A) (A) (A) (A) (A) (A) (A) (A) (A) (A)
                 (A) (A) (A) (A) (A) (A) (A) (A) (A) (A) (A) (A)
                 (A) (A) (A) (A) (A) (A) (A) (A) (A) (A) (A) (A)
                 (A) (A) (A) (A) (A) (A) (A) (A) (A) (A) (A) (A)
                 (A) (A) (A) (A) (A) (A) (A) (A) (A) (A) (A) (A)
                 (A) (A) (A) (A) (A) (A) (A) (A) (A) (A) (A) (A)
                 (A) (A) (A) (A) (A) (A) (A) (A) (A) (A) (A) (A)
                 (A) (A) (A) (A) (A) (A) (A) (A) (A) (A) (A) (A)
                 (A) (A) (A) (A) (A) (A) (A) (A) (A) (A) (A) (A)
                 (A) (A) (A) (A) (A) (A) (A) (A) (A) (A) (A) (A)
                 (A) (A) (A) (A) (A) (A) (A) (A) (A) (A) (A) (A)
                 (A) (A) (A) (A) (A) (A) (A) (A) (A) (A) (A) (A)
                 (A) (A) (A) (A) (A) (A) (A) (A) (A) (A) (A) (A)
                 (A) (A) (A) (A) (A) (A) (A) (A) (A) (A) (A) (A)
                 (A) (A) (A) (A) (A) (A) (A) (A) (A) (A) (A) (A)
                 (A) (A) (A) (A) (A) (A) (A) (A) (A) (A) (A) (A)
                 (A) (A) (A) (A) (A) (A) (A) (A) (A) (A) (A) (A)
                 (A) (A) (A) (A) (A) (A) (A) (A) (A) (A) (A) (A)
                 (A) (A) (A) (A) (A) (A) (A) (A) (A) (A) (A) (A)
                 (A) (A) (A) (A) (A) (A) (A) (A) (A) (A) (A) (A)
                 (A) (A) (A) (A) (A) (A) (A) (A) (A) (A) (A) (A)
                 (A) (A) (A) (A) (A) (A) (A) (A) (A) (A) (A) (A)
                 (A) (A) (A) (A) (A) (A) (A) (A) (A) (A) (A) (A)
                 (A) (A) (A) (A) (A) (A) (A) (A) (A) (A) (A) (A)
                 (A) (A) (A) (A) (A) (A) (A) (A) (A) (A) (A) (A)
                 (A) (A) (A) (A) (A) (A) (A) (A) (A) (A) (A) (A)
                 (A) (A) (A) (A) (A) (A) (A) (A) (A) (A) (A) (A)
                 (A) (A) (A) (A) (A) (A) (A) (A) (A) (A) (A) (A)
                 (A) (A) (A) (A) (A) (A) (A) (A) (A) (A) (A) (A)
                 (A) (A) (A) (A) (A) (A) (A) (A) (A) (A) (A) (A)
                 (A) (A) (A) (A) (A) (A) (A) (A) (A) (A) (A) (A)
                 (A) (A) (A) (A) (A) (A) (A) (A) (A) (A) (A) (A)
                 (A) (A) (A) (A) (A) (A) (A) (A) (A) (A) (A) (A)
                 (A) (A) (A) (A) (A) (A) (A) (A) (A) (A) (A) (A)
                 (A) (A) (A) (A) (A) (A) (A) (A) (A) (A) (A) (A)
                 (A) (A) (A) (A) (A) (A) (A) (A) (A) (A) (A) (A)
                 (A) (A) (A) (A) (A) (A) (A) (A) (A) (A) (A) (A)
                 (A) (A) (A) (A) (A) (A) (A) (A) (A) (A) (A) (A)
                 (A) (A) (A) (A) (A) (A) (A) (A) (A) (A) (A) (A)
                 (A) (A) (A) (A) (A) (A) (A) (A) (A) (A) (A) (A)
                 (A) (A) (A) (A) (A) (A) (A) (A) (A) (A) (A)
 The electronic state of the initial guess is 1-A.
 Requested convergence on RMS density matrix=1.00D-08 within 128 cycles.
 Requested convergence on MAX density matrix=1.00D-06.
 Requested convergence on             energy=1.00D-06.
 No special actions if energy rises.
 SCF Done:  E(RB3LYP) =  -1297.98815712     A.U. after   14 cycles
             Convg  =    0.1456D-08             -V/T =  2.0066
 Range of M.O.s used for correlation:     1   846
 NBasis=   846 NAE=    91 NBE=    91 NFC=     0 NFV=     0
 NROrb=    846 NOA=    91 NOB=    91 NVA=   755 NVB=   755

 **** Warning!!: The largest alpha MO coefficient is  0.88445015D+02

          Differentiating once with respect to electric field.
                with respect to dipole field.
          Electric field/nuclear overlap derivatives assumed to be zero.
          There are     3 degrees of freedom in the 1st order CPHF.  IDoFFX=0.
      3 vectors produced by pass  0 Test12= 2.29D-12 3.33D-08 XBig12= 1.24D+02 1.41D+00.
 AX will form     3 AO Fock derivatives at one time.
      3 vectors produced by pass  1 Test12= 2.29D-12 3.33D-08 XBig12= 2.20D+01 3.97D-01.
      3 vectors produced by pass  2 Test12= 2.29D-12 3.33D-08 XBig12= 8.83D+00 1.93D-01.
      3 vectors produced by pass  3 Test12= 2.29D-12 3.33D-08 XBig12= 1.03D+00 1.01D-01.
      3 vectors produced by pass  4 Test12= 2.29D-12 3.33D-08 XBig12= 2.53D-01 3.41D-02.
      3 vectors produced by pass  5 Test12= 2.29D-12 3.33D-08 XBig12= 7.00D-02 1.78D-02.
      3 vectors produced by pass  6 Test12= 2.29D-12 3.33D-08 XBig12= 1.92D-02 1.25D-02.
      3 vectors produced by pass  7 Test12= 2.29D-12 3.33D-08 XBig12= 2.90D-03 5.13D-03.
      3 vectors produced by pass  8 Test12= 2.29D-12 3.33D-08 XBig12= 9.30D-04 1.89D-03.
      3 vectors produced by pass  9 Test12= 2.29D-12 3.33D-08 XBig12= 1.74D-04 1.06D-03.
      3 vectors produced by pass 10 Test12= 2.29D-12 3.33D-08 XBig12= 5.46D-05 5.04D-04.
      3 vectors produced by pass 11 Test12= 2.29D-12 3.33D-08 XBig12= 5.94D-06 2.98D-04.
      3 vectors produced by pass 12 Test12= 2.29D-12 3.33D-08 XBig12= 1.37D-06 1.14D-04.
      3 vectors produced by pass 13 Test12= 2.29D-12 3.33D-08 XBig12= 2.63D-07 3.78D-05.
      3 vectors produced by pass 14 Test12= 2.29D-12 3.33D-08 XBig12= 5.36D-08 1.97D-05.
      3 vectors produced by pass 15 Test12= 2.29D-12 3.33D-08 XBig12= 1.39D-08 1.15D-05.
      3 vectors produced by pass 16 Test12= 2.29D-12 3.33D-08 XBig12= 1.77D-09 4.34D-06.
      3 vectors produced by pass 17 Test12= 2.29D-12 3.33D-08 XBig12= 2.31D-10 1.35D-06.
      3 vectors produced by pass 18 Test12= 2.29D-12 3.33D-08 XBig12= 3.99D-11 4.96D-07.
      3 vectors produced by pass 19 Test12= 2.29D-12 3.33D-08 XBig12= 1.39D-11 3.19D-07.
      3 vectors produced by pass 20 Test12= 2.29D-12 3.33D-08 XBig12= 7.82D-12 3.11D-07.
      2 vectors produced by pass 21 Test12= 2.29D-12 3.33D-08 XBig12= 3.86D-12 2.29D-07.
      1 vectors produced by pass 22 Test12= 2.29D-12 3.33D-08 XBig12= 1.41D-12 1.31D-07.
 Inverted reduced A of dimension    66 with in-core refinement.
 End of Minotr Frequency-dependent properties file   721 does not exist.
 End of Minotr Frequency-dependent properties file   722 does not exist.
 Symmetrizing basis deriv contribution to polar:
 IMax=3 JMax=2 DiffMx= 0.00D+00
 G2DrvN: will do     8 centers at a time, making    6 passes doing MaxLOS=3.
 Calling FoFCou, ICntrl=  3107 FMM=F I1Cent=   0 AccDes= 0.00D+00.
 Calling FoFCou, ICntrl=  3107 FMM=F I1Cent=   0 AccDes= 0.00D+00.
 Calling FoFCou, ICntrl=  3107 FMM=F I1Cent=   0 AccDes= 0.00D+00.
 Calling FoFCou, ICntrl=  3107 FMM=F I1Cent=   0 AccDes= 0.00D+00.
 Calling FoFCou, ICntrl=  3107 FMM=F I1Cent=   0 AccDes= 0.00D+00.
 Calling FoFCou, ICntrl=  3107 FMM=F I1Cent=   0 AccDes= 0.00D+00.
 FoFDir/FoFCou used for L=0 through L=3.
 End of G2Drv Frequency-dependent properties file   721 does not exist.
 End of G2Drv Frequency-dependent properties file   722 does not exist.
          IDoAtm=111111111111111111111111111111111111111111111
          Differentiating once with respect to electric field.
                with respect to dipole field.
          Differentiating once with respect to nuclear coordinates.
          There are   138 degrees of freedom in the 1st order CPHF.  IDoFFX=5.
 Will reuse    3 saved solutions.
    135 vectors produced by pass  0 Test12= 6.87D-14 1.00D-09 XBig12= 1.84D-01 8.55D-02.
 AX will form    27 AO Fock derivatives at one time.
    135 vectors produced by pass  1 Test12= 6.87D-14 1.00D-09 XBig12= 2.11D-02 1.48D-02.
    132 vectors produced by pass  2 Test12= 6.87D-14 1.00D-09 XBig12= 1.69D-04 1.45D-03.
    132 vectors produced by pass  3 Test12= 6.87D-14 1.00D-09 XBig12= 8.27D-07 7.12D-05.
    132 vectors produced by pass  4 Test12= 6.87D-14 1.00D-09 XBig12= 1.85D-09 3.29D-06.
    132 vectors produced by pass  5 Test12= 6.87D-14 1.00D-09 XBig12= 5.19D-12 1.67D-07.
     93 vectors produced by pass  6 Test12= 6.87D-14 1.00D-09 XBig12= 3.00D-13 2.66D-08.
      1 vectors produced by pass  7 Test12= 6.87D-14 1.00D-09 XBig12= 6.67D-16 1.44D-09.
 Inverted reduced A of dimension   892 with in-core refinement.
 Isotropic polarizability for W=    0.000000      192.58 Bohr**3.
 End of Minotr Frequency-dependent properties file   721 does not exist.
 End of Minotr Frequency-dependent properties file   722 does not exist.

 **********************************************************************

            Population analysis using the SCF density.

 **********************************************************************

 Orbital symmetries:
       Occupied  (A) (A) (A) (A) (A) (A) (A) (A) (A) (A) (A) (A)
                 (A) (A) (A) (A) (A) (A) (A) (A) (A) (A) (A) (A)
                 (A) (A) (A) (A) (A) (A) (A) (A) (A) (A) (A) (A)
                 (A) (A) (A) (A) (A) (A) (A) (A) (A) (A) (A) (A)
                 (A) (A) (A) (A) (A) (A) (A) (A) (A) (A) (A) (A)
                 (A) (A) (A) (A) (A) (A) (A) (A) (A) (A) (A) (A)
                 (A) (A) (A) (A) (A) (A) (A) (A) (A) (A) (A) (A)
                 (A) (A) (A) (A) (A) (A) (A)
       Virtual   (A) (A) (A) (A) (A) (A) (A) (A) (A) (A) (A) (A)
                 (A) (A) (A) (A) (A) (A) (A) (A) (A) (A) (A) (A)
                 (A) (A) (A) (A) (A) (A) (A) (A) (A) (A) (A) (A)
                 (A) (A) (A) (A) (A) (A) (A) (A) (A) (A) (A) (A)
                 (A) (A) (A) (A) (A) (A) (A) (A) (A) (A) (A) (A)
                 (A) (A) (A) (A) (A) (A) (A) (A) (A) (A) (A) (A)
                 (A) (A) (A) (A) (A) (A) (A) (A) (A) (A) (A) (A)
                 (A) (A) (A) (A) (A) (A) (A) (A) (A) (A) (A) (A)
                 (A) (A) (A) (A) (A) (A) (A) (A) (A) (A) (A) (A)
                 (A) (A) (A) (A) (A) (A) (A) (A) (A) (A) (A) (A)
                 (A) (A) (A) (A) (A) (A) (A) (A) (A) (A) (A) (A)
                 (A) (A) (A) (A) (A) (A) (A) (A) (A) (A) (A) (A)
                 (A) (A) (A) (A) (A) (A) (A) (A) (A) (A) (A) (A)
                 (A) (A) (A) (A) (A) (A) (A) (A) (A) (A) (A) (A)
                 (A) (A) (A) (A) (A) (A) (A) (A) (A) (A) (A) (A)
                 (A) (A) (A) (A) (A) (A) (A) (A) (A) (A) (A) (A)
                 (A) (A) (A) (A) (A) (A) (A) (A) (A) (A) (A) (A)
                 (A) (A) (A) (A) (A) (A) (A) (A) (A) (A) (A) (A)
                 (A) (A) (A) (A) (A) (A) (A) (A) (A) (A) (A) (A)
                 (A) (A) (A) (A) (A) (A) (A) (A) (A) (A) (A) (A)
                 (A) (A) (A) (A) (A) (A) (A) (A) (A) (A) (A) (A)
                 (A) (A) (A) (A) (A) (A) (A) (A) (A) (A) (A) (A)
                 (A) (A) (A) (A) (A) (A) (A) (A) (A) (A) (A) (A)
                 (A) (A) (A) (A) (A) (A) (A) (A) (A) (A) (A) (A)
                 (A) (A) (A) (A) (A) (A) (A) (A) (A) (A) (A) (A)
                 (A) (A) (A) (A) (A) (A) (A) (A) (A) (A) (A) (A)
                 (A) (A) (A) (A) (A) (A) (A) (A) (A) (A) (A) (A)
                 (A) (A) (A) (A) (A) (A) (A) (A) (A) (A) (A) (A)
                 (A) (A) (A) (A) (A) (A) (A) (A) (A) (A) (A) (A)
                 (A) (A) (A) (A) (A) (A) (A) (A) (A) (A) (A) (A)
                 (A) (A) (A) (A) (A) (A) (A) (A) (A) (A) (A) (A)
                 (A) (A) (A) (A) (A) (A) (A) (A) (A) (A) (A) (A)
                 (A) (A) (A) (A) (A) (A) (A) (A) (A) (A) (A) (A)
                 (A) (A) (A) (A) (A) (A) (A) (A) (A) (A) (A) (A)
                 (A) (A) (A) (A) (A) (A) (A) (A) (A) (A) (A) (A)
                 (A) (A) (A) (A) (A) (A) (A) (A) (A) (A) (A) (A)
                 (A) (A) (A) (A) (A) (A) (A) (A) (A) (A) (A) (A)
                 (A) (A) (A) (A) (A) (A) (A) (A) (A) (A) (A) (A)
                 (A) (A) (A) (A) (A) (A) (A) (A) (A) (A) (A) (A)
                 (A) (A) (A) (A) (A) (A) (A) (A) (A) (A) (A) (A)
                 (A) (A) (A) (A) (A) (A) (A) (A) (A) (A) (A) (A)
                 (A) (A) (A) (A) (A) (A) (A) (A) (A) (A) (A) (A)
                 (A) (A) (A) (A) (A) (A) (A) (A) (A) (A) (A) (A)
                 (A) (A) (A) (A) (A) (A) (A) (A) (A) (A) (A) (A)
                 (A) (A) (A) (A) (A) (A) (A) (A) (A) (A) (A) (A)
                 (A) (A) (A) (A) (A) (A) (A) (A) (A) (A) (A) (A)
                 (A) (A) (A) (A) (A) (A) (A) (A) (A) (A) (A) (A)
                 (A) (A) (A) (A) (A) (A) (A) (A) (A) (A) (A) (A)
                 (A) (A) (A) (A) (A) (A) (A) (A) (A) (A) (A) (A)
                 (A) (A) (A) (A) (A) (A) (A) (A) (A) (A) (A) (A)
                 (A) (A) (A) (A) (A) (A) (A) (A) (A) (A) (A) (A)
                 (A) (A) (A) (A) (A) (A) (A) (A) (A) (A) (A) (A)
                 (A) (A) (A) (A) (A) (A) (A) (A) (A) (A) (A) (A)
                 (A) (A) (A) (A) (A) (A) (A) (A) (A) (A) (A) (A)
                 (A) (A) (A) (A) (A) (A) (A) (A) (A) (A) (A) (A)
                 (A) (A) (A) (A) (A) (A) (A) (A) (A) (A) (A) (A)
                 (A) (A) (A) (A) (A) (A) (A) (A) (A) (A) (A) (A)
                 (A) (A) (A) (A) (A) (A) (A) (A) (A) (A) (A) (A)
                 (A) (A) (A) (A) (A) (A) (A) (A) (A) (A) (A) (A)
                 (A) (A) (A) (A) (A) (A) (A) (A) (A) (A) (A) (A)
                 (A) (A) (A) (A) (A) (A) (A) (A) (A) (A) (A) (A)
                 (A) (A) (A) (A) (A) (A) (A) (A) (A) (A) (A) (A)
                 (A) (A) (A) (A) (A) (A) (A) (A) (A) (A) (A)
 The electronic state is 1-A.
 Alpha  occ. eigenvalues --  -19.19523 -19.18123 -19.17925 -19.17731 -19.17663
 Alpha  occ. eigenvalues --  -19.17138 -19.15802 -19.15006 -19.14895 -19.14558
 Alpha  occ. eigenvalues --  -19.13943 -10.31693 -10.28992 -10.27380 -10.26725
 Alpha  occ. eigenvalues --  -10.26642 -10.26309 -10.25019 -10.24495 -10.23862
 Alpha  occ. eigenvalues --  -10.23740 -10.23582 -10.22378  -1.09588  -1.07538
 Alpha  occ. eigenvalues --   -1.06898  -1.05239  -1.04063  -1.03439  -1.03079
 Alpha  occ. eigenvalues --   -1.02596  -1.01196  -1.00112  -0.99513  -0.82709
 Alpha  occ. eigenvalues --   -0.81459  -0.78937  -0.77726  -0.72256  -0.69755
 Alpha  occ. eigenvalues --   -0.68311  -0.64452  -0.63587  -0.61493  -0.60826
 Alpha  occ. eigenvalues --   -0.59574  -0.57253  -0.56328  -0.54855  -0.54439
 Alpha  occ. eigenvalues --   -0.53206  -0.52977  -0.52641  -0.52373  -0.50755
 Alpha  occ. eigenvalues --   -0.50293  -0.50053  -0.48602  -0.47329  -0.47133
 Alpha  occ. eigenvalues --   -0.46103  -0.45170  -0.44491  -0.44083  -0.43952
 Alpha  occ. eigenvalues --   -0.43145  -0.42154  -0.40267  -0.40166  -0.38622
 Alpha  occ. eigenvalues --   -0.38479  -0.37610  -0.37215  -0.36611  -0.36500
 Alpha  occ. eigenvalues --   -0.35491  -0.35133  -0.34472  -0.33287  -0.33171
 Alpha  occ. eigenvalues --   -0.31679  -0.31206  -0.30842  -0.30554  -0.29752
 Alpha  occ. eigenvalues --   -0.29509  -0.28657  -0.27943  -0.27206  -0.26881
 Alpha  occ. eigenvalues --   -0.25769
 Alpha virt. eigenvalues --   -0.04150  -0.02123  -0.01759   0.00240   0.00494
 Alpha virt. eigenvalues --    0.00995   0.01483   0.01785   0.02155   0.02890
 Alpha virt. eigenvalues --    0.03608   0.04140   0.04779   0.05141   0.05467
 Alpha virt. eigenvalues --    0.06104   0.06308   0.06994   0.07627   0.08049
 Alpha virt. eigenvalues --    0.08499   0.08663   0.09374   0.09491   0.09993
 Alpha virt. eigenvalues --    0.10470   0.11074   0.11239   0.11549   0.11819
 Alpha virt. eigenvalues --    0.12201   0.12469   0.12633   0.13156   0.13559
 Alpha virt. eigenvalues --    0.13911   0.14075   0.14659   0.14854   0.14945
 Alpha virt. eigenvalues --    0.15665   0.15829   0.16089   0.16177   0.16664
 Alpha virt. eigenvalues --    0.16816   0.17437   0.17697   0.18191   0.18484
 Alpha virt. eigenvalues --    0.18959   0.19164   0.19425   0.19581   0.19863
 Alpha virt. eigenvalues --    0.20245   0.20286   0.20936   0.21400   0.21856
 Alpha virt. eigenvalues --    0.21994   0.22056   0.22564   0.22767   0.23023
 Alpha virt. eigenvalues --    0.23256   0.23451   0.23766   0.23930   0.24177
 Alpha virt. eigenvalues --    0.24649   0.24812   0.25359   0.25463   0.25739
 Alpha virt. eigenvalues --    0.26033   0.26312   0.26769   0.27244   0.27255
 Alpha virt. eigenvalues --    0.27494   0.27597   0.28187   0.28683   0.28962
 Alpha virt. eigenvalues --    0.29087   0.29602   0.30185   0.30380   0.30954
 Alpha virt. eigenvalues --    0.31261   0.31362   0.31534   0.31861   0.32294
 Alpha virt. eigenvalues --    0.32580   0.32882   0.33205   0.33482   0.33735
 Alpha virt. eigenvalues --    0.33969   0.34304   0.34557   0.35213   0.35823
 Alpha virt. eigenvalues --    0.36131   0.36293   0.36496   0.36869   0.37293
 Alpha virt. eigenvalues --    0.37791   0.38115   0.38520   0.39079   0.39138
 Alpha virt. eigenvalues --    0.39500   0.39879   0.40396   0.40548   0.40914
 Alpha virt. eigenvalues --    0.41316   0.41990   0.42755   0.43810   0.43998
 Alpha virt. eigenvalues --    0.44484   0.45055   0.45377   0.45842   0.46075
 Alpha virt. eigenvalues --    0.46192   0.47629   0.48033   0.48309   0.49593
 Alpha virt. eigenvalues --    0.50630   0.52132   0.54343   0.56602   0.57429
 Alpha virt. eigenvalues --    0.57810   0.58494   0.59844   0.60277   0.60819
 Alpha virt. eigenvalues --    0.62462   0.62733   0.64021   0.64472   0.65213
 Alpha virt. eigenvalues --    0.66382   0.67152   0.67899   0.68541   0.69322
 Alpha virt. eigenvalues --    0.70110   0.71015   0.71382   0.71947   0.72557
 Alpha virt. eigenvalues --    0.73223   0.73536   0.74567   0.75570   0.77170
 Alpha virt. eigenvalues --    0.77730   0.78358   0.78500   0.79322   0.80343
 Alpha virt. eigenvalues --    0.81179   0.82406   0.82424   0.83916   0.84188
 Alpha virt. eigenvalues --    0.85335   0.85732   0.87395   0.87964   0.88450
 Alpha virt. eigenvalues --    0.88601   0.88979   0.89592   0.89861   0.90764
 Alpha virt. eigenvalues --    0.91406   0.91801   0.92537   0.92579   0.92737
 Alpha virt. eigenvalues --    0.93454   0.93836   0.94988   0.95174   0.95404
 Alpha virt. eigenvalues --    0.95943   0.96445   0.96654   0.97300   0.98007
 Alpha virt. eigenvalues --    0.98109   0.99131   0.99574   0.99635   1.01038
 Alpha virt. eigenvalues --    1.01474   1.01728   1.02721   1.03802   1.04417
 Alpha virt. eigenvalues --    1.04993   1.05811   1.05881   1.06121   1.07064
 Alpha virt. eigenvalues --    1.07990   1.08171   1.09456   1.10666   1.10854
 Alpha virt. eigenvalues --    1.11199   1.11786   1.12071   1.12548   1.13468
 Alpha virt. eigenvalues --    1.13984   1.14305   1.15319   1.16183   1.16540
 Alpha virt. eigenvalues --    1.16637   1.16785   1.18202   1.18477   1.18786
 Alpha virt. eigenvalues --    1.19846   1.20182   1.20468   1.20996   1.21625
 Alpha virt. eigenvalues --    1.22418   1.23408   1.23780   1.24183   1.24295
 Alpha virt. eigenvalues --    1.24376   1.25006   1.25578   1.26257   1.27201
 Alpha virt. eigenvalues --    1.28419   1.28877   1.29325   1.29459   1.30025
 Alpha virt. eigenvalues --    1.30576   1.31230   1.31609   1.32840   1.33597
 Alpha virt. eigenvalues --    1.34243   1.34980   1.35362   1.35551   1.35678
 Alpha virt. eigenvalues --    1.36670   1.37022   1.37506   1.38712   1.39060
 Alpha virt. eigenvalues --    1.39811   1.40434   1.40964   1.42181   1.43813
 Alpha virt. eigenvalues --    1.43970   1.44223   1.45136   1.46060   1.46956
 Alpha virt. eigenvalues --    1.47583   1.48337   1.49491   1.50028   1.50534
 Alpha virt. eigenvalues --    1.51763   1.51891   1.53385   1.53962   1.54516
 Alpha virt. eigenvalues --    1.55062   1.56410   1.56604   1.58059   1.58547
 Alpha virt. eigenvalues --    1.59729   1.60491   1.61596   1.62421   1.62696
 Alpha virt. eigenvalues --    1.63129   1.64503   1.64713   1.66244   1.66638
 Alpha virt. eigenvalues --    1.67802   1.69045   1.69591   1.70470   1.70840
 Alpha virt. eigenvalues --    1.72513   1.72848   1.73052   1.73697   1.74284
 Alpha virt. eigenvalues --    1.76193   1.78317   1.78798   1.79600   1.80411
 Alpha virt. eigenvalues --    1.81300   1.82419   1.84468   1.85418   1.85622
 Alpha virt. eigenvalues --    1.86774   1.87105   1.88528   1.89536   1.90397
 Alpha virt. eigenvalues --    1.91096   1.91839   1.92824   1.93563   1.94144
 Alpha virt. eigenvalues --    1.95021   1.95930   1.97893   1.98912   2.00039
 Alpha virt. eigenvalues --    2.00425   2.01203   2.02754   2.03877   2.06080
 Alpha virt. eigenvalues --    2.07028   2.07605   2.08979   2.10596   2.11238
 Alpha virt. eigenvalues --    2.12084   2.15808   2.17681   2.18519   2.19297
 Alpha virt. eigenvalues --    2.20497   2.21380   2.22568   2.24007   2.24661
 Alpha virt. eigenvalues --    2.27114   2.27251   2.28488   2.29202   2.30220
 Alpha virt. eigenvalues --    2.31862   2.33728   2.35666   2.38075   2.40189
 Alpha virt. eigenvalues --    2.42228   2.43569   2.43904   2.45112   2.47936
 Alpha virt. eigenvalues --    2.51535   2.51838   2.52230   2.52787   2.54769
 Alpha virt. eigenvalues --    2.55288   2.55963   2.56761   2.57378   2.59608
 Alpha virt. eigenvalues --    2.59866   2.60836   2.62807   2.63724   2.64642
 Alpha virt. eigenvalues --    2.65069   2.65891   2.67585   2.68496   2.68764
 Alpha virt. eigenvalues --    2.70485   2.71892   2.72734   2.74681   2.75695
 Alpha virt. eigenvalues --    2.77511   2.78110   2.79329   2.80851   2.81257
 Alpha virt. eigenvalues --    2.82302   2.84388   2.84566   2.86203   2.88253
 Alpha virt. eigenvalues --    2.90059   2.90667   2.92200   2.92375   2.93644
 Alpha virt. eigenvalues --    2.94814   2.96309   2.96818   2.97874   2.97939
 Alpha virt. eigenvalues --    2.98893   2.99846   3.00196   3.01021   3.01841
 Alpha virt. eigenvalues --    3.02850   3.03733   3.04210   3.05231   3.06299
 Alpha virt. eigenvalues --    3.06613   3.07871   3.08834   3.09328   3.10657
 Alpha virt. eigenvalues --    3.11850   3.12642   3.15386   3.15839   3.18329
 Alpha virt. eigenvalues --    3.19351   3.19933   3.20707   3.22050   3.22482
 Alpha virt. eigenvalues --    3.24080   3.25523   3.26001   3.27176   3.28746
 Alpha virt. eigenvalues --    3.29507   3.31207   3.32401   3.32882   3.34509
 Alpha virt. eigenvalues --    3.35030   3.35917   3.36516   3.37487   3.38322
 Alpha virt. eigenvalues --    3.39110   3.39976   3.40901   3.41917   3.44202
 Alpha virt. eigenvalues --    3.45488   3.47302   3.48610   3.51129   3.51243
 Alpha virt. eigenvalues --    3.52898   3.53441   3.55382   3.57828   3.58652
 Alpha virt. eigenvalues --    3.60067   3.60543   3.62157   3.65580   3.65920
 Alpha virt. eigenvalues --    3.66787   3.68039   3.69364   3.69835   3.72525
 Alpha virt. eigenvalues --    3.73127   3.75884   3.76812   3.78061   3.78563
 Alpha virt. eigenvalues --    3.80299   3.80949   3.83921   3.84678   3.85582
 Alpha virt. eigenvalues --    3.87988   3.88545   3.89739   3.91902   3.94236
 Alpha virt. eigenvalues --    3.95505   3.98046   4.00185   4.02564   4.07419
 Alpha virt. eigenvalues --    4.08304   4.09476   4.09783   4.10271   4.12533
 Alpha virt. eigenvalues --    4.14317   4.15597   4.16777   4.17419   4.18150
 Alpha virt. eigenvalues --    4.19036   4.20234   4.22124   4.23457   4.23638
 Alpha virt. eigenvalues --    4.25464   4.26817   4.27680   4.29093   4.29470
 Alpha virt. eigenvalues --    4.30742   4.32413   4.33071   4.34429   4.34728
 Alpha virt. eigenvalues --    4.35779   4.36564   4.37535   4.37783   4.38488
 Alpha virt. eigenvalues --    4.38859   4.40029   4.41108   4.42646   4.43202
 Alpha virt. eigenvalues --    4.44154   4.44893   4.45457   4.45938   4.46395
 Alpha virt. eigenvalues --    4.47731   4.48479   4.49185   4.49802   4.49880
 Alpha virt. eigenvalues --    4.50554   4.51314   4.52109   4.53240   4.54290
 Alpha virt. eigenvalues --    4.54718   4.55048   4.55617   4.56988   4.57916
 Alpha virt. eigenvalues --    4.58793   4.59552   4.60545   4.60949   4.61404
 Alpha virt. eigenvalues --    4.61889   4.62696   4.63614   4.63796   4.64992
 Alpha virt. eigenvalues --    4.65449   4.66635   4.67401   4.67600   4.68005
 Alpha virt. eigenvalues --    4.68481   4.69741   4.70093   4.71013   4.72146
 Alpha virt. eigenvalues --    4.72316   4.73715   4.74339   4.75098   4.75415
 Alpha virt. eigenvalues --    4.76218   4.76632   4.77687   4.78261   4.79268
 Alpha virt. eigenvalues --    4.79838   4.80731   4.80897   4.81406   4.81878
 Alpha virt. eigenvalues --    4.83290   4.83597   4.83872   4.84521   4.85419
 Alpha virt. eigenvalues --    4.86429   4.86915   4.88055   4.89559   4.89955
 Alpha virt. eigenvalues --    4.91120   4.92396   4.94255   4.95936   4.96144
 Alpha virt. eigenvalues --    4.97052   4.98541   4.99530   5.00573   5.03229
 Alpha virt. eigenvalues --    5.04417   5.06339   5.06823   5.07729   5.10424
 Alpha virt. eigenvalues --    5.11323   5.12058   5.13452   5.16349   5.18165
 Alpha virt. eigenvalues --    5.19257   5.20545   5.20900   5.22480   5.23678
 Alpha virt. eigenvalues --    5.23837   5.24874   5.25322   5.26055   5.27166
 Alpha virt. eigenvalues --    5.27710   5.28539   5.31891   5.33649   5.35530
 Alpha virt. eigenvalues --    5.35959   5.37274   5.37678   5.38220   5.39576
 Alpha virt. eigenvalues --    5.40082   5.40768   5.41806   5.42524   5.42823
 Alpha virt. eigenvalues --    5.43408   5.44875   5.45218   5.45454   5.46253
 Alpha virt. eigenvalues --    5.46996   5.48138   5.49049   5.49668   5.50407
 Alpha virt. eigenvalues --    5.51996   5.52314   5.54237   5.54550   5.55789
 Alpha virt. eigenvalues --    5.56624   5.58905   5.61269   5.61399   5.63035
 Alpha virt. eigenvalues --    5.64526   5.68239   5.69080   5.72225   5.72922
 Alpha virt. eigenvalues --    5.73540   5.75843   5.76473   5.78193   5.80463
 Alpha virt. eigenvalues --    5.84802   5.87001   5.87630   5.89332   5.89683
 Alpha virt. eigenvalues --    5.91670   5.91984   5.92537   5.93721   5.94658
 Alpha virt. eigenvalues --    5.96839   5.97215   5.97801   5.98520   6.00046
 Alpha virt. eigenvalues --    6.00662   6.01428   6.03194   6.04581   6.06328
 Alpha virt. eigenvalues --    6.07418   6.07936   6.08513   6.11363   6.12200
 Alpha virt. eigenvalues --    6.13022   6.15751   6.17752   6.18073   6.18365
 Alpha virt. eigenvalues --    6.22386   6.26074   6.28531   6.31424   6.37459
 Alpha virt. eigenvalues --    6.50924   6.59429   6.86801   7.02463   7.04441
 Alpha virt. eigenvalues --    7.10081   7.16065   7.17149   7.23037   7.27660
 Alpha virt. eigenvalues --    7.35705   7.37008   7.40149   7.48144   7.65513
 Alpha virt. eigenvalues --    7.70004   8.12994  11.97511  12.12989  12.20490
 Alpha virt. eigenvalues --   12.21793  12.42597  12.58709  12.86197  12.88534
 Alpha virt. eigenvalues --   12.90855  13.04103  13.18568  13.32923  13.35448
 Alpha virt. eigenvalues --   13.40821  13.44413  13.53851  13.55506  13.62155
 Alpha virt. eigenvalues --   13.66233  13.73494  13.96881  14.08827  14.28073
          Condensed to atoms (all electrons):
              1          2          3          4          5          6
     1  O    8.079315   0.247590  -0.023231  -0.013904   0.016434   0.043820
     2  C    0.247590   8.265195  -0.566655   0.028387   0.013837  -2.199069
     3  C   -0.023231  -0.566655   7.642030   0.111664  -0.019841  -0.710728
     4  O   -0.013904   0.028387   0.111664   8.120778   0.232979  -0.035750
     5  H    0.016434   0.013837  -0.019841   0.232979   0.440397  -0.031926
     6  C    0.043820  -2.199069  -0.710728  -0.035750  -0.031926  11.512992
     7  O   -0.000702   0.014188  -0.147397   0.015221  -0.000813   0.326776
     8  H   -0.000009   0.000055  -0.010216  -0.000145   0.000034   0.030767
     9  C   -0.036506   0.159175  -0.210576   0.010250  -0.002738   0.157853
    10  O   -0.000391   0.012592   0.004959  -0.000012   0.000001  -0.011008
    11  H    0.000027  -0.001895   0.000507   0.000001   0.000000   0.000666
    12  C   -0.097204  -1.722069   0.223620  -0.024993   0.021792   0.678150
    13  O    0.003083  -0.010878  -0.071115  -0.002119  -0.000128   0.047677
    14  C   -0.024333   1.265606  -0.484138   0.065011   0.000682  -3.772454
    15  O   -0.000228  -0.022885   0.025534   0.000434   0.000035  -0.099339
    16  C   -0.000056   0.079716   0.002874  -0.003632   0.000433   0.221212
    17  C   -0.000388  -0.022754   0.001857   0.000176   0.000046   0.083618
    18  O    0.000041   0.001208  -0.002779  -0.000005   0.000000   0.012054
    19  H   -0.000032   0.000000   0.002589   0.000003   0.000000  -0.003267
    20  C    0.000023   0.005121  -0.003349  -0.000033   0.000001   0.055443
    21  O    0.000000   0.000110   0.000029   0.000000   0.000000  -0.000490
    22  H    0.000000  -0.000019   0.000003   0.000000   0.000000   0.000296
    23  C    0.000065   0.003180  -0.070892  -0.000432  -0.000027   0.012584
    24  O    0.000000  -0.000313  -0.002789  -0.000003   0.000000  -0.013115
    25  H    0.000000   0.000004   0.000169   0.000000   0.000000  -0.004656
    26  C   -0.000084   0.028157   0.096426   0.001544   0.000016  -0.282051
    27  O    0.000000   0.000158  -0.000279   0.000000   0.000000  -0.000296
    28  C    0.000000  -0.001586   0.001120   0.000004   0.000000  -0.018845
    29  O    0.000000   0.000001   0.000001   0.000000   0.000000  -0.000093
    30  H    0.263700   0.041744  -0.040896  -0.001292  -0.000446  -0.007006
    31  H   -0.000994   0.043761  -0.008532   0.000014   0.000000   0.014322
    32  H    0.001192   0.015000  -0.005158  -0.000035  -0.000002  -0.002039
    33  H    0.000954   0.143885  -0.095355   0.000399  -0.000004  -0.000134
    34  H   -0.023594   0.420619  -0.114136   0.002750  -0.000669  -0.024746
    35  H   -0.005871   0.070317   0.393907  -0.026095  -0.000332  -0.295073
    36  H   -0.000065   0.009899  -0.056776   0.002375  -0.000145   0.276636
    37  H    0.000082  -0.002651  -0.037825  -0.000052   0.000005   0.054699
    38  H    0.000000  -0.000053  -0.000926  -0.000001   0.000000   0.003914
    39  H    0.000000   0.000872   0.005412  -0.000004   0.000000   0.025321
    40  H    0.000000  -0.000197  -0.000026   0.000000   0.000000  -0.004753
    41  H    0.000000   0.000000   0.000000   0.000000   0.000000   0.000009
    42  H    0.000000  -0.000003  -0.000001   0.000000   0.000000  -0.000202
    43  H    0.000000   0.000105  -0.000020   0.000000   0.000000  -0.000122
    44  H    0.000000   0.000322   0.000078   0.000000   0.000000   0.004772
    45  H    0.000000  -0.000671   0.002112   0.000005   0.000000  -0.007241
              7          8          9         10         11         12
     1  O   -0.000702  -0.000009  -0.036506  -0.000391   0.000027  -0.097204
     2  C    0.014188   0.000055   0.159175   0.012592  -0.001895  -1.722069
     3  C   -0.147397  -0.010216  -0.210576   0.004959   0.000507   0.223620
     4  O    0.015221  -0.000145   0.010250  -0.000012   0.000001  -0.024993
     5  H   -0.000813   0.000034  -0.002738   0.000001   0.000000   0.021792
     6  C    0.326776   0.030767   0.157853  -0.011008   0.000666   0.678150
     7  O    8.074094   0.253992  -0.001466  -0.000006   0.000000  -0.016567
     8  H    0.253992   0.410498   0.000320   0.000000   0.000000   0.001416
     9  C   -0.001466   0.000320   6.485090   0.195596  -0.030495  -1.180997
    10  O   -0.000006   0.000000   0.195596   8.102461   0.233185  -0.074863
    11  H    0.000000   0.000000  -0.030495   0.233185   0.438929   0.026231
    12  C   -0.016567   0.001416  -1.180997  -0.074863   0.026231   9.305551
    13  O    0.004024  -0.000703  -0.025745   0.012665   0.000710   0.084627
    14  C   -0.105065  -0.017369  -0.130429   0.000792   0.000880  -1.062288
    15  O    0.001398  -0.001117  -0.004077  -0.000999   0.000026   0.006971
    16  C    0.040595  -0.003559  -0.083108   0.013128  -0.000415   0.124679
    17  C   -0.003371   0.000295  -0.003010  -0.005026  -0.000078  -0.094922
    18  O    0.000235  -0.000006  -0.003538  -0.000959   0.000380  -0.002117
    19  H   -0.000078   0.000000  -0.003170   0.003019  -0.000092   0.001830
    20  C    0.001573  -0.000047   0.004210   0.000343  -0.000178  -0.019304
    21  O   -0.000002   0.000000  -0.000301  -0.000030  -0.000001   0.000615
    22  H    0.000000   0.000000   0.000087  -0.000020   0.000000  -0.000285
    23  C   -0.017892  -0.002079  -0.001516   0.000140   0.000002  -0.011828
    24  O   -0.000860   0.000094   0.000112  -0.000001   0.000000   0.001082
    25  H    0.000075  -0.000009   0.000002   0.000000   0.000000   0.000045
    26  C    0.010457   0.001247   0.011478   0.000448  -0.000060  -0.027497
    27  O    0.000023   0.000000  -0.000134   0.000006   0.000000  -0.000013
    28  C   -0.000087   0.000018   0.000181   0.000082   0.000007   0.006099
    29  O   -0.000001   0.000000  -0.000009   0.000001   0.000000  -0.000001
    30  H   -0.000011   0.000000   0.006951  -0.000012  -0.000001  -0.004484
    31  H   -0.000001   0.000000   0.619160  -0.047700  -0.001517  -0.329057
    32  H   -0.000005   0.000000   0.383311  -0.024417  -0.009836  -0.032564
    33  H   -0.000144   0.000001   0.113031  -0.000115  -0.000069   0.033979
    34  H    0.000428   0.000006   0.005790   0.000311   0.000001  -0.086590
    35  H    0.007364  -0.000028   0.003458   0.000027   0.000000  -0.011242
    36  H   -0.014725  -0.012042   0.003746  -0.000014   0.000000   0.027990
    37  H   -0.001261  -0.000167   0.010517  -0.000019   0.000000   0.023517
    38  H    0.000117  -0.000002   0.000004   0.000000   0.000000   0.000102
    39  H    0.003680   0.000074  -0.000082   0.000000   0.000000  -0.002498
    40  H   -0.000076   0.000001   0.000238   0.000001   0.000000  -0.000064
    41  H    0.000000   0.000000   0.000000   0.000000   0.000000  -0.000001
    42  H    0.000000   0.000000   0.000013   0.000001   0.000000   0.000081
    43  H    0.000002   0.000000  -0.000101   0.000001   0.000000   0.000532
    44  H    0.000007   0.000000   0.000081   0.000062   0.000000  -0.000867
    45  H   -0.000588   0.000009   0.000256  -0.000006   0.000000  -0.002500
             13         14         15         16         17         18
     1  O    0.003083  -0.024333  -0.000228  -0.000056  -0.000388   0.000041
     2  C   -0.010878   1.265606  -0.022885   0.079716  -0.022754   0.001208
     3  C   -0.071115  -0.484138   0.025534   0.002874   0.001857  -0.002779
     4  O   -0.002119   0.065011   0.000434  -0.003632   0.000176  -0.000005
     5  H   -0.000128   0.000682   0.000035   0.000433   0.000046   0.000000
     6  C    0.047677  -3.772454  -0.099339   0.221212   0.083618   0.012054
     7  O    0.004024  -0.105065   0.001398   0.040595  -0.003371   0.000235
     8  H   -0.000703  -0.017369  -0.001117  -0.003559   0.000295  -0.000006
     9  C   -0.025745  -0.130429  -0.004077  -0.083108  -0.003010  -0.003538
    10  O    0.012665   0.000792  -0.000999   0.013128  -0.005026  -0.000959
    11  H    0.000710   0.000880   0.000026  -0.000415  -0.000078   0.000380
    12  C    0.084627  -1.062288   0.006971   0.124679  -0.094922  -0.002117
    13  O    7.915326   0.118311  -0.021895   0.023933   0.023825  -0.025145
    14  C    0.118311  10.458019   0.362284  -0.823550  -0.154103   0.037530
    15  O   -0.021895   0.362284   7.918012  -0.014189  -0.017225  -0.015815
    16  C    0.023933  -0.823550  -0.014189  13.006670  -2.414060  -0.087273
    17  C    0.023825  -0.154103  -0.017225  -2.414060   7.833032   0.246738
    18  O   -0.025145   0.037530  -0.015815  -0.087273   0.246738   8.173995
    19  H    0.033129  -0.003495   0.007304  -0.047082   0.031482   0.243368
    20  C   -0.003957  -0.194909  -0.018739  -1.611527   0.679578  -0.067576
    21  O   -0.000015  -0.000545   0.000539   0.033421  -0.137904  -0.017414
    22  H   -0.000051   0.002481   0.000021  -0.009031  -0.024474   0.015635
    23  C    0.001290   0.071089  -0.222169   1.005609  -0.240713   0.015241
    24  O   -0.000261   0.034537   0.001493   0.020373   0.018103  -0.000026
    25  H   -0.000011   0.009158   0.000903  -0.032795  -0.003344  -0.000006
    26  C   -0.033355  -0.216618   0.249852  -4.962026   0.645329   0.011107
    27  O    0.000224  -0.002907  -0.000265   0.057102  -0.021188  -0.000170
    28  C   -0.002286   0.095166   0.022131   0.996709  -0.405043  -0.013020
    29  O    0.000011   0.000167   0.000031  -0.017187   0.012820   0.000566
    30  H   -0.000623   0.000458   0.000004   0.000089  -0.000014  -0.000001
    31  H    0.002189   0.000344   0.000034  -0.003469   0.001708   0.000005
    32  H    0.001468   0.001577  -0.000082   0.000689  -0.000176  -0.000132
    33  H   -0.028386   0.070931  -0.002563  -0.001264   0.001623  -0.000041
    34  H    0.004581   0.072815  -0.000732  -0.002066   0.000969   0.000003
    35  H    0.003987   0.119113  -0.000211  -0.000619   0.000500   0.000017
    36  H    0.006882   0.032334  -0.009552  -0.002207  -0.001374   0.000085
    37  H   -0.033672   0.248002  -0.029828   0.006580   0.000718  -0.000552
    38  H    0.000054  -0.001093  -0.000059   0.087074   0.003741   0.000020
    39  H   -0.000580  -0.055283  -0.022645   0.115257   0.003677   0.000115
    40  H   -0.001183   0.022441  -0.010204   0.060719  -0.062608   0.000768
    41  H    0.000000   0.000139   0.000002   0.008108   0.001888  -0.000021
    42  H    0.000008   0.001517   0.000130   0.067296  -0.038441   0.001449
    43  H    0.000041  -0.004955   0.000599   0.150423  -0.239146   0.008255
    44  H   -0.000553  -0.012375  -0.004556  -0.081680   0.224469  -0.014137
    45  H   -0.006555  -0.034847  -0.021984   0.120617  -0.038873  -0.001094
             19         20         21         22         23         24
     1  O   -0.000032   0.000023   0.000000   0.000000   0.000065   0.000000
     2  C    0.000000   0.005121   0.000110  -0.000019   0.003180  -0.000313
     3  C    0.002589  -0.003349   0.000029   0.000003  -0.070892  -0.002789
     4  O    0.000003  -0.000033   0.000000   0.000000  -0.000432  -0.000003
     5  H    0.000000   0.000001   0.000000   0.000000  -0.000027   0.000000
     6  C   -0.003267   0.055443  -0.000490   0.000296   0.012584  -0.013115
     7  O   -0.000078   0.001573  -0.000002   0.000000  -0.017892  -0.000860
     8  H    0.000000  -0.000047   0.000000   0.000000  -0.002079   0.000094
     9  C   -0.003170   0.004210  -0.000301   0.000087  -0.001516   0.000112
    10  O    0.003019   0.000343  -0.000030  -0.000020   0.000140  -0.000001
    11  H   -0.000092  -0.000178  -0.000001   0.000000   0.000002   0.000000
    12  C    0.001830  -0.019304   0.000615  -0.000285  -0.011828   0.001082
    13  O    0.033129  -0.003957  -0.000015  -0.000051   0.001290  -0.000261
    14  C   -0.003495  -0.194909  -0.000545   0.002481   0.071089   0.034537
    15  O    0.007304  -0.018739   0.000539   0.000021  -0.222169   0.001493
    16  C   -0.047082  -1.611527   0.033421  -0.009031   1.005609   0.020373
    17  C    0.031482   0.679578  -0.137904  -0.024474  -0.240713   0.018103
    18  O    0.243368  -0.067576  -0.017414   0.015635   0.015241  -0.000026
    19  H    0.333291  -0.005725   0.001265  -0.000505  -0.003184   0.000001
    20  C   -0.005725   6.580936   0.314894  -0.006207  -0.054854   0.002424
    21  O    0.001265   0.314894   8.050877   0.252200  -0.001697  -0.000069
    22  H   -0.000505  -0.006207   0.252200   0.403373   0.000221  -0.000002
    23  C   -0.003184  -0.054854  -0.001697   0.000221   6.549494   0.294582
    24  O    0.000001   0.002424  -0.000069  -0.000002   0.294582   8.094757
    25  H    0.000000  -0.000739   0.000000   0.000000  -0.065432   0.231810
    26  C   -0.000449   1.009388   0.003647  -0.004637  -1.798970  -0.183916
    27  O   -0.000045  -0.032654  -0.000634   0.000039  -0.056096   0.001327
    28  C    0.003671  -0.531972  -0.071408   0.022842  -0.048718  -0.021560
    29  O    0.000002  -0.081310   0.004350  -0.000135   0.003907   0.000878
    30  H    0.000000   0.000000   0.000000   0.000000   0.000000   0.000000
    31  H   -0.000034   0.000070   0.000000   0.000000   0.000007   0.000000
    32  H    0.000038   0.000016   0.000000   0.000000   0.000001   0.000000
    33  H   -0.000064   0.000280   0.000000   0.000000   0.000091   0.000000
    34  H   -0.000008   0.000008   0.000000   0.000000   0.000088   0.000000
    35  H   -0.000001  -0.000014   0.000000   0.000000  -0.000104   0.000001
    36  H   -0.000013   0.000257   0.000000   0.000000   0.001806   0.000015
    37  H   -0.000246   0.006777   0.000003   0.000000  -0.004014  -0.000065
    38  H    0.000000   0.000318  -0.000003   0.000000   0.447816  -0.035560
    39  H   -0.000004   0.000929  -0.000003   0.000000   0.553713  -0.036126
    40  H    0.000024  -0.049055   0.000095  -0.000002   0.023636   0.005097
    41  H    0.000000   0.012492  -0.000703   0.000014  -0.001800   0.000046
    42  H    0.000002  -0.128150   0.004767  -0.000209   0.009074  -0.000164
    43  H   -0.000107   0.320852  -0.030610  -0.005953   0.017640   0.000056
    44  H   -0.003245   0.026144  -0.000610   0.000452   0.014700  -0.000039
    45  H   -0.000069   0.048181  -0.000101   0.000042  -0.006442   0.000924
             25         26         27         28         29         30
     1  O    0.000000  -0.000084   0.000000   0.000000   0.000000   0.263700
     2  C    0.000004   0.028157   0.000158  -0.001586   0.000001   0.041744
     3  C    0.000169   0.096426  -0.000279   0.001120   0.000001  -0.040896
     4  O    0.000000   0.001544   0.000000   0.000004   0.000000  -0.001292
     5  H    0.000000   0.000016   0.000000   0.000000   0.000000  -0.000446
     6  C   -0.004656  -0.282051  -0.000296  -0.018845  -0.000093  -0.007006
     7  O    0.000075   0.010457   0.000023  -0.000087  -0.000001  -0.000011
     8  H   -0.000009   0.001247   0.000000   0.000018   0.000000   0.000000
     9  C    0.000002   0.011478  -0.000134   0.000181  -0.000009   0.006951
    10  O    0.000000   0.000448   0.000006   0.000082   0.000001  -0.000012
    11  H    0.000000  -0.000060   0.000000   0.000007   0.000000  -0.000001
    12  C    0.000045  -0.027497  -0.000013   0.006099  -0.000001  -0.004484
    13  O   -0.000011  -0.033355   0.000224  -0.002286   0.000011  -0.000623
    14  C    0.009158  -0.216618  -0.002907   0.095166   0.000167   0.000458
    15  O    0.000903   0.249852  -0.000265   0.022131   0.000031   0.000004
    16  C   -0.032795  -4.962026   0.057102   0.996709  -0.017187   0.000089
    17  C   -0.003344   0.645329  -0.021188  -0.405043   0.012820  -0.000014
    18  O   -0.000006   0.011107  -0.000170  -0.013020   0.000566  -0.000001
    19  H    0.000000  -0.000449  -0.000045   0.003671   0.000002   0.000000
    20  C   -0.000739   1.009388  -0.032654  -0.531972  -0.081310   0.000000
    21  O    0.000000   0.003647  -0.000634  -0.071408   0.004350   0.000000
    22  H    0.000000  -0.004637   0.000039   0.022842  -0.000135   0.000000
    23  C   -0.065432  -1.798970  -0.056096  -0.048718   0.003907   0.000000
    24  O    0.231810  -0.183916   0.001327  -0.021560   0.000878   0.000000
    25  H    0.447920   0.093732  -0.000121   0.003019  -0.000005   0.000000
    26  C    0.093732  12.119406   0.215879  -0.887953  -0.000984   0.000001
    27  O   -0.000121   0.215879   7.927033   0.120318  -0.056176   0.000000
    28  C    0.003019  -0.887953   0.120318   5.798868   0.333948   0.000000
    29  O   -0.000005  -0.000984  -0.056176   0.333948   7.981648   0.000000
    30  H    0.000000   0.000001   0.000000   0.000000   0.000000   0.413205
    31  H    0.000000   0.000153   0.000000  -0.000012   0.000000   0.000048
    32  H    0.000000   0.000010   0.000000  -0.000001   0.000000  -0.000228
    33  H    0.000000   0.000660   0.000000  -0.000042   0.000000  -0.000116
    34  H    0.000000  -0.000081   0.000000   0.000000   0.000000  -0.012095
    35  H    0.000000   0.000268   0.000000   0.000004   0.000000   0.000095
    36  H    0.000000   0.001800   0.000001   0.000012   0.000000   0.000008
    37  H   -0.000002   0.027113   0.000058  -0.000679  -0.000001   0.000000
    38  H   -0.005209  -0.185682   0.005978  -0.003416   0.000138   0.000000
    39  H   -0.004550  -0.265995   0.002137  -0.002416   0.000017   0.000000
    40  H   -0.000209   0.227556  -0.045927   0.063341  -0.001762   0.000000
    41  H    0.000000  -0.018227   0.002176  -0.010961   0.261183   0.000000
    42  H    0.000000   0.013369  -0.057004   0.402511  -0.017554   0.000000
    43  H    0.000001   0.013808  -0.004365   0.005735  -0.000887   0.000000
    44  H    0.000000   0.110558   0.001298  -0.035779   0.000696   0.000000
    45  H   -0.000066   0.193984  -0.000221  -0.005800  -0.000504   0.000000
             31         32         33         34         35         36
     1  O   -0.000994   0.001192   0.000954  -0.023594  -0.005871  -0.000065
     2  C    0.043761   0.015000   0.143885   0.420619   0.070317   0.009899
     3  C   -0.008532  -0.005158  -0.095355  -0.114136   0.393907  -0.056776
     4  O    0.000014  -0.000035   0.000399   0.002750  -0.026095   0.002375
     5  H    0.000000  -0.000002  -0.000004  -0.000669  -0.000332  -0.000145
     6  C    0.014322  -0.002039  -0.000134  -0.024746  -0.295073   0.276636
     7  O   -0.000001  -0.000005  -0.000144   0.000428   0.007364  -0.014725
     8  H    0.000000   0.000000   0.000001   0.000006  -0.000028  -0.012042
     9  C    0.619160   0.383311   0.113031   0.005790   0.003458   0.003746
    10  O   -0.047700  -0.024417  -0.000115   0.000311   0.000027  -0.000014
    11  H   -0.001517  -0.009836  -0.000069   0.000001   0.000000   0.000000
    12  C   -0.329057  -0.032564   0.033979  -0.086590  -0.011242   0.027990
    13  O    0.002189   0.001468  -0.028386   0.004581   0.003987   0.006882
    14  C    0.000344   0.001577   0.070931   0.072815   0.119113   0.032334
    15  O    0.000034  -0.000082  -0.002563  -0.000732  -0.000211  -0.009552
    16  C   -0.003469   0.000689  -0.001264  -0.002066  -0.000619  -0.002207
    17  C    0.001708  -0.000176   0.001623   0.000969   0.000500  -0.001374
    18  O    0.000005  -0.000132  -0.000041   0.000003   0.000017   0.000085
    19  H   -0.000034   0.000038  -0.000064  -0.000008  -0.000001  -0.000013
    20  C    0.000070   0.000016   0.000280   0.000008  -0.000014   0.000257
    21  O    0.000000   0.000000   0.000000   0.000000   0.000000   0.000000
    22  H    0.000000   0.000000   0.000000   0.000000   0.000000   0.000000
    23  C    0.000007   0.000001   0.000091   0.000088  -0.000104   0.001806
    24  O    0.000000   0.000000   0.000000   0.000000   0.000001   0.000015
    25  H    0.000000   0.000000   0.000000   0.000000   0.000000   0.000000
    26  C    0.000153   0.000010   0.000660  -0.000081   0.000268   0.001800
    27  O    0.000000   0.000000   0.000000   0.000000   0.000000   0.000001
    28  C   -0.000012  -0.000001  -0.000042   0.000000   0.000004   0.000012
    29  O    0.000000   0.000000   0.000000   0.000000   0.000000   0.000000
    30  H    0.000048  -0.000228  -0.000116  -0.012095   0.000095   0.000008
    31  H    0.610596  -0.051053   0.007392   0.006443  -0.000002  -0.000016
    32  H   -0.051053   0.567389  -0.005480  -0.000149  -0.000010   0.000000
    33  H    0.007392  -0.005480   0.629375   0.006768   0.001268  -0.000076
    34  H    0.006443  -0.000149   0.006768   0.602693   0.005521   0.000756
    35  H   -0.000002  -0.000010   0.001268   0.005521   0.578480   0.005694
    36  H   -0.000016   0.000000  -0.000076   0.000756   0.005694   0.572958
    37  H    0.000000   0.000004   0.002122  -0.000027   0.000777   0.004896
    38  H    0.000000   0.000000   0.000000   0.000000   0.000000  -0.000007
    39  H    0.000000   0.000000   0.000000   0.000000   0.000000   0.000031
    40  H    0.000000   0.000000   0.000000   0.000000   0.000000  -0.000001
    41  H    0.000000   0.000000   0.000000   0.000000   0.000000   0.000000
    42  H    0.000000   0.000000   0.000000   0.000000   0.000000   0.000000
    43  H    0.000000   0.000000   0.000000   0.000000   0.000000   0.000000
    44  H    0.000000   0.000000   0.000000   0.000000   0.000000  -0.000001
    45  H    0.000000   0.000000  -0.000004   0.000000   0.000000   0.000010
             37         38         39         40         41         42
[...]
 ,-0.00000257,0.00000796,0.00000119,-0.00028753,0.00095263,-0.00081059,
 0.00107258,-0.00083875,0.00037276,0.27423138,0.00000463,0.00001793,0.0
 0002336,-0.00000090,-0.00001788,-0.00001106,-0.00000098,-0.00000463,-0
 .00002468,-0.00000929,0.00000774,0.00002642,0.00000177,-0.00000355,0.0
 0000027,0.00002395,-0.00002929,-0.00000476,0.00000828,0.00003556,0.000
 06776,0.00000010,0.00000841,-0.00003701,-0.00000160,-0.00003632,0.0000
 3009,0.00000219,0.00002778,-0.00002425,0.00000251,-0.00000452,0.000000
 54,-0.00000992,0.00000051,-0.00002347,0.00003211,0.00015207,0.00007095
 ,-0.00011989,-0.00010389,-0.00018124,0.00025658,0.00014125,0.00046303,
 -0.00089734,-0.00051693,0.00009831,-0.00014788,0.00014550,0.00074583,-
 0.00013492,0.00001858,-0.00046306,0.00003012,-0.00015319,0.00010393,-0
 .00910389,0.00908803,-0.00268620,0.00183889,0.00074603,0.00112562,0.00
 037903,0.00034657,-0.00002079,-0.00014062,0.00003972,0.00042269,-0.000
 05719,0.00001118,0.00007005,-0.00009627,0.00003079,0.00011601,0.003516
 56,0.00023179,-0.00480363,0.01817889,-0.03908861,0.00875461,0.14079700
 ,-0.13115911,0.00272776,0.00225967,0.00398622,-0.00240783,0.00000132,-
 0.00000521,-0.00000291,0.00000052,0.00000282,-0.00000126,-0.00000027,0
 .00000851,-0.00000281,0.00000226,-0.00000138,0.00000688,-0.00000139,0.
 00000106,0.00000141,-0.00000045,0.00000082,0.00000231,0.00000217,0.000
 00148,-0.00001005,0.00000788,-0.00000086,0.00001779,-0.00005894,-0.000
 01645,0.00000029,-0.00008171,-0.00021682,0.00004107,-0.00130662,0.0006
 0618,0.00104190,0.00025365,-0.00044739,-0.00044819,-0.15337985,0.15646
 499,-0.00000072,-0.00000149,-0.00002199,-0.00000484,0.00000075,0.00001
 440,-0.00000296,-0.00000104,0.00001696,0.00001131,0.00000866,-0.000019
 80,-0.00000162,-0.00000134,0.00000133,-0.00001186,-0.00002358,-0.00000
 768,0.00000106,0.00001704,-0.00000908,-0.00000120,-0.00000542,0.000002
 01,-0.00000933,0.00000508,0.00000250,0.00000747,-0.00000978,-0.0000034
 0,-0.00000224,0.00000305,-0.00000354,0.00000818,0.00001431,0.00003829,
 0.00001329,-0.00001892,-0.00007399,0.00004301,0.00002781,0.00011139,0.
 00009127,0.00006021,-0.00027281,-0.00010025,-0.00007950,-0.00015427,-0
 .00207964,0.00076085,0.00128340,0.00048746,-0.00025183,-0.00016623,0.0
 0000692,-0.00000024,0.00006054,-0.02038416,0.01131949,0.00001589,0.000
 47120,-0.00120246,0.00025578,0.00019822,0.00007803,0.00018194,0.000125
 04,0.00003083,0.00003295,0.00002834,0.00000916,0.00001983,0.00003458,-
 0.00000622,-0.00005259,-0.00140859,-0.00022936,0.00252375,-0.00473738,
 0.00946607,0.00217456,-0.01511942,0.00527386,-0.04376155,0.03405532,-0
 .02094040,-0.01787041,-0.00000091,0.00000158,0.00000285,0.00000447,0.0
 0000009,-0.00000186,-0.00000033,-0.00000359,-0.00000211,-0.00000132,-0
 .00000168,-0.00000251,0.00000151,-0.00000031,-0.00000195,0.00000087,-0
 .00000059,-0.00000088,0.00000004,0.00000173,0.00000077,-0.00000323,-0.
 00000823,0.00000100,0.00001282,0.00001642,-0.00000954,-0.00001215,-0.0
 0000588,0.00000706,0.00054714,-0.00047185,-0.00005931,0.00170799,0.000
 55650,0.00246360,0.00800665,-0.00293571,0.05672280,0.00000066,-0.00001
 352,-0.00001339,-0.00000237,0.00001226,0.00000631,-0.00000700,0.000005
 16,0.00002037,0.00001279,-0.00000607,-0.00001943,-0.00000264,0.0000035
 9,-0.00000068,-0.00000572,0.00000154,0.00001026,0.00000835,-0.00001588
 ,-0.00002695,-0.00000196,-0.00000352,0.00000815,-0.00000701,0.00003378
 ,-0.00002706,0.00001410,-0.00002378,0.00002477,-0.00000751,0.00000230,
 -0.00000263,-0.00000165,0.00000691,0.00002021,0.00001816,-0.00011463,-
 0.00005596,-0.00003112,0.00012985,0.00021973,0.00067172,-0.00025462,-0
 .00036000,-0.00065764,0.00201913,-0.00016628,-0.01721664,0.00965044,0.
 00276884,0.00192454,-0.00039104,-0.00016764,0.00010769,-0.00000084,-0.
 00007545,-0.22661627,0.15376703,-0.00215948,0.01335438,-0.01984060,0.0
 0143242,0.00190698,-0.00018635,0.00063817,-0.00014428,0.00009197,0.000
 01243,0.00011219,-0.00003540,-0.00001082,0.00002693,-0.00000202,-0.000
 01792,-0.00071532,-0.00039136,0.00019490,0.00273233,-0.00014324,0.0007
 4512,-0.02260429,0.01527467,-0.00163315,0.00190470,-0.00063269,0.00040
 558,-0.00000177,0.00000428,0.00000124,0.00000343,-0.00000352,-0.000003
 01,0.00000158,-0.00000656,0.00000366,0.00000347,0.00000041,-0.00000003
 ,0.00000370,-0.00000084,-0.00000324,0.00000206,-0.00000173,0.00000011,
 0.00000348,0.00000316,-0.00000109,0.00000619,-0.00001757,0.00001400,0.
 00002473,-0.00001385,0.00000152,-0.00000595,-0.00002086,-0.00000109,0.
 00031862,0.00012409,0.00000016,0.00026422,-0.00001657,0.00034537,-0.00
 204952,-0.00190295,-0.00250379,0.24661146,0.00000033,0.00001168,0.0000
 0988,-0.00000217,-0.00000410,-0.00000244,0.00000872,-0.00000231,-0.000
 01238,-0.00000683,0.00000521,0.00000881,0.00000164,-0.00000250,0.00000
 011,-0.00000832,0.00000217,-0.00001748,-0.00000325,0.00000933,0.000011
 53,-0.00000005,0.00000187,-0.00000324,-0.00000956,-0.00004365,0.000025
 50,0.00000197,0.00005532,-0.00003460,0.00000091,-0.00001146,0.00001643
 ,0.00000751,-0.00001430,-0.00002334,-0.00000460,0.00005331,0.00002263,
 0.00009416,-0.00002944,-0.00008929,-0.00028380,0.00003008,-0.00018756,
 -0.00109808,-0.00025599,0.00125207,0.00239752,0.00193168,0.00013420,-0
 .00035150,0.00029476,-0.00002666,-0.00009636,0.00002623,0.00001828,0.1
 5389642,-0.15681700,-0.00389022,0.00907706,-0.04778761,0.00373198,0.00
 094119,-0.00140422,0.00195627,0.00002301,0.00002199,0.00002068,-0.0000
 0995,-0.00000389,0.00000277,0.00000339,-0.00000148,-0.00000149,-0.0002
 2200,0.00006297,0.00014736,-0.00078286,0.00166054,-0.00065594,-0.00661
 131,0.00457918,-0.00114522,0.00052629,0.00016727,0.00064782,0.00000045
 ,-0.00000449,-0.00000095,0.00000222,0.00000514,-0.00000324,0.00000178,
 0.00000621,-0.00000633,-0.00000333,0.00000085,-0.00000101,-0.00000259,
 -0.00000059,0.00000178,-0.00000167,0.00000144,-0.00000037,-0.00000293,
 -0.00000170,-0.00000023,-0.00000118,0.00001522,0.00000262,-0.00000055,
 0.00000421,-0.00001004,-0.00000211,-0.00000902,0.00000079,0.00008265,-
 0.00013117,0.00000322,-0.00015076,0.00002313,0.00021742,-0.00142941,-0
 .00047799,-0.00111860,-0.15542996,0.19697981,-0.00000255,0.00000169,0.
 00000680,0.00000533,-0.00000087,-0.00000404,0.00000772,0.00000076,-0.0
 0000837,-0.00000840,-0.00000258,0.00000789,0.00000167,-0.00000001,-0.0
 0000024,-0.00000787,0.00000995,0.00000023,-0.00000467,-0.00000507,0.00
 000181,0.00000009,0.00000341,0.00000071,0.00001767,-0.00000722,-0.0000
 0190,-0.00002581,0.00001020,-0.00000101,0.00000611,0.00000104,0.000003
 81,0.00000551,-0.00000784,-0.00000998,-0.00005473,-0.00002474,0.000068
 21,0.00000750,-0.00000212,-0.00005582,-0.00065071,0.00019217,0.0001939
 4,0.00120243,-0.00231047,0.00085656,0.03141519,-0.01785620,-0.00546324
 ,-0.00130166,0.00082755,0.00288805,-0.00005519,0.00026598,0.00013265,-
 0.00230561,-0.00376594,-0.04469955,-0.00262849,0.00895885,0.00428471,0
 .00044231,-0.00133890,0.00019557,0.00006459,0.00000300,0.00011193,-0.0
 0000733,-0.00000299,-0.00002815,-0.00000475,0.00000496,0.00000532,0.00
 030787,0.00003108,-0.00026976,0.00256816,0.00091238,0.00096355,-0.0268
 3482,0.01609358,-0.00148460,0.00191380,0.00006163,0.00166071,0.0000008
 2,-0.00000116,-0.00000031,-0.00000719,0.00000072,0.00000719,-0.0000019
 3,0.00000132,-0.00000079,-0.00000572,0.00000289,-0.00000714,-0.0000035
 6,-0.00000042,0.00000340,-0.00000115,0.00000122,0.00000012,-0.00000039
 ,-0.00000506,0.00000446,-0.00001370,0.00001793,-0.00003512,0.00000720,
 0.00002079,-0.00000010,0.00000736,-0.00001719,-0.00000447,-0.00019188,
 0.00010275,-0.00018417,0.00030256,0.00007234,0.00047308,-0.00351869,-0
 .00191389,-0.00302440,-0.00262285,-0.00173929,0.04868910,0.00001657,0.
 00001084,-0.00006890,-0.00004390,-0.00002692,0.00003868,-0.00002349,-0
 .00002179,0.00003696,0.00004914,0.00003772,-0.00004350,-0.00001107,-0.
 00000636,0.00000447,-0.00002451,-0.00007253,-0.00000501,0.00002825,0.0
 0008051,0.00002410,-0.00001077,-0.00000063,-0.00002173,-0.00009521,0.0
 0000276,0.00006062,0.00011418,-0.00009912,-0.00003249,-0.00001973,0.00
 001894,-0.00006246,0.00002277,0.00010058,0.00017865,0.00033998,0.00031
 556,-0.00037925,-0.00010227,-0.00017937,-0.00001679,0.00069238,0.00086
 712,-0.00095080,0.00368379,-0.00352217,0.00066560,-0.26368384,0.136794
 64,0.00503385,-0.02347966,0.00135847,-0.01591626,-0.00066333,-0.000579
 76,0.00127811,-0.01448198,0.01235608,0.00315818,0.00163894,-0.00138316
 ,-0.00052051,-0.00003434,0.00045116,-0.00050296,0.00042655,0.00031677,
 0.00012611,0.00003852,-0.00023945,0.00004217,-0.00001057,-0.00003119,-
 0.00004902,0.00022747,-0.00046111,0.00038957,0.00040637,0.00028339,0.0
 0024748,-0.00181191,-0.00007545,-0.00210689,0.00068313,-0.00056501,-0.
 00014859,-0.00000702,0.00000650,0.00000398,0.00004126,0.00000552,-0.00
 003057,0.00000615,-0.00000719,-0.00000984,0.00001308,-0.00002109,0.000
 02745,0.00001543,0.00000100,-0.00001485,0.00000691,-0.00000372,0.00000
 253,0.00000968,0.00001945,-0.00001481,-0.00001623,-0.00007746,0.000067
 48,0.00003527,0.00003288,-0.00003698,-0.00005261,-0.00006400,-0.000033
 04,0.00065345,-0.00020626,0.00018942,0.00004392,0.00010571,0.00017174,
 0.00147237,-0.00018076,0.00031513,-0.00080658,-0.00037101,0.00263048,0
 .29432159,0.00000044,0.00001894,-0.00000266,0.00000197,-0.00003400,-0.
 00000609,-0.00000431,-0.00002045,-0.00002462,-0.00001741,0.00001291,0.
 00002822,0.00000291,-0.00000728,0.00000540,-0.00001519,0.00001637,0.00
 001828,-0.00001695,0.00003538,0.00004593,0.00000440,0.00000849,-0.0000
 0562,0.00002226,0.00000422,0.00002307,0.00000973,-0.00002871,0.0000169
 7,0.00000370,0.00000607,-0.00001263,0.00002427,0.00006225,0.00003522,0
 .00006852,0.00026445,0.00003071,-0.00019415,-0.00024729,-0.00031685,-0
 .00138728,0.00229405,0.00049560,0.02996380,-0.02238837,-0.00185861,0.1
 3614595,-0.12466305,0.00215355,-0.01921779,0.00940009,-0.00499364,0.00
 008476,0.00050808,0.00084310,-0.00240425,0.00173546,0.00080302,0.00089
 419,0.00130600,-0.00068358,-0.00014614,0.00005694,-0.00031082,-0.00020
 697,-0.00001641,0.00026524,-0.00023670,0.00027572,-0.00009911,-0.00007
 344,0.00006521,0.00002093,0.00309968,0.00090283,0.00156201,-0.00053487
 ,0.00015449,-0.00010762,0.00117482,-0.00004650,-0.00035955,-0.00035606
 ,0.00015632,0.00011015,0.00000129,-0.00000238,-0.00000074,-0.00000580,
 0.00000343,0.00000514,-0.00000797,-0.00000077,0.00000350,-0.00000467,-
 0.00000607,0.00000207,-0.00000385,0.00000365,0.00000445,-0.00000219,0.
 00000209,-0.00000077,-0.00000945,-0.00001132,0.00001264,-0.00007265,0.
 00000610,-0.00017004,-0.00008598,-0.00012421,-0.00002366,0.00006707,0.
 00007530,-0.00001873,-0.00144666,0.00018577,-0.00054383,0.00002824,-0.
 00007729,-0.00007969,-0.00044168,0.00014702,-0.00020821,-0.00053698,0.
 00032313,0.00052494,-0.14326674,0.13552722,0.00001301,0.00000270,-0.00
 001735,-0.00002527,-0.00001584,0.00000579,-0.00001434,-0.00001725,0.00
 000937,0.00001883,0.00000984,-0.00000563,-0.00000557,-0.00000142,0.000
 00048,0.00001714,-0.00000782,0.00003530,0.00001685,0.00001184,0.000003
 76,-0.00000229,0.00000289,-0.00000411,-0.00007131,0.00001808,0.0000193
 6,0.00010991,-0.00003621,0.00001966,-0.00001099,-0.00000019,-0.0000203
 2,-0.00003868,0.00006246,0.00003121,0.00031474,0.00012981,-0.00024721,
 -0.00031559,-0.00013614,-0.00037322,-0.00015411,-0.00141673,0.00103400
 ,-0.00740318,0.00769984,0.00197306,0.00511744,0.00394739,-0.04030571,-
 0.03254256,0.00464902,-0.01045065,-0.00131449,0.00047352,0.00124304,0.
 02748389,-0.01833379,-0.00298091,-0.00220002,0.00124921,0.00148878,0.0
 0010163,-0.00020696,-0.00047348,0.00017288,0.00004894,-0.00006310,0.00
 001108,-0.00006983,0.00001655,0.00000336,-0.00001741,-0.00001382,0.000
 05608,-0.00100286,-0.00013167,-0.00045782,0.00017029,-0.00018679,0.002
 96098,-0.00084951,0.00089349,-0.00049353,0.00029099,0.00017206,-0.0000
 0309,0.00000345,-0.00000236,0.00002764,-0.00000139,-0.00003143,0.00000
 770,-0.00000391,0.00000215,0.00002255,-0.00001686,0.00002897,0.0000122
 3,0.00000254,-0.00001242,0.00000510,-0.00000333,0.00000469,0.00001594,
 0.00002240,-0.00001669,0.00010471,-0.00006207,0.00004803,0.00001771,0.
 00005657,0.00001098,-0.00001788,-0.00000049,0.00001175,0.00026197,-0.0
 0039744,0.00004484,-0.00007476,0.00000638,-0.00003547,-0.00075326,0.00
 019852,-0.00046116,0.00283243,0.00034324,-0.00523584,0.00610412,0.0016
 9152,0.05394927,0.00001463,-0.00000064,0.00009541,0.00000784,0.0000056
 0,-0.00007929,0.00002245,-0.00005858,-0.00007750,-0.00001649,-0.000034
 21,0.00007677,-0.00000688,0.00000321,-0.00000692,0.00030173,0.00021500
 ,0.00005152,0.00009549,-0.00026066,-0.00009428,-0.00001005,0.00002844,
 0.00001613,-0.00001385,-0.00006574,0.00008158,0.00003588,0.00005046,-0
 .00003155,-0.00000916,-0.00001386,-0.00000112,-0.00006460,0.00000731,-
 0.00015514,0.00009710,0.00025371,0.00037689,0.00048927,-0.00036216,-0.
 00302811,-0.01670478,0.00210765,0.01609826,-0.27652849,0.12982146,0.00
 759199,0.00191235,-0.00330515,-0.00204158,0.00169574,-0.00040904,0.001
 04636,-0.00020211,0.00000342,0.00009800,0.00035002,-0.00023099,0.00066
 330,0.00011085,-0.00027665,-0.00006967,-0.00009256,0.00007590,0.000081
 16,-0.00017381,0.00131466,0.00020951,0.00098867,-0.00041804,0.00003111
 ,0.00017126,-0.00011331,-0.00002386,-0.02284520,0.00984739,-0.00278641
 ,0.00272512,0.00002521,0.00022764,-0.00010254,-0.00065237,0.00002720,0
 .00008438,0.00003622,-0.00010594,0.00000145,-0.00000453,-0.00001002,0.
 00000793,0.00000084,-0.00001314,0.00000442,0.00003577,0.00000431,0.000
 03100,0.00000166,0.00005216,0.00000656,-0.00000274,-0.00000368,0.00000
 634,0.00000561,0.00003341,0.00005118,0.00010083,-0.00017530,0.00069468
 ,0.00002377,0.00172430,0.00027537,0.00009427,0.00012215,-0.00018180,-0
 .00010827,0.00028426,-0.00173821,-0.00161968,-0.00252692,0.00000175,0.
 00003704,0.00000631,-0.00004522,0.00003352,0.00020661,0.00084676,-0.00
 018108,-0.00065472,0.00039183,-0.00090191,0.00008880,0.30731367,-0.000
 00462,-0.00000454,0.00002621,0.00000884,0.00001540,-0.00002321,0.00002
 179,0.00001485,-0.00002903,-0.00001953,-0.00002374,0.00001913,0.000005
 21,0.00000338,-0.00000224,-0.00019071,0.00013299,0.00000999,0.00003373
 ,-0.00007851,-0.00011825,-0.00000761,0.00000151,0.00003456,0.00001466,
 -0.00002855,0.00000527,-0.00003270,0.00003596,-0.00000972,0.00000872,-
 0.00000665,0.00001273,0.00004059,-0.00004198,-0.00009366,0.00019409,-0
 .00000985,0.00019490,-0.00084322,0.00088705,-0.00040240,-0.00926784,0.
 00582982,0.00471207,0.13061700,-0.11253909,-0.00663526,0.03164029,-0.0
 2470846,0.00431886,-0.00067449,0.00469501,0.00024896,0.00031293,-0.000
 32005,-0.00028909,0.00242673,0.00011881,-0.00188776,-0.00078827,0.0006
 9110,-0.00010050,0.00008644,-0.00023938,0.00003877,-0.00013089,0.00087
 571,0.00046879,0.00014117,-0.00011410,-0.00021944,0.00005529,0.0000335
 0,0.00001343,-0.01492052,0.00731379,-0.00071344,0.00118179,0.00023205,
 0.00148462,0.00019626,-0.00022821,-0.00009790,-0.00004431,0.00007677,0
 .00006410,0.00000183,-0.00000254,-0.00000251,-0.00001158,0.00000370,0.
 00000549,-0.00000062,0.00000634,-0.00000095,-0.00000848,0.00001204,0.0
 0000974,-0.00000548,-0.00000358,0.00000528,-0.00000340,0.00000273,0.00
 000486,0.00002923,-0.00004029,0.00004313,0.00016325,-0.00007137,-0.000
 64055,0.00028062,0.00019877,0.00016019,0.00013107,-0.00003402,0.000182
 99,-0.00241256,-0.00036410,-0.00238040,-0.00000759,0.00000479,-0.00000
 405,-0.00028079,0.00001549,-0.00012531,-0.00112365,0.00073016,0.000878
 87,-0.00170331,-0.00588386,0.00150602,-0.13510934,0.12281113,-0.000008
 78,-0.00000870,-0.00007352,-0.00000661,-0.00000370,0.00005868,-0.00007
 372,0.00000787,0.00003212,0.00000610,0.00002584,-0.00002106,-0.0000025
 3,-0.00000635,0.00000799,-0.00004559,0.00018683,-0.00004798,-0.0001062
 1,0.00016853,-0.00004830,-0.00001304,-0.00003284,0.00001953,-0.0000014
 9,0.00007655,-0.00008513,-0.00001897,-0.00005638,0.00004603,-0.0000006
 7,0.00001117,-0.00000243,-0.00007102,-0.00004830,0.00000964,-0.0008527
 4,-0.00040864,-0.00073712,0.00519791,-0.00212104,0.00538207,0.04117649
 ,-0.00608003,-0.02604298,0.00335309,-0.00555988,-0.03793400,-0.0045926
 3,0.00222890,0.00132964,0.00081509,-0.00024592,0.00048615,0.00019594,0
 .00008602,-0.00024314,-0.00096036,0.00140613,0.00014418,0.00012336,-0.
 00023545,-0.00015557,-0.00003446,0.00001862,0.00005614,0.00080341,0.00
 098230,0.00085173,0.00027776,-0.00041873,-0.00009385,0.00016286,-0.000
 00806,-0.00001722,-0.02541295,0.01123682,-0.00038934,0.00207761,-0.000
 24695,0.00217293,-0.00042482,0.00021299,-0.00031660,0.00005701,-0.0000
 1987,-0.00020711,-0.00000210,0.00000644,0.00000533,-0.00000226,-0.0000
 0157,0.00000729,0.00000065,-0.00003578,0.00000222,-0.00002218,-0.00002
 261,-0.00009076,-0.00000389,0.00000709,0.00000483,-0.00001005,-0.00000
 159,-0.00004890,-0.00023515,-0.00011183,0.00011156,-0.00163466,0.00025
 641,0.00022914,0.00026909,0.00019081,0.00003981,0.00011359,-0.00047438
 ,0.00011707,-0.00321284,-0.00168954,-0.00385932,0.00001103,0.00003677,
 0.00000119,0.00018412,-0.00015459,0.00004746,0.00016620,0.00039451,-0.
 00004077,0.00016834,0.00112543,0.00002275,-0.01740998,-0.00067328,0.05
 926960\\0.00169160,-0.00220511,-0.00516726,0.00608605,0.00864685,-0.00
 569953,-0.01825089,0.00595037,0.01567109,-0.00703985,0.00285017,0.0235
 6515,0.00888255,-0.01317080,-0.03135510,0.00788835,-0.01728415,-0.0163
 6649,-0.03010558,-0.02384361,-0.00111545,0.02747979,0.02151804,0.00199
 885,-0.01072133,0.00501731,0.00138711,0.00155193,0.01073090,0.01949842
 ,0.00603491,-0.02270536,-0.02674837,0.02111359,0.00253311,-0.02435271,
 -0.00818900,0.01199714,0.00470102,-0.01197134,0.04222531,-0.01491807,-
 0.02046160,0.00094814,0.01623242,0.03376196,-0.01066791,-0.01740898,0.
 00705774,0.01242821,0.05239306,-0.00304845,0.00204296,0.01023454,0.008
 54877,0.00622657,-0.02341699,0.00763818,-0.01382768,-0.01401183,-0.002
 93658,-0.01964151,0.03462467,-0.00769932,0.02320003,-0.02332268,0.0167
 0919,-0.01648325,-0.03779848,-0.00744192,-0.03162837,0.00869373,0.0099
 5524,0.03077100,-0.00795535,-0.02102721,0.00226152,0.01431451,0.005071
 91,-0.01442201,0.02839014,0.01080944,-0.02737783,-0.03622785,0.0092693
 0,0.02299054,0.02298536,0.00009936,0.00253935,0.00106416,-0.02261720,0
 .00222440,0.00308790,0.00696938,-0.00237694,0.01864465,0.02275249,-0.0
 0546740,0.00287337,-0.01955937,0.00425345,-0.00057002,0.01846727,-0.00
 597988,0.00226676,-0.01695310,0.00485102,-0.00155163,0.01902236,-0.005
 54663,-0.00391616,-0.01799870,-0.00486631,-0.00694712,-0.00257127,0.00
 199915,0.01254563,-0.02269977,0.01004569,0.00598674,-0.00392710,-0.000
 52723,0.00193703,-0.01808645,0.01172501,-0.00100496,0.01471592,-0.0166
 8420,-0.00307975,-0.01899753,0.01328630,0.00063781,0.02072625,-0.00855
 635,-0.00079937\\\@


 EXPERIMENTALISTS THINK SILICON IS REALLY FUN TO USE
     ITS PLACE IN NOVEL COMPOUNDS IS CERTAIN TO AMUSE
 THEY SIT ALL DAY IN LABORATORIES MAKING ALL THIS SLUDGE
     "LOADED WITH THE SILICON THEY SAY", TO ME IT LOOKS LIKE FUDGE.
 FOR HAPPY THOUGH THEY BE WITH CRUD, I'D LIKE TO KNOW A LITTLE
      ABOUT THE PI BONDS ON THE EDGE AND SIGMAS IN THE MIDDLE.

 SO LETS DERIVE A WAVEFUNCTION.....6-31G*
     USE AN OPTIMAL GEOMETRY AND SEE WHERE ELECTRONS ARE.
 BUT WHAT OF CORRELATION?  ASKS THE WIRY LITTLE SKEPTIC.
     WE'LL THROW IN PERTURBATION AS AN ELECTRON ANTISEPTIC.
 AND WHEN THE PROGRAM GIVES US ANSWERS IN THEM WE CAN TRUST
     SINCE NOBODY CAN MAKE THE STUFF, WE HAVE NO CHOICE, WE MUST.

 SO THEORY GUYS HAVE GOT IT MADE, IN ROOMS FREE OF POLLUTION.
     INSTEAD OF PROBLEMS WITH THE REFLUX, THEY HAVE ONLY SOLUTIONS.
 AND WHEN THE FEDS ANNOUNCE THE LIST OF CARCINOGENIC TERRORS,
     THE THEORISTS SIT SAFELY AT THEIR TERMINALS FIXING ERRORS.
 IN OTHER WORDS, EXPERIMENTALISTS WILL LIKELY DIE OF CANCER
     FROM WORKING HARD YET FRUITLESSLY...TILL THEORY GIVES THE ANSWER.
          -- THOMAS A. HOLME, 1983
 Job cpu time:  3 days 20 hours 55 minutes 59.4 seconds.
 File lengths (MBytes):  RWF=   2351 Int=      0 D2E=      0 Chk=     43 Scr=      1
 Normal termination of Gaussian 09 at Tue Feb 16 09:15:50 2016.
Gaussian '09 finished on node004 at Tue Feb 16 09:15:50 EST 2016.
