Gaussian '09 started on node027 at Wed Apr 13 13:40:05 EDT 2016.
 Entering Gaussian System, Link 0=/usr/local/gaussian/g09/g09
 Initial command:
 /usr/local/gaussian/g09/l1.exe /home/srmcgrat/thesis/gaussian/cellobiose/10K/gaussian5386/Gau-5422.inp -scrdir=/home/srmcgrat/thesis/gaussian/cellobiose/10K/gaussian5386/
 Entering Link 1 = /usr/local/gaussian/g09/l1.exe PID=      5424.
  
 Copyright (c) 1988,1990,1992,1993,1995,1998,2003,2009,2010,
            Gaussian, Inc.  All Rights Reserved.
  
 This is part of the Gaussian(R) 09 program.  It is based on
 the Gaussian(R) 03 system (copyright 2003, Gaussian, Inc.),
 the Gaussian(R) 98 system (copyright 1998, Gaussian, Inc.),
 the Gaussian(R) 94 system (copyright 1995, Gaussian, Inc.),
 the Gaussian 92(TM) system (copyright 1992, Gaussian, Inc.),
 the Gaussian 90(TM) system (copyright 1990, Gaussian, Inc.),
 the Gaussian 88(TM) system (copyright 1988, Gaussian, Inc.),
 the Gaussian 86(TM) system (copyright 1986, Carnegie Mellon
 University), and the Gaussian 82(TM) system (copyright 1983,
 Carnegie Mellon University). Gaussian is a federally registered
 trademark of Gaussian, Inc.
  
 This software contains proprietary and confidential information,
 including trade secrets, belonging to Gaussian, Inc.
  
 This software is provided under written license and may be
 used, copied, transmitted, or stored only in accord with that
 written license.
  
 The following legend is applicable only to US Government
 contracts under FAR:
  
                    RESTRICTED RIGHTS LEGEND
  
 Use, reproduction and disclosure by the US Government is
 subject to restrictions as set forth in subparagraphs (a)
 and (c) of the Commercial Computer Software - Restricted
 Rights clause in FAR 52.227-19.
  
 Gaussian, Inc.
 340 Quinnipiac St., Bldg. 40, Wallingford CT 06492
  
  
 ---------------------------------------------------------------
 Warning -- This program may not be used in any manner that
 competes with the business of Gaussian, Inc. or will provide
 assistance to any competitor of Gaussian, Inc.  The licensee
 of this program is prohibited from giving any competitor of
 Gaussian, Inc. access to this program.  By using this program,
 the user acknowledges that Gaussian, Inc. is engaged in the
 business of creating and licensing software in the field of
 computational chemistry and represents and warrants to the
 licensee that it is not a competitor of Gaussian, Inc. and that
 it will not use this program in any manner prohibited above.
 ---------------------------------------------------------------
  

 Cite this work as:
 Gaussian 09, Revision B.01,
 M. J. Frisch, G. W. Trucks, H. B. Schlegel, G. E. Scuseria, 
 M. A. Robb, J. R. Cheeseman, G. Scalmani, V. Barone, B. Mennucci, 
 G. A. Petersson, H. Nakatsuji, M. Caricato, X. Li, H. P. Hratchian, 
 A. F. Izmaylov, J. Bloino, G. Zheng, J. L. Sonnenberg, M. Hada, 
 M. Ehara, K. Toyota, R. Fukuda, J. Hasegawa, M. Ishida, T. Nakajima, 
 Y. Honda, O. Kitao, H. Nakai, T. Vreven, J. A. Montgomery, Jr., 
 J. E. Peralta, F. Ogliaro, M. Bearpark, J. J. Heyd, E. Brothers, 
 K. N. Kudin, V. N. Staroverov, T. Keith, R. Kobayashi, J. Normand, 
 K. Raghavachari, A. Rendell, J. C. Burant, S. S. Iyengar, J. Tomasi, 
 M. Cossi, N. Rega, J. M. Millam, M. Klene, J. E. Knox, J. B. Cross, 
 V. Bakken, C. Adamo, J. Jaramillo, R. Gomperts, R. E. Stratmann, 
 O. Yazyev, A. J. Austin, R. Cammi, C. Pomelli, J. W. Ochterski, 
 R. L. Martin, K. Morokuma, V. G. Zakrzewski, G. A. Voth, 
 P. Salvador, J. J. Dannenberg, S. Dapprich, A. D. Daniels, 
 O. Farkas, J. B. Foresman, J. V. Ortiz, J. Cioslowski, 
 and D. J. Fox, Gaussian, Inc., Wallingford CT, 2010.
 
 ******************************************
 Gaussian 09:  EM64L-G09RevB.01 12-Aug-2010
                13-Apr-2016 
 ******************************************
 ------------------------
 #p uff geom=connectivity
 ------------------------
 1/38=1,56=1,57=2,64=2/1;
 2/12=2,17=6,18=5,40=1/2;
 3/5=30,11=9,16=1,25=1,30=1,41=10200000,43=2/1;
 4/20=10,24=3/2;
 99/5=1,9=1/99;
 Leave Link    1 at Wed Apr 13 13:40:05 2016, MaxMem=          0 cpu:       0.0
 (Enter /usr/local/gaussian/g09/l101.exe)
 ---------
 10000.pdb
 ---------
 Symbolic Z-matrix:
 Charge =  0 Multiplicity = 1
 O                     13.164    4.215     30.535 
 C                     12.463    4.095     31.781 
 C                     12.703    2.703     32.343 
 O                     12.32     1.686     31.406 
 H                     12.29     2.133     30.512 
 C                     12.138    2.442     33.73 
 O                     12.576    1.14      34.144 
 H                     12.457    1.029     35.131 
 C                     12.62     6.484     32.674 
 O                     13.248    7.177     31.586 
 H                     13.113    8.142     31.808 
 C                     12.989    5.022     32.865 
 O                     12.435    4.839     34.177 
 C                     12.788    3.512     34.593 
 O                     12.202    3.239     35.874 
 C                     12.697    3.762     37.116 
 C                     12.274    5.166     37.513 
 O                     12.719    6.109     36.528 
 H                     12.519    5.612     35.684 
 C                     12.835    5.405     38.906 
 O                     12.282    6.6       39.475 
 H                     12.657    6.888     40.355 
 C                     13.152    1.47      37.79 
 O                     12.432    0.68      36.833 
 H                     12.586   -0.27      37.106 
 C                     12.395    2.727     38.187 
 O                     13.094    3.035     39.402 
 C                     12.494    4.26      39.846 
 O                     13.116    4.539     41.109 
 H                     14.07037   4.5166    41.00758 
 H                     14.11005   4.19937   30.69729 
 H                     12.86067   7.00428   33.57748 
 H                     11.56101   6.53958   32.53132 
 H                     14.05392   4.93187   32.91723 
 H                     11.41571   4.2569    31.63313 
 H                     13.76442   2.61567   32.44628 
 H                     11.07106   2.5222    33.74058 
 H                     13.8502   3.38683   34.62393 
 H                     14.09407   1.75168   37.36804 
 H                     13.32656   0.87977   38.66524 
 H                     11.34901   2.55571   38.33352 
 H                     13.7623   3.79327   37.0208 
 H                     11.20576   5.20174   37.56293 
 H                     13.89858   5.50442   38.84425 
 H                     11.43501   4.15265   39.9552 
 
 NAtoms=     45 NQM=     45 NQMF=      0 NMic=      0 NMicF=      0 NTot=     45.
                    Isotopes and Nuclear Properties:
 (Nuclear quadrupole moments (NQMom) in fm**2, nuclear magnetic moments (NMagM)
  in nuclear magnetons)

  Atom         1           2           3           4           5           6           7           8           9          10
 IAtWgt=          16          12          12          16           1          12          16           1          12          16
 AtmWgt=  15.9949146  12.0000000  12.0000000  15.9949146   1.0078250  12.0000000  15.9949146   1.0078250  12.0000000  15.9949146
 NucSpn=           0           0           0           0           1           0           0           1           0           0
 AtZEff=   0.0000000   0.0000000   0.0000000   0.0000000   0.0000000   0.0000000   0.0000000   0.0000000   0.0000000   0.0000000
 NQMom=    0.0000000   0.0000000   0.0000000   0.0000000   0.0000000   0.0000000   0.0000000   0.0000000   0.0000000   0.0000000
 NMagM=    0.0000000   0.0000000   0.0000000   0.0000000   2.7928460   0.0000000   0.0000000   2.7928460   0.0000000   0.0000000

  Atom        11          12          13          14          15          16          17          18          19          20
 IAtWgt=           1          12          16          12          16          12          12          16           1          12
 AtmWgt=   1.0078250  12.0000000  15.9949146  12.0000000  15.9949146  12.0000000  12.0000000  15.9949146   1.0078250  12.0000000
 NucSpn=           1           0           0           0           0           0           0           0           1           0
 AtZEff=   0.0000000   0.0000000   0.0000000   0.0000000   0.0000000   0.0000000   0.0000000   0.0000000   0.0000000   0.0000000
 NQMom=    0.0000000   0.0000000   0.0000000   0.0000000   0.0000000   0.0000000   0.0000000   0.0000000   0.0000000   0.0000000
 NMagM=    2.7928460   0.0000000   0.0000000   0.0000000   0.0000000   0.0000000   0.0000000   0.0000000   2.7928460   0.0000000

  Atom        21          22          23          24          25          26          27          28          29          30
 IAtWgt=          16           1          12          16           1          12          16          12          16           1
 AtmWgt=  15.9949146   1.0078250  12.0000000  15.9949146   1.0078250  12.0000000  15.9949146  12.0000000  15.9949146   1.0078250
 NucSpn=           0           1           0           0           1           0           0           0           0           1
 AtZEff=   0.0000000   0.0000000   0.0000000   0.0000000   0.0000000   0.0000000   0.0000000   0.0000000   0.0000000   0.0000000
 NQMom=    0.0000000   0.0000000   0.0000000   0.0000000   0.0000000   0.0000000   0.0000000   0.0000000   0.0000000   0.0000000
 NMagM=    0.0000000   2.7928460   0.0000000   0.0000000   2.7928460   0.0000000   0.0000000   0.0000000   0.0000000   2.7928460

  Atom        31          32          33          34          35          36          37          38          39          40
 IAtWgt=           1           1           1           1           1           1           1           1           1           1
 AtmWgt=   1.0078250   1.0078250   1.0078250   1.0078250   1.0078250   1.0078250   1.0078250   1.0078250   1.0078250   1.0078250
 NucSpn=           1           1           1           1           1           1           1           1           1           1
 AtZEff=   0.0000000   0.0000000   0.0000000   0.0000000   0.0000000   0.0000000   0.0000000   0.0000000   0.0000000   0.0000000
 NQMom=    0.0000000   0.0000000   0.0000000   0.0000000   0.0000000   0.0000000   0.0000000   0.0000000   0.0000000   0.0000000
 NMagM=    2.7928460   2.7928460   2.7928460   2.7928460   2.7928460   2.7928460   2.7928460   2.7928460   2.7928460   2.7928460

  Atom        41          42          43          44          45
 IAtWgt=           1           1           1           1           1
 AtmWgt=   1.0078250   1.0078250   1.0078250   1.0078250   1.0078250
 NucSpn=           1           1           1           1           1
 AtZEff=   0.0000000   0.0000000   0.0000000   0.0000000   0.0000000
 NQMom=    0.0000000   0.0000000   0.0000000   0.0000000   0.0000000
 NMagM=    2.7928460   2.7928460   2.7928460   2.7928460   2.7928460
 Generating MM parameters.
 Include all MM classes

 MM sanity checks:
 All charges sum to:                0.00000000
 Charges of atoms sum to:           0.00000000
 MMInit generated parameter data with length LenPar=        7396.
 Leave Link  101 at Wed Apr 13 13:40:05 2016, MaxMem=   33554432 cpu:       0.1
 (Enter /usr/local/gaussian/g09/l202.exe)
                          Input orientation:                          
 ---------------------------------------------------------------------
 Center     Atomic      Atomic             Coordinates (Angstroms)
 Number     Number       Type             X           Y           Z
 ---------------------------------------------------------------------
      1          8    10081003       13.164000    4.215000   30.535000
      2          6    10061003       12.463000    4.095000   31.781000
      3          6    10061003       12.703000    2.703000   32.343000
      4          8    10081003       12.320000    1.686000   31.406000
      5          1    10011000       12.290000    2.133000   30.512000
      6          6    10061003       12.138000    2.442000   33.730000
      7          8    10081003       12.576000    1.140000   34.144000
      8          1    10011000       12.457000    1.029000   35.131000
      9          6    10061003       12.620000    6.484000   32.674000
     10          8    10081003       13.248000    7.177000   31.586000
     11          1    10011000       13.113000    8.142000   31.808000
     12          6    10061003       12.989000    5.022000   32.865000
     13          8    10081003       12.435000    4.839000   34.177000
     14          6    10061003       12.788000    3.512000   34.593000
     15          8    10081003       12.202000    3.239000   35.874000
     16          6    10061003       12.697000    3.762000   37.116000
     17          6    10061003       12.274000    5.166000   37.513000
     18          8    10081003       12.719000    6.109000   36.528000
     19          1    10011000       12.519000    5.612000   35.684000
     20          6    10061003       12.835000    5.405000   38.906000
     21          8    10081003       12.282000    6.600000   39.475000
     22          1    10011000       12.657000    6.888000   40.355000
     23          6    10061003       13.152000    1.470000   37.790000
     24          8    10081003       12.432000    0.680000   36.833000
     25          1    10011000       12.586000   -0.270000   37.106000
     26          6    10061003       12.395000    2.727000   38.187000
     27          8    10081003       13.094000    3.035000   39.402000
     28          6    10061003       12.494000    4.260000   39.846000
     29          8    10081003       13.116000    4.539000   41.109000
     30          1    10011000       14.070365    4.516597   41.007583
     31          1    10011000       14.110054    4.199370   30.697287
     32          1    10011000       12.860671    7.004282   33.577484
     33          1    10011000       11.561013    6.539583   32.531325
     34          1    10011000       14.053917    4.931870   32.917233
     35          1    10011000       11.415708    4.256904   31.633126
     36          1    10011000       13.764418    2.615675   32.446277
     37          1    10011000       11.071062    2.522199   33.740582
     38          1    10011000       13.850203    3.386829   34.623929
     39          1    10011000       14.094074    1.751683   37.368039
     40          1    10011000       13.326559    0.879766   38.665245
     41          1    10011000       11.349011    2.555711   38.333518
     42          1    10011000       13.762297    3.793271   37.020798
     43          1    10011000       11.205763    5.201742   37.562927
     44          1    10011000       13.898580    5.504419   38.844249
     45          1    10011000       11.435014    4.152648   39.955200
 ---------------------------------------------------------------------
                    Distance matrix (angstroms):
                    1          2          3          4          5
     1  O    0.000000
     2  C    1.434684   0.000000
     3  C    2.401568   1.520233   0.000000
     4  O    2.804785   2.442203   1.434903   0.000000
     5  H    2.258125   2.343018   1.961640   0.999972   0.000000
     6  C    3.795291   2.576167   1.520235   2.450640   3.236373
     7  O    4.777682   3.785309   2.388032   2.803622   3.776145
     8  H    5.636813   4.541243   3.261248   3.784976   4.752038
     9  C    3.165378   2.555273   3.796368   4.971783   4.869738
    10  O    3.144058   3.186373   4.570202   5.571774   5.245300
    11  H    4.128494   4.098956   5.480606   6.516931   6.202018
    12  C    2.471998   1.520217   2.394168   3.702045   3.790980
    13  O    3.766295   2.509011   2.828052   4.199176   4.558035
    14  C    4.135571   2.890131   2.392531   3.702738   4.336382
    15  O    5.512072   4.189690   3.606419   4.731676   5.475584
    16  C    6.613082   5.350502   4.889074   6.087364   6.814111
    17  C    7.098520   5.834260   5.742762   7.029080   7.629767
    18  O    6.300898   5.162920   5.395861   6.779160   7.223910
    19  H    5.373996   4.187820   4.433781   5.809850   6.237425
    20  C    8.461559   7.253972   7.098676   8.387263   9.025644
    21  O    9.294609   8.093542   8.138137   9.447624  10.014466
    22  H   10.189916   9.019532   9.039275  10.356591  10.937521
    23  C    7.756945   6.593438   5.602830   6.441610   7.358797
    24  O    7.259260   6.098023   4.932147   5.520590   6.487404
    25  H    7.976675   6.886507   5.615923   6.032138   7.024447
    26  C    7.833174   6.550793   5.852160   6.860850   7.698668
    27  O    8.945445   7.720194   7.077612   8.145851   8.971740
    28  C    9.335183   8.066747   7.665699   8.825494   9.575453
    29  O   10.579072   9.361364   8.965725  10.145020  10.898051
    30  H   10.516057   9.375030   8.957333  10.162010  10.909101
    31  H    0.960000   1.974364   2.631976   3.166007   2.759858
    32  H    4.138697   3.442299   4.477705   5.769904   5.783792
    33  H    3.458116   2.711559   4.007365   5.039810   4.901741
    34  H    2.642137   2.126592   2.668817   3.978186   4.090260
    35  H    2.064985   1.070000   2.139079   2.734753   2.555832
    36  H    2.563459   2.079588   1.070000   2.008187   2.479579
    37  H    4.185895   2.872482   2.156188   2.776571   3.472899
    38  H    4.228012   3.241618   2.643167   3.948342   4.573213
    39  H    7.322799   6.274276   5.300105   6.220737   7.099673
    40  H    8.789260   7.646979   6.609371   7.372910   8.313871
    41  H    8.177060   6.822453   6.143393   7.049093   7.889251
    42  H    6.526974   5.406912   4.918597   6.168206   6.876672
    43  H    7.362073   6.019652   5.977714   7.177027   7.765843
    44  H    8.440724   7.344170   7.179387   8.508807   9.131285
    45  H    9.577758   8.238788   7.852060   8.941833   9.694535
                    6          7          8          9         10
     6  C    0.000000
     7  O    1.434728   0.000000
     8  H    2.015225   1.000325   0.000000
     9  C    4.205380   5.542668   5.985018   0.000000
    10  O    5.314985   6.590927   7.140771   1.434704   0.000000
    11  H    6.093825   7.400896   7.878289   1.934417   0.999367
    12  C    2.851110   4.108082   4.621886   1.519897   2.519315
    13  O    2.456344   3.701833   3.927684   2.235902   3.583364
    14  C    1.520582   2.423413   2.562088   3.541690   4.762969
    15  O    2.288240   2.745647   2.345458   4.576543   5.915142
    16  C    3.676939   3.965137   3.386313   5.210238   6.522785
    17  C    4.663664   5.258331   4.777257   5.027202   6.334203
    18  O    4.649006   5.513154   5.275097   3.873466   5.083683
    19  H    3.743284   4.730077   4.616659   3.135392   4.446827
    20  C    6.004678   6.397965   5.791622   6.328372   7.542742
    21  O    7.093287   7.636596   7.066612   6.810382   7.968840
    22  H    7.995430   8.463013   7.852264   7.691706   8.793643
    23  C    4.296112   3.705940   2.783485   7.183083   8.430224
    24  O    3.580459   2.731860   1.737593   7.142761   8.390940
    25  H    4.353507   3.280494   2.367418   8.078384   9.293355
    26  C    4.473491   4.347089   3.496596   6.675241   8.006454
    27  O    5.782488   5.613013   4.761433   7.575372   8.847018
    28  C    6.390408   6.500302   5.715939   7.509969   8.792326
    29  O    7.733274   7.768914   6.963538   8.670540   9.882510
    30  H    7.810326   7.793799   7.021432   8.684632   9.824472
    31  H    4.021778   4.857252   5.695757   3.368559   3.224783
    32  H    4.621681   5.898456   6.187112   1.070000   2.036140
    33  H    4.308123   5.725943   6.158541   1.070000   2.036140
    34  H    3.245117   4.250585   4.762699   2.127061   2.731720
    35  H    2.865739   4.167236   4.872245   2.737462   3.447677
    36  H    2.079265   2.544055   3.381511   4.040481   4.670380
    37  H    1.070000   2.082800   2.466522   4.385507   5.572114
    38  H    2.150221   2.627197   2.785228   3.861100   4.894595
    39  H    4.187850   3.615679   2.864721   6.826545   7.973825
    40  H    5.311298   4.590502   3.642703   8.234177   9.475074
    41  H    4.672024   4.589313   3.716800   7.005499   8.395920
    42  H    3.910707   4.089391   3.593930   5.238274   6.422706
    43  H    4.814205   5.483098   4.989152   5.248415   6.617857
    44  H    6.215593   6.549024   5.991306   6.377015   7.476828
    45  H    6.494122   6.644392   5.837340   7.736618   9.081692
                   11         12         13         14         15
    11  H    0.000000
    12  C    3.296517   0.000000
    13  O    4.120880   1.435879   0.000000
    14  C    5.412832   2.303581   1.434780   0.000000
    15  O    6.434414   3.585044   2.343949   1.434882   0.000000
    16  C    6.894369   4.443407   3.141066   2.536988   1.435659
    17  C    6.489031   4.704877   3.355852   3.395042   2.530777
    18  O    5.154292   3.830410   2.687147   3.239351   2.988629
    19  H    4.666595   2.918178   1.695769   2.381731   2.401607
    20  C    7.612493   6.055088   4.779518   4.710374   3.779586
    21  O    7.864554   6.832425   5.585099   5.798767   4.926451
    22  H    8.650530   7.726078   6.512708   6.679460   5.796688
    23  C    8.961106   6.074446   4.991795   3.810914   2.775413
    24  O    9.021964   5.908319   4.934737   3.628300   2.742455
    25  H    9.955314   6.793655   5.890987   4.545272   3.738765
    26  C    8.398178   5.826109   4.532355   3.699663   2.376839
    27  O    9.151538   6.833122   5.566805   4.842277   3.644731
    28  C    8.947767   7.039888   5.698797   5.314127   4.111507
    29  O    9.974478   8.259113   6.971828   6.604587   5.470889
    30  H    9.934406   8.229607   7.031019   6.618198   5.610411
    31  H    4.215700   2.575357   3.914503   4.170957   5.600120
    32  H    2.118761   2.110342   2.286714   3.637662   4.459280
    33  H    2.345123   2.110342   2.522714   3.862934   4.741117
    34  H    3.524295   1.070000   2.053419   2.535108   3.877870
    35  H    4.243272   2.139657   2.801622   3.346479   4.431635
    36  H    5.601073   2.562616   3.115434   2.522937   3.818242
    37  H    6.283832   3.270189   2.723666   2.157359   2.518789
    38  H    5.575355   2.551330   2.076378   1.070000   2.073910
    39  H    8.527174   5.673934   4.739914   3.536296   2.832703
    40  H    9.990368   7.135467   6.051012   4.878717   3.823828
    41  H    8.769303   6.219070   4.865123   4.120273   2.691413
    42  H    6.819552   4.402093   3.307938   2.631078   2.014172
    43  H    6.738090   5.028197   3.620374   3.765524   2.774404
    44  H    7.555314   6.067247   4.936402   4.824546   4.102790
    45  H    9.225369   7.310375   5.904121   5.567242   4.251966
                   16         17         18         19         20
    16  C    0.000000
    17  C    1.519129   0.000000
    18  O    2.419636   1.434398   0.000000
    19  H    2.346233   1.898468   0.999672   0.000000
    20  C    2.433638   1.520622   2.482732   3.244070   0.000000
    21  O    3.713671   2.430198   3.019414   3.924792   1.434432
    22  H    4.501622   3.344987   3.905972   4.844116   2.081003
    23  C    2.431988   3.808941   4.827054   4.689572   4.102459
    24  O    3.106290   4.539996   5.445129   5.064819   5.175458
    25  H    4.033540   5.460136   6.406513   6.051818   5.958828
    26  C    1.519694   2.533306   3.780897   3.821467   2.807534
    27  O    2.431447   2.963424   4.224923   4.560162   2.435159
    28  C    2.782465   2.512394   3.805069   4.376160   1.520166
    29  O    4.089418   3.746106   4.858814   5.562226   2.383721
    30  H    4.195231   3.982557   4.942529   5.652183   2.594617
    31  H    6.586948   7.124564   6.291179   5.421649   8.394181
    32  H    4.802111   4.383121   3.086607   2.548057   5.563402
    33  H    5.479478   5.216528   4.183270   3.423085   6.599000
    34  H    4.565026   4.933963   4.025578   3.236286   6.129840
    35  H    5.652304   6.011326   5.393387   4.411702   7.498480
    36  H    4.925419   5.864911   5.473270   4.583872   7.097336
    37  H    3.946420   4.761080   4.832240   3.926865   6.172808
    38  H    2.771471   3.741203   3.509320   2.801292   4.841465
    39  H    2.461039   3.871853   4.645719   4.496542   4.159004
    40  H    3.332233   4.561507   5.681710   5.651018   4.558216
    41  H    2.180495   2.888332   4.214573   4.210668   3.264100
    42  H    1.070000   2.083669   2.587261   2.576935   2.647931
    43  H    2.120469   1.070000   2.045502   2.328792   2.121219
    44  H    2.732520   2.127443   2.668696   3.449926   1.070000
    45  H    3.131496   2.774008   4.149895   4.641969   2.151550
                   21         22         23         24         25
    21  O    0.000000
    22  H    0.998984   0.000000
    23  C    5.469280   6.014896   0.000000
    24  O    6.484525   7.141034   1.434695   0.000000
    25  H    7.273340   7.861171   1.953410   1.000372   0.000000
    26  C    4.083117   4.699233   1.520101   2.454566   3.191716
    27  O    3.657034   3.993092   2.247473   3.547398   4.056193
    28  C    2.378694   2.681797   3.527634   4.679574   5.294994
    29  O    2.759209   2.509382   4.520599   5.800337   6.279442
    30  H    3.144460   2.836727   4.525261   5.901767   6.351157
    31  H    9.281867  10.129734   7.659889   7.269718   7.960503
    32  H    5.939612   6.781572   6.961210   7.125916   8.089564
    33  H    6.981268   7.907748   7.475666   7.321048   8.267326
    34  H    6.994759   7.816534   6.044986   6.003519   6.838128
    35  H    8.230161   9.194268   6.977724   6.392634   7.198249
    36  H    8.214339   9.056878   5.499364   4.976496   5.606140
    37  H    7.139915   8.082447   4.672816   3.848233   4.627899
    38  H    6.026327   6.821078   3.766394   3.770705   4.596877
    39  H    5.588298   6.113008   1.070000   2.048722   2.535775
    40  H    5.870935   6.277138   1.070000   2.048722   2.074038
    41  H    4.304617   4.956406   2.173694   2.634902   3.319877
    42  H    4.011498   4.681445   2.522246   3.390784   4.230970
    43  H    2.601813   3.570045   4.214890   4.741582   5.661607
    44  H    2.052188   2.395451   4.236197   5.428720   6.171571
    45  H    2.633915   3.022456   3.851329   4.775081   5.385399
                   26         27         28         29         30
    26  C    0.000000
    27  O    1.435162   0.000000
    28  C    2.261011   1.434490   0.000000
    29  O    3.513014   2.275159   1.435233   0.000000
    30  H    3.737003   2.392972   1.974853   0.960000   0.000000
    31  H    7.823368   8.840823   9.290547  10.464572  10.315251
    32  H    6.305523   7.052278   6.852724   7.928842   7.928323
    33  H    6.871535   7.863735   7.718254   8.944095   9.068422
    34  H    5.948437   6.824350   7.133902   8.254640   8.101017
    35  H    6.800947   8.041462   8.283358   9.631342   9.746542
    36  H    5.902847   7.000527   7.685940   8.897325   8.775139
    37  H    4.643855   6.033813   6.505447   7.908403   8.110656
    38  H    3.904928   4.850318   5.465505   6.627420   6.486593
    39  H    2.123392   2.604620   3.871974   4.766608   4.570732
    40  H    2.123392   2.289525   3.676047   4.405255   4.389343
    41  H    1.070000   2.101513   2.550138   3.841743   4.289693
    42  H    2.089609   2.586836   3.131801   4.205616   4.063565
    43  H    2.815688   3.412096   2.785472   4.082017   4.532220
    44  H    3.225955   2.656401   2.127188   2.583324   2.384390
    45  H    2.465882   2.075428   1.070000   2.075147   2.860951
                   31         32         33         34         35
    31  H    0.000000
    32  H    4.209991   0.000000
    33  H    3.916363   1.731908   0.000000
    34  H    2.338347   2.480859   2.991361   0.000000
    35  H    2.852824   3.662859   2.457336   3.010757   0.000000
    36  H    2.384643   4.621284   4.501031   2.381254   2.978470
    37  H    4.616278   4.828910   4.223947   3.921969   2.751245
    38  H    4.018241   3.893609   4.422584   2.311161   3.953315
    39  H    7.105657   6.593890   7.261831   5.470363   6.807275
    40  H    8.667294   7.975717   8.530865   7.070236   8.031631
    41  H    8.284745   6.685414   7.041422   6.503752   6.913302
    42  H    6.346073   4.793739   5.704669   4.268571   5.894781
    43  H    7.521746   4.676711   5.218529   5.455940   6.008272
    44  H    8.253536   5.573657   6.810932   5.956632   7.727952
    45  H    9.636751   7.130187   7.799183   7.549756   8.322749
                   36         37         38         39         40
    36  H    0.000000
    37  H    2.989670   0.000000
    38  H    2.311754   3.041630   0.000000
    39  H    5.007883   4.784427   3.203641   0.000000
    40  H    6.471527   5.660137   4.784537   1.741282   0.000000
    41  H    6.363756   4.601460   4.550579   3.018937   2.613336
    42  H    4.723662   4.429243   2.432674   2.097316   3.373809
    43  H    6.278102   4.669949   4.350251   4.503690   4.938861
    44  H    7.021174   6.552550   4.722037   4.037381   4.663332
    45  H    8.010763   6.435239   5.902717   4.419121   3.994206
                   41         42         43         44         45
    41  H    0.000000
    42  H    3.013095   0.000000
    43  H    2.759676   2.968764   0.000000
    44  H    3.931416   2.504311   2.997442   0.000000
    45  H    2.277599   3.762461   2.622236   3.021697   0.000000
 Stoichiometry    C12H22O11
 Framework group  C1[X(C12H22O11)]
 Deg. of freedom   129
 Full point group                 C1      NOp   1
 Largest Abelian subgroup         C1      NOp   1
 Largest concise Abelian subgroup C1      NOp   1
                         Standard orientation:                         
 ---------------------------------------------------------------------
 Center     Atomic      Atomic             Coordinates (Angstroms)
 Number     Number       Type             X           Y           Z
 ---------------------------------------------------------------------
      1          8    10081003       -5.035923   -0.331805    0.467283
      2          6    10061003       -3.789784   -0.178449   -0.226934
      3          6    10061003       -3.236951    1.207372    0.064586
      4          8    10081003       -4.179883    2.231757   -0.282494
      5          1    10011000       -5.070986    1.780529   -0.330178
      6          6    10061003       -1.850891    1.497554   -0.488357
      7          8    10081003       -1.445745    2.785277   -0.002484
      8          1    10011000       -0.459314    2.906760   -0.115820
      9          6    10061003       -2.881841   -2.565918   -0.155849
     10          8    10081003       -3.966249   -3.288220    0.444747
     11          1    10011000       -3.737948   -4.246231    0.274960
     12          6    10061003       -2.700616   -1.117190    0.266563
     13          8    10081003       -1.389073   -0.905828   -0.278350
     14          6    10061003       -0.981974    0.409993    0.123496
     15          8    10081003        0.298040    0.712265   -0.450159
     16          6    10061003        1.542680    0.179374    0.027350
     17          6    10061003        1.949146   -1.205720   -0.445996
     18          8    10081003        0.969566   -2.170521   -0.037242
     19          1    10011000        0.122692   -1.671875   -0.220279
     20          6    10061003        3.342892   -1.456265    0.108070
     21          8    10081003        3.920199   -2.626673   -0.487294
     22          1    10011000        4.801513   -2.922624   -0.121690
     23          6    10061003        2.201512    2.457433    0.566750
     24          8    10081003        1.240468    3.267151   -0.125421
     25          1    10011000        1.507226    4.212595    0.063575
     26          6    10061003        2.607485    1.231433   -0.235008
     27          8    10081003        3.823491    0.905775    0.454171
     28          6    10061003        4.276053   -0.293683   -0.189451
     29          8    10081003        5.539976   -0.587246    0.423912
     30          1    10011000        5.437156   -0.600340    1.378300
     31          1    10011000       -4.874989   -0.349703    1.413528
     32          1    10011000       -1.975391   -3.088940    0.067074
     33          1    10011000       -3.022760   -2.583699   -1.216380
     34          1    10011000       -2.650365   -1.065672    1.334140
     35          1    10011000       -3.935242   -0.302937   -1.279666
     36          1    10011000       -3.135634    1.256537    1.128643
     37          1    10011000       -1.838389    1.456430   -1.557493
     38          1    10011000       -0.953245    0.496493    1.189606
     39          1    10011000        1.780102    2.138892    1.497259
     40          1    10011000        3.072759    3.046400    0.764095
     41          1    10011000        2.754296    1.441715   -1.273819
     42          1    10011000        1.446270    0.108632    1.090647
     43          1    10011000        2.000712   -1.202123   -1.514747
     44          1    10011000        3.280367   -1.594835    1.167215
     45          1    10011000        4.385969   -0.147055   -1.243642
 ---------------------------------------------------------------------
 Rotational constants (GHZ):      0.4169876      0.1484418      0.1124024
 Leave Link  202 at Wed Apr 13 13:40:05 2016, MaxMem=   33554432 cpu:       0.0
 (Enter /usr/local/gaussian/g09/l301.exe)
 Standard basis: Dummy (5D, 7F)
 There are    45 symmetry adapted basis functions of A   symmetry.
 Integral buffers will be    131072 words long.
 Raffenetti 1 integral format.
 Two-electron integral symmetry is turned on.
    45 basis functions,    45 primitive gaussians,    45 cartesian basis functions
    34 alpha electrons       34 beta electrons
       nuclear repulsion energy       324.9105834885 Hartrees.
 IExCor=    0 DFT=F Ex=HF Corr=None ExCW=0 ScaHFX=  1.000000
 ScaDFX=  1.000000  1.000000  1.000000  1.000000 ScalE2=  1.000000  1.000000
 IRadAn=      0 IRanWt=     -1 IRanGd=            0 ICorTp=0
 NAtoms=   45 NActive=   45 NUniq=   45 SFac= 1.00D+00 NAtFMM=   50 NAOKFM=F Big=F
 Leave Link  301 at Wed Apr 13 13:40:05 2016, MaxMem=   33554432 cpu:       0.0
 (Enter /usr/local/gaussian/g09/l402.exe)
 UFF calculation of energy.
 Energy per function type:
 Direct Coulomb + vdW (small)                           0.136586698
 Direct Coulomb (large)                                 0.000000000
 Direct vdW (large)                                  2328.477152664
 Non-direct Coulomb + vdW (small)                      -0.046900960
 Non-direct Coulomb (large)                             0.000000000
 Non-direct vdW (large)                             -2328.221765920
 Harmonic stretch III                                   0.034078279
 UFF 3-term bend                                        0.091924084
 UFF torsion w/ sp3 V                                   0.002600035
 Energy per function class:
        Coulomb               0.000000000
    Vanderwaals               0.345072482
     Stretching               0.034078279
        Bending               0.091924084
        Torsion               0.002600035
 Energy=    0.473674879     NIter=   0.
 Dipole moment=       0.000000       0.000000       0.000000
 Leave Link  402 at Wed Apr 13 13:40:05 2016, MaxMem=   33554432 cpu:       0.0
 (Enter /usr/local/gaussian/g09/l9999.exe)
 1\1\GINC-NODE027\SP\RUFF\ZDO\C12H22O11\SRMCGRAT\13-Apr-2016\0\\#p uff 
 geom=connectivity\\10000.pdb\\0,1\O,0,13.164,4.215,30.535\C,0,12.463,4
 .095,31.781\C,0,12.703,2.703,32.343\O,0,12.32,1.686,31.406\H,0,12.29,2
 .133,30.512\C,0,12.138,2.442,33.73\O,0,12.576,1.14,34.144\H,0,12.457,1
 .029,35.131\C,0,12.62,6.484,32.674\O,0,13.248,7.177,31.586\H,0,13.113,
 8.142,31.808\C,0,12.989,5.022,32.865\O,0,12.435,4.839,34.177\C,0,12.78
 8,3.512,34.593\O,0,12.202,3.239,35.874\C,0,12.697,3.762,37.116\C,0,12.
 274,5.166,37.513\O,0,12.719,6.109,36.528\H,0,12.519,5.612,35.684\C,0,1
 2.835,5.405,38.906\O,0,12.282,6.6,39.475\H,0,12.657,6.888,40.355\C,0,1
 3.152,1.47,37.79\O,0,12.432,0.68,36.833\H,0,12.586,-0.27,37.106\C,0,12
 .395,2.727,38.187\O,0,13.094,3.035,39.402\C,0,12.494,4.26,39.846\O,0,1
 3.116,4.539,41.109\H,0,14.07036505,4.51659667,41.00758278\H,0,14.11005
 423,4.19937042,30.6972871\H,0,12.8606705,7.00428223,33.57748443\H,0,11
 .5610126,6.53958301,32.53132476\H,0,14.05391704,4.93187009,32.91723308
 \H,0,11.41570797,4.25690361,31.6331263\H,0,13.76441799,2.61567475,32.4
 4627702\H,0,11.07106223,2.52219869,33.74058183\H,0,13.85020316,3.38682
 872,34.62392899\H,0,14.09407409,1.75168316,37.36803909\H,0,13.32655858
 ,0.87976602,38.66524462\H,0,11.34901123,2.55571061,38.33351771\H,0,13.
 76229747,3.79327133,37.02079803\H,0,11.20576324,5.2017419,37.5629273\H
 ,0,13.89858009,5.50441932,38.84424898\H,0,11.43501417,4.15264813,39.95
 519974\\Version=EM64L-G09RevB.01\HF=0.4736749\RMSD=0.000e+00\Dipole=0.
 ,0.,0.\PG=C01 [X(C12H22O11)]\\@


 THE POLHOLDE ROLLS WITHOUT SLIPPING ON THE HERPOLHOLDE LYING IN
 THE INVARIABLE PLANE.
 H.GOLDSTEIN, "CLASSICAL MECHANICS", PG 161
 Job cpu time:  0 days  0 hours  0 minutes  0.3 seconds.
 File lengths (MBytes):  RWF=      5 Int=      0 D2E=      0 Chk=      1 Scr=      1
 Normal termination of Gaussian 09 at Wed Apr 13 13:40:05 2016.
Gaussian '09 finished on node027 at Wed Apr 13 13:40:05 EDT 2016.
