Gaussian '09 started on node027 at Wed Apr 13 13:40:38 EDT 2016.
 Entering Gaussian System, Link 0=/usr/local/gaussian/g09/g09
 Initial command:
 /usr/local/gaussian/g09/l1.exe /home/srmcgrat/thesis/gaussian/cellobiose/10K/gaussian5498/Gau-5534.inp -scrdir=/home/srmcgrat/thesis/gaussian/cellobiose/10K/gaussian5498/
 Entering Link 1 = /usr/local/gaussian/g09/l1.exe PID=      5536.
  
 Copyright (c) 1988,1990,1992,1993,1995,1998,2003,2009,2010,
            Gaussian, Inc.  All Rights Reserved.
  
 This is part of the Gaussian(R) 09 program.  It is based on
 the Gaussian(R) 03 system (copyright 2003, Gaussian, Inc.),
 the Gaussian(R) 98 system (copyright 1998, Gaussian, Inc.),
 the Gaussian(R) 94 system (copyright 1995, Gaussian, Inc.),
 the Gaussian 92(TM) system (copyright 1992, Gaussian, Inc.),
 the Gaussian 90(TM) system (copyright 1990, Gaussian, Inc.),
 the Gaussian 88(TM) system (copyright 1988, Gaussian, Inc.),
 the Gaussian 86(TM) system (copyright 1986, Carnegie Mellon
 University), and the Gaussian 82(TM) system (copyright 1983,
 Carnegie Mellon University). Gaussian is a federally registered
 trademark of Gaussian, Inc.
  
 This software contains proprietary and confidential information,
 including trade secrets, belonging to Gaussian, Inc.
  
 This software is provided under written license and may be
 used, copied, transmitted, or stored only in accord with that
 written license.
  
 The following legend is applicable only to US Government
 contracts under FAR:
  
                    RESTRICTED RIGHTS LEGEND
  
 Use, reproduction and disclosure by the US Government is
 subject to restrictions as set forth in subparagraphs (a)
 and (c) of the Commercial Computer Software - Restricted
 Rights clause in FAR 52.227-19.
  
 Gaussian, Inc.
 340 Quinnipiac St., Bldg. 40, Wallingford CT 06492
  
  
 ---------------------------------------------------------------
 Warning -- This program may not be used in any manner that
 competes with the business of Gaussian, Inc. or will provide
 assistance to any competitor of Gaussian, Inc.  The licensee
 of this program is prohibited from giving any competitor of
 Gaussian, Inc. access to this program.  By using this program,
 the user acknowledges that Gaussian, Inc. is engaged in the
 business of creating and licensing software in the field of
 computational chemistry and represents and warrants to the
 licensee that it is not a competitor of Gaussian, Inc. and that
 it will not use this program in any manner prohibited above.
 ---------------------------------------------------------------
  

 Cite this work as:
 Gaussian 09, Revision B.01,
 M. J. Frisch, G. W. Trucks, H. B. Schlegel, G. E. Scuseria, 
 M. A. Robb, J. R. Cheeseman, G. Scalmani, V. Barone, B. Mennucci, 
 G. A. Petersson, H. Nakatsuji, M. Caricato, X. Li, H. P. Hratchian, 
 A. F. Izmaylov, J. Bloino, G. Zheng, J. L. Sonnenberg, M. Hada, 
 M. Ehara, K. Toyota, R. Fukuda, J. Hasegawa, M. Ishida, T. Nakajima, 
 Y. Honda, O. Kitao, H. Nakai, T. Vreven, J. A. Montgomery, Jr., 
 J. E. Peralta, F. Ogliaro, M. Bearpark, J. J. Heyd, E. Brothers, 
 K. N. Kudin, V. N. Staroverov, T. Keith, R. Kobayashi, J. Normand, 
 K. Raghavachari, A. Rendell, J. C. Burant, S. S. Iyengar, J. Tomasi, 
 M. Cossi, N. Rega, J. M. Millam, M. Klene, J. E. Knox, J. B. Cross, 
 V. Bakken, C. Adamo, J. Jaramillo, R. Gomperts, R. E. Stratmann, 
 O. Yazyev, A. J. Austin, R. Cammi, C. Pomelli, J. W. Ochterski, 
 R. L. Martin, K. Morokuma, V. G. Zakrzewski, G. A. Voth, 
 P. Salvador, J. J. Dannenberg, S. Dapprich, A. D. Daniels, 
 O. Farkas, J. B. Foresman, J. V. Ortiz, J. Cioslowski, 
 and D. J. Fox, Gaussian, Inc., Wallingford CT, 2010.
 
 ******************************************
 Gaussian 09:  EM64L-G09RevB.01 12-Aug-2010
                13-Apr-2016 
 ******************************************
 ------------------------
 #p uff geom=connectivity
 ------------------------
 1/38=1,56=1,57=2,64=2/1;
 2/12=2,17=6,18=5,40=1/2;
 3/5=30,11=9,16=1,25=1,30=1,41=10200000,43=2/1;
 4/20=10,24=3/2;
 99/5=1,9=1/99;
 Leave Link    1 at Wed Apr 13 13:40:38 2016, MaxMem=          0 cpu:       0.0
 (Enter /usr/local/gaussian/g09/l101.exe)
 ---------
 10000.pdb
 ---------
 Symbolic Z-matrix:
 Charge =  0 Multiplicity = 1
 O                     33.452    24.957    6.992 
 C                     32.664    24.692    8.161 
 C                     33.002    23.334    8.755 
 O                     32.688    22.391    7.719 
 H                     33.148    22.749    6.907 
 C                     32.481    22.987    10.14 
 O                     33.206    21.908    10.747 
 H                     32.717    21.626    11.573 
 C                     32.503    27.176    8.969 
 O                     33.239    27.671    7.842 
 H                     33.099    28.65     7.987 
 C                     32.796    25.716    9.276 
 O                     32.17     25.314    10.503 
 C                     32.72     24.134    11.107 
 O                     31.987    24.073    12.339 
 C                     32.621    24.479    13.56 
 C                     32.256    25.875    14.04 
 O                     32.497    26.835    13.002 
 H                     32.223    26.429    12.13 
 C                     32.696    26.241    15.448 
 O                     32.318    27.466    16.093 
 H                     32.712    27.42     17.011 
 C                     32.756    22.071    14.433 
 O                     32.374    21.341    13.259 
 H                     32.669    20.41     13.474 
 C                     32.244    23.486    14.648 
 O                     32.686    23.804    15.975 
 C                     32.366    25.128    16.428 
 O                     33.22     25.315    17.566 
 H                     34.38409   24.9062   7.21611 
 H                     34.13781   25.26936   17.28826 
 H                     32.75181   27.7644   9.82736 
 H                     31.45704   27.28223   8.77002 
 H                     33.84179   25.70842   9.5022 
 H                     31.63732   24.6701   7.86043 
 H                     34.06795   23.31892   8.84676 
 H                     31.43792   22.75263   10.09579 
 H                     33.76576   24.26061   11.29475 
 H                     32.44976   21.49193   15.27905 
 H                     33.82498   22.11654   14.44318 
 H                     31.17533   23.43812   14.67159 
 H                     33.68079   24.43861   13.41814 
 H                     31.18903   25.84683   14.11539 
 H                     33.76438   26.27377   15.39906 
 H                     31.33878   25.18279   16.72247 
 
 NAtoms=     45 NQM=     45 NQMF=      0 NMic=      0 NMicF=      0 NTot=     45.
                    Isotopes and Nuclear Properties:
 (Nuclear quadrupole moments (NQMom) in fm**2, nuclear magnetic moments (NMagM)
  in nuclear magnetons)

  Atom         1           2           3           4           5           6           7           8           9          10
 IAtWgt=          16          12          12          16           1          12          16           1          12          16
 AtmWgt=  15.9949146  12.0000000  12.0000000  15.9949146   1.0078250  12.0000000  15.9949146   1.0078250  12.0000000  15.9949146
 NucSpn=           0           0           0           0           1           0           0           1           0           0
 AtZEff=   0.0000000   0.0000000   0.0000000   0.0000000   0.0000000   0.0000000   0.0000000   0.0000000   0.0000000   0.0000000
 NQMom=    0.0000000   0.0000000   0.0000000   0.0000000   0.0000000   0.0000000   0.0000000   0.0000000   0.0000000   0.0000000
 NMagM=    0.0000000   0.0000000   0.0000000   0.0000000   2.7928460   0.0000000   0.0000000   2.7928460   0.0000000   0.0000000

  Atom        11          12          13          14          15          16          17          18          19          20
 IAtWgt=           1          12          16          12          16          12          12          16           1          12
 AtmWgt=   1.0078250  12.0000000  15.9949146  12.0000000  15.9949146  12.0000000  12.0000000  15.9949146   1.0078250  12.0000000
 NucSpn=           1           0           0           0           0           0           0           0           1           0
 AtZEff=   0.0000000   0.0000000   0.0000000   0.0000000   0.0000000   0.0000000   0.0000000   0.0000000   0.0000000   0.0000000
 NQMom=    0.0000000   0.0000000   0.0000000   0.0000000   0.0000000   0.0000000   0.0000000   0.0000000   0.0000000   0.0000000
 NMagM=    2.7928460   0.0000000   0.0000000   0.0000000   0.0000000   0.0000000   0.0000000   0.0000000   2.7928460   0.0000000

  Atom        21          22          23          24          25          26          27          28          29          30
 IAtWgt=          16           1          12          16           1          12          16          12          16           1
 AtmWgt=  15.9949146   1.0078250  12.0000000  15.9949146   1.0078250  12.0000000  15.9949146  12.0000000  15.9949146   1.0078250
 NucSpn=           0           1           0           0           1           0           0           0           0           1
 AtZEff=   0.0000000   0.0000000   0.0000000   0.0000000   0.0000000   0.0000000   0.0000000   0.0000000   0.0000000   0.0000000
 NQMom=    0.0000000   0.0000000   0.0000000   0.0000000   0.0000000   0.0000000   0.0000000   0.0000000   0.0000000   0.0000000
 NMagM=    0.0000000   2.7928460   0.0000000   0.0000000   2.7928460   0.0000000   0.0000000   0.0000000   0.0000000   2.7928460

  Atom        31          32          33          34          35          36          37          38          39          40
 IAtWgt=           1           1           1           1           1           1           1           1           1           1
 AtmWgt=   1.0078250   1.0078250   1.0078250   1.0078250   1.0078250   1.0078250   1.0078250   1.0078250   1.0078250   1.0078250
 NucSpn=           1           1           1           1           1           1           1           1           1           1
 AtZEff=   0.0000000   0.0000000   0.0000000   0.0000000   0.0000000   0.0000000   0.0000000   0.0000000   0.0000000   0.0000000
 NQMom=    0.0000000   0.0000000   0.0000000   0.0000000   0.0000000   0.0000000   0.0000000   0.0000000   0.0000000   0.0000000
 NMagM=    2.7928460   2.7928460   2.7928460   2.7928460   2.7928460   2.7928460   2.7928460   2.7928460   2.7928460   2.7928460

  Atom        41          42          43          44          45
 IAtWgt=           1           1           1           1           1
 AtmWgt=   1.0078250   1.0078250   1.0078250   1.0078250   1.0078250
 NucSpn=           1           1           1           1           1
 AtZEff=   0.0000000   0.0000000   0.0000000   0.0000000   0.0000000
 NQMom=    0.0000000   0.0000000   0.0000000   0.0000000   0.0000000
 NMagM=    2.7928460   2.7928460   2.7928460   2.7928460   2.7928460
 Generating MM parameters.
 Include all MM classes

 MM sanity checks:
 All charges sum to:                0.00000000
 Charges of atoms sum to:           0.00000000
 MMInit generated parameter data with length LenPar=        7396.
 Leave Link  101 at Wed Apr 13 13:40:38 2016, MaxMem=   33554432 cpu:       0.1
 (Enter /usr/local/gaussian/g09/l202.exe)
                          Input orientation:                          
 ---------------------------------------------------------------------
 Center     Atomic      Atomic             Coordinates (Angstroms)
 Number     Number       Type             X           Y           Z
 ---------------------------------------------------------------------
      1          8    10081003       33.452000   24.957000    6.992000
      2          6    10061003       32.664000   24.692000    8.161000
      3          6    10061003       33.002000   23.334000    8.755000
      4          8    10081003       32.688000   22.391000    7.719000
      5          1    10011000       33.148000   22.749000    6.907000
      6          6    10061003       32.481000   22.987000   10.140000
      7          8    10081003       33.206000   21.908000   10.747000
      8          1    10011000       32.717000   21.626000   11.573000
      9          6    10061003       32.503000   27.176000    8.969000
     10          8    10081003       33.239000   27.671000    7.842000
     11          1    10011000       33.099000   28.650000    7.987000
     12          6    10061003       32.796000   25.716000    9.276000
     13          8    10081003       32.170000   25.314000   10.503000
     14          6    10061003       32.720000   24.134000   11.107000
     15          8    10081003       31.987000   24.073000   12.339000
     16          6    10061003       32.621000   24.479000   13.560000
     17          6    10061003       32.256000   25.875000   14.040000
     18          8    10081003       32.497000   26.835000   13.002000
     19          1    10011000       32.223000   26.429000   12.130000
     20          6    10061003       32.696000   26.241000   15.448000
     21          8    10081003       32.318000   27.466000   16.093000
     22          1    10011000       32.712000   27.420000   17.011000
     23          6    10061003       32.756000   22.071000   14.433000
     24          8    10081003       32.374000   21.341000   13.259000
     25          1    10011000       32.669000   20.410000   13.474000
     26          6    10061003       32.244000   23.486000   14.648000
     27          8    10081003       32.686000   23.804000   15.975000
     28          6    10061003       32.366000   25.128000   16.428000
     29          8    10081003       33.220000   25.315000   17.566000
     30          1    10011000       34.384090   24.906196    7.216115
     31          1    10011000       34.137812   25.269361   17.288262
     32          1    10011000       32.751811   27.764397    9.827360
     33          1    10011000       31.457044   27.282225    8.770020
     34          1    10011000       33.841790   25.708420    9.502199
     35          1    10011000       31.637318   24.670102    7.860426
     36          1    10011000       34.067952   23.318919    8.846757
     37          1    10011000       31.437919   22.752633   10.095787
     38          1    10011000       33.765763   24.260612   11.294747
     39          1    10011000       32.449755   21.491931   15.279046
     40          1    10011000       33.824982   22.116543   14.443182
     41          1    10011000       31.175332   23.438116   14.671586
     42          1    10011000       33.680785   24.438612   13.418140
     43          1    10011000       31.189031   25.846835   14.115385
     44          1    10011000       33.764378   26.273771   15.399060
     45          1    10011000       31.338778   25.182793   16.722471
 ---------------------------------------------------------------------
                    Distance matrix (angstroms):
                    1          2          3          4          5
     1  O    0.000000
     2  C    1.434479   0.000000
     3  C    2.438196   1.520278   0.000000
     4  O    2.774271   2.343190   1.435667   0.000000
     5  H    2.230450   2.362630   1.943874   0.999554   0.000000
     6  C    3.838443   2.618579   1.519893   2.501861   3.309656
     7  O    4.843237   3.838205   2.458283   3.109726   3.931443
     8  H    5.711510   4.587473   3.307509   3.929298   4.818552
     9  C    3.119790   2.617067   3.880175   4.949035   4.926073
    10  O    2.851958   3.050709   4.438390   5.310097   5.010847
    11  H    3.840948   3.985632   5.372066   6.278202   5.999217
    12  C    2.494609   1.519613   2.446998   3.673083   3.813024
    13  O    3.754743   2.473031   2.769138   4.069755   4.524039
    14  C    4.259857   2.998902   2.500286   3.810199   4.443131
    15  O    5.614097   4.277520   3.797552   4.966379   5.710300
    16  C    6.637595   5.403371   4.954211   6.203347   6.894421
    17  C    7.207458   6.010707   5.911381   7.230486   7.838828
    18  O    6.368596   5.296756   5.527118   6.906208   7.366697
    19  H    5.484184   4.354838   4.645050   5.998216   6.455831
    20  C    8.586276   7.449886   7.303460   8.634814   9.238347
    21  O    9.508377   8.410197   8.449114   9.798796  10.359613
    22  H   10.343806   9.261036   9.216346  10.565637  11.139980
    23  C    8.011360   6.798242   5.821973   6.721965   7.566639
    24  O    7.315246   6.107610   4.965123   5.647362   6.552056
    25  H    7.956420   6.823747   5.561441   6.086440   6.987550
    26  C    7.889071   6.611506   5.943494   7.029026   7.828376
    27  O    9.089029   7.864326   7.242179   8.376044   9.140847
    28  C    9.499828   8.283851   7.905559   9.134634   9.844826
    29  O   10.582602   9.441996   9.033582  10.285728  10.963750
    30  H    0.960000   1.974182   2.598103   3.075032   2.505387
    31  H   10.323804   9.263498   8.823393  10.097411  10.728586
    32  H    4.051051   3.496297   4.565191   5.772577   5.817188
    33  H    3.542298   2.921800   4.239764   5.152085   5.184622
    34  H    2.649088   2.054048   2.627056   3.939074   3.996820
    35  H    2.032128   1.070000   2.108978   2.513611   2.623321
    36  H    2.550064   2.080071   1.070000   2.009262   2.221210
    37  H    4.306884   3.001303   2.140571   2.709722   3.618390
    38  H    4.370016   3.349679   2.809317   4.176481   4.681765
    39  H    9.038049   7.807235   6.801571   7.617045   8.494640
    40  H    7.982946   6.888154   5.874940   6.825151   7.592914
    41  H    8.152685   6.795299   6.193024   7.191875   8.040839
    42  H    6.451073   5.360557   4.840020   6.136655   6.747858
    43  H    7.526982   6.242106   6.191521   7.423170   8.086715
    44  H    8.515287   7.490149   7.305272   8.672820   9.215151
    45  H    9.959857   8.677319   8.346552   9.522447  10.273271
                    6          7          8          9         10
     6  C    0.000000
     7  O    1.434683   0.000000
     8  H    1.990353   1.000460   0.000000
     9  C    4.349649   5.604223   6.134257   0.000000
    10  O    5.272118   6.453858   7.122841   1.434172   0.000000
    11  H    6.089902   7.285850   7.895688   1.868747   0.999533
    12  C    2.879785   4.102780   4.691540   1.520427   2.464676
    13  O    2.375588   3.568427   3.878847   2.435383   3.712025
    14  C    1.519151   2.306702   2.550927   3.724500   4.841483
    15  O    2.501806   2.950873   2.665983   4.609964   5.893735
    16  C    3.733907   3.855546   3.478073   5.325882   6.577713
    17  C    4.858103   5.242465   4.934836   5.241054   6.527412
    18  O    4.795665   5.464708   5.405934   4.047395   5.279684
    19  H    3.984222   4.828915   4.860359   3.260112   4.578402
    20  C    6.229736   6.413610   6.026134   6.548963   7.758285
    21  O    7.451592   7.762707   7.395620   7.132300   8.304774
    22  H    8.180189   8.358461   7.946213   8.048415   9.187562
    23  C    4.398242   3.716943   2.894675   7.482000   8.662250
    24  O    3.528304   2.706263   1.743981   7.243477   8.376217
    25  H    4.218036   3.157357   2.257158   8.130273   9.206869
    26  C    4.541721   4.316634   3.624770   6.777479   8.051452
    27  O    5.895485   5.585445   4.911441   7.777397   9.022482
    28  C    6.643497   6.583902   5.996518   7.736262   8.997131
    29  O    7.817364   7.622769   7.055337   8.825294  10.005362
    30  H    3.981729   4.779563   5.702747   3.429740   3.057304
    31  H    7.684520   7.413173   6.925100   8.690110   9.788136
    32  H    4.795269   5.945537   6.381879   1.070000   2.046395
    33  H    4.623234   5.987453   6.437163   1.070000   2.046395
    34  H    3.108804   4.049315   4.713759   2.056806   2.640329
    35  H    2.956533   4.292118   4.920922   2.873650   3.401634
    36  H    2.073901   2.518845   3.481874   4.164264   4.542830
    37  H    1.070000   2.064847   2.255551   4.687240   5.702086
    38  H    2.146193   2.479545   2.849300   3.937405   4.881566
    39  H    5.352196   4.613508   3.718087   8.492829   9.701209
    40  H    4.591444   3.753451   3.115478   7.570496   8.647021
    41  H    4.737462   4.676242   3.906627   6.946508   8.295739
    42  H    3.780590   3.710041   3.499173   5.354934   6.460406
    43  H    5.064734   5.561349   5.158862   5.475261   6.847285
    44  H    6.333058   6.404171   6.110443   6.614435   7.703079
    45  H    7.032432   7.065199   6.408379   8.089783   9.416198
                   11         12         13         14         15
    11  H    0.000000
    12  C    3.218957   0.000000
    13  O    4.280443   1.434925   0.000000
    14  C    5.502027   2.420963   1.435171   0.000000
    15  O    6.412907   3.568739   2.223616   1.434864   0.000000
    16  C    6.977396   4.462449   3.200918   2.479120   1.434445
    17  C    6.711936   4.797143   3.582246   3.442218   2.492582
    18  O    5.367202   3.901876   2.943700   3.306986   2.885882
    19  H    4.781701   2.997001   1.973110   2.561360   2.376997
    20  C    7.850619   6.195096   5.058560   4.825381   3.856006
    21  O    8.229159   7.054252   5.991753   6.010326   5.070949
    22  H    9.115659   7.920915   6.861710   6.756854   5.792721
    23  C    9.216930   6.315241   5.128874   3.914019   2.997366
    24  O    9.041078   5.931526   4.839616   3.542833   2.908607
    25  H    9.909070   6.767050   5.755437   4.412875   3.894986
    26  C    8.471531   5.842601   4.530793   3.631138   2.396268
    27  O    9.352135   6.967384   5.699925   4.879291   3.712339
    28  C    9.175634   7.189002   5.931158   5.424610   4.239881
    29  O   10.143673   8.310516   7.140621   6.585092   5.512203
    30  H    4.032591   2.724140   3.983982   4.301682   5.717010
    31  H    9.950946   8.136110   7.064988   6.442611   5.527429
    32  H    2.071656   2.121763   2.607573   3.849451   4.529865
    33  H    2.275949   2.121763   2.717616   4.119206   4.828830
    34  H    3.391233   1.070000   1.987976   2.512488   3.763281
    35  H    4.241712   2.107201   2.771561   3.464079   4.531714
    36  H    5.486208   2.747382   3.213365   2.755001   4.134581
    37  H    6.479592   3.361246   2.694878   2.138798   2.660238
    38  H    5.536469   2.670943   2.069529   1.070000   2.071150
    39  H   10.238818   7.348415   6.123486   4.945657   3.939534
    40  H    9.213870   6.380804   5.337390   4.052311   3.410789
    41  H    8.691831   6.076814   4.678185   3.946711   2.550067
    42  H    6.897213   4.424013   3.398061   2.521361   2.041353
    43  H    7.004486   5.100894   3.780945   3.785242   2.634158
    44  H    7.812030   6.224205   5.237805   4.908271   4.167305
    45  H    9.561818   7.606427   6.276142   5.877180   4.568002
                   16         17         18         19         20
    16  C    0.000000
    17  C    1.520671   0.000000
    18  O    2.424351   1.434268   0.000000
    19  H    2.450674   1.988996   1.000148   0.000000
    20  C    2.583566   1.519875   2.524946   3.356814   0.000000
    21  O    3.928112   2.598064   3.159823   4.097531   1.435108
    22  H    4.535103   3.379616   4.057158   5.004534   1.957873
    23  C    2.564921   3.856795   4.981018   4.957828   4.292170
    24  O    3.162065   4.602286   5.501383   5.213942   5.376375
    25  H    4.070192   5.509732   6.444610   6.183333   6.156132
    26  C    1.520501   2.465183   3.740204   3.873243   2.904192
    27  O    2.508401   2.866734   4.249872   4.678570   2.493351
    28  C    2.951550   2.504527   3.829946   4.492867   1.519233
    29  O    4.135908   3.698050   4.864486   5.637828   2.370227
    30  H    6.598171   7.213373   6.384188   5.579920   8.508542
    31  H    4.101869   3.802529   4.849282   5.623072   2.531693
    32  H    4.974288   4.643488   3.317686   2.713867   5.823697
    33  H    5.670694   5.512831   4.380773   3.550232   6.871286
    34  H    4.412204   4.809793   3.914875   3.169393   6.078571
    35  H    5.786993   6.326269   5.644609   4.654676   7.820473
    36  H    5.064990   6.065187   5.665401   4.884275   7.348280
    37  H    4.047320   5.096592   5.121860   4.274348   6.511348
    38  H    2.547459   3.524492   3.339453   2.789206   4.723964
    39  H    3.450656   4.558955   5.808232   5.860252   4.758449
    40  H    2.794778   4.092708   5.109244   5.149217   4.392653
    41  H    2.099767   2.739553   4.009133   4.062346   3.281983
    42  H    1.070000   2.116585   2.705031   2.783179   2.887687
    43  H    2.056687   1.070000   1.981636   2.312956   2.049923
    44  H    2.812589   2.069122   2.768956   3.617553   1.070000
    45  H    3.484342   2.918235   4.232395   4.840007   2.141525
                   21         22         23         24         25
    21  O    0.000000
    22  H    1.000038   0.000000
    23  C    5.661578   5.937998   0.000000
    24  O    6.749097   7.151642   1.434259   0.000000
    25  H    7.534554   7.851899   1.919940   1.000005   0.000000
    26  C    4.234844   4.612933   1.520064   2.558759   3.319741
    27  O    3.682335   3.761573   2.320766   3.679724   4.215985
    28  C    2.362366   2.390161   3.671154   4.938015   5.574715
    29  O    2.758647   2.235423   4.533709   5.921034   6.411481
    30  H    9.466806  10.249628   7.922906   7.298462   7.894203
    31  H    3.092829   2.595200   4.504602   5.897288   6.349756
    32  H    6.287724   7.192000   7.323025   7.292388   8.209262
    33  H    7.375707   8.337125   7.804710   7.502660   8.415685
    34  H    6.989254   7.783831   6.222745   5.944940   6.724871
    35  H    8.720989   9.615086   7.155802   6.385156   7.122152
    36  H    8.530455   9.236468   5.872362   5.123429   5.641831
    37  H    7.678342   8.439655   4.584035   3.588157   4.291365
    38  H    5.949266   6.615716   3.957607   3.784102   4.558426
    39  H    6.030703   6.181459   1.070000   2.027092   2.115853
    40  H    5.797377   5.996588   1.070000   2.027092   2.277696
    41  H    4.421534   4.867197   2.103435   2.798231   3.582560
    42  H    4.263466   4.768214   2.736924   3.365741   4.154100
    43  H    2.794142   3.630271   4.100390   4.737098   5.671054
    44  H    1.998742   2.240467   4.428700   5.553849   6.268135
    45  H    2.562839   2.640849   4.115027   5.275100   5.924660
                   26         27         28         29         30
    26  C    0.000000
    27  O    1.434370   0.000000
    28  C    2.424757   1.435474   0.000000
    29  O    3.579461   2.258220   1.435036   0.000000
    30  H    7.863196   8.989795   9.432959  10.423164   0.000000
    31  H    3.706466   2.445342   1.974678   0.960000  10.081701
    32  H    6.465378   7.313176   7.118137   8.130516   4.201458
    33  H    7.041397   8.094450   8.006968   9.184076   4.077712
    34  H    5.828494   6.845423   7.105037   8.097301   2.482707
    35  H    6.916742   8.227768   8.610689   9.854894   2.831189
    36  H    6.083514   7.277153   7.977761   8.984908   2.297473
    37  H    4.680837   6.101494   6.826465   8.096025   4.648684
    38  H    3.762990   4.824847   5.390917   6.382649   4.175446
    39  H    2.101634   2.426072   3.814198   4.520984   8.967146
    40  H    2.101634   2.547794   3.890630   4.510889   7.766934
    41  H    1.070000   2.028516   2.712635   4.010111   8.248360
    42  H    2.117635   2.816001   3.356065   4.264402   6.259264
    43  H    2.640110   3.142015   2.692613   4.039112   7.661145
    44  H    3.263021   2.755789   2.080137   2.431300   8.319549
    45  H    2.828774   2.067556   1.070000   2.065918   9.986052
                   31         32         33         34         35
    31  H    0.000000
    32  H    7.988195   0.000000
    33  H    9.154157   1.739792   0.000000
    34  H    7.804049   2.349644   2.949570   0.000000
    35  H    9.772189   3.832177   2.771831   2.938234   0.000000
    36  H    8.664186   4.738785   4.746633   2.488066   2.950682
    37  H    8.084247   5.188077   4.719664   3.855855   2.951827
    38  H    6.089189   3.931645   4.564491   2.305462   4.061098
    39  H    4.599507   8.316005   8.768147   7.286185   8.111519
    40  H    4.258239   7.372636   8.029705   6.108615   7.391834
    41  H    4.356230   6.683451   7.048761   6.243944   6.937083
    42  H    3.984579   4.981720   5.885251   4.119821   5.926004
    43  H    4.369890   4.950402   5.541219   5.323324   6.380452
    44  H    2.171953   5.855859   7.091187   5.924405   7.995444
    45  H    2.856957   7.496925   8.225757   7.659874   8.881881
                   36         37         38         39         40
    36  H    0.000000
    37  H    2.966113   0.000000
    38  H    2.640220   3.021649   0.000000
    39  H    6.879738   5.429489   5.027137   0.000000
    40  H    5.729286   5.000253   3.809617   1.726284   0.000000
    41  H    6.504621   4.634305   4.334729   2.404329   2.969741
    42  H    4.722410   4.348678   2.132534   3.696124   2.542343
    43  H    6.514368   5.078701   4.136623   4.680675   4.579385
    44  H    7.194163   6.777575   4.571454   4.960709   4.266136
    45  H    8.541035   7.058927   6.016715   4.115848   4.558316
                   41         42         43         44         45
    41  H    0.000000
    42  H    2.974797   0.000000
    43  H    2.472140   2.945859   0.000000
    44  H    3.908109   2.701636   2.909039   0.000000
    45  H    2.697543   4.117937   2.694489   2.970721   0.000000
 Stoichiometry    C12H22O11
 Framework group  C1[X(C12H22O11)]
 Deg. of freedom   129
 Full point group                 C1      NOp   1
 Largest Abelian subgroup         C1      NOp   1
 Largest concise Abelian subgroup C1      NOp   1
                         Standard orientation:                         
 ---------------------------------------------------------------------
 Center     Atomic      Atomic             Coordinates (Angstroms)
 Number     Number       Type             X           Y           Z
 ---------------------------------------------------------------------
      1          8    10081003       -5.057351   -0.460349    0.574211
      2          6    10061003       -3.864930   -0.165198   -0.166564
      3          6    10061003       -3.321106    1.208338    0.192460
      4          8    10081003       -4.368137    2.123321   -0.164851
      5          1    10011000       -5.188291    1.744363    0.262754
      6          6    10061003       -1.925867    1.591408   -0.272989
      7          8    10081003       -1.377298    2.686723    0.473784
      8          1    10011000       -0.539984    2.990053    0.017914
      9          6    10061003       -2.985792   -2.627089   -0.290065
     10          8    10081003       -4.128092   -3.151093    0.400890
     11          1    10011000       -3.951767   -4.126035    0.268744
     12          6    10061003       -2.729512   -1.159222    0.012235
     13          8    10081003       -1.489309   -0.725443   -0.564601
     14          6    10061003       -0.939345    0.470605    0.006998
     15          8    10081003        0.319171    0.563542   -0.675888
     16          6    10061003        1.523905    0.190545    0.007575
     17          6    10061003        2.054924   -1.192584   -0.335084
     18          8    10081003        1.033759   -2.179502   -0.134238
     19          1    10011000        0.163102   -1.796956   -0.443934
     20          6    10061003        3.453208   -1.520817    0.161994
     21          8    10081003        4.145045   -2.728651   -0.187338
     22          1    10011000        5.044875   -2.658033    0.243237
     23          6    10061003        2.326868    2.620918    0.172969
     24          8    10081003        1.150363    3.319265   -0.257433
     25          1    10011000        1.328636    4.255885    0.044184
     26          6    10061003        2.599625    1.211656   -0.327209
     27          8    10081003        3.915655    0.929265    0.168510
     28          6    10061003        4.415990   -0.382564   -0.130412
     29          8    10081003        5.523166   -0.538643    0.769103
     30          1    10011000       -4.872425   -0.402819    1.514473
     31          1    10011000        5.207535   -0.499568    1.674891
     32          1    10011000       -2.122927   -3.192350   -0.005735
     33          1    10011000       -3.139557   -2.739454   -1.342980
     34          1    10011000       -2.545948   -1.144747    1.066272
     35          1    10011000       -4.124331   -0.152156   -1.204563
     36          1    10011000       -3.272839    1.226771    1.261212
     37          1    10011000       -1.934155    1.823613   -1.317457
     38          1    10011000       -0.790644    0.349917    1.059720
     39          1    10011000        3.168991    3.221902   -0.100063
     40          1    10011000        2.295134    2.576592    1.241580
     41          1    10011000        2.665014    1.259215   -1.394150
     42          1    10011000        1.338407    0.228090    1.060704
     43          1    10011000        2.172504   -1.163365   -1.398202
     44          1    10011000        3.362107   -1.553939    1.227594
     45          1    10011000        4.752988   -0.430442   -1.144828
 ---------------------------------------------------------------------
 Rotational constants (GHZ):      0.4138304      0.1415542      0.1084724
 Leave Link  202 at Wed Apr 13 13:40:38 2016, MaxMem=   33554432 cpu:       0.0
 (Enter /usr/local/gaussian/g09/l301.exe)
 Standard basis: Dummy (5D, 7F)
 There are    45 symmetry adapted basis functions of A   symmetry.
 Integral buffers will be    131072 words long.
 Raffenetti 1 integral format.
 Two-electron integral symmetry is turned on.
    45 basis functions,    45 primitive gaussians,    45 cartesian basis functions
    34 alpha electrons       34 beta electrons
       nuclear repulsion energy       321.0951989407 Hartrees.
 IExCor=    0 DFT=F Ex=HF Corr=None ExCW=0 ScaHFX=  1.000000
 ScaDFX=  1.000000  1.000000  1.000000  1.000000 ScalE2=  1.000000  1.000000
 IRadAn=      0 IRanWt=     -1 IRanGd=            0 ICorTp=0
 NAtoms=   45 NActive=   45 NUniq=   45 SFac= 1.00D+00 NAtFMM=   50 NAOKFM=F Big=F
 Leave Link  301 at Wed Apr 13 13:40:38 2016, MaxMem=   33554432 cpu:       0.0
 (Enter /usr/local/gaussian/g09/l402.exe)
 UFF calculation of energy.
 Energy per function type:
 Direct Coulomb + vdW (small)                           0.100954607
 Direct Coulomb (large)                                 0.000000000
 Direct vdW (large)                                  2327.491173644
 Non-direct Coulomb + vdW (small)                      -0.032064858
 Non-direct Coulomb (large)                             0.000000000
 Non-direct vdW (large)                             -2327.365187958
 Harmonic stretch III                                   0.033967939
 UFF 3-term bend                                        0.121824057
 UFF torsion w/ sp3 V                                   0.002773556
 Energy per function class:
        Coulomb               0.000000000
    Vanderwaals               0.194875436
     Stretching               0.033967939
        Bending               0.121824057
        Torsion               0.002773556
 Energy=    0.353440987     NIter=   0.
 Dipole moment=       0.000000       0.000000       0.000000
 Leave Link  402 at Wed Apr 13 13:40:38 2016, MaxMem=   33554432 cpu:       0.0
 (Enter /usr/local/gaussian/g09/l9999.exe)
 1\1\GINC-NODE027\SP\RUFF\ZDO\C12H22O11\SRMCGRAT\13-Apr-2016\0\\#p uff 
 geom=connectivity\\10000.pdb\\0,1\O,0,33.452,24.957,6.992\C,0,32.664,2
 4.692,8.161\C,0,33.002,23.334,8.755\O,0,32.688,22.391,7.719\H,0,33.148
 ,22.749,6.907\C,0,32.481,22.987,10.14\O,0,33.206,21.908,10.747\H,0,32.
 717,21.626,11.573\C,0,32.503,27.176,8.969\O,0,33.239,27.671,7.842\H,0,
 33.099,28.65,7.987\C,0,32.796,25.716,9.276\O,0,32.17,25.314,10.503\C,0
 ,32.72,24.134,11.107\O,0,31.987,24.073,12.339\C,0,32.621,24.479,13.56\
 C,0,32.256,25.875,14.04\O,0,32.497,26.835,13.002\H,0,32.223,26.429,12.
 13\C,0,32.696,26.241,15.448\O,0,32.318,27.466,16.093\H,0,32.712,27.42,
 17.011\C,0,32.756,22.071,14.433\O,0,32.374,21.341,13.259\H,0,32.669,20
 .41,13.474\C,0,32.244,23.486,14.648\O,0,32.686,23.804,15.975\C,0,32.36
 6,25.128,16.428\O,0,33.22,25.315,17.566\H,0,34.38408981,24.90619551,7.
 21611489\H,0,34.13781202,25.26936122,17.28826237\H,0,32.75181052,27.76
 43967,9.82736045\H,0,31.45704439,27.28222548,8.77002006\H,0,33.8417898
 4,25.70841995,9.50219937\H,0,31.63731795,24.67010189,7.86042647\H,0,34
 .06795183,23.31891887,8.84675655\H,0,31.43791933,22.75263297,10.095786
 69\H,0,33.76576307,24.26061217,11.29474706\H,0,32.44975533,21.49193102
 ,15.27904569\H,0,33.82498181,22.11654344,14.44318233\H,0,31.17533224,2
 3.43811554,14.67158611\H,0,33.68078512,24.43861199,13.41813982\H,0,31.
 18903057,25.84683484,14.1153854\H,0,33.76437769,26.27377108,15.3990595
 6\H,0,31.3387781,25.18279266,16.72247061\\Version=EM64L-G09RevB.01\HF=
 0.353441\RMSD=0.000e+00\Dipole=0.,0.,0.\PG=C01 [X(C12H22O11)]\\@


 A MAN IS EXACTLY AS GREAT AS THE TIDE SURGING
 BENEATH HIM.      - BISMARCK
 Job cpu time:  0 days  0 hours  0 minutes  0.2 seconds.
 File lengths (MBytes):  RWF=      5 Int=      0 D2E=      0 Chk=      1 Scr=      1
 Normal termination of Gaussian 09 at Wed Apr 13 13:40:38 2016.
Gaussian '09 finished on node027 at Wed Apr 13 13:40:38 EDT 2016.
