Gaussian '09 started on node027 at Wed Apr 13 13:40:56 EDT 2016.
 Entering Gaussian System, Link 0=/usr/local/gaussian/g09/g09
 Initial command:
 /usr/local/gaussian/g09/l1.exe /home/srmcgrat/thesis/gaussian/cellobiose/10K/gaussian5608/Gau-5644.inp -scrdir=/home/srmcgrat/thesis/gaussian/cellobiose/10K/gaussian5608/
 Entering Link 1 = /usr/local/gaussian/g09/l1.exe PID=      5646.
  
 Copyright (c) 1988,1990,1992,1993,1995,1998,2003,2009,2010,
            Gaussian, Inc.  All Rights Reserved.
  
 This is part of the Gaussian(R) 09 program.  It is based on
 the Gaussian(R) 03 system (copyright 2003, Gaussian, Inc.),
 the Gaussian(R) 98 system (copyright 1998, Gaussian, Inc.),
 the Gaussian(R) 94 system (copyright 1995, Gaussian, Inc.),
 the Gaussian 92(TM) system (copyright 1992, Gaussian, Inc.),
 the Gaussian 90(TM) system (copyright 1990, Gaussian, Inc.),
 the Gaussian 88(TM) system (copyright 1988, Gaussian, Inc.),
 the Gaussian 86(TM) system (copyright 1986, Carnegie Mellon
 University), and the Gaussian 82(TM) system (copyright 1983,
 Carnegie Mellon University). Gaussian is a federally registered
 trademark of Gaussian, Inc.
  
 This software contains proprietary and confidential information,
 including trade secrets, belonging to Gaussian, Inc.
  
 This software is provided under written license and may be
 used, copied, transmitted, or stored only in accord with that
 written license.
  
 The following legend is applicable only to US Government
 contracts under FAR:
  
                    RESTRICTED RIGHTS LEGEND
  
 Use, reproduction and disclosure by the US Government is
 subject to restrictions as set forth in subparagraphs (a)
 and (c) of the Commercial Computer Software - Restricted
 Rights clause in FAR 52.227-19.
  
 Gaussian, Inc.
 340 Quinnipiac St., Bldg. 40, Wallingford CT 06492
  
  
 ---------------------------------------------------------------
 Warning -- This program may not be used in any manner that
 competes with the business of Gaussian, Inc. or will provide
 assistance to any competitor of Gaussian, Inc.  The licensee
 of this program is prohibited from giving any competitor of
 Gaussian, Inc. access to this program.  By using this program,
 the user acknowledges that Gaussian, Inc. is engaged in the
 business of creating and licensing software in the field of
 computational chemistry and represents and warrants to the
 licensee that it is not a competitor of Gaussian, Inc. and that
 it will not use this program in any manner prohibited above.
 ---------------------------------------------------------------
  

 Cite this work as:
 Gaussian 09, Revision B.01,
 M. J. Frisch, G. W. Trucks, H. B. Schlegel, G. E. Scuseria, 
 M. A. Robb, J. R. Cheeseman, G. Scalmani, V. Barone, B. Mennucci, 
 G. A. Petersson, H. Nakatsuji, M. Caricato, X. Li, H. P. Hratchian, 
 A. F. Izmaylov, J. Bloino, G. Zheng, J. L. Sonnenberg, M. Hada, 
 M. Ehara, K. Toyota, R. Fukuda, J. Hasegawa, M. Ishida, T. Nakajima, 
 Y. Honda, O. Kitao, H. Nakai, T. Vreven, J. A. Montgomery, Jr., 
 J. E. Peralta, F. Ogliaro, M. Bearpark, J. J. Heyd, E. Brothers, 
 K. N. Kudin, V. N. Staroverov, T. Keith, R. Kobayashi, J. Normand, 
 K. Raghavachari, A. Rendell, J. C. Burant, S. S. Iyengar, J. Tomasi, 
 M. Cossi, N. Rega, J. M. Millam, M. Klene, J. E. Knox, J. B. Cross, 
 V. Bakken, C. Adamo, J. Jaramillo, R. Gomperts, R. E. Stratmann, 
 O. Yazyev, A. J. Austin, R. Cammi, C. Pomelli, J. W. Ochterski, 
 R. L. Martin, K. Morokuma, V. G. Zakrzewski, G. A. Voth, 
 P. Salvador, J. J. Dannenberg, S. Dapprich, A. D. Daniels, 
 O. Farkas, J. B. Foresman, J. V. Ortiz, J. Cioslowski, 
 and D. J. Fox, Gaussian, Inc., Wallingford CT, 2010.
 
 ******************************************
 Gaussian 09:  EM64L-G09RevB.01 12-Aug-2010
                13-Apr-2016 
 ******************************************
 ------------------------
 #p uff geom=connectivity
 ------------------------
 1/38=1,56=1,57=2,64=2/1;
 2/12=2,17=6,18=5,40=1/2;
 3/5=30,11=9,16=1,25=1,30=1,41=10200000,43=2/1;
 4/20=10,24=3/2;
 99/5=1,9=1/99;
 Leave Link    1 at Wed Apr 13 13:40:56 2016, MaxMem=          0 cpu:       0.0
 (Enter /usr/local/gaussian/g09/l101.exe)
 ---------
 10000.pdb
 ---------
 Symbolic Z-matrix:
 Charge =  0 Multiplicity = 1
 O                     16.573    24.974    28.213 
 C                     16.143    24.57     29.521 
 C                     16.78     23.262    29.961 
 O                     16.46     22.156    29.104 
 H                     16.323    22.477    28.167 
 C                     16.452    22.862    31.39 
 O                     17.149    21.731    31.933 
 H                     16.601    21.398    32.701 
 C                     16.005    27.02     30.164 
 O                     16.561    27.595    28.973 
 H                     16.488    28.585    29.093 
 C                     16.537    25.642    30.524 
 O                     16.003    25.208    31.783 
 C                     16.625    24.039    32.335 
 O                     15.754    23.917    33.469 
 C                     16.359    24.212    34.736 
 C                     15.866    25.578    35.184 
 O                     15.805    26.563    34.142 
 H                     15.744    26.125    33.245 
 C                     16.396    25.864    36.579 
 O                     15.83     27.124    36.97 
 H                     16.295    27.38     37.818 
 C                     16.42     21.804    35.516 
 O                     16.001    21.022    34.388 
 H                     16.057    20.029    34.494 
 C                     15.95     23.219    35.812 
 O                     16.531    23.463    37.101 
 C                     16.091    24.748    37.565 
 O                     16.785    25.01     38.793 
 H                     17.73195   24.97708   38.63871 
 H                     17.5324   24.98405   28.18045 
 H                     16.20493   27.68122   30.98114 
 H                     17.60404   25.68464   30.59112 
 H                     15.0786   24.46073   29.52288 
 H                     17.83975   23.40083   29.91053 
 H                     15.41212   22.61017   31.40107 
 H                     17.64382   24.20861   32.61452 
 H                     14.94471   26.9486   30.03912 
 H                     16.17939   21.22499   36.38304 
 H                     17.48757   21.85211   35.46235 
 H                     14.88384   23.22196   35.90258 
 H                     17.42436   24.22397   34.6372 
 H                     14.82765   25.40275   35.37376 
 H                     17.45836   25.97657   36.51879 
 H                     15.03787   24.71684   37.75166 
 
 NAtoms=     45 NQM=     45 NQMF=      0 NMic=      0 NMicF=      0 NTot=     45.
                    Isotopes and Nuclear Properties:
 (Nuclear quadrupole moments (NQMom) in fm**2, nuclear magnetic moments (NMagM)
  in nuclear magnetons)

  Atom         1           2           3           4           5           6           7           8           9          10
 IAtWgt=          16          12          12          16           1          12          16           1          12          16
 AtmWgt=  15.9949146  12.0000000  12.0000000  15.9949146   1.0078250  12.0000000  15.9949146   1.0078250  12.0000000  15.9949146
 NucSpn=           0           0           0           0           1           0           0           1           0           0
 AtZEff=   0.0000000   0.0000000   0.0000000   0.0000000   0.0000000   0.0000000   0.0000000   0.0000000   0.0000000   0.0000000
 NQMom=    0.0000000   0.0000000   0.0000000   0.0000000   0.0000000   0.0000000   0.0000000   0.0000000   0.0000000   0.0000000
 NMagM=    0.0000000   0.0000000   0.0000000   0.0000000   2.7928460   0.0000000   0.0000000   2.7928460   0.0000000   0.0000000

  Atom        11          12          13          14          15          16          17          18          19          20
 IAtWgt=           1          12          16          12          16          12          12          16           1          12
 AtmWgt=   1.0078250  12.0000000  15.9949146  12.0000000  15.9949146  12.0000000  12.0000000  15.9949146   1.0078250  12.0000000
 NucSpn=           1           0           0           0           0           0           0           0           1           0
 AtZEff=   0.0000000   0.0000000   0.0000000   0.0000000   0.0000000   0.0000000   0.0000000   0.0000000   0.0000000   0.0000000
 NQMom=    0.0000000   0.0000000   0.0000000   0.0000000   0.0000000   0.0000000   0.0000000   0.0000000   0.0000000   0.0000000
 NMagM=    2.7928460   0.0000000   0.0000000   0.0000000   0.0000000   0.0000000   0.0000000   0.0000000   2.7928460   0.0000000

  Atom        21          22          23          24          25          26          27          28          29          30
 IAtWgt=          16           1          12          16           1          12          16          12          16           1
 AtmWgt=  15.9949146   1.0078250  12.0000000  15.9949146   1.0078250  12.0000000  15.9949146  12.0000000  15.9949146   1.0078250
 NucSpn=           0           1           0           0           1           0           0           0           0           1
 AtZEff=   0.0000000   0.0000000   0.0000000   0.0000000   0.0000000   0.0000000   0.0000000   0.0000000   0.0000000   0.0000000
 NQMom=    0.0000000   0.0000000   0.0000000   0.0000000   0.0000000   0.0000000   0.0000000   0.0000000   0.0000000   0.0000000
 NMagM=    0.0000000   2.7928460   0.0000000   0.0000000   2.7928460   0.0000000   0.0000000   0.0000000   0.0000000   2.7928460

  Atom        31          32          33          34          35          36          37          38          39          40
 IAtWgt=           1           1           1           1           1           1           1           1           1           1
 AtmWgt=   1.0078250   1.0078250   1.0078250   1.0078250   1.0078250   1.0078250   1.0078250   1.0078250   1.0078250   1.0078250
 NucSpn=           1           1           1           1           1           1           1           1           1           1
 AtZEff=   0.0000000   0.0000000   0.0000000   0.0000000   0.0000000   0.0000000   0.0000000   0.0000000   0.0000000   0.0000000
 NQMom=    0.0000000   0.0000000   0.0000000   0.0000000   0.0000000   0.0000000   0.0000000   0.0000000   0.0000000   0.0000000
 NMagM=    2.7928460   2.7928460   2.7928460   2.7928460   2.7928460   2.7928460   2.7928460   2.7928460   2.7928460   2.7928460

  Atom        41          42          43          44          45
 IAtWgt=           1           1           1           1           1
 AtmWgt=   1.0078250   1.0078250   1.0078250   1.0078250   1.0078250
 NucSpn=           1           1           1           1           1
 AtZEff=   0.0000000   0.0000000   0.0000000   0.0000000   0.0000000
 NQMom=    0.0000000   0.0000000   0.0000000   0.0000000   0.0000000
 NMagM=    2.7928460   2.7928460   2.7928460   2.7928460   2.7928460
 Generating MM parameters.
 Include all MM classes

 MM sanity checks:
 All charges sum to:                0.00000000
 Charges of atoms sum to:           0.00000000
 MMInit generated parameter data with length LenPar=        7396.
 Leave Link  101 at Wed Apr 13 13:40:56 2016, MaxMem=   33554432 cpu:       0.1
 (Enter /usr/local/gaussian/g09/l202.exe)
                          Input orientation:                          
 ---------------------------------------------------------------------
 Center     Atomic      Atomic             Coordinates (Angstroms)
 Number     Number       Type             X           Y           Z
 ---------------------------------------------------------------------
      1          8    10081003       16.573000   24.974000   28.213000
      2          6    10061003       16.143000   24.570000   29.521000
      3          6    10061003       16.780000   23.262000   29.961000
      4          8    10081003       16.460000   22.156000   29.104000
      5          1    10011000       16.323000   22.477000   28.167000
      6          6    10061003       16.452000   22.862000   31.390000
      7          8    10081003       17.149000   21.731000   31.933000
      8          1    10011000       16.601000   21.398000   32.701000
      9          6    10061003       16.005000   27.020000   30.164000
     10          8    10081003       16.561000   27.595000   28.973000
     11          1    10011000       16.488000   28.585000   29.093000
     12          6    10061003       16.537000   25.642000   30.524000
     13          8    10081003       16.003000   25.208000   31.783000
     14          6    10061003       16.625000   24.039000   32.335000
     15          8    10081003       15.754000   23.917000   33.469000
     16          6    10061003       16.359000   24.212000   34.736000
     17          6    10061003       15.866000   25.578000   35.184000
     18          8    10081003       15.805000   26.563000   34.142000
     19          1    10011000       15.744000   26.125000   33.245000
     20          6    10061003       16.396000   25.864000   36.579000
     21          8    10081003       15.830000   27.124000   36.970000
     22          1    10011000       16.295000   27.380000   37.818000
     23          6    10061003       16.420000   21.804000   35.516000
     24          8    10081003       16.001000   21.022000   34.388000
     25          1    10011000       16.057000   20.029000   34.494000
     26          6    10061003       15.950000   23.219000   35.812000
     27          8    10081003       16.531000   23.463000   37.101000
     28          6    10061003       16.091000   24.748000   37.565000
     29          8    10081003       16.785000   25.010000   38.793000
     30          1    10011000       17.731949   24.977082   38.638713
     31          1    10011000       17.532395   24.984053   28.180453
     32          1    10011000       16.204927   27.681223   30.981138
     33          1    10011000       17.604041   25.684641   30.591115
     34          1    10011000       15.078596   24.460729   29.522876
     35          1    10011000       17.839755   23.400829   29.910534
     36          1    10011000       15.412116   22.610168   31.401067
     37          1    10011000       17.643823   24.208614   32.614518
     38          1    10011000       14.944714   26.948597   30.039123
     39          1    10011000       16.179389   21.224992   36.383039
     40          1    10011000       17.487571   21.852107   35.462354
     41          1    10011000       14.883845   23.221958   35.902576
     42          1    10011000       17.424361   24.223973   34.637198
     43          1    10011000       14.827645   25.402754   35.373760
     44          1    10011000       17.458357   25.976573   36.518789
     45          1    10011000       15.037868   24.716842   37.751661
 ---------------------------------------------------------------------
                    Distance matrix (angstroms):
                    1          2          3          4          5
     1  O    0.000000
     2  C    1.434915   0.000000
     3  C    2.455463   1.519945   0.000000
     4  O    2.957664   2.470177   1.435300   0.000000
     5  H    2.509905   2.499273   2.010848   0.999889   0.000000
     6  C    3.816872   2.550668   1.519745   2.392550   3.248476
     7  O    4.968624   3.858718   2.523669   2.942548   3.927028
     8  H    5.738528   4.514836   3.318755   3.678703   4.668906
     9  C    2.883599   2.536729   3.842447   4.998912   4.972724
    10  O    2.728990   3.102524   4.449606   5.441515   5.186541
    11  H    3.717653   4.052460   5.401205   6.429070   6.179997
    12  C    2.405876   1.520010   2.457726   3.764907   3.952021
    13  O    3.622783   2.354419   2.776748   4.086636   4.542710
    14  C    4.227034   2.903942   2.502725   3.743297   4.461308
    15  O    5.423426   4.020502   3.713188   4.759494   5.523456
    16  C    6.570842   5.231734   4.886754   5.996396   6.794357
    17  C    7.032745   5.758677   5.786102   7.002094   7.685268
    18  O    6.186096   5.043802   5.415532   6.725483   7.257020
    19  H    5.228103   4.055293   4.478250   5.780441   6.279270
    20  C    8.415069   7.180098   7.121502   8.344398   9.068563
    21  O    9.047629   7.880894   8.058761   9.324799   9.966467
    22  H    9.905662   8.761245   8.884008  10.161260  10.825063
    23  C    7.962796   6.608140   5.754423   6.421779   7.380389
    24  O    7.353646   6.024629   5.022228   5.423771   6.396995
    25  H    8.010633   6.734895   5.614544   5.808497   6.789285
    26  C    7.823871   6.437323   5.909733   6.810825   7.689975
    27  O    9.015621   7.670228   7.147167   8.103413   8.990652
    28  C    9.367140   8.046137   7.778415   8.856814   9.671281
    29  O   10.582185   9.304609   9.003319  10.105823  10.933499
    30  H   10.489931   9.264079   8.896651  10.024325  10.857823
    31  H    0.960000   1.974570   2.588805   3.162413   2.783547
    32  H    3.889360   3.437374   4.571752   5.840958   5.917537
    33  H    2.687655   2.126549   2.635389   3.996454   4.219758
    34  H    2.052429   1.070000   2.126895   2.719469   2.705942
    35  H    2.638400   2.097063   1.070000   2.025788   2.488758
    36  H    4.135109   2.812434   2.090403   2.565316   3.362534
    37  H    4.594109   3.457300   2.946765   4.235375   4.952118
    38  H    3.144054   2.713312   4.118904   5.112683   5.039811
    39  H    8.997751   7.634001   6.764075   7.343699   8.312126
    40  H    7.945803   6.670419   5.723054   6.448016   7.414102
    41  H    8.065512   6.642831   6.236933   7.059828   7.903497
    42  H    6.523625   5.285557   4.817409   5.985214   6.791788
    43  H    7.382857   6.056272   6.139421   7.246784   7.920449
    44  H    8.412796   7.257938   7.129774   8.400749   9.126249
    45  H    9.664823   8.305821   8.114554   9.130302   9.926438
                    6          7          8          9         10
     6  C    0.000000
     7  O    1.435207   0.000000
     8  H    1.970842   1.000508   0.000000
     9  C    4.357964   5.693120   6.196650   0.000000
    10  O    5.315549   6.594986   7.232039   1.434657   0.000000
    11  H    6.166866   7.448479   8.042599   1.956925   0.999914
    12  C    2.913002   4.201874   4.770216   1.520364   2.494070
    13  O    2.420695   3.664061   3.964395   2.429920   3.728972
    14  C    1.519303   2.400634   2.666348   3.739519   4.894106
    15  O    2.433613   3.013954   2.766332   4.540334   5.864550
    16  C    3.609275   3.825738   3.481147   5.377115   6.685631
    17  C    4.702604   5.197547   4.917104   5.224853   6.567179
    18  O    4.657200   5.480350   5.421007   4.009156   5.324953
    19  H    3.819615   4.796103   4.834761   3.218961   4.591119
    20  C    5.995070   6.263706   5.918282   6.530042   7.802232
    21  O    7.048966   7.496371   7.183723   6.809044   8.044141
    22  H    7.858509   8.202057   7.877922   7.667947   8.851610
    23  C    4.259608   3.657138   2.849881   7.484837   8.738788
    24  O    3.546407   2.801359   1.829575   7.336089   8.534644
    25  H    4.220987   3.263126   2.320549   8.223484   9.379755
    26  C    4.464699   4.324163   3.663081   6.808122   8.142151
    27  O    5.743080   5.485433   4.860980   7.813507   9.118043
    28  C    6.466679   6.476193   5.927993   7.742363   9.063596
    29  O    7.715517   7.612091   7.084692   8.894276  10.157007
    30  H    7.658699   7.472848   7.024621   8.886879  10.082193
    31  H    3.996443   4.981059   5.844879   3.226837   2.896340
    32  H    4.842842   6.099382   6.526384   1.070000   2.041284
    33  H    3.151621   4.199880   4.881905   2.126628   2.712140
    34  H    2.815729   4.188877   4.668886   2.796271   3.510490
    35  H    2.098814   2.712165   3.651375   4.065583   4.483888
    36  H    1.070000   2.018082   2.138369   4.618275   5.662508
    37  H    2.175605   2.616847   2.999085   4.073656   5.089280
    38  H    4.560378   5.972350   6.374794   1.070000   2.041284
    39  H    5.261611   4.582470   3.710134   8.502292   9.779126
    40  H    4.321615   3.547624   2.935523   7.548356   8.714991
    41  H    4.790827   4.807434   4.065161   6.972329   8.363933
    42  H    3.653047   3.688282   3.523196   5.462770   6.647733
    43  H    4.996429   5.541597   5.130934   5.580613   6.984281
    44  H    6.084225   6.257000   6.022782   6.601843   7.769395
    45  H    6.775761   6.872332   6.242377   7.988271   9.363152
                   11         12         13         14         15
    11  H    0.000000
    12  C    3.272829   0.000000
    13  O    4.344589   1.434780   0.000000
    14  C    5.585289   2.420139   1.434625   0.000000
    15  O    6.440369   3.501677   2.138055   1.435089   0.000000
    16  C    7.140253   4.451688   3.136712   2.421877   1.434691
    17  C    6.821233   4.708496   3.423809   3.325869   2.390123
    18  O    5.481549   3.804470   2.727657   3.210642   2.730723
    19  H    4.883056   2.875062   1.745111   2.440421   2.219356
    20  C    7.965708   6.060709   4.856583   4.625430   3.724926
    21  O    8.038322   6.651849   5.532265   5.624276   4.748434
    22  H    8.809932   7.502109   6.420598   6.429189   5.585593
    23  C    9.340317   6.297936   5.069161   3.893072   3.016378
    24  O    9.245170   6.046668   4.930378   3.702226   3.047392
    25  H   10.127275   6.891812   5.845894   4.589554   4.032242
    26  C    8.615588   5.846233   4.493525   3.635595   2.452605
    27  O    9.506040   6.928564   5.621826   4.801601   3.741827
    28  C    9.308865   7.111528   5.800937   5.304784   4.193012
    29  O   10.342090   8.296824   7.056262   6.532550   5.531960
    30  H   10.280326   8.229130   7.074135   6.468549   5.635777
    31  H    3.858798   2.629813   3.920146   4.356231   5.680671
    32  H    2.112346   2.116052   2.607794   3.908349   4.534553
    33  H    3.449925   1.070000   2.052099   2.589940   3.850899
    34  H    4.379592   2.127109   2.553644   3.236860   4.040261
    35  H    5.419523   2.663899   3.185226   2.785844   4.156860
    36  H    6.494869   3.350614   2.691421   2.094010   2.470029
    37  H    5.734960   2.765848   2.093441   1.070000   2.094424
    38  H    2.440225   2.116052   2.681558   4.069418   4.648610
    39  H   10.363861   7.346168   6.087349   4.950134   3.989923
    40  H    9.321998   6.297159   5.196500   3.912399   3.352985
    41  H    8.815093   6.125243   4.708267   4.052996   2.676293
    42  H    7.115720   4.440339   3.336919   2.444036   2.061317
    43  H    7.234045   5.147747   3.783245   3.784755   2.587220
    44  H    7.930185   6.074400   5.013628   4.685378   4.055599
    45  H    9.593640   7.439247   6.066105   5.684951   4.415176
                   16         17         18         19         20
    16  C    0.000000
    17  C    1.519773   0.000000
    18  O    2.487359   1.435169   0.000000
    19  H    2.502174   2.018369   1.000087   0.000000
    20  C    2.475302   1.519448   2.603239   3.407166   0.000000
    21  O    3.708145   2.362458   2.883215   3.857593   1.435562
    22  H    4.420299   3.220124   3.797442   4.773987   1.960505
    23  C    2.531913   3.828866   4.991411   4.928028   4.196921
    24  O    3.228834   4.626984   5.549920   5.235753   5.329303
    25  H    4.200864   5.594996   6.548325   6.230504   6.205592
    26  C    1.520232   2.442605   3.740623   3.882881   2.789844
    27  O    2.486727   2.930928   4.346580   4.751247   2.460795
    28  C    2.891775   2.531538   3.884965   4.547410   1.520091
    29  O    4.156625   3.767236   5.000401   5.753887   2.404669
    30  H    4.207315   3.972141   5.142829   5.861893   2.610325
    31  H    6.704336   7.223525   6.404452   5.490879   8.520639
    32  H    5.114512   4.711950   3.376598   2.785562   5.888537
    33  H    4.571528   4.911899   4.076377   3.270592   6.111161
    34  H    5.373822   5.823798   5.126745   4.131195   7.313933
    35  H    5.112314   6.036988   5.660818   4.788732   7.253970
    36  H    3.818931   4.829557   4.826174   3.982999   6.194065
    37  H    2.480215   3.411468   3.355236   2.771168   4.473755
    38  H    5.616922   5.403430   4.209795   3.405116   6.786204
    39  H    3.415730   4.525990   5.801444   5.834975   4.648195
    40  H    2.714840   4.072990   5.173673   5.119991   4.305079
    41  H    2.125363   2.651776   3.887251   4.028676   3.118421
    42  H    1.070000   2.135620   2.887663   2.894086   2.741862
    43  H    2.041979   1.070000   1.954130   2.427542   2.031031
    44  H    2.738730   2.115685   2.954084   3.698479   1.070000
    45  H    3.330835   2.832010   4.126311   4.774047   2.129701
                   21         22         23         24         25
    21  O    0.000000
    22  H    1.000432   0.000000
    23  C    5.546586   6.033789   0.000000
    24  O    6.627999   7.230180   1.435085   0.000000
    25  H    7.518054   8.071110   2.080115   1.000210   0.000000
    26  C    4.074848   4.632168   1.520112   2.618623   3.453212
    27  O    3.729810   3.989069   2.297135   3.687784   4.337451
    28  C    2.463234   2.651990   3.601913   4.897398   5.630378
    29  O    2.950314   2.609143   4.598955   5.993565   6.619800
    30  H    3.318323   2.917603   4.641227   6.058664   6.668404
    31  H    9.205089  10.007698   8.072200   7.521747   8.160283
    32  H    6.026404   6.844088   7.426505   7.482883   8.421318
    33  H    6.775629   7.537618   6.380894   6.223045   7.043587
    34  H    7.944638   8.877549   6.691421   6.028692   6.731239
    35  H    8.230260   8.985994   5.998901   5.393287   5.962852
    36  H    7.180691   8.044116   4.312587   3.433777   4.079771
    37  H    5.546139   6.241253   3.962135   3.999827   4.849705
    38  H    6.989388   7.906978   7.657645   7.426508   8.304452
    39  H    5.938425   6.321124   1.070000   2.013258   2.239161
    40  H    5.728297   6.126083   1.070000   2.013258   2.511566
    41  H    4.154580   4.790566   2.125987   2.895133   3.681761
    42  H    4.048964   4.620981   2.763567   3.512932   4.414519
    43  H    2.552525   3.469429   3.937875   4.641066   5.582340
    44  H    2.042481   2.238517   4.415216   5.586765   6.437173
    45  H    2.651957   2.945708   3.923406   5.088585   5.798866
                   26         27         28         29         30
    26  C    0.000000
    27  O    1.434788   0.000000
    28  C    2.330393   1.435312   0.000000
    29  O    3.576488   2.306640   1.434665   0.000000
    30  H    3.775778   2.469672   1.974348   0.960000   0.000000
    31  H    7.991239   9.104535   9.497529  10.638864  10.460165
    32  H    6.581311   7.439922   7.208607   8.276298   8.263330
    33  H    6.006070   6.961731   7.197337   8.270241   8.079655
    34  H    6.469492   7.780290   8.110687   9.441860   9.508174
    35  H    6.199317   7.308865   7.966421   9.088462   8.870022
    36  H    4.485122   5.870984   6.559366   7.892064   7.960365
    37  H    3.751302   4.682183   5.216270   6.289152   6.073651
    38  H    6.945977   8.033417   7.924356   9.152877   9.252485
    39  H    2.086809   2.376506   3.717046   4.527799   4.645071
    40  H    2.086809   2.489009   3.841579   4.643177   4.462560
    41  H    1.070000   2.051205   2.559234   3.894359   4.321874
    42  H    2.136322   2.729009   3.259521   4.277535   4.083368
    43  H    2.494096   3.106030   2.612719   3.959381   4.390455
    44  H    3.221630   2.741716   2.115092   2.561192   2.359642
    45  H    2.614919   2.055461   1.070000   2.054945   2.848272
                   31         32         33         34         35
    31  H    0.000000
    32  H    4.108617   0.000000
    33  H    2.511424   2.469003   0.000000
    34  H    2.845540   3.710354   3.002827   0.000000
    35  H    2.365216   4.705382   2.394691   2.982895   0.000000
    36  H    4.528054   5.149805   3.861728   2.657709   2.956393
    37  H    4.502738   4.098459   2.504874   4.025196   2.828857
    38  H    3.743018   1.735589   2.995714   2.544390   4.580879
    39  H    9.123792   8.418082   7.447448   7.664436   7.027403
    40  H    7.926990   7.463582   6.199261   6.919933   5.774537
    41  H    8.351705   6.771326   6.455687   6.501774   6.683859
    42  H    6.502227   5.177487   4.305418   5.631604   4.815753
    43  H    7.696405   5.136483   5.537285   5.931545   6.551896
    44  H    8.397525   5.928111   5.936646   7.543464   7.102743
    45  H    9.894548   7.482618   7.667809   8.232870   8.430049
                   36         37         38         39         40
    36  H    0.000000
    37  H    3.001335   0.000000
    38  H    4.571140   4.628753   0.000000
    39  H    5.227567   5.024770   8.633037   0.000000
    40  H    4.623442   3.699690   7.864589   1.718219   0.000000
    41  H    4.573504   4.404804   6.947778   2.428405   2.974841
    42  H    4.138362   2.034610   5.891903   3.686706   2.512095
    43  H    4.891056   4.119496   5.555329   4.505502   4.437358
    44  H    6.458395   4.289920   7.017785   4.922571   4.257713
    45  H    6.701356   5.782693   8.029486   3.920359   4.410065
                   41         42         43         44         45
    41  H    0.000000
    42  H    3.009890   0.000000
    43  H    2.244700   2.945332   0.000000
    44  H    3.820436   2.571604   2.925919   0.000000
    45  H    2.382754   3.954510   2.483764   2.994271   0.000000
 Stoichiometry    C12H22O11
 Framework group  C1[X(C12H22O11)]
 Deg. of freedom   129
 Full point group                 C1      NOp   1
 Largest Abelian subgroup         C1      NOp   1
 Largest concise Abelian subgroup C1      NOp   1
                         Standard orientation:                         
 ---------------------------------------------------------------------
 Center     Atomic      Atomic             Coordinates (Angstroms)
 Number     Number       Type             X           Y           Z
 ---------------------------------------------------------------------
      1          8    10081003       -5.013750   -0.416505    0.150079
      2          6    10061003       -3.685164   -0.071387   -0.267931
      3          6    10061003       -3.228419    1.262653    0.299481
      4          8    10081003       -4.048268    2.366916   -0.111051
      5          1    10011000       -4.989328    2.060588   -0.253700
      6          6    10061003       -1.781650    1.607201   -0.013203
      7          8    10081003       -1.228056    2.765881    0.627743
      8          1    10011000       -0.437882    3.045784    0.081577
      9          6    10061003       -3.101755   -2.539933   -0.237824
     10          8    10081003       -4.321051   -3.050669    0.319586
     11          1    10011000       -4.224593   -4.045881    0.310728
     12          6    10061003       -2.720453   -1.140638    0.218344
     13          8    10081003       -1.437379   -0.770856   -0.306611
     14          6    10061003       -0.871880    0.420877    0.257421
     15          8    10081003        0.286992    0.461460   -0.588066
     16          6    10061003        1.529973    0.174241    0.068322
     17          6    10061003        1.955436   -1.230026   -0.327563
     18          8    10081003        0.890481   -2.191660   -0.356548
     19          1    10011000        0.006865   -1.736913   -0.468806
     20          6    10061003        3.328499   -1.515979    0.256944
     21          8    10081003        3.701600   -2.817638   -0.219834
     22          1    10011000        4.530473   -3.064578    0.283014
     23          6    10061003        2.369536    2.562010    0.002898
     24          8    10081003        1.273128    3.343348   -0.493962
     25          1    10011000        1.403036    4.335084   -0.496066
     26          6    10061003        2.641251    1.113919   -0.371193
     27          8    10081003        3.908142    0.875573    0.258723
     28          6    10061003        4.350300   -0.444972   -0.088809
     29          8    10081003        5.552852   -0.692815    0.653287
     30          1    10011000        5.375048   -0.597592    1.591860
     31          1    10011000       -5.071315   -0.366305    1.107035
     32          1    10011000       -2.307252   -3.206887    0.024547
     33          1    10011000       -2.682037   -1.118671    1.287429
     34          1    10011000       -3.652996   -0.028360   -1.336582
     35          1    10011000       -3.309782    1.191010    1.363975
     36          1    10011000       -1.737281    1.793773   -1.065877
     37          1    10011000       -0.623208    0.308073    1.291992
     38          1    10011000       -3.197332   -2.531398   -1.303513
     39          1    10011000        3.257041    3.104052   -0.248945
     40          1    10011000        2.287116    2.581449    1.069542
     41          1    10011000        2.759232    1.042730   -1.432284
     42          1    10011000        1.403410    0.230680    1.129310
     43          1    10011000        2.176379   -1.124058   -1.369127
     44          1    10011000        3.238004   -1.561029    1.322158
     45          1    10011000        4.564839   -0.483616   -1.136368
 ---------------------------------------------------------------------
 Rotational constants (GHZ):      0.4092891      0.1470392      0.1111212
 Leave Link  202 at Wed Apr 13 13:40:56 2016, MaxMem=   33554432 cpu:       0.0
 (Enter /usr/local/gaussian/g09/l301.exe)
 Standard basis: Dummy (5D, 7F)
 There are    45 symmetry adapted basis functions of A   symmetry.
 Integral buffers will be    131072 words long.
 Raffenetti 1 integral format.
 Two-electron integral symmetry is turned on.
    45 basis functions,    45 primitive gaussians,    45 cartesian basis functions
    34 alpha electrons       34 beta electrons
       nuclear repulsion energy       322.6916132761 Hartrees.
 IExCor=    0 DFT=F Ex=HF Corr=None ExCW=0 ScaHFX=  1.000000
 ScaDFX=  1.000000  1.000000  1.000000  1.000000 ScalE2=  1.000000  1.000000
 IRadAn=      0 IRanWt=     -1 IRanGd=            0 ICorTp=0
 NAtoms=   45 NActive=   45 NUniq=   45 SFac= 1.00D+00 NAtFMM=   50 NAOKFM=F Big=F
 Leave Link  301 at Wed Apr 13 13:40:56 2016, MaxMem=   33554432 cpu:       0.0
 (Enter /usr/local/gaussian/g09/l402.exe)
 UFF calculation of energy.
 Energy per function type:
 Direct Coulomb + vdW (small)                           0.086512630
 Direct Coulomb (large)                                 0.000000000
 Direct vdW (large)                                  2325.907511579
 Non-direct Coulomb + vdW (small)                      -0.020178617
 Non-direct Coulomb (large)                             0.000000000
 Non-direct vdW (large)                             -2325.747145830
 Harmonic stretch III                                   0.034189917
 UFF 3-term bend                                        0.107015449
 UFF torsion w/ sp3 V                                   0.002762930
 Energy per function class:
        Coulomb               0.000000000
    Vanderwaals               0.226699763
     Stretching               0.034189917
        Bending               0.107015449
        Torsion               0.002762930
 Energy=    0.370668059     NIter=   0.
 Dipole moment=       0.000000       0.000000       0.000000
 Leave Link  402 at Wed Apr 13 13:40:56 2016, MaxMem=   33554432 cpu:       0.0
 (Enter /usr/local/gaussian/g09/l9999.exe)
 1\1\GINC-NODE027\SP\RUFF\ZDO\C12H22O11\SRMCGRAT\13-Apr-2016\0\\#p uff 
 geom=connectivity\\10000.pdb\\0,1\O,0,16.573,24.974,28.213\C,0,16.143,
 24.57,29.521\C,0,16.78,23.262,29.961\O,0,16.46,22.156,29.104\H,0,16.32
 3,22.477,28.167\C,0,16.452,22.862,31.39\O,0,17.149,21.731,31.933\H,0,1
 6.601,21.398,32.701\C,0,16.005,27.02,30.164\O,0,16.561,27.595,28.973\H
 ,0,16.488,28.585,29.093\C,0,16.537,25.642,30.524\O,0,16.003,25.208,31.
 783\C,0,16.625,24.039,32.335\O,0,15.754,23.917,33.469\C,0,16.359,24.21
 2,34.736\C,0,15.866,25.578,35.184\O,0,15.805,26.563,34.142\H,0,15.744,
 26.125,33.245\C,0,16.396,25.864,36.579\O,0,15.83,27.124,36.97\H,0,16.2
 95,27.38,37.818\C,0,16.42,21.804,35.516\O,0,16.001,21.022,34.388\H,0,1
 6.057,20.029,34.494\C,0,15.95,23.219,35.812\O,0,16.531,23.463,37.101\C
 ,0,16.091,24.748,37.565\O,0,16.785,25.01,38.793\H,0,17.73194867,24.977
 08199,38.63871253\H,0,17.53239546,24.98405271,28.1804531\H,0,16.204927
 13,27.68122266,30.98113753\H,0,17.60404137,25.6846406,30.59111549\H,0,
 15.07859577,24.4607292,29.52287576\H,0,17.83975453,23.40082905,29.9105
 3395\H,0,15.41211636,22.61016767,31.40106728\H,0,17.64382327,24.208614
 06,32.61451783\H,0,14.94471353,26.94859661,30.03912347\H,0,16.17938886
 ,21.224992,36.38303865\H,0,17.48757096,21.85210742,35.46235376\H,0,14.
 88384466,23.22195811,35.90257619\H,0,17.42436139,24.22397303,34.637198
 43\H,0,14.82764545,25.40275421,35.37375968\H,0,17.45835685,25.97657262
 ,36.51878924\H,0,15.03786805,24.71684186,37.75166082\\Version=EM64L-G0
 9RevB.01\HF=0.3706681\RMSD=0.000e+00\Dipole=0.,0.,0.\PG=C01 [X(C12H22O
 11)]\\@


 ALMOST ANYTHING IS EASIER TO GET INTO THAN OUT OF.

                         -- AGNES ALLEN'S LAW FROM
                PAUL DICKSON'S "THE OFFICIAL RULES"
 Job cpu time:  0 days  0 hours  0 minutes  0.2 seconds.
 File lengths (MBytes):  RWF=      5 Int=      0 D2E=      0 Chk=      1 Scr=      1
 Normal termination of Gaussian 09 at Wed Apr 13 13:40:56 2016.
Gaussian '09 finished on node027 at Wed Apr 13 13:40:56 EDT 2016.
