Gaussian '09 started on node008 at Thu Mar 31 00:52:53 EDT 2016.
 Entering Gaussian System, Link 0=/usr/local/gaussian/g09/g09
 Initial command:
 /usr/local/gaussian/g09/l1.exe /home/srmcgrat/thesis/gaussian/cellobiose/493K/5855ps/1/2dp/gaussian5818/Gau-5854.inp -scrdir=/home/srmcgrat/thesis/gaussian/cellobiose/493K/5855ps/1/2dp/gaussian5818/
 Entering Link 1 = /usr/local/gaussian/g09/l1.exe PID=      5856.
  
 Copyright (c) 1988,1990,1992,1993,1995,1998,2003,2009,2010,
            Gaussian, Inc.  All Rights Reserved.
  
 This is part of the Gaussian(R) 09 program.  It is based on
 the Gaussian(R) 03 system (copyright 2003, Gaussian, Inc.),
 the Gaussian(R) 98 system (copyright 1998, Gaussian, Inc.),
 the Gaussian(R) 94 system (copyright 1995, Gaussian, Inc.),
 the Gaussian 92(TM) system (copyright 1992, Gaussian, Inc.),
 the Gaussian 90(TM) system (copyright 1990, Gaussian, Inc.),
 the Gaussian 88(TM) system (copyright 1988, Gaussian, Inc.),
 the Gaussian 86(TM) system (copyright 1986, Carnegie Mellon
 University), and the Gaussian 82(TM) system (copyright 1983,
 Carnegie Mellon University). Gaussian is a federally registered
 trademark of Gaussian, Inc.
  
 This software contains proprietary and confidential information,
 including trade secrets, belonging to Gaussian, Inc.
  
 This software is provided under written license and may be
 used, copied, transmitted, or stored only in accord with that
 written license.
  
 The following legend is applicable only to US Government
 contracts under FAR:
  
                    RESTRICTED RIGHTS LEGEND
  
 Use, reproduction and disclosure by the US Government is
 subject to restrictions as set forth in subparagraphs (a)
 and (c) of the Commercial Computer Software - Restricted
 Rights clause in FAR 52.227-19.
  
 Gaussian, Inc.
 340 Quinnipiac St., Bldg. 40, Wallingford CT 06492
  
  
 ---------------------------------------------------------------
 Warning -- This program may not be used in any manner that
 competes with the business of Gaussian, Inc. or will provide
 assistance to any competitor of Gaussian, Inc.  The licensee
 of this program is prohibited from giving any competitor of
 Gaussian, Inc. access to this program.  By using this program,
 the user acknowledges that Gaussian, Inc. is engaged in the
 business of creating and licensing software in the field of
 computational chemistry and represents and warrants to the
 licensee that it is not a competitor of Gaussian, Inc. and that
 it will not use this program in any manner prohibited above.
 ---------------------------------------------------------------
  

 Cite this work as:
 Gaussian 09, Revision B.01,
 M. J. Frisch, G. W. Trucks, H. B. Schlegel, G. E. Scuseria, 
 M. A. Robb, J. R. Cheeseman, G. Scalmani, V. Barone, B. Mennucci, 
 G. A. Petersson, H. Nakatsuji, M. Caricato, X. Li, H. P. Hratchian, 
 A. F. Izmaylov, J. Bloino, G. Zheng, J. L. Sonnenberg, M. Hada, 
 M. Ehara, K. Toyota, R. Fukuda, J. Hasegawa, M. Ishida, T. Nakajima, 
 Y. Honda, O. Kitao, H. Nakai, T. Vreven, J. A. Montgomery, Jr., 
 J. E. Peralta, F. Ogliaro, M. Bearpark, J. J. Heyd, E. Brothers, 
 K. N. Kudin, V. N. Staroverov, T. Keith, R. Kobayashi, J. Normand, 
 K. Raghavachari, A. Rendell, J. C. Burant, S. S. Iyengar, J. Tomasi, 
 M. Cossi, N. Rega, J. M. Millam, M. Klene, J. E. Knox, J. B. Cross, 
 V. Bakken, C. Adamo, J. Jaramillo, R. Gomperts, R. E. Stratmann, 
 O. Yazyev, A. J. Austin, R. Cammi, C. Pomelli, J. W. Ochterski, 
 R. L. Martin, K. Morokuma, V. G. Zakrzewski, G. A. Voth, 
 P. Salvador, J. J. Dannenberg, S. Dapprich, A. D. Daniels, 
 O. Farkas, J. B. Foresman, J. V. Ortiz, J. Cioslowski, 
 and D. J. Fox, Gaussian, Inc., Wallingford CT, 2010.
 
 ******************************************
 Gaussian 09:  EM64L-G09RevB.01 12-Aug-2010
                31-Mar-2016 
 ******************************************
 -------------------------------------------------
 # freq=raman b3lyp/6-31+g(2d,p) geom=connectivity
 -------------------------------------------------
 1/10=4,30=1,38=1,57=2/1,3;
 2/12=2,17=6,18=5,40=1/2;
 3/5=1,6=6,7=112,11=2,16=1,25=1,30=1,71=2,74=-5/1,2,3;
 4//1;
 5/5=2,38=5,98=1/2;
 8/6=4,10=90,11=11/1;
 10/13=10,15=4/2;
 11/6=3,8=1,9=11,15=111,16=1/1,2,10;
 10/6=1/2;
 6/7=2,8=2,9=2,10=2,18=1,28=1/1;
 7/8=1,10=1,25=1/1,2,3,16;
 1/10=4,30=1/3;
 99//99;
 -----------------
 493 5855/5855.com
 -----------------
 Symbolic Z-matrix:
 Charge =  0 Multiplicity = 1
 O                     7.721     7.797     12.231 
 C                     8.397     8.135     13.451 
 C                     7.741     9.381     14.024 
 O                     7.897     10.487    13.124 
 H                     7.349     10.386    12.294 
 C                     8.398     9.715     15.354 
 O                     7.943     10.971    15.878 
 H                     8.276     11.101    16.812 
 C                     8.626     5.642     14.125 
 O                     7.854     4.945     13.137 
 H                     7.791     3.968     13.341 
 C                     8.293     7.069     14.529 
 O                     8.885     7.403     15.793 
 C                     8.325     8.59      16.373 
 O                     9.077     8.777     17.58 
 C                     8.437     8.32      18.781 
 C                     9.016     6.955     19.114 
 O                     8.579     6.006     18.13 
 H                     9.057     6.199     17.274 
 C                     8.576     6.598     20.524 
 O                     8.922     5.337     21.117 
 H                     8.676     5.234     22.081 
 C                     8.176     10.69     19.588 
 O                     8.477     11.473    18.424 
 H                     8.366     12.423    18.716 
 C                     8.785     9.325     19.867 
 O                     8.289     8.954     21.162 
 C                     8.842     7.688     21.549 
 O                     8.144     7.432     22.776 
 H                     8.77907   7.28496   23.48075 
 H                     9.89222   7.7811    21.73139 
 H                     7.50925   6.56035   20.44967 
 H                     10.08402   7.01471   19.08825 
 H                     7.37731   8.25984   18.64555 
 H                     9.84917   9.42392   19.91862 
 H                     8.41348   11.30313   20.43214 
 H                     7.11496   10.55186   19.59099 
 H                     8.36867   7.60781   11.54811 
 H                     8.59412   5.05163   15.01683 
 H                     9.6393    5.64532   13.78132 
 H                     7.24483   7.03311   14.741 
 H                     9.42757   8.33601   13.24502 
 H                     6.69901   9.1941    14.17966 
 H                     9.43811   9.84701   15.14037 
 H                     7.30034   8.40928   16.62264 
 

 GradGradGradGradGradGradGradGradGradGradGradGradGradGradGradGradGradGrad
 Berny optimization.
 Initialization pass.
 Trust Radius=3.00D-01 FncErr=1.00D-07 GrdErr=1.00D-07
 Number of steps in this run=      2 maximum allowed number of steps=      2.
 GradGradGradGradGradGradGradGradGradGradGradGradGradGradGradGradGradGrad

                          Input orientation:                          
 ---------------------------------------------------------------------
 Center     Atomic      Atomic             Coordinates (Angstroms)
 Number     Number       Type             X           Y           Z
 ---------------------------------------------------------------------
      1          8           0        7.721000    7.797000   12.231000
      2          6           0        8.397000    8.135000   13.451000
      3          6           0        7.741000    9.381000   14.024000
      4          8           0        7.897000   10.487000   13.124000
      5          1           0        7.349000   10.386000   12.294000
      6          6           0        8.398000    9.715000   15.354000
      7          8           0        7.943000   10.971000   15.878000
      8          1           0        8.276000   11.101000   16.812000
      9          6           0        8.626000    5.642000   14.125000
     10          8           0        7.854000    4.945000   13.137000
     11          1           0        7.791000    3.968000   13.341000
     12          6           0        8.293000    7.069000   14.529000
     13          8           0        8.885000    7.403000   15.793000
     14          6           0        8.325000    8.590000   16.373000
     15          8           0        9.077000    8.777000   17.580000
     16          6           0        8.437000    8.320000   18.781000
     17          6           0        9.016000    6.955000   19.114000
     18          8           0        8.579000    6.006000   18.130000
     19          1           0        9.057000    6.199000   17.274000
     20          6           0        8.576000    6.598000   20.524000
     21          8           0        8.922000    5.337000   21.117000
     22          1           0        8.676000    5.234000   22.081000
     23          6           0        8.176000   10.690000   19.588000
     24          8           0        8.477000   11.473000   18.424000
     25          1           0        8.366000   12.423000   18.716000
     26          6           0        8.785000    9.325000   19.867000
     27          8           0        8.289000    8.954000   21.162000
     28          6           0        8.842000    7.688000   21.549000
     29          8           0        8.144000    7.432000   22.776000
     30          1           0        8.779066    7.284962   23.480749
     31          1           0        9.892222    7.781095   21.731394
     32          1           0        7.509249    6.560351   20.449672
     33          1           0       10.084022    7.014706   19.088246
     34          1           0        7.377315    8.259835   18.645547
     35          1           0        9.849167    9.423917   19.918618
     36          1           0        8.413484   11.303127   20.432142
     37          1           0        7.114959   10.551858   19.590991
     38          1           0        8.368668    7.607807   11.548115
     39          1           0        8.594122    5.051634   15.016825
     40          1           0        9.639299    5.645318   13.781324
     41          1           0        7.244827    7.033109   14.741001
     42          1           0        9.427567    8.336013   13.245024
     43          1           0        6.699013    9.194096   14.179656
     44          1           0        9.438113    9.847006   15.140366
     45          1           0        7.300343    8.409283   16.622640
 ---------------------------------------------------------------------
                    Distance matrix (angstroms):
                    1          2          3          4          5
     1  O    0.000000
     2  C    1.435138   0.000000
     3  C    2.392552   1.520257   0.000000
     4  O    2.839811   2.426692   1.434424   0.000000
     5  H    2.616347   2.739335   2.038771   0.999702   0.000000
     6  C    3.726953   2.473421   1.520561   2.412444   3.303671
     7  O    4.839852   3.760232   2.450759   2.796585   3.679690
     8  H    5.675386   4.484208   3.319272   3.757922   4.667213
     9  C    3.008369   2.592637   3.843637   5.000747   5.242979
    10  O    2.995401   3.251084   4.525222   5.542182   5.529028
    11  H    3.987260   4.212271   5.456149   6.523472   6.517845
    12  C    2.477493   1.519624   2.430036   3.716660   4.109605
    13  O    3.768020   2.501786   2.889737   4.196518   4.847740
    14  C    4.260262   2.958089   2.546476   3.786528   4.562503
    15  O    5.604546   4.233581   3.846407   4.916547   5.789358
    16  C    6.609742   5.333360   4.923331   6.081870   6.894438
    17  C    7.054196   5.817657   5.780934   7.043244   7.814285
    18  O    6.224311   5.143812   5.380716   6.753112   7.399743
    19  H    5.456221   4.335784   4.734921   6.079066   6.726710
    20  C    8.422736   7.240286   7.119854   8.387214   9.142613
    21  O    9.298118   8.177529   8.249809   9.563534  10.286499
    22  H   10.222695   9.108817   9.109725  10.412910  11.139542
    23  C    7.918455   6.651288   5.732434   6.473202   7.347025
    24  O    7.241392   5.989939   4.927287   5.422047   6.326994
    25  H    7.991941   6.790297   5.626656   5.936204   6.813644
    26  C    7.859731   6.536949   5.935800   6.899771   7.780626
    27  O    9.023527   7.755124   7.171728   8.192264   9.031924
    28  C    9.385822   8.122527   7.791282   8.927937   9.755167
    29  O   10.559791   9.354883   8.975439  10.126951  10.919270
    30  H   11.310992  10.072954   9.741718  10.876274  11.696362
    31  H    9.745355   8.421750   8.160354   9.240675  10.115232
    32  H    8.313886   7.228349   7.021327   8.320721   9.009787
    33  H    7.295045   5.989962   6.060997   7.239622   8.062738
    34  H    6.440400   5.295155   4.769484   5.976439   6.698024
    35  H    8.140972   6.752791   6.260410   7.148981   8.081537
    36  H    8.946016   7.666397   6.723920   7.371687   8.258548
    37  H    7.882004   6.721928   5.723131   6.514428   7.302627
    38  H    0.960000   1.974768   3.109371   3.315967   3.051954
    39  H    4.007517   3.463786   4.522933   5.797583   6.117153
    40  H    3.273089   2.801953   4.197351   5.187443   5.470985
    41  H    2.666529   2.050798   2.504570   3.869029   4.152174
    42  H    2.056976   1.070000   2.131504   2.642730   3.070396
    43  H    2.606453   2.129738   1.070000   2.054553   2.323536
    44  H    3.951634   2.620847   2.084137   2.617318   3.571653
    45  H    4.454025   3.367074   2.809153   4.112589   4.758876
                    6          7          8          9         10
     6  C    0.000000
     7  O    1.434969   0.000000
     8  H    2.015352   1.000072   0.000000
     9  C    4.260488   5.651348   6.094518   0.000000
    10  O    5.288093   6.620701   7.181925   1.434551   0.000000
    11  H    6.119528   7.449932   7.947500   2.028338   1.000057
    12  C    2.773620   4.143417   4.633509   1.520011   2.577161
    13  O    2.403172   3.691235   3.883870   2.439350   3.762853
    14  C    1.519643   2.461729   2.549557   3.719517   4.896893
    15  O    2.509175   2.999399   2.575345   4.687073   5.993346
    16  C    3.700253   3.962227   3.411282   5.374546   6.601913
    17  C    4.705011   5.267948   4.799596   5.173605   6.412088
    18  O    4.636337   5.488827   5.271428   4.021782   5.155715
    19  H    4.059918   5.095272   4.985279   3.226796   4.487148
    20  C    6.039559   6.411641   5.843454   6.470212   7.604042
    21  O    7.256282   7.755483   7.223160   7.004906   8.060688
    22  H    8.087594   8.481018   7.895825   7.966612   8.986342
    23  C    4.350479   3.727915   2.808041   7.451790   8.644311
    24  O    3.538602   2.649392   1.666532   7.245976   8.423496
    25  H    4.317098   3.215817   2.319698   8.193097   9.343868
    26  C    4.546321   4.396635   3.570194   6.823513   8.083567
    27  O    5.858657   5.666450   4.851008   7.784747   8.981199
    28  C    6.533291   6.614116   5.865841   7.703801   8.902917
    29  O    7.769343   7.755471   7.003448   8.847385   9.958895
    30  H    8.490839   8.490446   7.699834   9.500147  10.645389
    31  H    6.829630   6.945300   6.150966   8.002267   9.276928
    32  H    6.058677   6.367272   5.868395   6.487833   7.496891
    33  H    4.907021   5.526475   5.014782   5.352005   6.683862
    34  H    3.740800   3.915320   3.498821   5.370998   6.446662
    35  H    4.798578   4.727952   3.865040   7.026026   8.368497
    36  H    5.320707   4.590411   3.628386   8.477828   9.693189
    37  H    4.505399   3.827223   3.061432   7.501134   8.581202
    38  H    4.350389   5.499106   6.318186   3.251301   3.143244
    39  H    4.679651   6.017015   6.318123   1.070000   2.023090
    40  H    4.536127   5.969621   6.388118   1.070000   2.023090
    41  H    2.982971   4.157788   4.679754   2.054819   2.702612
    42  H    2.722020   4.009945   4.657744   2.945263   3.739887
    43  H    2.130019   2.754862   3.612811   4.041491   4.525035
    44  H    1.070000   2.010679   2.391102   4.401429   5.527437
    45  H    2.125840   2.744065   2.869339   3.956441   4.945450
                   11         12         13         14         15
    11  H    0.000000
    12  C    3.358504   0.000000
    13  O    4.359858   1.435171   0.000000
    14  C    5.553473   2.390565   1.434911   0.000000
    15  O    6.538302   3.583367   2.262324   1.434337   0.000000
    16  C    6.996486   4.434551   3.157489   2.425677   1.435566
    17  C    6.614403   4.643054   3.353641   3.265545   2.382553
    18  O    5.263925   3.765497   2.739857   3.135063   2.868614
    19  H    4.695594   2.979198   1.916393   2.657914   2.596174
    20  C    7.689513   6.020129   4.808936   4.611059   3.696779
    21  O    7.976183   6.840849   5.710928   5.783075   4.936395
    22  H    8.875448   7.781171   6.654862   6.630777   5.742182
    23  C    9.184689   6.222444   5.070412   3.842971   2.916065
    24  O    9.090243   5.882185   4.863489   3.541383   2.888036
    25  H   10.035351   6.797177   5.832126   4.492574   3.884499
    26  C    8.501421   5.815999   4.505725   3.599981   2.369797
    27  O    9.288500   6.895646   5.620229   4.802948   3.671920
    28  C    9.072721   7.068590   5.763212   5.279381   4.122391
    29  O   10.056994   8.256330   7.022265   6.509388   5.447745
    30  H   10.714151   8.967537   7.689385   7.240815   6.093750
    31  H    9.452700   7.412090   6.035063   5.641179   4.346319
    32  H    7.571848   5.993942   4.928219   4.626465   3.950493
    33  H    6.897188   4.898717   3.528041   3.598371   2.528751
    34  H    6.835876   4.382069   3.338309   2.484268   2.071661
    35  H    8.790230   6.084018   4.694087   3.948406   2.546346
    36  H   10.221344   7.265634   6.079059   4.883188   3.867336
    37  H    9.103109   6.256343   5.241477   3.958352   3.323223
    38  H    4.098333   3.030135   4.281074   4.924036   6.184852
    39  H    2.151199   2.097239   2.493187   3.798904   4.547680
    40  H    2.534461   2.097239   2.775834   4.137067   4.955154
    41  H    3.413678   1.070000   1.983353   2.500821   3.802359
    42  H    4.665523   2.131000   2.767142   3.326319   4.371428
    43  H    5.404429   2.679341   3.254142   2.796341   4.170267
    44  H    6.365015   3.066329   2.589408   2.082900   2.688332
    45  H    5.543906   2.676762   2.052326   1.070000   2.051405
                   16         17         18         19         20
    16  C    0.000000
    17  C    1.519656   0.000000
    18  O    2.408020   1.435209   0.000000
    19  H    2.674713   1.989678   0.999234   0.000000
    20  C    2.454110   1.519588   2.466112   3.309541   0.000000
    21  O    3.819740   2.576581   3.080159   3.940802   1.435788
    22  H    4.524436   3.446814   4.026884   4.917686   2.072377
    23  C    2.517195   3.857525   4.922198   5.128337   4.216700
    24  O    3.173398   4.602059   5.475850   5.428994   5.308995
    25  H    4.104129   5.520863   6.447221   6.426120   6.102753
    26  C    1.520041   2.497453   3.751715   4.070566   2.812803
    27  O    2.468405   2.952767   4.238847   4.826634   2.457671
    28  C    2.867974   2.548880   3.819405   4.531994   1.519698
    29  O    4.102977   3.794490   4.879346   5.711905   2.440017
    30  H    4.824516   4.385603   5.505115   6.307162   3.042288
    31  H    3.333604   2.881137   4.224400   4.803018   2.142418
    32  H    2.596450   2.051845   2.613915   3.551197   1.070000
    33  H    2.123882   1.070000   2.049589   2.238669   2.123479
    34  H    1.070000   2.146470   2.605688   2.991576   2.779771
    35  H    2.122975   2.727110   4.061359   4.245188   3.158045
    36  H    3.409673   4.583310   5.778132   6.036563   4.708829
    37  H    2.717548   4.096201   4.994270   5.299749   4.317191
    38  H    7.268185   7.621537   6.777259   5.936691   9.034889
    39  H    4.987576   4.537359   3.256210   2.574013   5.720188
    40  H    5.796224   5.526410   4.490580   3.583912   6.892161
    41  H    4.404425   4.718715   3.784215   3.224251   5.950161
    42  H    5.623923   6.043299   5.478323   4.575674   7.531889
    43  H    4.995699   5.893193   5.413273   4.909752   7.107284
    44  H    4.072860   4.932712   4.942602   4.243299   6.346873
    45  H    2.440999   3.356381   3.111730   2.897492   4.486497
                   21         22         23         24         25
    21  O    0.000000
    22  H    1.000210   0.000000
    23  C    5.616847   6.019384   0.000000
    24  O    6.715711   7.234526   1.434777   0.000000
    25  H    7.502355   7.943617   1.949301   1.000042   0.000000
    26  C    4.181556   4.652952   1.520509   2.605958   3.331361
    27  O    3.672248   3.851328   2.346048   3.725231   4.245328
    28  C    2.391699   2.516485   3.647065   4.921897   5.538293
    29  O    2.783270   2.365851   4.558391   5.948149   6.437621
    30  H    3.066316   2.485229   5.206868   6.572794   7.019465
    31  H    2.700446   2.844136   4.000161   5.154791   5.741885
    32  H    1.984384   2.404526   4.270953   5.401297   6.173354
    33  H    2.877644   3.756330   4.171102   4.785408   5.686811
    34  H    4.127602   4.758634   2.726136   3.403354   4.279533
    35  H    4.358744   4.858768   2.124091   2.883655   3.555358
    36  H    6.026798   6.294597   1.070000   2.016315   2.049760
    37  H    5.726154   6.075903   1.070000   2.016315   2.414930
    38  H    9.850193  10.801439   8.612595   7.888552   8.635084
    39  H    6.115642   7.067003   7.270601   7.270248   8.250635
    40  H    7.377108   8.365510   7.829914   7.541038   8.479935
    41  H    6.807573   7.691595   6.142747   5.898760   6.790329
    42  H    8.439057   9.394776   6.880481   6.129115   6.911003
    43  H    8.242912   9.056604   5.802534   5.135085   5.812322
    44  H    7.505110   8.368575   4.699470   3.788119   4.535452
    45  H    5.680490   6.462859   3.842110   3.743766   4.650560
                   26         27         28         29         30
    26  C    0.000000
    27  O    1.435508   0.000000
    28  C    2.347795   1.434690   0.000000
    29  O    3.529392   2.223175   1.434667   0.000000
    30  H    4.149816   2.898698   1.974349   0.960000   0.000000
    31  H    2.661869   2.066455   1.070000   2.066240   2.132019
    32  H    3.100054   2.616291   2.063090   2.564076   3.365253
    33  H    2.762495   3.359081   2.837473   4.187762   4.590211
    34  H    2.146649   2.765062   3.301869   4.281794   5.127813
    35  H    1.070000   2.049620   2.585718   3.878139   4.290574
    36  H    2.090549   2.463044   3.807905   4.533422   5.057006
    37  H    2.090549   2.529741   3.875326   4.575666   5.345285
    38  H    8.504466   9.708006  10.012402  11.231509  11.944054
    39  H    6.467015   7.285927   7.048488   8.128564   8.755568
    40  H    7.162775   8.200309   8.071247   9.291520   9.874578
    41  H    5.822436   6.783019   7.023439   8.094988   8.876965
    42  H    6.726184   8.022266   8.349780   9.659415  10.309963
    43  H    6.059237   7.165112   7.820994   8.893261   9.720172
    44  H    4.800012   6.194998   6.788759   8.112329   8.749880
    45  H    3.683560   4.677601   5.212099   6.287343   7.105236
                   31         32         33         34         35
    31  H    0.000000
    32  H    2.968432   0.000000
    33  H    2.758691   2.947775   0.000000
    34  H    4.009539   2.482040   3.012075   0.000000
    35  H    2.446809   3.735940   2.559097   3.014274   0.000000
    36  H    4.034778   4.828238   4.794509   3.677933   2.419984
    37  H    4.468964   4.101820   4.645378   2.493203   2.975816
    38  H   10.298079   9.004082   7.755501   7.195934   8.692265
    39  H    7.363455   5.741864   4.759194   4.994076   6.687270
    40  H    8.235844   7.059834   5.498765   5.967658   7.210287
    41  H    7.512242   5.734312   5.192293   4.094862   6.269471
    42  H    8.517178   7.664194   6.026610   5.777109   6.774817
    43  H    8.319970   6.848809   6.348408   4.612713   6.550723
    44  H    6.922128   6.535392   4.901518   4.364893   4.814526
    45  H    5.762970   4.255393   3.971515   2.029880   4.288293
                   36         37         38         39         40
    36  H    0.000000
    37  H    1.719915   0.000000
    38  H    9.622024   8.656043   0.000000
    39  H    8.272814   7.305024   4.314719   0.000000
    40  H    8.817415   8.012407   3.233125   1.723752   0.000000
    41  H    7.210264   5.993402   3.433340   2.413072   2.929239
    42  H    7.841352   7.108405   2.128627   3.823749   2.751780
    43  H    6.817698   5.594557   3.497009   4.631660   4.625773
    44  H    5.583283   5.069706   4.366005   4.870645   4.420595
    45  H    4.911795   3.665529   5.247331   3.940344   4.602531
                   41         42         43         44         45
    41  H    0.000000
    42  H    2.949553   0.000000
    43  H    2.298453   3.009128   0.000000
    44  H    3.589988   2.423950   2.975219   0.000000
    45  H    2.331845   3.992335   2.635469   2.972245   0.000000
 Stoichiometry    C12H22O11
 Framework group  C1[X(C12H22O11)]
 Deg. of freedom   129
 Full point group                 C1      NOp   1
 Largest Abelian subgroup         C1      NOp   1
 Largest concise Abelian subgroup C1      NOp   1
                         Standard orientation:                         
 ---------------------------------------------------------------------
 Center     Atomic      Atomic             Coordinates (Angstroms)
 Number     Number       Type             X           Y           Z
 ---------------------------------------------------------------------
      1          8           0        5.029797   -0.428568   -0.374797
      2          6           0        3.774176   -0.104189    0.239868
      3          6           0        3.269455    1.191771   -0.374074
      4          8           0        4.177705    2.265591   -0.092005
      5          1           0        5.040206    2.178894   -0.589983
      6          6           0        1.905282    1.515807    0.214260
      7          8           0        1.436290    2.808528   -0.195685
      8          1           0        0.484851    2.939477    0.083173
      9          6           0        3.039815   -2.590459    0.270559
     10          8           0        4.063626   -3.262031   -0.476931
     11          1           0        3.845965   -4.228566   -0.613118
     12          6           0        2.685649   -1.137170    0.000465
     13          8           0        1.391632   -0.810723    0.528357
     14          6           0        0.872449    0.420738    0.005940
     15          8           0       -0.378080    0.589559    0.687849
     16          6           0       -1.542315    0.199387   -0.055907
     17          6           0       -1.938558   -1.190060    0.415033
     18          8           0       -0.945700   -2.133187   -0.014581
     19          1           0       -0.119843   -1.988858    0.529109
     20          6           0       -3.322694   -1.487721   -0.136976
     21          8           0       -3.960902   -2.753435    0.091378
     22          1           0       -4.908211   -2.819459   -0.222735
     23          6           0       -2.285611    2.598562   -0.222462
     24          8           0       -1.129672    3.335311    0.201322
     25          1           0       -1.395788    4.296673    0.130255
     26          6           0       -2.629973    1.206080    0.281873
     27          8           0       -3.895929    0.895200   -0.319286
     28          6           0       -4.342460   -0.392657    0.128339
     29          8           0       -5.525013   -0.578161   -0.662499
     30          1           0       -6.272993   -0.747082   -0.084924
     31          1           0       -4.592378   -0.358833    1.168193
     32          1           0       -3.178447   -1.462758   -1.196915
     33          1           0       -1.982631   -1.195367    1.484112
     34          1           0       -1.337981    0.200064   -1.106215
     35          1           0       -2.750243    1.241896    1.344489
     36          1           0       -3.132003    3.215341   -0.003137
     37          1           0       -2.220764    2.524657   -1.287935
     38          1           0        5.664521   -0.671913    0.303074
     39          1           0        2.141155   -3.157374    0.144395
     40          1           0        3.315481   -2.655982    1.302361
     41          1           0        2.543048   -1.105051   -1.059504
     42          1           0        3.915033    0.029669    1.292076
     43          1           0        3.179821    1.071534   -1.433512
     44          1           0        2.051849    1.580052    1.272226
     45          1           0        0.688021    0.307773   -1.041975
 ---------------------------------------------------------------------
 Rotational constants (GHZ):      0.4080586      0.1458120      0.1100577
 Standard basis: 6-31+G(2d,p) (6D, 7F)
 There are   685 symmetry adapted basis functions of A   symmetry.
 Integral buffers will be    131072 words long.
 Raffenetti 2 integral format.
 Two-electron integral symmetry is turned on.
   685 basis functions,  1028 primitive gaussians,   685 cartesian basis functions
    91 alpha electrons       91 beta electrons
       nuclear repulsion energy      2286.3097028550 Hartrees.
 NAtoms=   45 NActive=   45 NUniq=   45 SFac= 1.00D+00 NAtFMM=   50 NAOKFM=F Big=F
 One-electron integrals computed using PRISM.
 NBasis=   685 RedAO= T  NBF=   685
 NBsUse=   685 1.00D-06 NBFU=   685
 Harris functional with IExCor=  402 diagonalized for initial guess.
 ExpMin= 4.38D-02 ExpMax= 5.48D+03 ExpMxC= 8.25D+02 IAcc=2 IRadAn=         0 AccDes= 0.00D+00
 HarFok:  IExCor=  402 AccDes= 0.00D+00 IRadAn=         0 IDoV= 1
 ScaDFX=  1.000000  1.000000  1.000000  1.000000
 FoFCou: FMM=F IPFlag=           0 FMFlag=      100000 FMFlg1=           0
         NFxFlg=           0 DoJE=T BraDBF=F KetDBF=T FulRan=T
         Omega=  0.000000  0.000000  1.000000  0.000000  0.000000 ICntrl=     500 IOpCl=  0
         NMat0=    1 NMatS0=    1 NMatT0=    0 NMatD0=    1 NMtDS0=    0 NMtDT0=    0
         I1Cent=           4 NGrid=           0.
 Petite list used in FoFCou.
 Initial guess orbital symmetries:
       Occupied  (A) (A) (A) (A) (A) (A) (A) (A) (A) (A) (A) (A)
                 (A) (A) (A) (A) (A) (A) (A) (A) (A) (A) (A) (A)
                 (A) (A) (A) (A) (A) (A) (A) (A) (A) (A) (A) (A)
                 (A) (A) (A) (A) (A) (A) (A) (A) (A) (A) (A) (A)
                 (A) (A) (A) (A) (A) (A) (A) (A) (A) (A) (A) (A)
                 (A) (A) (A) (A) (A) (A) (A) (A) (A) (A) (A) (A)
                 (A) (A) (A) (A) (A) (A) (A) (A) (A) (A) (A) (A)
                 (A) (A) (A) (A) (A) (A) (A)
       Virtual   (A) (A) (A) (A) (A) (A) (A) (A) (A) (A) (A) (A)
                 (A) (A) (A) (A) (A) (A) (A) (A) (A) (A) (A) (A)
                 (A) (A) (A) (A) (A) (A) (A) (A) (A) (A) (A) (A)
                 (A) (A) (A) (A) (A) (A) (A) (A) (A) (A) (A) (A)
                 (A) (A) (A) (A) (A) (A) (A) (A) (A) (A) (A) (A)
                 (A) (A) (A) (A) (A) (A) (A) (A) (A) (A) (A) (A)
                 (A) (A) (A) (A) (A) (A) (A) (A) (A) (A) (A) (A)
                 (A) (A) (A) (A) (A) (A) (A) (A) (A) (A) (A) (A)
                 (A) (A) (A) (A) (A) (A) (A) (A) (A) (A) (A) (A)
                 (A) (A) (A) (A) (A) (A) (A) (A) (A) (A) (A) (A)
                 (A) (A) (A) (A) (A) (A) (A) (A) (A) (A) (A) (A)
                 (A) (A) (A) (A) (A) (A) (A) (A) (A) (A) (A) (A)
                 (A) (A) (A) (A) (A) (A) (A) (A) (A) (A) (A) (A)
                 (A) (A) (A) (A) (A) (A) (A) (A) (A) (A) (A) (A)
                 (A) (A) (A) (A) (A) (A) (A) (A) (A) (A) (A) (A)
                 (A) (A) (A) (A) (A) (A) (A) (A) (A) (A) (A) (A)
                 (A) (A) (A) (A) (A) (A) (A) (A) (A) (A) (A) (A)
                 (A) (A) (A) (A) (A) (A) (A) (A) (A) (A) (A) (A)
                 (A) (A) (A) (A) (A) (A) (A) (A) (A) (A) (A) (A)
                 (A) (A) (A) (A) (A) (A) (A) (A) (A) (A) (A) (A)
                 (A) (A) (A) (A) (A) (A) (A) (A) (A) (A) (A) (A)
                 (A) (A) (A) (A) (A) (A) (A) (A) (A) (A) (A) (A)
                 (A) (A) (A) (A) (A) (A) (A) (A) (A) (A) (A) (A)
                 (A) (A) (A) (A) (A) (A) (A) (A) (A) (A) (A) (A)
                 (A) (A) (A) (A) (A) (A) (A) (A) (A) (A) (A) (A)
                 (A) (A) (A) (A) (A) (A) (A) (A) (A) (A) (A) (A)
                 (A) (A) (A) (A) (A) (A) (A) (A) (A) (A) (A) (A)
                 (A) (A) (A) (A) (A) (A) (A) (A) (A) (A) (A) (A)
                 (A) (A) (A) (A) (A) (A) (A) (A) (A) (A) (A) (A)
                 (A) (A) (A) (A) (A) (A) (A) (A) (A) (A) (A) (A)
                 (A) (A) (A) (A) (A) (A) (A) (A) (A) (A) (A) (A)
                 (A) (A) (A) (A) (A) (A) (A) (A) (A) (A) (A) (A)
                 (A) (A) (A) (A) (A) (A) (A) (A) (A) (A) (A) (A)
                 (A) (A) (A) (A) (A) (A) (A) (A) (A) (A) (A) (A)
                 (A) (A) (A) (A) (A) (A) (A) (A) (A) (A) (A) (A)
                 (A) (A) (A) (A) (A) (A) (A) (A) (A) (A) (A) (A)
                 (A) (A) (A) (A) (A) (A) (A) (A) (A) (A) (A) (A)
                 (A) (A) (A) (A) (A) (A) (A) (A) (A) (A) (A) (A)
                 (A) (A) (A) (A) (A) (A) (A) (A) (A) (A) (A) (A)
                 (A) (A) (A) (A) (A) (A) (A) (A) (A) (A) (A) (A)
                 (A) (A) (A) (A) (A) (A) (A) (A) (A) (A) (A) (A)
                 (A) (A) (A) (A) (A) (A) (A) (A) (A) (A) (A) (A)
                 (A) (A) (A) (A) (A) (A) (A) (A) (A) (A) (A) (A)
                 (A) (A) (A) (A) (A) (A) (A) (A) (A) (A) (A) (A)
                 (A) (A) (A) (A) (A) (A) (A) (A) (A) (A) (A) (A)
                 (A) (A) (A) (A) (A) (A) (A) (A) (A) (A) (A) (A)
                 (A) (A) (A) (A) (A) (A) (A) (A) (A) (A) (A) (A)
                 (A) (A) (A) (A) (A) (A) (A) (A) (A) (A) (A) (A)
                 (A) (A) (A) (A) (A) (A) (A) (A) (A) (A) (A) (A)
                 (A) (A) (A) (A) (A) (A)
 The electronic state of the initial guess is 1-A.
 Requested convergence on RMS density matrix=1.00D-08 within 128 cycles.
 Requested convergence on MAX density matrix=1.00D-06.
 Requested convergence on             energy=1.00D-06.
 No special actions if energy rises.
 SCF Done:  E(RB3LYP) =  -1297.97728970     A.U. after   13 cycles
             Convg  =    0.5784D-08             -V/T =  2.0065
 Range of M.O.s used for correlation:     1   685
 NBasis=   685 NAE=    91 NBE=    91 NFC=     0 NFV=     0
 NROrb=    685 NOA=    91 NOB=    91 NVA=   594 NVB=   594

 **** Warning!!: The largest alpha MO coefficient is  0.72841730D+02

          Differentiating once with respect to electric field.
                with respect to dipole field.
          Electric field/nuclear overlap derivatives assumed to be zero.
          There are     3 degrees of freedom in the 1st order CPHF.  IDoFFX=0.
      3 vectors produced by pass  0 Test12= 1.80D-12 3.33D-08 XBig12= 1.25D+02 1.10D+00.
 AX will form     3 AO Fock derivatives at one time.
      3 vectors produced by pass  1 Test12= 1.80D-12 3.33D-08 XBig12= 2.44D+01 4.56D-01.
      3 vectors produced by pass  2 Test12= 1.80D-12 3.33D-08 XBig12= 1.03D+01 2.42D-01.
      3 vectors produced by pass  3 Test12= 1.80D-12 3.33D-08 XBig12= 1.08D+00 1.14D-01.
      3 vectors produced by pass  4 Test12= 1.80D-12 3.33D-08 XBig12= 2.73D-01 4.80D-02.
      3 vectors produced by pass  5 Test12= 1.80D-12 3.33D-08 XBig12= 5.98D-02 1.85D-02.
      3 vectors produced by pass  6 Test12= 1.80D-12 3.33D-08 XBig12= 1.95D-02 1.98D-02.
      3 vectors produced by pass  7 Test12= 1.80D-12 3.33D-08 XBig12= 3.18D-03 7.96D-03.
      3 vectors produced by pass  8 Test12= 1.80D-12 3.33D-08 XBig12= 5.14D-04 2.47D-03.
      3 vectors produced by pass  9 Test12= 1.80D-12 3.33D-08 XBig12= 1.94D-04 1.42D-03.
      3 vectors produced by pass 10 Test12= 1.80D-12 3.33D-08 XBig12= 3.82D-05 7.20D-04.
      3 vectors produced by pass 11 Test12= 1.80D-12 3.33D-08 XBig12= 1.01D-05 3.38D-04.
      3 vectors produced by pass 12 Test12= 1.80D-12 3.33D-08 XBig12= 1.29D-06 1.48D-04.
      3 vectors produced by pass 13 Test12= 1.80D-12 3.33D-08 XBig12= 5.21D-07 7.34D-05.
      3 vectors produced by pass 14 Test12= 1.80D-12 3.33D-08 XBig12= 7.01D-08 3.73D-05.
      3 vectors produced by pass 15 Test12= 1.80D-12 3.33D-08 XBig12= 1.52D-08 1.47D-05.
      3 vectors produced by pass 16 Test12= 1.80D-12 3.33D-08 XBig12= 1.55D-09 5.50D-06.
      3 vectors produced by pass 17 Test12= 1.80D-12 3.33D-08 XBig12= 1.71D-10 1.73D-06.
      3 vectors produced by pass 18 Test12= 1.80D-12 3.33D-08 XBig12= 2.51D-11 3.77D-07.
      3 vectors produced by pass 19 Test12= 1.80D-12 3.33D-08 XBig12= 1.78D-11 2.80D-07.
      3 vectors produced by pass 20 Test12= 1.80D-12 3.33D-08 XBig12= 1.06D-11 2.48D-07.
      2 vectors produced by pass 21 Test12= 1.80D-12 3.33D-08 XBig12= 2.61D-12 1.06D-07.
      2 vectors produced by pass 22 Test12= 1.80D-12 3.33D-08 XBig12= 4.52D-13 5.54D-08.
 Inverted reduced A of dimension    67 with in-core refinement.
 End of Minotr Frequency-dependent properties file   721 does not exist.
 End of Minotr Frequency-dependent properties file   722 does not exist.
 Symmetrizing basis deriv contribution to polar:
 IMax=3 JMax=2 DiffMx= 0.00D+00
 G2DrvN: will do    16 centers at a time, making    3 passes doing MaxLOS=2.
 Calling FoFCou, ICntrl=  3107 FMM=F I1Cent=   0 AccDes= 0.00D+00.
 Calling FoFCou, ICntrl=  3107 FMM=F I1Cent=   0 AccDes= 0.00D+00.
 Calling FoFCou, ICntrl=  3107 FMM=F I1Cent=   0 AccDes= 0.00D+00.
 FoFDir/FoFCou used for L=0 through L=2.
 End of G2Drv Frequency-dependent properties file   721 does not exist.
 End of G2Drv Frequency-dependent properties file   722 does not exist.
          IDoAtm=111111111111111111111111111111111111111111111
          Differentiating once with respect to electric field.
                with respect to dipole field.
          Differentiating once with respect to nuclear coordinates.
          There are   138 degrees of freedom in the 1st order CPHF.  IDoFFX=5.
 Will reuse    3 saved solutions.
    135 vectors produced by pass  0 Test12= 5.41D-14 1.00D-09 XBig12= 1.91D-01 1.14D-01.
 AX will form    45 AO Fock derivatives at one time.
    135 vectors produced by pass  1 Test12= 5.41D-14 1.00D-09 XBig12= 1.51D-02 1.07D-02.
    132 vectors produced by pass  2 Test12= 5.41D-14 1.00D-09 XBig12= 1.91D-04 1.72D-03.
