Gaussian '09 started on node008 at Thu Mar 31 00:52:53 EDT 2016.
 Entering Gaussian System, Link 0=/usr/local/gaussian/g09/g09
 Initial command:
 /usr/local/gaussian/g09/l1.exe /home/srmcgrat/thesis/gaussian/cellobiose/493K/5855ps/1/2dp/gaussian5818/Gau-5854.inp -scrdir=/home/srmcgrat/thesis/gaussian/cellobiose/493K/5855ps/1/2dp/gaussian5818/
 Entering Link 1 = /usr/local/gaussian/g09/l1.exe PID=      5856.
  
 Copyright (c) 1988,1990,1992,1993,1995,1998,2003,2009,2010,
            Gaussian, Inc.  All Rights Reserved.
  
 This is part of the Gaussian(R) 09 program.  It is based on
 the Gaussian(R) 03 system (copyright 2003, Gaussian, Inc.),
 the Gaussian(R) 98 system (copyright 1998, Gaussian, Inc.),
 the Gaussian(R) 94 system (copyright 1995, Gaussian, Inc.),
 the Gaussian 92(TM) system (copyright 1992, Gaussian, Inc.),
 the Gaussian 90(TM) system (copyright 1990, Gaussian, Inc.),
 the Gaussian 88(TM) system (copyright 1988, Gaussian, Inc.),
 the Gaussian 86(TM) system (copyright 1986, Carnegie Mellon
 University), and the Gaussian 82(TM) system (copyright 1983,
 Carnegie Mellon University). Gaussian is a federally registered
 trademark of Gaussian, Inc.
  
 This software contains proprietary and confidential information,
 including trade secrets, belonging to Gaussian, Inc.
  
 This software is provided under written license and may be
 used, copied, transmitted, or stored only in accord with that
 written license.
  
 The following legend is applicable only to US Government
 contracts under FAR:
  
                    RESTRICTED RIGHTS LEGEND
  
 Use, reproduction and disclosure by the US Government is
 subject to restrictions as set forth in subparagraphs (a)
 and (c) of the Commercial Computer Software - Restricted
 Rights clause in FAR 52.227-19.
  
 Gaussian, Inc.
 340 Quinnipiac St., Bldg. 40, Wallingford CT 06492
  
  
 ---------------------------------------------------------------
 Warning -- This program may not be used in any manner that
 competes with the business of Gaussian, Inc. or will provide
 assistance to any competitor of Gaussian, Inc.  The licensee
 of this program is prohibited from giving any competitor of
 Gaussian, Inc. access to this program.  By using this program,
 the user acknowledges that Gaussian, Inc. is engaged in the
 business of creating and licensing software in the field of
 computational chemistry and represents and warrants to the
 licensee that it is not a competitor of Gaussian, Inc. and that
 it will not use this program in any manner prohibited above.
 ---------------------------------------------------------------
  

 Cite this work as:
 Gaussian 09, Revision B.01,
 M. J. Frisch, G. W. Trucks, H. B. Schlegel, G. E. Scuseria, 
 M. A. Robb, J. R. Cheeseman, G. Scalmani, V. Barone, B. Mennucci, 
 G. A. Petersson, H. Nakatsuji, M. Caricato, X. Li, H. P. Hratchian, 
 A. F. Izmaylov, J. Bloino, G. Zheng, J. L. Sonnenberg, M. Hada, 
 M. Ehara, K. Toyota, R. Fukuda, J. Hasegawa, M. Ishida, T. Nakajima, 
 Y. Honda, O. Kitao, H. Nakai, T. Vreven, J. A. Montgomery, Jr., 
 J. E. Peralta, F. Ogliaro, M. Bearpark, J. J. Heyd, E. Brothers, 
 K. N. Kudin, V. N. Staroverov, T. Keith, R. Kobayashi, J. Normand, 
 K. Raghavachari, A. Rendell, J. C. Burant, S. S. Iyengar, J. Tomasi, 
 M. Cossi, N. Rega, J. M. Millam, M. Klene, J. E. Knox, J. B. Cross, 
 V. Bakken, C. Adamo, J. Jaramillo, R. Gomperts, R. E. Stratmann, 
 O. Yazyev, A. J. Austin, R. Cammi, C. Pomelli, J. W. Ochterski, 
 R. L. Martin, K. Morokuma, V. G. Zakrzewski, G. A. Voth, 
 P. Salvador, J. J. Dannenberg, S. Dapprich, A. D. Daniels, 
 O. Farkas, J. B. Foresman, J. V. Ortiz, J. Cioslowski, 
 and D. J. Fox, Gaussian, Inc., Wallingford CT, 2010.
 
 ******************************************
 Gaussian 09:  EM64L-G09RevB.01 12-Aug-2010
                31-Mar-2016 
 ******************************************
 -------------------------------------------------
 # freq=raman b3lyp/6-31+g(2d,p) geom=connectivity
 -------------------------------------------------
 1/10=4,30=1,38=1,57=2/1,3;
 2/12=2,17=6,18=5,40=1/2;
 3/5=1,6=6,7=112,11=2,16=1,25=1,30=1,71=2,74=-5/1,2,3;
 4//1;
 5/5=2,38=5,98=1/2;
 8/6=4,10=90,11=11/1;
 10/13=10,15=4/2;
 11/6=3,8=1,9=11,15=111,16=1/1,2,10;
 10/6=1/2;
 6/7=2,8=2,9=2,10=2,18=1,28=1/1;
 7/8=1,10=1,25=1/1,2,3,16;
 1/10=4,30=1/3;
 99//99;
 -----------------
 493 5855/5855.com
 -----------------
 Symbolic Z-matrix:
 Charge =  0 Multiplicity = 1
 O                     7.721     7.797     12.231 
 C                     8.397     8.135     13.451 
 C                     7.741     9.381     14.024 
 O                     7.897     10.487    13.124 
 H                     7.349     10.386    12.294 
 C                     8.398     9.715     15.354 
 O                     7.943     10.971    15.878 
 H                     8.276     11.101    16.812 
 C                     8.626     5.642     14.125 
 O                     7.854     4.945     13.137 
 H                     7.791     3.968     13.341 
 C                     8.293     7.069     14.529 
 O                     8.885     7.403     15.793 
 C                     8.325     8.59      16.373 
 O                     9.077     8.777     17.58 
 C                     8.437     8.32      18.781 
 C                     9.016     6.955     19.114 
 O                     8.579     6.006     18.13 
 H                     9.057     6.199     17.274 
 C                     8.576     6.598     20.524 
 O                     8.922     5.337     21.117 
 H                     8.676     5.234     22.081 
 C                     8.176     10.69     19.588 
 O                     8.477     11.473    18.424 
 H                     8.366     12.423    18.716 
 C                     8.785     9.325     19.867 
 O                     8.289     8.954     21.162 
 C                     8.842     7.688     21.549 
 O                     8.144     7.432     22.776 
 H                     8.77907   7.28496   23.48075 
 H                     9.89222   7.7811    21.73139 
 H                     7.50925   6.56035   20.44967 
 H                     10.08402   7.01471   19.08825 
 H                     7.37731   8.25984   18.64555 
 H                     9.84917   9.42392   19.91862 
 H                     8.41348   11.30313   20.43214 
 H                     7.11496   10.55186   19.59099 
 H                     8.36867   7.60781   11.54811 
 H                     8.59412   5.05163   15.01683 
 H                     9.6393    5.64532   13.78132 
 H                     7.24483   7.03311   14.741 
 H                     9.42757   8.33601   13.24502 
 H                     6.69901   9.1941    14.17966 
 H                     9.43811   9.84701   15.14037 
 H                     7.30034   8.40928   16.62264 
 

 GradGradGradGradGradGradGradGradGradGradGradGradGradGradGradGradGradGrad
 Berny optimization.
 Initialization pass.
 Trust Radius=3.00D-01 FncErr=1.00D-07 GrdErr=1.00D-07
 Number of steps in this run=      2 maximum allowed number of steps=      2.
 GradGradGradGradGradGradGradGradGradGradGradGradGradGradGradGradGradGrad

                          Input orientation:                          
 ---------------------------------------------------------------------
 Center     Atomic      Atomic             Coordinates (Angstroms)
 Number     Number       Type             X           Y           Z
 ---------------------------------------------------------------------
      1          8           0        7.721000    7.797000   12.231000
      2          6           0        8.397000    8.135000   13.451000
      3          6           0        7.741000    9.381000   14.024000
      4          8           0        7.897000   10.487000   13.124000
      5          1           0        7.349000   10.386000   12.294000
      6          6           0        8.398000    9.715000   15.354000
      7          8           0        7.943000   10.971000   15.878000
      8          1           0        8.276000   11.101000   16.812000
      9          6           0        8.626000    5.642000   14.125000
     10          8           0        7.854000    4.945000   13.137000
     11          1           0        7.791000    3.968000   13.341000
     12          6           0        8.293000    7.069000   14.529000
     13          8           0        8.885000    7.403000   15.793000
     14          6           0        8.325000    8.590000   16.373000
     15          8           0        9.077000    8.777000   17.580000
     16          6           0        8.437000    8.320000   18.781000
     17          6           0        9.016000    6.955000   19.114000
     18          8           0        8.579000    6.006000   18.130000
     19          1           0        9.057000    6.199000   17.274000
     20          6           0        8.576000    6.598000   20.524000
     21          8           0        8.922000    5.337000   21.117000
     22          1           0        8.676000    5.234000   22.081000
     23          6           0        8.176000   10.690000   19.588000
     24          8           0        8.477000   11.473000   18.424000
     25          1           0        8.366000   12.423000   18.716000
     26          6           0        8.785000    9.325000   19.867000
     27          8           0        8.289000    8.954000   21.162000
     28          6           0        8.842000    7.688000   21.549000
     29          8           0        8.144000    7.432000   22.776000
     30          1           0        8.779066    7.284962   23.480749
     31          1           0        9.892222    7.781095   21.731394
     32          1           0        7.509249    6.560351   20.449672
     33          1           0       10.084022    7.014706   19.088246
     34          1           0        7.377315    8.259835   18.645547
     35          1           0        9.849167    9.423917   19.918618
     36          1           0        8.413484   11.303127   20.432142
     37          1           0        7.114959   10.551858   19.590991
     38          1           0        8.368668    7.607807   11.548115
     39          1           0        8.594122    5.051634   15.016825
     40          1           0        9.639299    5.645318   13.781324
     41          1           0        7.244827    7.033109   14.741001
     42          1           0        9.427567    8.336013   13.245024
     43          1           0        6.699013    9.194096   14.179656
     44          1           0        9.438113    9.847006   15.140366
     45          1           0        7.300343    8.409283   16.622640
 ---------------------------------------------------------------------
                    Distance matrix (angstroms):
                    1          2          3          4          5
     1  O    0.000000
     2  C    1.435138   0.000000
     3  C    2.392552   1.520257   0.000000
     4  O    2.839811   2.426692   1.434424   0.000000
     5  H    2.616347   2.739335   2.038771   0.999702   0.000000
     6  C    3.726953   2.473421   1.520561   2.412444   3.303671
     7  O    4.839852   3.760232   2.450759   2.796585   3.679690
     8  H    5.675386   4.484208   3.319272   3.757922   4.667213
     9  C    3.008369   2.592637   3.843637   5.000747   5.242979
    10  O    2.995401   3.251084   4.525222   5.542182   5.529028
    11  H    3.987260   4.212271   5.456149   6.523472   6.517845
    12  C    2.477493   1.519624   2.430036   3.716660   4.109605
    13  O    3.768020   2.501786   2.889737   4.196518   4.847740
    14  C    4.260262   2.958089   2.546476   3.786528   4.562503
    15  O    5.604546   4.233581   3.846407   4.916547   5.789358
    16  C    6.609742   5.333360   4.923331   6.081870   6.894438
    17  C    7.054196   5.817657   5.780934   7.043244   7.814285
    18  O    6.224311   5.143812   5.380716   6.753112   7.399743
    19  H    5.456221   4.335784   4.734921   6.079066   6.726710
    20  C    8.422736   7.240286   7.119854   8.387214   9.142613
    21  O    9.298118   8.177529   8.249809   9.563534  10.286499
    22  H   10.222695   9.108817   9.109725  10.412910  11.139542
    23  C    7.918455   6.651288   5.732434   6.473202   7.347025
    24  O    7.241392   5.989939   4.927287   5.422047   6.326994
    25  H    7.991941   6.790297   5.626656   5.936204   6.813644
    26  C    7.859731   6.536949   5.935800   6.899771   7.780626
    27  O    9.023527   7.755124   7.171728   8.192264   9.031924
    28  C    9.385822   8.122527   7.791282   8.927937   9.755167
    29  O   10.559791   9.354883   8.975439  10.126951  10.919270
    30  H   11.310992  10.072954   9.741718  10.876274  11.696362
    31  H    9.745355   8.421750   8.160354   9.240675  10.115232
    32  H    8.313886   7.228349   7.021327   8.320721   9.009787
    33  H    7.295045   5.989962   6.060997   7.239622   8.062738
    34  H    6.440400   5.295155   4.769484   5.976439   6.698024
    35  H    8.140972   6.752791   6.260410   7.148981   8.081537
    36  H    8.946016   7.666397   6.723920   7.371687   8.258548
    37  H    7.882004   6.721928   5.723131   6.514428   7.302627
    38  H    0.960000   1.974768   3.109371   3.315967   3.051954
    39  H    4.007517   3.463786   4.522933   5.797583   6.117153
    40  H    3.273089   2.801953   4.197351   5.187443   5.470985
    41  H    2.666529   2.050798   2.504570   3.869029   4.152174
    42  H    2.056976   1.070000   2.131504   2.642730   3.070396
    43  H    2.606453   2.129738   1.070000   2.054553   2.323536
    44  H    3.951634   2.620847   2.084137   2.617318   3.571653
    45  H    4.454025   3.367074   2.809153   4.112589   4.758876
                    6          7          8          9         10
     6  C    0.000000
     7  O    1.434969   0.000000
     8  H    2.015352   1.000072   0.000000
     9  C    4.260488   5.651348   6.094518   0.000000
    10  O    5.288093   6.620701   7.181925   1.434551   0.000000
    11  H    6.119528   7.449932   7.947500   2.028338   1.000057
    12  C    2.773620   4.143417   4.633509   1.520011   2.577161
    13  O    2.403172   3.691235   3.883870   2.439350   3.762853
    14  C    1.519643   2.461729   2.549557   3.719517   4.896893
    15  O    2.509175   2.999399   2.575345   4.687073   5.993346
    16  C    3.700253   3.962227   3.411282   5.374546   6.601913
    17  C    4.705011   5.267948   4.799596   5.173605   6.412088
    18  O    4.636337   5.488827   5.271428   4.021782   5.155715
    19  H    4.059918   5.095272   4.985279   3.226796   4.487148
    20  C    6.039559   6.411641   5.843454   6.470212   7.604042
    21  O    7.256282   7.755483   7.223160   7.004906   8.060688
    22  H    8.087594   8.481018   7.895825   7.966612   8.986342
    23  C    4.350479   3.727915   2.808041   7.451790   8.644311
    24  O    3.538602   2.649392   1.666532   7.245976   8.423496
    25  H    4.317098   3.215817   2.319698   8.193097   9.343868
    26  C    4.546321   4.396635   3.570194   6.823513   8.083567
    27  O    5.858657   5.666450   4.851008   7.784747   8.981199
    28  C    6.533291   6.614116   5.865841   7.703801   8.902917
    29  O    7.769343   7.755471   7.003448   8.847385   9.958895
    30  H    8.490839   8.490446   7.699834   9.500147  10.645389
    31  H    6.829630   6.945300   6.150966   8.002267   9.276928
    32  H    6.058677   6.367272   5.868395   6.487833   7.496891
    33  H    4.907021   5.526475   5.014782   5.352005   6.683862
    34  H    3.740800   3.915320   3.498821   5.370998   6.446662
    35  H    4.798578   4.727952   3.865040   7.026026   8.368497
    36  H    5.320707   4.590411   3.628386   8.477828   9.693189
    37  H    4.505399   3.827223   3.061432   7.501134   8.581202
    38  H    4.350389   5.499106   6.318186   3.251301   3.143244
    39  H    4.679651   6.017015   6.318123   1.070000   2.023090
    40  H    4.536127   5.969621   6.388118   1.070000   2.023090
    41  H    2.982971   4.157788   4.679754   2.054819   2.702612
    42  H    2.722020   4.009945   4.657744   2.945263   3.739887
    43  H    2.130019   2.754862   3.612811   4.041491   4.525035
    44  H    1.070000   2.010679   2.391102   4.401429   5.527437
    45  H    2.125840   2.744065   2.869339   3.956441   4.945450
                   11         12         13         14         15
    11  H    0.000000
    12  C    3.358504   0.000000
    13  O    4.359858   1.435171   0.000000
    14  C    5.553473   2.390565   1.434911   0.000000
    15  O    6.538302   3.583367   2.262324   1.434337   0.000000
    16  C    6.996486   4.434551   3.157489   2.425677   1.435566
    17  C    6.614403   4.643054   3.353641   3.265545   2.382553
    18  O    5.263925   3.765497   2.739857   3.135063   2.868614
    19  H    4.695594   2.979198   1.916393   2.657914   2.596174
    20  C    7.689513   6.020129   4.808936   4.611059   3.696779
    21  O    7.976183   6.840849   5.710928   5.783075   4.936395
    22  H    8.875448   7.781171   6.654862   6.630777   5.742182
    23  C    9.184689   6.222444   5.070412   3.842971   2.916065
    24  O    9.090243   5.882185   4.863489   3.541383   2.888036
    25  H   10.035351   6.797177   5.832126   4.492574   3.884499
    26  C    8.501421   5.815999   4.505725   3.599981   2.369797
    27  O    9.288500   6.895646   5.620229   4.802948   3.671920
    28  C    9.072721   7.068590   5.763212   5.279381   4.122391
    29  O   10.056994   8.256330   7.022265   6.509388   5.447745
    30  H   10.714151   8.967537   7.689385   7.240815   6.093750
    31  H    9.452700   7.412090   6.035063   5.641179   4.346319
    32  H    7.571848   5.993942   4.928219   4.626465   3.950493
    33  H    6.897188   4.898717   3.528041   3.598371   2.528751
    34  H    6.835876   4.382069   3.338309   2.484268   2.071661
    35  H    8.790230   6.084018   4.694087   3.948406   2.546346
    36  H   10.221344   7.265634   6.079059   4.883188   3.867336
    37  H    9.103109   6.256343   5.241477   3.958352   3.323223
    38  H    4.098333   3.030135   4.281074   4.924036   6.184852
    39  H    2.151199   2.097239   2.493187   3.798904   4.547680
    40  H    2.534461   2.097239   2.775834   4.137067   4.955154
    41  H    3.413678   1.070000   1.983353   2.500821   3.802359
    42  H    4.665523   2.131000   2.767142   3.326319   4.371428
    43  H    5.404429   2.679341   3.254142   2.796341   4.170267
    44  H    6.365015   3.066329   2.589408   2.082900   2.688332
    45  H    5.543906   2.676762   2.052326   1.070000   2.051405
                   16         17         18         19         20
    16  C    0.000000
    17  C    1.519656   0.000000
    18  O    2.408020   1.435209   0.000000
    19  H    2.674713   1.989678   0.999234   0.000000
    20  C    2.454110   1.519588   2.466112   3.309541   0.000000
    21  O    3.819740   2.576581   3.080159   3.940802   1.435788
    22  H    4.524436   3.446814   4.026884   4.917686   2.072377
    23  C    2.517195   3.857525   4.922198   5.128337   4.216700
    24  O    3.173398   4.602059   5.475850   5.428994   5.308995
    25  H    4.104129   5.520863   6.447221   6.426120   6.102753
    26  C    1.520041   2.497453   3.751715   4.070566   2.812803
    27  O    2.468405   2.952767   4.238847   4.826634   2.457671
    28  C    2.867974   2.548880   3.819405   4.531994   1.519698
    29  O    4.102977   3.794490   4.879346   5.711905   2.440017
    30  H    4.824516   4.385603   5.505115   6.307162   3.042288
    31  H    3.333604   2.881137   4.224400   4.803018   2.142418
    32  H    2.596450   2.051845   2.613915   3.551197   1.070000
    33  H    2.123882   1.070000   2.049589   2.238669   2.123479
    34  H    1.070000   2.146470   2.605688   2.991576   2.779771
    35  H    2.122975   2.727110   4.061359   4.245188   3.158045
    36  H    3.409673   4.583310   5.778132   6.036563   4.708829
    37  H    2.717548   4.096201   4.994270   5.299749   4.317191
    38  H    7.268185   7.621537   6.777259   5.936691   9.034889
    39  H    4.987576   4.537359   3.256210   2.574013   5.720188
    40  H    5.796224   5.526410   4.490580   3.583912   6.892161
    41  H    4.404425   4.718715   3.784215   3.224251   5.950161
    42  H    5.623923   6.043299   5.478323   4.575674   7.531889
    43  H    4.995699   5.893193   5.413273   4.909752   7.107284
    44  H    4.072860   4.932712   4.942602   4.243299   6.346873
    45  H    2.440999   3.356381   3.111730   2.897492   4.486497
                   21         22         23         24         25
    21  O    0.000000
    22  H    1.000210   0.000000
    23  C    5.616847   6.019384   0.000000
    24  O    6.715711   7.234526   1.434777   0.000000
    25  H    7.502355   7.943617   1.949301   1.000042   0.000000
    26  C    4.181556   4.652952   1.520509   2.605958   3.331361
    27  O    3.672248   3.851328   2.346048   3.725231   4.245328
    28  C    2.391699   2.516485   3.647065   4.921897   5.538293
    29  O    2.783270   2.365851   4.558391   5.948149   6.437621
    30  H    3.066316   2.485229   5.206868   6.572794   7.019465
    31  H    2.700446   2.844136   4.000161   5.154791   5.741885
    32  H    1.984384   2.404526   4.270953   5.401297   6.173354
    33  H    2.877644   3.756330   4.171102   4.785408   5.686811
    34  H    4.127602   4.758634   2.726136   3.403354   4.279533
    35  H    4.358744   4.858768   2.124091   2.883655   3.555358
    36  H    6.026798   6.294597   1.070000   2.016315   2.049760
    37  H    5.726154   6.075903   1.070000   2.016315   2.414930
    38  H    9.850193  10.801439   8.612595   7.888552   8.635084
    39  H    6.115642   7.067003   7.270601   7.270248   8.250635
    40  H    7.377108   8.365510   7.829914   7.541038   8.479935
    41  H    6.807573   7.691595   6.142747   5.898760   6.790329
    42  H    8.439057   9.394776   6.880481   6.129115   6.911003
    43  H    8.242912   9.056604   5.802534   5.135085   5.812322
    44  H    7.505110   8.368575   4.699470   3.788119   4.535452
    45  H    5.680490   6.462859   3.842110   3.743766   4.650560
                   26         27         28         29         30
    26  C    0.000000
    27  O    1.435508   0.000000
    28  C    2.347795   1.434690   0.000000
    29  O    3.529392   2.223175   1.434667   0.000000
    30  H    4.149816   2.898698   1.974349   0.960000   0.000000
    31  H    2.661869   2.066455   1.070000   2.066240   2.132019
    32  H    3.100054   2.616291   2.063090   2.564076   3.365253
    33  H    2.762495   3.359081   2.837473   4.187762   4.590211
    34  H    2.146649   2.765062   3.301869   4.281794   5.127813
    35  H    1.070000   2.049620   2.585718   3.878139   4.290574
    36  H    2.090549   2.463044   3.807905   4.533422   5.057006
    37  H    2.090549   2.529741   3.875326   4.575666   5.345285
    38  H    8.504466   9.708006  10.012402  11.231509  11.944054
    39  H    6.467015   7.285927   7.048488   8.128564   8.755568
    40  H    7.162775   8.200309   8.071247   9.291520   9.874578
    41  H    5.822436   6.783019   7.023439   8.094988   8.876965
    42  H    6.726184   8.022266   8.349780   9.659415  10.309963
    43  H    6.059237   7.165112   7.820994   8.893261   9.720172
    44  H    4.800012   6.194998   6.788759   8.112329   8.749880
    45  H    3.683560   4.677601   5.212099   6.287343   7.105236
                   31         32         33         34         35
    31  H    0.000000
    32  H    2.968432   0.000000
    33  H    2.758691   2.947775   0.000000
    34  H    4.009539   2.482040   3.012075   0.000000
    35  H    2.446809   3.735940   2.559097   3.014274   0.000000
    36  H    4.034778   4.828238   4.794509   3.677933   2.419984
    37  H    4.468964   4.101820   4.645378   2.493203   2.975816
    38  H   10.298079   9.004082   7.755501   7.195934   8.692265
    39  H    7.363455   5.741864   4.759194   4.994076   6.687270
    40  H    8.235844   7.059834   5.498765   5.967658   7.210287
    41  H    7.512242   5.734312   5.192293   4.094862   6.269471
    42  H    8.517178   7.664194   6.026610   5.777109   6.774817
    43  H    8.319970   6.848809   6.348408   4.612713   6.550723
    44  H    6.922128   6.535392   4.901518   4.364893   4.814526
    45  H    5.762970   4.255393   3.971515   2.029880   4.288293
                   36         37         38         39         40
    36  H    0.000000
    37  H    1.719915   0.000000
    38  H    9.622024   8.656043   0.000000
    39  H    8.272814   7.305024   4.314719   0.000000
    40  H    8.817415   8.012407   3.233125   1.723752   0.000000
    41  H    7.210264   5.993402   3.433340   2.413072   2.929239
    42  H    7.841352   7.108405   2.128627   3.823749   2.751780
    43  H    6.817698   5.594557   3.497009   4.631660   4.625773
    44  H    5.583283   5.069706   4.366005   4.870645   4.420595
    45  H    4.911795   3.665529   5.247331   3.940344   4.602531
                   41         42         43         44         45
    41  H    0.000000
    42  H    2.949553   0.000000
    43  H    2.298453   3.009128   0.000000
    44  H    3.589988   2.423950   2.975219   0.000000
    45  H    2.331845   3.992335   2.635469   2.972245   0.000000
 Stoichiometry    C12H22O11
 Framework group  C1[X(C12H22O11)]
 Deg. of freedom   129
 Full point group                 C1      NOp   1
 Largest Abelian subgroup         C1      NOp   1
 Largest concise Abelian subgroup C1      NOp   1
                         Standard orientation:                         
 ---------------------------------------------------------------------
 Center     Atomic      Atomic             Coordinates (Angstroms)
 Number     Number       Type             X           Y           Z
 ---------------------------------------------------------------------
      1          8           0        5.029797   -0.428568   -0.374797
      2          6           0        3.774176   -0.104189    0.239868
      3          6           0        3.269455    1.191771   -0.374074
      4          8           0        4.177705    2.265591   -0.092005
      5          1           0        5.040206    2.178894   -0.589983
      6          6           0        1.905282    1.515807    0.214260
      7          8           0        1.436290    2.808528   -0.195685
      8          1           0        0.484851    2.939477    0.083173
      9          6           0        3.039815   -2.590459    0.270559
     10          8           0        4.063626   -3.262031   -0.476931
     11          1           0        3.845965   -4.228566   -0.613118
     12          6           0        2.685649   -1.137170    0.000465
     13          8           0        1.391632   -0.810723    0.528357
     14          6           0        0.872449    0.420738    0.005940
     15          8           0       -0.378080    0.589559    0.687849
     16          6           0       -1.542315    0.199387   -0.055907
     17          6           0       -1.938558   -1.190060    0.415033
     18          8           0       -0.945700   -2.133187   -0.014581
     19          1           0       -0.119843   -1.988858    0.529109
     20          6           0       -3.322694   -1.487721   -0.136976
     21          8           0       -3.960902   -2.753435    0.091378
     22          1           0       -4.908211   -2.819459   -0.222735
     23          6           0       -2.285611    2.598562   -0.222462
     24          8           0       -1.129672    3.335311    0.201322
     25          1           0       -1.395788    4.296673    0.130255
     26          6           0       -2.629973    1.206080    0.281873
     27          8           0       -3.895929    0.895200   -0.319286
     28          6           0       -4.342460   -0.392657    0.128339
     29          8           0       -5.525013   -0.578161   -0.662499
     30          1           0       -6.272993   -0.747082   -0.084924
     31          1           0       -4.592378   -0.358833    1.168193
     32          1           0       -3.178447   -1.462758   -1.196915
     33          1           0       -1.982631   -1.195367    1.484112
     34          1           0       -1.337981    0.200064   -1.106215
     35          1           0       -2.750243    1.241896    1.344489
     36          1           0       -3.132003    3.215341   -0.003137
     37          1           0       -2.220764    2.524657   -1.287935
     38          1           0        5.664521   -0.671913    0.303074
     39          1           0        2.141155   -3.157374    0.144395
     40          1           0        3.315481   -2.655982    1.302361
     41          1           0        2.543048   -1.105051   -1.059504
     42          1           0        3.915033    0.029669    1.292076
     43          1           0        3.179821    1.071534   -1.433512
     44          1           0        2.051849    1.580052    1.272226
     45          1           0        0.688021    0.307773   -1.041975
 ---------------------------------------------------------------------
 Rotational constants (GHZ):      0.4080586      0.1458120      0.1100577
 Standard basis: 6-31+G(2d,p) (6D, 7F)
 There are   685 symmetry adapted basis functions of A   symmetry.
 Integral buffers will be    131072 words long.
 Raffenetti 2 integral format.
 Two-electron integral symmetry is turned on.
   685 basis functions,  1028 primitive gaussians,   685 cartesian basis functions
    91 alpha electrons       91 beta electrons
       nuclear repulsion energy      2286.3097028550 Hartrees.
 NAtoms=   45 NActive=   45 NUniq=   45 SFac= 1.00D+00 NAtFMM=   50 NAOKFM=F Big=F
 One-electron integrals computed using PRISM.
 NBasis=   685 RedAO= T  NBF=   685
 NBsUse=   685 1.00D-06 NBFU=   685
 Harris functional with IExCor=  402 diagonalized for initial guess.
 ExpMin= 4.38D-02 ExpMax= 5.48D+03 ExpMxC= 8.25D+02 IAcc=2 IRadAn=         0 AccDes= 0.00D+00
 HarFok:  IExCor=  402 AccDes= 0.00D+00 IRadAn=         0 IDoV= 1
 ScaDFX=  1.000000  1.000000  1.000000  1.000000
 FoFCou: FMM=F IPFlag=           0 FMFlag=      100000 FMFlg1=           0
         NFxFlg=           0 DoJE=T BraDBF=F KetDBF=T FulRan=T
         Omega=  0.000000  0.000000  1.000000  0.000000  0.000000 ICntrl=     500 IOpCl=  0
         NMat0=    1 NMatS0=    1 NMatT0=    0 NMatD0=    1 NMtDS0=    0 NMtDT0=    0
         I1Cent=           4 NGrid=           0.
 Petite list used in FoFCou.
 Initial guess orbital symmetries:
       Occupied  (A) (A) (A) (A) (A) (A) (A) (A) (A) (A) (A) (A)
                 (A) (A) (A) (A) (A) (A) (A) (A) (A) (A) (A) (A)
                 (A) (A) (A) (A) (A) (A) (A) (A) (A) (A) (A) (A)
                 (A) (A) (A) (A) (A) (A) (A) (A) (A) (A) (A) (A)
                 (A) (A) (A) (A) (A) (A) (A) (A) (A) (A) (A) (A)
                 (A) (A) (A) (A) (A) (A) (A) (A) (A) (A) (A) (A)
                 (A) (A) (A) (A) (A) (A) (A) (A) (A) (A) (A) (A)
                 (A) (A) (A) (A) (A) (A) (A)
       Virtual   (A) (A) (A) (A) (A) (A) (A) (A) (A) (A) (A) (A)
                 (A) (A) (A) (A) (A) (A) (A) (A) (A) (A) (A) (A)
                 (A) (A) (A) (A) (A) (A) (A) (A) (A) (A) (A) (A)
                 (A) (A) (A) (A) (A) (A) (A) (A) (A) (A) (A) (A)
                 (A) (A) (A) (A) (A) (A) (A) (A) (A) (A) (A) (A)
                 (A) (A) (A) (A) (A) (A) (A) (A) (A) (A) (A) (A)
                 (A) (A) (A) (A) (A) (A) (A) (A) (A) (A) (A) (A)
                 (A) (A) (A) (A) (A) (A) (A) (A) (A) (A) (A) (A)
                 (A) (A) (A) (A) (A) (A) (A) (A) (A) (A) (A) (A)
                 (A) (A) (A) (A) (A) (A) (A) (A) (A) (A) (A) (A)
                 (A) (A) (A) (A) (A) (A) (A) (A) (A) (A) (A) (A)
                 (A) (A) (A) (A) (A) (A) (A) (A) (A) (A) (A) (A)
                 (A) (A) (A) (A) (A) (A) (A) (A) (A) (A) (A) (A)
                 (A) (A) (A) (A) (A) (A) (A) (A) (A) (A) (A) (A)
                 (A) (A) (A) (A) (A) (A) (A) (A) (A) (A) (A) (A)
                 (A) (A) (A) (A) (A) (A) (A) (A) (A) (A) (A) (A)
                 (A) (A) (A) (A) (A) (A) (A) (A) (A) (A) (A) (A)
                 (A) (A) (A) (A) (A) (A) (A) (A) (A) (A) (A) (A)
                 (A) (A) (A) (A) (A) (A) (A) (A) (A) (A) (A) (A)
                 (A) (A) (A) (A) (A) (A) (A) (A) (A) (A) (A) (A)
                 (A) (A) (A) (A) (A) (A) (A) (A) (A) (A) (A) (A)
                 (A) (A) (A) (A) (A) (A) (A) (A) (A) (A) (A) (A)
                 (A) (A) (A) (A) (A) (A) (A) (A) (A) (A) (A) (A)
                 (A) (A) (A) (A) (A) (A) (A) (A) (A) (A) (A) (A)
                 (A) (A) (A) (A) (A) (A) (A) (A) (A) (A) (A) (A)
                 (A) (A) (A) (A) (A) (A) (A) (A) (A) (A) (A) (A)
                 (A) (A) (A) (A) (A) (A) (A) (A) (A) (A) (A) (A)
                 (A) (A) (A) (A) (A) (A) (A) (A) (A) (A) (A) (A)
                 (A) (A) (A) (A) (A) (A) (A) (A) (A) (A) (A) (A)
                 (A) (A) (A) (A) (A) (A) (A) (A) (A) (A) (A) (A)
                 (A) (A) (A) (A) (A) (A) (A) (A) (A) (A) (A) (A)
                 (A) (A) (A) (A) (A) (A) (A) (A) (A) (A) (A) (A)
                 (A) (A) (A) (A) (A) (A) (A) (A) (A) (A) (A) (A)
                 (A) (A) (A) (A) (A) (A) (A) (A) (A) (A) (A) (A)
                 (A) (A) (A) (A) (A) (A) (A) (A) (A) (A) (A) (A)
                 (A) (A) (A) (A) (A) (A) (A) (A) (A) (A) (A) (A)
                 (A) (A) (A) (A) (A) (A) (A) (A) (A) (A) (A) (A)
                 (A) (A) (A) (A) (A) (A) (A) (A) (A) (A) (A) (A)
                 (A) (A) (A) (A) (A) (A) (A) (A) (A) (A) (A) (A)
                 (A) (A) (A) (A) (A) (A) (A) (A) (A) (A) (A) (A)
                 (A) (A) (A) (A) (A) (A) (A) (A) (A) (A) (A) (A)
                 (A) (A) (A) (A) (A) (A) (A) (A) (A) (A) (A) (A)
                 (A) (A) (A) (A) (A) (A) (A) (A) (A) (A) (A) (A)
                 (A) (A) (A) (A) (A) (A) (A) (A) (A) (A) (A) (A)
                 (A) (A) (A) (A) (A) (A) (A) (A) (A) (A) (A) (A)
                 (A) (A) (A) (A) (A) (A) (A) (A) (A) (A) (A) (A)
                 (A) (A) (A) (A) (A) (A) (A) (A) (A) (A) (A) (A)
                 (A) (A) (A) (A) (A) (A) (A) (A) (A) (A) (A) (A)
                 (A) (A) (A) (A) (A) (A) (A) (A) (A) (A) (A) (A)
                 (A) (A) (A) (A) (A) (A)
 The electronic state of the initial guess is 1-A.
 Requested convergence on RMS density matrix=1.00D-08 within 128 cycles.
 Requested convergence on MAX density matrix=1.00D-06.
 Requested convergence on             energy=1.00D-06.
 No special actions if energy rises.
 SCF Done:  E(RB3LYP) =  -1297.97728970     A.U. after   13 cycles
             Convg  =    0.5784D-08             -V/T =  2.0065
 Range of M.O.s used for correlation:     1   685
 NBasis=   685 NAE=    91 NBE=    91 NFC=     0 NFV=     0
 NROrb=    685 NOA=    91 NOB=    91 NVA=   594 NVB=   594

 **** Warning!!: The largest alpha MO coefficient is  0.72841730D+02

          Differentiating once with respect to electric field.
                with respect to dipole field.
          Electric field/nuclear overlap derivatives assumed to be zero.
          There are     3 degrees of freedom in the 1st order CPHF.  IDoFFX=0.
      3 vectors produced by pass  0 Test12= 1.80D-12 3.33D-08 XBig12= 1.25D+02 1.10D+00.
 AX will form     3 AO Fock derivatives at one time.
      3 vectors produced by pass  1 Test12= 1.80D-12 3.33D-08 XBig12= 2.44D+01 4.56D-01.
      3 vectors produced by pass  2 Test12= 1.80D-12 3.33D-08 XBig12= 1.03D+01 2.42D-01.
      3 vectors produced by pass  3 Test12= 1.80D-12 3.33D-08 XBig12= 1.08D+00 1.14D-01.
      3 vectors produced by pass  4 Test12= 1.80D-12 3.33D-08 XBig12= 2.73D-01 4.80D-02.
      3 vectors produced by pass  5 Test12= 1.80D-12 3.33D-08 XBig12= 5.98D-02 1.85D-02.
      3 vectors produced by pass  6 Test12= 1.80D-12 3.33D-08 XBig12= 1.95D-02 1.98D-02.
      3 vectors produced by pass  7 Test12= 1.80D-12 3.33D-08 XBig12= 3.18D-03 7.96D-03.
      3 vectors produced by pass  8 Test12= 1.80D-12 3.33D-08 XBig12= 5.14D-04 2.47D-03.
      3 vectors produced by pass  9 Test12= 1.80D-12 3.33D-08 XBig12= 1.94D-04 1.42D-03.
      3 vectors produced by pass 10 Test12= 1.80D-12 3.33D-08 XBig12= 3.82D-05 7.20D-04.
      3 vectors produced by pass 11 Test12= 1.80D-12 3.33D-08 XBig12= 1.01D-05 3.38D-04.
      3 vectors produced by pass 12 Test12= 1.80D-12 3.33D-08 XBig12= 1.29D-06 1.48D-04.
      3 vectors produced by pass 13 Test12= 1.80D-12 3.33D-08 XBig12= 5.21D-07 7.34D-05.
      3 vectors produced by pass 14 Test12= 1.80D-12 3.33D-08 XBig12= 7.01D-08 3.73D-05.
      3 vectors produced by pass 15 Test12= 1.80D-12 3.33D-08 XBig12= 1.52D-08 1.47D-05.
      3 vectors produced by pass 16 Test12= 1.80D-12 3.33D-08 XBig12= 1.55D-09 5.50D-06.
      3 vectors produced by pass 17 Test12= 1.80D-12 3.33D-08 XBig12= 1.71D-10 1.73D-06.
      3 vectors produced by pass 18 Test12= 1.80D-12 3.33D-08 XBig12= 2.51D-11 3.77D-07.
      3 vectors produced by pass 19 Test12= 1.80D-12 3.33D-08 XBig12= 1.78D-11 2.80D-07.
      3 vectors produced by pass 20 Test12= 1.80D-12 3.33D-08 XBig12= 1.06D-11 2.48D-07.
      2 vectors produced by pass 21 Test12= 1.80D-12 3.33D-08 XBig12= 2.61D-12 1.06D-07.
      2 vectors produced by pass 22 Test12= 1.80D-12 3.33D-08 XBig12= 4.52D-13 5.54D-08.
 Inverted reduced A of dimension    67 with in-core refinement.
 End of Minotr Frequency-dependent properties file   721 does not exist.
 End of Minotr Frequency-dependent properties file   722 does not exist.
 Symmetrizing basis deriv contribution to polar:
 IMax=3 JMax=2 DiffMx= 0.00D+00
 G2DrvN: will do    16 centers at a time, making    3 passes doing MaxLOS=2.
 Calling FoFCou, ICntrl=  3107 FMM=F I1Cent=   0 AccDes= 0.00D+00.
 Calling FoFCou, ICntrl=  3107 FMM=F I1Cent=   0 AccDes= 0.00D+00.
 Calling FoFCou, ICntrl=  3107 FMM=F I1Cent=   0 AccDes= 0.00D+00.
 FoFDir/FoFCou used for L=0 through L=2.
 End of G2Drv Frequency-dependent properties file   721 does not exist.
 End of G2Drv Frequency-dependent properties file   722 does not exist.
          IDoAtm=111111111111111111111111111111111111111111111
          Differentiating once with respect to electric field.
                with respect to dipole field.
          Differentiating once with respect to nuclear coordinates.
          There are   138 degrees of freedom in the 1st order CPHF.  IDoFFX=5.
 Will reuse    3 saved solutions.
    135 vectors produced by pass  0 Test12= 5.41D-14 1.00D-09 XBig12= 1.91D-01 1.14D-01.
 AX will form    45 AO Fock derivatives at one time.
    135 vectors produced by pass  1 Test12= 5.41D-14 1.00D-09 XBig12= 1.51D-02 1.07D-02.
    132 vectors produced by pass  2 Test12= 5.41D-14 1.00D-09 XBig12= 1.91D-04 1.72D-03.
    132 vectors produced by pass  3 Test12= 5.41D-14 1.00D-09 XBig12= 5.34D-07 9.89D-05.
    132 vectors produced by pass  4 Test12= 5.41D-14 1.00D-09 XBig12= 1.31D-09 2.51D-06.
    132 vectors produced by pass  5 Test12= 5.41D-14 1.00D-09 XBig12= 3.03D-12 1.01D-07.
     82 vectors produced by pass  6 Test12= 5.41D-14 1.00D-09 XBig12= 1.48D-13 2.22D-08.
 Inverted reduced A of dimension   880 with in-core refinement.
 Isotropic polarizability for W=    0.000000      192.40 Bohr**3.
 End of Minotr Frequency-dependent properties file   721 does not exist.
 End of Minotr Frequency-dependent properties file   722 does not exist.

 **********************************************************************

            Population analysis using the SCF density.

 **********************************************************************

 Orbital symmetries:
       Occupied  (A) (A) (A) (A) (A) (A) (A) (A) (A) (A) (A) (A)
                 (A) (A) (A) (A) (A) (A) (A) (A) (A) (A) (A) (A)
                 (A) (A) (A) (A) (A) (A) (A) (A) (A) (A) (A) (A)
                 (A) (A) (A) (A) (A) (A) (A) (A) (A) (A) (A) (A)
                 (A) (A) (A) (A) (A) (A) (A) (A) (A) (A) (A) (A)
                 (A) (A) (A) (A) (A) (A) (A) (A) (A) (A) (A) (A)
                 (A) (A) (A) (A) (A) (A) (A) (A) (A) (A) (A) (A)
                 (A) (A) (A) (A) (A) (A) (A)
       Virtual   (A) (A) (A) (A) (A) (A) (A) (A) (A) (A) (A) (A)
                 (A) (A) (A) (A) (A) (A) (A) (A) (A) (A) (A) (A)
                 (A) (A) (A) (A) (A) (A) (A) (A) (A) (A) (A) (A)
                 (A) (A) (A) (A) (A) (A) (A) (A) (A) (A) (A) (A)
                 (A) (A) (A) (A) (A) (A) (A) (A) (A) (A) (A) (A)
                 (A) (A) (A) (A) (A) (A) (A) (A) (A) (A) (A) (A)
                 (A) (A) (A) (A) (A) (A) (A) (A) (A) (A) (A) (A)
                 (A) (A) (A) (A) (A) (A) (A) (A) (A) (A) (A) (A)
                 (A) (A) (A) (A) (A) (A) (A) (A) (A) (A) (A) (A)
                 (A) (A) (A) (A) (A) (A) (A) (A) (A) (A) (A) (A)
                 (A) (A) (A) (A) (A) (A) (A) (A) (A) (A) (A) (A)
                 (A) (A) (A) (A) (A) (A) (A) (A) (A) (A) (A) (A)
                 (A) (A) (A) (A) (A) (A) (A) (A) (A) (A) (A) (A)
                 (A) (A) (A) (A) (A) (A) (A) (A) (A) (A) (A) (A)
                 (A) (A) (A) (A) (A) (A) (A) (A) (A) (A) (A) (A)
                 (A) (A) (A) (A) (A) (A) (A) (A) (A) (A) (A) (A)
                 (A) (A) (A) (A) (A) (A) (A) (A) (A) (A) (A) (A)
                 (A) (A) (A) (A) (A) (A) (A) (A) (A) (A) (A) (A)
                 (A) (A) (A) (A) (A) (A) (A) (A) (A) (A) (A) (A)
                 (A) (A) (A) (A) (A) (A) (A) (A) (A) (A) (A) (A)
                 (A) (A) (A) (A) (A) (A) (A) (A) (A) (A) (A) (A)
                 (A) (A) (A) (A) (A) (A) (A) (A) (A) (A) (A) (A)
                 (A) (A) (A) (A) (A) (A) (A) (A) (A) (A) (A) (A)
                 (A) (A) (A) (A) (A) (A) (A) (A) (A) (A) (A) (A)
                 (A) (A) (A) (A) (A) (A) (A) (A) (A) (A) (A) (A)
                 (A) (A) (A) (A) (A) (A) (A) (A) (A) (A) (A) (A)
                 (A) (A) (A) (A) (A) (A) (A) (A) (A) (A) (A) (A)
                 (A) (A) (A) (A) (A) (A) (A) (A) (A) (A) (A) (A)
                 (A) (A) (A) (A) (A) (A) (A) (A) (A) (A) (A) (A)
                 (A) (A) (A) (A) (A) (A) (A) (A) (A) (A) (A) (A)
                 (A) (A) (A) (A) (A) (A) (A) (A) (A) (A) (A) (A)
                 (A) (A) (A) (A) (A) (A) (A) (A) (A) (A) (A) (A)
                 (A) (A) (A) (A) (A) (A) (A) (A) (A) (A) (A) (A)
                 (A) (A) (A) (A) (A) (A) (A) (A) (A) (A) (A) (A)
                 (A) (A) (A) (A) (A) (A) (A) (A) (A) (A) (A) (A)
                 (A) (A) (A) (A) (A) (A) (A) (A) (A) (A) (A) (A)
                 (A) (A) (A) (A) (A) (A) (A) (A) (A) (A) (A) (A)
                 (A) (A) (A) (A) (A) (A) (A) (A) (A) (A) (A) (A)
                 (A) (A) (A) (A) (A) (A) (A) (A) (A) (A) (A) (A)
                 (A) (A) (A) (A) (A) (A) (A) (A) (A) (A) (A) (A)
                 (A) (A) (A) (A) (A) (A) (A) (A) (A) (A) (A) (A)
                 (A) (A) (A) (A) (A) (A) (A) (A) (A) (A) (A) (A)
                 (A) (A) (A) (A) (A) (A) (A) (A) (A) (A) (A) (A)
                 (A) (A) (A) (A) (A) (A) (A) (A) (A) (A) (A) (A)
                 (A) (A) (A) (A) (A) (A) (A) (A) (A) (A) (A) (A)
                 (A) (A) (A) (A) (A) (A) (A) (A) (A) (A) (A) (A)
                 (A) (A) (A) (A) (A) (A) (A) (A) (A) (A) (A) (A)
                 (A) (A) (A) (A) (A) (A) (A) (A) (A) (A) (A) (A)
                 (A) (A) (A) (A) (A) (A) (A) (A) (A) (A) (A) (A)
                 (A) (A) (A) (A) (A) (A)
 The electronic state is 1-A.
 Alpha  occ. eigenvalues --  -19.18909 -19.18367 -19.18261 -19.18239 -19.18211
 Alpha  occ. eigenvalues --  -19.16369 -19.16024 -19.15804 -19.14636 -19.14607
 Alpha  occ. eigenvalues --  -19.12466 -10.30957 -10.30382 -10.26160 -10.25663
 Alpha  occ. eigenvalues --  -10.25251 -10.25114 -10.25028 -10.25002 -10.24545
 Alpha  occ. eigenvalues --  -10.24148 -10.24084 -10.23751  -1.10019  -1.09452
 Alpha  occ. eigenvalues --   -1.05754  -1.04797  -1.03907  -1.03540  -1.02427
 Alpha  occ. eigenvalues --   -1.02246  -1.01348  -1.01060  -0.99154  -0.82347
 Alpha  occ. eigenvalues --   -0.80380  -0.79710  -0.78101  -0.71765  -0.69838
 Alpha  occ. eigenvalues --   -0.67392  -0.64900  -0.63542  -0.62377  -0.61604
 Alpha  occ. eigenvalues --   -0.60096  -0.56704  -0.55683  -0.54956  -0.54855
 Alpha  occ. eigenvalues --   -0.53828  -0.53328  -0.53174  -0.52309  -0.50955
 Alpha  occ. eigenvalues --   -0.50753  -0.50214  -0.49175  -0.48252  -0.46590
 Alpha  occ. eigenvalues --   -0.46120  -0.45129  -0.44761  -0.43498  -0.43347
 Alpha  occ. eigenvalues --   -0.42369  -0.41883  -0.40939  -0.40038  -0.39777
 Alpha  occ. eigenvalues --   -0.38975  -0.37843  -0.37442  -0.36285  -0.35010
 Alpha  occ. eigenvalues --   -0.34826  -0.34493  -0.34107  -0.33597  -0.33392
 Alpha  occ. eigenvalues --   -0.32671  -0.31609  -0.30934  -0.30106  -0.29772
 Alpha  occ. eigenvalues --   -0.28871  -0.28472  -0.28163  -0.27207  -0.26669
 Alpha  occ. eigenvalues --   -0.25902
 Alpha virt. eigenvalues --   -0.02152  -0.02062  -0.01469   0.00016   0.00283
 Alpha virt. eigenvalues --    0.00895   0.01873   0.01928   0.03080   0.03451
 Alpha virt. eigenvalues --    0.03584   0.04249   0.05031   0.05214   0.05514
 Alpha virt. eigenvalues --    0.06069   0.06569   0.07481   0.07697   0.08148
 Alpha virt. eigenvalues --    0.08464   0.08802   0.09008   0.09411   0.09973
 Alpha virt. eigenvalues --    0.10615   0.11063   0.11445   0.11696   0.12102
 Alpha virt. eigenvalues --    0.12642   0.12934   0.13013   0.13514   0.13598
 Alpha virt. eigenvalues --    0.13817   0.14151   0.14565   0.14960   0.15049
 Alpha virt. eigenvalues --    0.15895   0.16283   0.16712   0.17154   0.17342
 Alpha virt. eigenvalues --    0.17655   0.17780   0.17951   0.18249   0.18673
 Alpha virt. eigenvalues --    0.18921   0.19059   0.19562   0.19907   0.20265
 Alpha virt. eigenvalues --    0.20364   0.20876   0.21350   0.21372   0.21795
 Alpha virt. eigenvalues --    0.21868   0.22298   0.22681   0.23109   0.23286
 Alpha virt. eigenvalues --    0.23509   0.23982   0.24317   0.24606   0.24843
 Alpha virt. eigenvalues --    0.25058   0.25375   0.25589   0.25709   0.26065
 Alpha virt. eigenvalues --    0.26271   0.26517   0.26753   0.27085   0.27192
 Alpha virt. eigenvalues --    0.27715   0.28075   0.28222   0.28432   0.29063
 Alpha virt. eigenvalues --    0.29329   0.29612   0.30042   0.30162   0.30626
 Alpha virt. eigenvalues --    0.31036   0.31330   0.31696   0.31973   0.32365
 Alpha virt. eigenvalues --    0.32589   0.33289   0.33401   0.33473   0.33626
 Alpha virt. eigenvalues --    0.34378   0.34591   0.35217   0.35266   0.35700
 Alpha virt. eigenvalues --    0.35875   0.36008   0.36728   0.37071   0.37549
 Alpha virt. eigenvalues --    0.37874   0.38475   0.38710   0.39336   0.39678
 Alpha virt. eigenvalues --    0.40218   0.40432   0.40887   0.41426   0.41655
 Alpha virt. eigenvalues --    0.41924   0.42501   0.43330   0.43481   0.44022
 Alpha virt. eigenvalues --    0.44839   0.45254   0.45754   0.46135   0.46890
 Alpha virt. eigenvalues --    0.47728   0.47891   0.48530   0.49267   0.49637
 Alpha virt. eigenvalues --    0.50127   0.51126   0.53158   0.57818   0.59036
 Alpha virt. eigenvalues --    0.59563   0.60070   0.60850   0.61868   0.62043
 Alpha virt. eigenvalues --    0.62565   0.64672   0.65224   0.66153   0.66660
 Alpha virt. eigenvalues --    0.68217   0.68452   0.69269   0.69727   0.70717
 Alpha virt. eigenvalues --    0.71180   0.72163   0.72581   0.73879   0.74391
 Alpha virt. eigenvalues --    0.74871   0.75496   0.75966   0.77129   0.77651
 Alpha virt. eigenvalues --    0.78242   0.79028   0.79065   0.81020   0.81498
 Alpha virt. eigenvalues --    0.82765   0.82930   0.83989   0.84449   0.85853
 Alpha virt. eigenvalues --    0.86434   0.87991   0.88393   0.89725   0.89818
 Alpha virt. eigenvalues --    0.90642   0.90776   0.91646   0.91900   0.92202
 Alpha virt. eigenvalues --    0.92847   0.93168   0.93905   0.94058   0.94646
 Alpha virt. eigenvalues --    0.95108   0.95617   0.95943   0.96247   0.96432
 Alpha virt. eigenvalues --    0.97077   0.97514   0.98233   0.98332   0.98858
 Alpha virt. eigenvalues --    0.99246   1.00536   1.00868   1.02055   1.02757
 Alpha virt. eigenvalues --    1.03547   1.04882   1.05012   1.06218   1.06609
 Alpha virt. eigenvalues --    1.06832   1.07721   1.07831   1.08114   1.08280
 Alpha virt. eigenvalues --    1.08700   1.09501   1.09522   1.10251   1.10932
 Alpha virt. eigenvalues --    1.12240   1.12769   1.13033   1.13780   1.14472
 Alpha virt. eigenvalues --    1.15090   1.15794   1.16637   1.16698   1.17120
 Alpha virt. eigenvalues --    1.17262   1.17680   1.18241   1.18735   1.19999
 Alpha virt. eigenvalues --    1.20392   1.20621   1.21314   1.22357   1.22491
 Alpha virt. eigenvalues --    1.23427   1.23638   1.24282   1.24685   1.25024
 Alpha virt. eigenvalues --    1.25434   1.26192   1.26878   1.27489   1.28256
 Alpha virt. eigenvalues --    1.28898   1.29280   1.30072   1.31250   1.31520
 Alpha virt. eigenvalues --    1.31986   1.32457   1.33936   1.34562   1.34791
 Alpha virt. eigenvalues --    1.35352   1.35896   1.36182   1.36944   1.37807
 Alpha virt. eigenvalues --    1.38541   1.38895   1.39483   1.40856   1.41060
 Alpha virt. eigenvalues --    1.41343   1.42017   1.42561   1.44073   1.44287
 Alpha virt. eigenvalues --    1.44693   1.45724   1.46789   1.47821   1.48365
 Alpha virt. eigenvalues --    1.48749   1.49632   1.50400   1.50587   1.52086
 Alpha virt. eigenvalues --    1.52296   1.53305   1.54294   1.54732   1.55248
 Alpha virt. eigenvalues --    1.57093   1.58143   1.58777   1.59108   1.60221
 Alpha virt. eigenvalues --    1.61621   1.62218   1.63036   1.64225   1.64637
 Alpha virt. eigenvalues --    1.65168   1.65762   1.66513   1.67864   1.68594
 Alpha virt. eigenvalues --    1.70077   1.70591   1.71915   1.73890   1.74939
 Alpha virt. eigenvalues --    1.75927   1.76894   1.77336   1.79155   1.80250
 Alpha virt. eigenvalues --    1.80772   1.81676   1.82581   1.83326   1.84009
 Alpha virt. eigenvalues --    1.84889   1.85068   1.86137   1.87202   1.87351
 Alpha virt. eigenvalues --    1.88889   1.90510   1.90813   1.91948   1.93201
 Alpha virt. eigenvalues --    1.94498   1.94936   1.96155   1.97235   1.99470
 Alpha virt. eigenvalues --    2.00757   2.00871   2.02089   2.03653   2.04799
 Alpha virt. eigenvalues --    2.05877   2.08101   2.09348   2.10212   2.10894
 Alpha virt. eigenvalues --    2.12099   2.14684   2.15458   2.16635   2.18741
 Alpha virt. eigenvalues --    2.20292   2.21475   2.22291   2.24270   2.25211
 Alpha virt. eigenvalues --    2.26229   2.28035   2.29565   2.31532   2.32160
 Alpha virt. eigenvalues --    2.32828   2.34573   2.36200   2.37881   2.38994
 Alpha virt. eigenvalues --    2.39747   2.41513   2.44304   2.49562   2.49968
 Alpha virt. eigenvalues --    2.50576   2.53019   2.53984   2.57957   2.58889
 Alpha virt. eigenvalues --    2.61929   2.63831   2.65571   2.66055   2.67681
 Alpha virt. eigenvalues --    2.68799   2.69224   2.70909   2.72241   2.72608
 Alpha virt. eigenvalues --    2.74685   2.75714   2.76004   2.77326   2.79875
 Alpha virt. eigenvalues --    2.80244   2.82642   2.84046   2.85431   2.86369
 Alpha virt. eigenvalues --    2.87170   2.89343   2.90704   2.91281   2.93543
 Alpha virt. eigenvalues --    2.94278   2.94891   2.95508   2.96037   2.96617
 Alpha virt. eigenvalues --    2.99022   2.99271   2.99968   3.00315   3.01773
 Alpha virt. eigenvalues --    3.01998   3.03531   3.04225   3.04544   3.05098
 Alpha virt. eigenvalues --    3.05996   3.06582   3.07264   3.07949   3.08351
 Alpha virt. eigenvalues --    3.09594   3.10220   3.11188   3.11602   3.13823
 Alpha virt. eigenvalues --    3.15408   3.16291   3.18255   3.21801   3.23429
 Alpha virt. eigenvalues --    3.24422   3.24648   3.33736   3.71486   3.80752
 Alpha virt. eigenvalues --    3.97839   4.02804   4.07956   4.10212   4.12794
 Alpha virt. eigenvalues --    4.14070   4.14396   4.15179   4.15952   4.16726
 Alpha virt. eigenvalues --    4.17476   4.18470   4.19030   4.19938   4.22951
 Alpha virt. eigenvalues --    4.23907   4.24245   4.24849   4.25305   4.26637
 Alpha virt. eigenvalues --    4.26774   4.28186   4.28632   4.29257   4.30236
 Alpha virt. eigenvalues --    4.30462   4.30991   4.31345   4.32606   4.32985
 Alpha virt. eigenvalues --    4.33118   4.33821   4.34082   4.34817   4.35597
 Alpha virt. eigenvalues --    4.36086   4.36161   4.37173   4.37437   4.37680
 Alpha virt. eigenvalues --    4.39196   4.39289   4.40639   4.43427   4.44056
 Alpha virt. eigenvalues --    4.45004   4.45556   4.46645   4.48896   4.50992
 Alpha virt. eigenvalues --    4.51286   4.52475   4.53503   4.54634   4.54877
 Alpha virt. eigenvalues --    4.56156   4.57974   4.58160   4.60428   4.61642
 Alpha virt. eigenvalues --    4.61898   4.62034   4.62837   4.63765   4.64245
 Alpha virt. eigenvalues --    4.64687   4.65105   4.65933   4.66656   4.66853
 Alpha virt. eigenvalues --    4.67812   4.68873   4.69531   4.69899   4.70444
 Alpha virt. eigenvalues --    4.71787   4.72403   4.73367   4.74678   4.75267
 Alpha virt. eigenvalues --    4.75769   4.76055   4.76723   4.77024   4.77410
 Alpha virt. eigenvalues --    4.78234   4.78714   4.80153   4.80380   4.80784
 Alpha virt. eigenvalues --    4.82033   4.82696   4.83504   4.84120   4.85102
 Alpha virt. eigenvalues --    4.87752   4.88367   4.89301   4.90390   4.92203
 Alpha virt. eigenvalues --    4.92577   4.93899   4.95190   4.95957   4.97964
 Alpha virt. eigenvalues --    4.98814   5.00243   5.02320   5.03267   5.05320
 Alpha virt. eigenvalues --    5.07015   5.09769   5.11955   5.13758   5.14758
 Alpha virt. eigenvalues --    5.20696   5.27177   5.29351   5.31634   5.38565
 Alpha virt. eigenvalues --    5.42048   5.72704   5.98923   6.23711   6.57043
 Alpha virt. eigenvalues --    6.71663   6.76960   6.79465   6.81493   6.84399
 Alpha virt. eigenvalues --    6.88826   6.90303   6.92684   6.95955   7.00165
 Alpha virt. eigenvalues --    7.04903  11.82899  11.93306  12.09591  12.13715
 Alpha virt. eigenvalues --   12.31249  12.36066  12.70524  12.74330  12.87595
 Alpha virt. eigenvalues --   12.97225  13.11554  13.18494  13.22881  13.29896
 Alpha virt. eigenvalues --   13.31232  13.33893  13.36840  13.43553  13.45141
 Alpha virt. eigenvalues --   13.53027  13.60594  13.68624  13.80180
          Condensed to atoms (all electrons):
              1          2          3          4          5          6
     1  O    8.204973   0.204774  -0.046577  -0.001504   0.008873  -0.010883
     2  C    0.204774   6.689447   0.287676  -0.050162  -0.052474  -1.061310
     3  C   -0.046577   0.287676   6.073980   0.177444   0.047086   0.211049
     4  O   -0.001504  -0.050162   0.177444   8.206686   0.234883  -0.006111
     5  H    0.008873  -0.052474   0.047086   0.234883   0.424539  -0.004136
     6  C   -0.010883  -1.061310   0.211049  -0.006111  -0.004136   8.745004
     7  O    0.000227  -0.013452  -0.128313  -0.005609  -0.000222   0.287077
     8  H    0.000008   0.001246   0.012441  -0.000151   0.000016   0.022089
     9  C    0.002175  -0.551707  -0.420832   0.004454  -0.003821   0.752563
    10  O   -0.017513   0.038198  -0.006659  -0.000028  -0.000004   0.004755
    11  H    0.001625  -0.015826   0.000656   0.000000   0.000000   0.000596
    12  C   -0.083948  -0.766330  -0.388110   0.038734  -0.003671   0.946459
    13  O    0.002144   0.026093  -0.041139  -0.001889  -0.000006  -0.011875
    14  C    0.021344   0.844966   0.023078  -0.038447   0.013027  -3.076348
    15  O   -0.000038  -0.012957   0.012891   0.000348  -0.000009  -0.006403
    16  C    0.001094   0.197055   0.082701  -0.004891   0.000602  -0.796896
    17  C   -0.000048  -0.074197   0.001101   0.000353   0.000003   0.140114
    18  O    0.000034   0.008549   0.000453  -0.000004   0.000000  -0.014507
    19  H   -0.000024   0.000244  -0.000636   0.000005   0.000000   0.005066
    20  C    0.000062   0.009003   0.000811  -0.000051   0.000003   0.013859
    21  O    0.000000  -0.000010  -0.000044   0.000000   0.000000  -0.000202
    22  H    0.000000  -0.000001   0.000001   0.000000   0.000000  -0.000036
    23  C    0.000015   0.008487  -0.002005  -0.000033  -0.000001  -0.122496
    24  O    0.000002   0.000569  -0.009007  -0.000418  -0.000002   0.003883
    25  H    0.000000   0.000078   0.001568   0.000006   0.000000  -0.000576
    26  C    0.000074  -0.009321  -0.031778  -0.000539   0.000016  -0.086433
    27  O    0.000000   0.000022  -0.000141   0.000001   0.000000   0.003385
    28  C    0.000000   0.002180  -0.001034   0.000011   0.000000  -0.015127
    29  O    0.000000   0.000002   0.000010   0.000000   0.000000  -0.000198
    30  H    0.000000   0.000000   0.000000   0.000000   0.000000   0.000007
    31  H    0.000000   0.000012  -0.000004   0.000000   0.000000  -0.000247
    32  H    0.000000   0.000215   0.000030   0.000000   0.000000   0.000019
    33  H    0.000000   0.000078   0.000627   0.000000   0.000000   0.007630
    34  H   -0.000001  -0.004197   0.003555   0.000001   0.000000   0.028700
    35  H    0.000000  -0.000192   0.000157   0.000000   0.000000  -0.000295
    36  H    0.000000  -0.000017   0.000033   0.000000   0.000000   0.001390
    37  H    0.000000  -0.000001   0.000164   0.000000   0.000000  -0.005342
    38  H    0.257428   0.060777  -0.022176  -0.001773  -0.000550   0.001663
    39  H    0.000025  -0.010817  -0.004983   0.000030   0.000000   0.004396
    40  H    0.001575  -0.019752  -0.001186  -0.000061   0.000000   0.008103
    41  H    0.004237   0.039650  -0.052120   0.001063   0.000017  -0.083827
    42  H   -0.019631   0.381179  -0.033790   0.003142  -0.000088  -0.072486
    43  H    0.003272  -0.058262   0.280659  -0.012311  -0.006632  -0.110774
    44  H    0.000602   0.000106  -0.185040   0.002411  -0.000203   0.485498
    45  H    0.000056  -0.020288  -0.035023   0.000057   0.000004   0.028594
              7          8          9         10         11         12
     1  O    0.000227   0.000008   0.002175  -0.017513   0.001625  -0.083948
     2  C   -0.013452   0.001246  -0.551707   0.038198  -0.015826  -0.766330
     3  C   -0.128313   0.012441  -0.420832  -0.006659   0.000656  -0.388110
     4  O   -0.005609  -0.000151   0.004454  -0.000028   0.000000   0.038734
     5  H   -0.000222   0.000016  -0.003821  -0.000004   0.000000  -0.003671
     6  C    0.287077   0.022089   0.752563   0.004755   0.000596   0.946459
     7  O    8.266967   0.244008   0.003307   0.000005   0.000000   0.028190
     8  H    0.244008   0.351361   0.000095   0.000000   0.000000  -0.002653
     9  C    0.003307   0.000095   9.941200   0.106967   0.001535  -2.520172
    10  O    0.000005   0.000000   0.106967   8.243984   0.232917   0.013753
    11  H    0.000000   0.000000   0.001535   0.232917   0.435036   0.016246
    12  C    0.028190  -0.002653  -2.520172   0.013753   0.016246  10.441679
    13  O    0.001533  -0.000364  -0.080836  -0.000443  -0.000637   0.046529
    14  C   -0.026583  -0.063092  -1.773040  -0.011420  -0.003197  -1.508706
    15  O    0.003874   0.009166  -0.006647   0.000104  -0.000001  -0.041233
    16  C   -0.013037   0.020128  -0.305390  -0.002453  -0.000335  -0.408897
    17  C   -0.000455  -0.000638   0.011613   0.000022  -0.000042  -0.070066
    18  O    0.000101  -0.000026  -0.012725  -0.000244  -0.000014   0.020714
    19  H   -0.000024  -0.000002   0.005363   0.000027  -0.000004  -0.009309
    20  C    0.000547   0.000834  -0.019947  -0.000091   0.000004  -0.028769
    21  O   -0.000001   0.000000   0.000292   0.000000   0.000000  -0.000077
    22  H    0.000000   0.000000  -0.000003   0.000000   0.000000   0.000011
    23  C    0.009651   0.011702  -0.004855  -0.000028  -0.000001  -0.021533
    24  O   -0.042966  -0.007011  -0.000237  -0.000001   0.000000   0.005061
    25  H    0.004339  -0.001930  -0.000022   0.000000   0.000000  -0.000738
    26  C   -0.007441  -0.018842   0.003200  -0.000079  -0.000005   0.030805
    27  O   -0.000029  -0.000085   0.000092   0.000000   0.000000   0.000336
    28  C   -0.000018  -0.000107   0.000165   0.000009   0.000000   0.005711
    29  O   -0.000001   0.000000  -0.000001   0.000000   0.000000   0.000095
    30  H    0.000000   0.000000   0.000000   0.000000   0.000000  -0.000002
    31  H    0.000000   0.000000  -0.000003   0.000000   0.000000   0.000093
    32  H    0.000000   0.000000  -0.000225   0.000000   0.000000   0.001070
    33  H   -0.000006  -0.000001  -0.000443   0.000000   0.000000   0.000013
    34  H   -0.000861  -0.000091   0.001205   0.000002   0.000000   0.005990
    35  H   -0.000133  -0.000007   0.000201   0.000000   0.000000   0.001829
    36  H   -0.000451   0.000222   0.000002   0.000000   0.000000   0.000180
    37  H    0.000598   0.000069   0.000004   0.000000   0.000000   0.000096
    38  H   -0.000021   0.000000   0.012951  -0.000467  -0.000033  -0.046037
    39  H   -0.000008   0.000000   0.438442  -0.014784  -0.013977  -0.063585
    40  H    0.000006   0.000000   0.682290  -0.065540   0.001882  -0.298968
    41  H    0.000356   0.000004   0.040711  -0.002922  -0.000201   0.099684
    42  H    0.000965  -0.000001  -0.094477  -0.001699   0.000000  -0.083232
    43  H    0.009217  -0.000095   0.007282  -0.000338   0.000000   0.043167
    44  H   -0.034529  -0.002885   0.034992   0.000023   0.000000   0.126867
    45  H    0.000972  -0.000159   0.043641   0.000115   0.000000   0.129143
             13         14         15         16         17         18
     1  O    0.002144   0.021344  -0.000038   0.001094  -0.000048   0.000034
     2  C    0.026093   0.844966  -0.012957   0.197055  -0.074197   0.008549
     3  C   -0.041139   0.023078   0.012891   0.082701   0.001101   0.000453
     4  O   -0.001889  -0.038447   0.000348  -0.004891   0.000353  -0.000004
     5  H   -0.000006   0.013027  -0.000009   0.000602   0.000003   0.000000
     6  C   -0.011875  -3.076348  -0.006403  -0.796896   0.140114  -0.014507
     7  O    0.001533  -0.026583   0.003874  -0.013037  -0.000455   0.000101
     8  H   -0.000364  -0.063092   0.009166   0.020128  -0.000638  -0.000026
     9  C   -0.080836  -1.773040  -0.006647  -0.305390   0.011613  -0.012725
    10  O   -0.000443  -0.011420   0.000104  -0.002453   0.000022  -0.000244
    11  H   -0.000637  -0.003197  -0.000001  -0.000335  -0.000042  -0.000014
    12  C    0.046529  -1.508706  -0.041233  -0.408897  -0.070066   0.020714
    13  O    8.209412   0.255382  -0.011344   0.001384   0.006263  -0.038044
    14  C    0.255382  11.343512   0.176339  -0.735735   0.373082  -0.030152
    15  O   -0.011344   0.176339   8.049516   0.295870  -0.059548  -0.004958
    16  C    0.001384  -0.735735   0.295870  10.666472  -2.045383  -0.031629
    17  C    0.006263   0.373082  -0.059548  -2.045383   8.100200   0.206852
    18  O   -0.038044  -0.030152  -0.004958  -0.031629   0.206852   8.169714
    19  H    0.024663  -0.000730   0.007274  -0.075521   0.068283   0.241415
    20  C   -0.015383  -0.352300  -0.006992  -0.809198  -0.057819  -0.029494
    21  O   -0.000054   0.004477   0.000276   0.035960  -0.127698   0.010061
    22  H    0.000002  -0.000197  -0.000018  -0.006716   0.034054  -0.000571
    23  C    0.001938   0.108951  -0.009950   0.099848  -0.190111   0.007318
    24  O    0.000825   0.065246  -0.024362   0.029012  -0.005408   0.000010
    25  H   -0.000028  -0.013302   0.002705  -0.007487  -0.001554   0.000000
    26  C   -0.014100  -0.453431  -0.084605  -1.766021  -0.012557   0.055595
    27  O    0.000028   0.015225   0.000489   0.036821  -0.023012  -0.000779
    28  C    0.001914   0.019444   0.010557   0.986828  -0.487514  -0.012065
    29  O    0.000015   0.000749  -0.000071  -0.016718  -0.004826   0.000269
    30  H    0.000000  -0.000050   0.000000  -0.002234   0.007140  -0.000011
    31  H    0.000022   0.000850   0.000648   0.053264  -0.025977   0.000405
    32  H    0.000210  -0.014933   0.001218   0.134338  -0.287343   0.006194
    33  H    0.001062  -0.009232  -0.004115  -0.077066   0.275081  -0.021597
    34  H   -0.001990   0.021262  -0.028560   0.114759   0.093821  -0.003368
    35  H   -0.000194   0.070813  -0.000025   0.011628   0.004088  -0.000211
    36  H    0.000035   0.010394   0.000993   0.004943   0.006031  -0.000001
    37  H   -0.000004   0.008874   0.001465   0.058573  -0.002892   0.000033
    38  H   -0.000544  -0.004773   0.000001   0.000077  -0.000057  -0.000001
    39  H    0.000284  -0.014648   0.000039   0.003123   0.001346   0.000086
    40  H   -0.004627  -0.001768  -0.000225  -0.003541   0.000801  -0.000240
    41  H   -0.047247   0.212455  -0.001034   0.015538   0.003605  -0.000822
    42  H    0.003568   0.173334  -0.000353   0.001995   0.000955   0.000012
    43  H    0.004305   0.086684  -0.000175  -0.009247   0.002054   0.000060
    44  H    0.011505  -0.137359  -0.012362  -0.062226   0.004056   0.000106
    45  H   -0.037921   0.241690  -0.042661  -0.073394   0.002872  -0.002304
             19         20         21         22         23         24
     1  O   -0.000024   0.000062   0.000000   0.000000   0.000015   0.000002
     2  C    0.000244   0.009003  -0.000010  -0.000001   0.008487   0.000569
     3  C   -0.000636   0.000811  -0.000044   0.000001  -0.002005  -0.009007
     4  O    0.000005  -0.000051   0.000000   0.000000  -0.000033  -0.000418
     5  H    0.000000   0.000003   0.000000   0.000000  -0.000001  -0.000002
     6  C    0.005066   0.013859  -0.000202  -0.000036  -0.122496   0.003883
     7  O   -0.000024   0.000547  -0.000001   0.000000   0.009651  -0.042966
     8  H   -0.000002   0.000834   0.000000   0.000000   0.011702  -0.007011
     9  C    0.005363  -0.019947   0.000292  -0.000003  -0.004855  -0.000237
    10  O    0.000027  -0.000091   0.000000   0.000000  -0.000028  -0.000001
    11  H   -0.000004   0.000004   0.000000   0.000000  -0.000001   0.000000
    12  C   -0.009309  -0.028769  -0.000077   0.000011  -0.021533   0.005061
    13  O    0.024663  -0.015383  -0.000054   0.000002   0.001938   0.000825
    14  C   -0.000730  -0.352300   0.004477  -0.000197   0.108951   0.065246
    15  O    0.007274  -0.006992   0.000276  -0.000018  -0.009950  -0.024362
    16  C   -0.075521  -0.809198   0.035960  -0.006716   0.099848   0.029012
    17  C    0.068283  -0.057819  -0.127698   0.034054  -0.190111  -0.005408
    18  O    0.241415  -0.029494   0.010061  -0.000571   0.007318   0.000010
    19  H    0.384078  -0.000120  -0.000076   0.000009  -0.003160  -0.000005
    20  C   -0.000120   7.014894   0.180299  -0.041604   0.068939  -0.006365
    21  O   -0.000076   0.180299   8.247991   0.243188  -0.000078   0.000014
    22  H    0.000009  -0.041604   0.243188   0.416539  -0.000179   0.000000
    23  C   -0.003160   0.068939  -0.000078  -0.000179   6.281231   0.034412
    24  O   -0.000005  -0.006365   0.000014   0.000000   0.034412   8.338583
    25  H    0.000000   0.001106   0.000000   0.000000  -0.012669   0.239519
    26  C   -0.005262   0.718182  -0.010189   0.002857  -0.882339   0.005212
    27  O    0.000077  -0.097425   0.001374  -0.000442  -0.088096   0.001312
    28  C    0.002142  -0.744545   0.034451  -0.005538  -0.112736   0.006012
    29  O   -0.000003   0.004475  -0.013215   0.017162   0.012048  -0.000004
    30  H    0.000000  -0.026549  -0.000468  -0.002410  -0.000280  -0.000001
    31  H    0.000005  -0.145886   0.003695   0.000460  -0.000492   0.000055
    32  H   -0.000132   0.342816  -0.034361  -0.002259   0.009229   0.000037
    33  H   -0.007908   0.029685   0.000109  -0.000150   0.012685  -0.000018
    34  H    0.000296   0.015096  -0.000388   0.000006  -0.007940   0.000282
    35  H    0.000026  -0.060438   0.000242   0.000004   0.069735   0.001925
    36  H    0.000000  -0.002296  -0.000005   0.000000   0.394447  -0.019113
    37  H    0.000000  -0.002381   0.000004   0.000000   0.622678  -0.062898
    38  H    0.000000   0.000000   0.000000   0.000000   0.000000   0.000000
    39  H    0.001781  -0.000710   0.000004   0.000000   0.000018   0.000000
    40  H    0.000076  -0.000050   0.000000   0.000000  -0.000008   0.000000
    41  H    0.000117   0.000524  -0.000001   0.000000   0.000244   0.000003
    42  H   -0.000004   0.000037   0.000000   0.000000   0.000145   0.000013
    43  H    0.000000  -0.000039   0.000000   0.000000   0.000442   0.000079
    44  H   -0.000006  -0.000147   0.000000   0.000000   0.001026  -0.000404
    45  H    0.000272   0.005423   0.000021   0.000000  -0.002822  -0.000012
             25         26         27         28         29         30
     1  O    0.000000   0.000074   0.000000   0.000000   0.000000   0.000000
     2  C    0.000078  -0.009321   0.000022   0.002180   0.000002   0.000000
     3  C    0.001568  -0.031778  -0.000141  -0.001034   0.000010   0.000000
     4  O    0.000006  -0.000539   0.000001   0.000011   0.000000   0.000000
     5  H    0.000000   0.000016   0.000000   0.000000   0.000000   0.000000
     6  C   -0.000576  -0.086433   0.003385  -0.015127  -0.000198   0.000007
     7  O    0.004339  -0.007441  -0.000029  -0.000018  -0.000001   0.000000
     8  H   -0.001930  -0.018842  -0.000085  -0.000107   0.000000   0.000000
     9  C   -0.000022   0.003200   0.000092   0.000165  -0.000001   0.000000
    10  O    0.000000  -0.000079   0.000000   0.000009   0.000000   0.000000
    11  H    0.000000  -0.000005   0.000000   0.000000   0.000000   0.000000
    12  C   -0.000738   0.030805   0.000336   0.005711   0.000095  -0.000002
    13  O   -0.000028  -0.014100   0.000028   0.001914   0.000015   0.000000
    14  C   -0.013302  -0.453431   0.015225   0.019444   0.000749  -0.000050
    15  O    0.002705  -0.084605   0.000489   0.010557  -0.000071   0.000000
    16  C   -0.007487  -1.766021   0.036821   0.986828  -0.016718  -0.002234
    17  C   -0.001554  -0.012557  -0.023012  -0.487514  -0.004826   0.007140
    18  O    0.000000   0.055595  -0.000779  -0.012065   0.000269  -0.000011
    19  H    0.000000  -0.005262   0.000077   0.002142  -0.000003   0.000000
    20  C    0.001106   0.718182  -0.097425  -0.744545   0.004475  -0.026549
    21  O    0.000000  -0.010189   0.001374   0.034451  -0.013215  -0.000468
    22  H    0.000000   0.002857  -0.000442  -0.005538   0.017162  -0.002410
    23  C   -0.012669  -0.882339  -0.088096  -0.112736   0.012048  -0.000280
    24  O    0.239519   0.005212   0.001312   0.006012  -0.000004  -0.000001
    25  H    0.418731   0.026988  -0.000591  -0.001135  -0.000003   0.000000
    26  C    0.026988   9.482812   0.140246  -0.847382  -0.026096  -0.000320
    27  O   -0.000591   0.140246   8.166480   0.203447  -0.052146   0.003169
    28  C   -0.001135  -0.847382   0.203447   6.000986   0.241148   0.010914
    29  O   -0.000003  -0.026096  -0.052146   0.241148   8.142517   0.263177
    30  H    0.000000  -0.000320   0.003169   0.010914   0.263177   0.419593
    31  H    0.000000  -0.006102  -0.047684   0.457105  -0.024491  -0.009224
    32  H    0.000000   0.001354   0.001790   0.077729  -0.004277   0.000059
    33  H    0.000000   0.065203   0.001802  -0.024504   0.000018   0.000009
    34  H   -0.000024   0.021868   0.004136  -0.006106  -0.000272   0.000002
    35  H   -0.000243   0.117983  -0.029340   0.059061  -0.000587   0.000023
    36  H   -0.014490  -0.055234  -0.003201   0.000645  -0.000056  -0.000001
    37  H    0.000540  -0.323042   0.002154   0.003467  -0.000124   0.000000
    38  H    0.000000  -0.000005   0.000000   0.000000   0.000000   0.000000
    39  H    0.000000   0.000312   0.000000   0.000004   0.000000   0.000000
    40  H    0.000000  -0.000123   0.000000   0.000002   0.000000   0.000000
    41  H    0.000000  -0.000034   0.000001   0.000032   0.000000   0.000000
    42  H    0.000000  -0.000173   0.000000  -0.000001   0.000000   0.000000
    43  H    0.000000  -0.000757   0.000000  -0.000005   0.000000   0.000000
    44  H   -0.000001  -0.003090   0.000000  -0.000032   0.000000   0.000000
    45  H    0.000008   0.013451   0.000213  -0.000452   0.000000   0.000000
             31         32         33         34         35         36
     1  O    0.000000   0.000000   0.000000  -0.000001   0.000000   0.000000
     2  C    0.000012   0.000215   0.000078  -0.004197  -0.000192  -0.000017
     3  C   -0.000004   0.000030   0.000627   0.003555   0.000157   0.000033
     4  O    0.000000   0.000000   0.000000   0.000001   0.000000   0.000000
     5  H    0.000000   0.000000   0.000000   0.000000   0.000000   0.000000
     6  C   -0.000247   0.000019   0.007630   0.028700  -0.000295   0.001390
     7  O    0.000000   0.000000  -0.000006  -0.000861  -0.000133  -0.000451
     8  H    0.000000   0.000000  -0.000001  -0.000091  -0.000007   0.000222
     9  C   -0.000003  -0.000225  -0.000443   0.001205   0.000201   0.000002
    10  O    0.000000   0.000000   0.000000   0.000002   0.000000   0.000000
    11  H    0.000000   0.000000   0.000000   0.000000   0.000000   0.000000
    12  C    0.000093   0.001070   0.000013   0.005990   0.001829   0.000180
    13  O    0.000022   0.000210   0.001062  -0.001990  -0.000194   0.000035
    14  C    0.000850  -0.014933  -0.009232   0.021262   0.070813   0.010394
    15  O    0.000648   0.001218  -0.004115  -0.028560  -0.000025   0.000993
    16  C    0.053264   0.134338  -0.077066   0.114759   0.011628   0.004943
    17  C   -0.025977  -0.287343   0.275081   0.093821   0.004088   0.006031
    18  O    0.000405   0.006194  -0.021597  -0.003368  -0.000211  -0.000001
    19  H    0.000005  -0.000132  -0.007908   0.000296   0.000026   0.000000
    20  C   -0.145886   0.342816   0.029685   0.015096  -0.060438  -0.002296
    21  O    0.003695  -0.034361   0.000109  -0.000388   0.000242  -0.000005
    22  H    0.000460  -0.002259  -0.000150   0.000006   0.000004   0.000000
    23  C   -0.000492   0.009229   0.012685  -0.007940   0.069735   0.394447
    24  O    0.000055   0.000037  -0.000018   0.000282   0.001925  -0.019113
    25  H    0.000000   0.000000   0.000000  -0.000024  -0.000243  -0.014490
    26  C   -0.006102   0.001354   0.065203   0.021868   0.117983  -0.055234
    27  O   -0.047684   0.001790   0.001802   0.004136  -0.029340  -0.003201
    28  C    0.457105   0.077729  -0.024504  -0.006106   0.059061   0.000645
    29  O   -0.024491  -0.004277   0.000018  -0.000272  -0.000587  -0.000056
    30  H   -0.009224   0.000059   0.000009   0.000002   0.000023  -0.000001
    31  H    0.605834   0.006138   0.002096  -0.000038   0.003585  -0.000031
    32  H    0.006138   0.626098   0.007380   0.001778  -0.000022   0.000001
    33  H    0.002096   0.007380   0.611994   0.005261   0.001511   0.000005
    34  H   -0.000038   0.001778   0.005261   0.598598   0.005951   0.000075
    35  H    0.003585  -0.000022   0.001511   0.005951   0.619139  -0.004590
    36  H   -0.000031   0.000001   0.000005   0.000075  -0.004590   0.578041
    37  H   -0.000012  -0.000030  -0.000008   0.003095   0.006310  -0.041080
    38  H    0.000000   0.000000   0.000000   0.000000   0.000000   0.000000
    39  H    0.000000   0.000000   0.000000   0.000000   0.000000   0.000000
    40  H    0.000000   0.000000   0.000000   0.000000   0.000000   0.000000
    41  H    0.000000   0.000000  -0.000001  -0.000019   0.000000   0.000000
    42  H    0.000000   0.000000   0.000000   0.000000   0.000000   0.000000
    43  H    0.000000   0.000000   0.000000   0.000000   0.000000   0.000000
    44  H    0.000000   0.000000  -0.000004   0.000000   0.000001   0.000000
    45  H    0.000000  -0.000007  -0.000033   0.008261  -0.000004  -0.000002
             37         38         39         40         41         42
     1  O    0.000000   0.257428   0.000025   0.001575   0.004237  -0.019631
     2  C   -0.000001   0.060777  -0.010817  -0.019752   0.039650   0.381179
     3  C    0.000164  -0.022176  -0.004983  -0.001186  -0.052120  -0.033790
     4  O    0.000000  -0.001773   0.000030  -0.000061   0.001063   0.003142
     5  H    0.000000  -0.000550   0.000000   0.000000   0.000017  -0.000088
     6  C   -0.005342   0.001663   0.004396   0.008103  -0.083827  -0.072486
     7  O    0.000598  -0.000021  -0.000008   0.000006   0.000356   0.000965
     8  H    0.000069   0.000000   0.000000   0.000000   0.000004  -0.000001
     9  C    0.000004   0.012951   0.438442   0.682290   0.040711  -0.094477
    10  O    0.000000  -0.000467  -0.014784  -0.065540  -0.002922  -0.001699
    11  H    0.000000  -0.000033  -0.013977   0.001882  -0.000201   0.000000
    12  C    0.000096  -0.046037  -0.063585  -0.298968   0.099684  -0.083232
    13  O   -0.000004  -0.000544   0.000284  -0.004627  -0.047247   0.003568
    14  C    0.008874  -0.004773  -0.014648  -0.001768   0.212455   0.173334
    15  O    0.001465   0.000001   0.000039  -0.000225  -0.001034  -0.000353
    16  C    0.058573   0.000077   0.003123  -0.003541   0.015538   0.001995
    17  C   -0.002892  -0.000057   0.001346   0.000801   0.003605   0.000955
    18  O    0.000033  -0.000001   0.000086  -0.000240  -0.000822   0.000012
    19  H    0.000000   0.000000   0.001781   0.000076   0.000117  -0.000004
    20  C   -0.002381   0.000000  -0.000710  -0.000050   0.000524   0.000037
    21  O    0.000004   0.000000   0.000004   0.000000  -0.000001   0.000000
    22  H    0.000000   0.000000   0.000000   0.000000   0.000000   0.000000
    23  C    0.622678   0.000000   0.000018  -0.000008   0.000244   0.000145
    24  O   -0.062898   0.000000   0.000000   0.000000   0.000003   0.000013
    25  H    0.000540   0.000000   0.000000   0.000000   0.000000   0.000000
    26  C   -0.323042  -0.000005   0.000312  -0.000123  -0.000034  -0.000173
    27  O    0.002154   0.000000   0.000000   0.000000   0.000001   0.000000
    28  C    0.003467   0.000000   0.000004   0.000002   0.000032  -0.000001
    29  O   -0.000124   0.000000   0.000000   0.000000   0.000000   0.000000
    30  H    0.000000   0.000000   0.000000   0.000000   0.000000   0.000000
    31  H   -0.000012   0.000000   0.000000   0.000000   0.000000   0.000000
    32  H   -0.000030   0.000000   0.000000   0.000000   0.000000   0.000000
    33  H   -0.000008   0.000000   0.000000   0.000000  -0.000001   0.000000
    34  H    0.003095   0.000000   0.000000   0.000000  -0.000019   0.000000
    35  H    0.006310   0.000000   0.000000   0.000000   0.000000   0.000000
    36  H   -0.041080   0.000000   0.000000   0.000000   0.000000   0.000000
    37  H    0.572191   0.000000   0.000000   0.000000   0.000000   0.000000
    38  H    0.000000   0.419938   0.000008  -0.000185  -0.000190  -0.011886
    39  H    0.000000   0.000008   0.586160  -0.045456  -0.005740  -0.000089
    40  H    0.000000  -0.000185  -0.045456   0.598622   0.007273   0.002196
    41  H    0.000000  -0.000190  -0.005740   0.007273   0.646010   0.007469
    42  H    0.000000  -0.011886  -0.000089   0.002196   0.007469   0.618829
    43  H    0.000000  -0.000114   0.000007  -0.000008   0.003718   0.005926
    44  H    0.000001   0.000017   0.000001  -0.000016   0.000006   0.002396
    45  H    0.000024   0.000002  -0.000011  -0.000015   0.003854  -0.000038
             43         44         45
     1  O    0.003272   0.000602   0.000056
     2  C   -0.058262   0.000106  -0.020288
     3  C    0.280659  -0.185040  -0.035023
     4  O   -0.012311   0.002411   0.000057
     5  H   -0.006632  -0.000203   0.000004
     6  C   -0.110774   0.485498   0.028594
     7  O    0.009217  -0.034529   0.000972
     8  H   -0.000095  -0.002885  -0.000159
     9  C    0.007282   0.034992   0.043641
    10  O   -0.000338   0.000023   0.000115
    11  H    0.000000   0.000000   0.000000
    12  C    0.043167   0.126867   0.129143
    13  O    0.004305   0.011505  -0.037921
    14  C    0.086684  -0.137359   0.241690
    15  O   -0.000175  -0.012362  -0.042661
    16  C   -0.009247  -0.062226  -0.073394
    17  C    0.002054   0.004056   0.002872
    18  O    0.000060   0.000106  -0.002304
    19  H    0.000000  -0.000006   0.000272
    20  C   -0.000039  -0.000147   0.005423
    21  O    0.000000   0.000000   0.000021
    22  H    0.000000   0.000000   0.000000
    23  C    0.000442   0.001026  -0.002822
    24  O    0.000079  -0.000404  -0.000012
[...]
 31,0.00009774,0.00003024,-0.00003145,0.00003094,-0.00297315,-0.0001446
 0,0.00125290,0.00117732,0.00053575,0.00165892,0.00017966,-0.00038905,-
 0.00016427,0.00008723,0.00004682,0.00010668,-0.00000644,0.00000632,-0.
 00000746,-0.00002242,-0.00001809,-0.00002052,0.00001767,-0.00000634,0.
 00005013,-0.00002466,0.00002807,-0.00003406,-0.00000375,0.00000383,0.0
 0000195,0.00000853,0.00000139,0.00000448,-0.00000347,-0.00000131,-0.00
 000174,-0.00001623,-0.00001758,0.00002122,0.00001665,0.00001323,-0.000
 01858,-0.00001072,-0.00000147,0.00000438,-0.00001380,-0.00001032,-0.00
 000056,0.00000877,0.00001128,-0.00000132,-0.00000842,-0.00000905,-0.00
 000188,0.00000430,0.00000332,0.00000082,-0.00000172,-0.00000054,-0.000
 00039,0.00000310,0.00000134,0.00000173,0.00000423,-0.00000003,-0.00000
 278,0.00000827,0.00000258,0.00000719,0.00000504,-0.00000112,-0.0000066
 1,0.00000586,-0.00000002,0.00000435,0.00000058,0.00000277,-0.00000141,
 0.00000661,0.00000270,-0.00000371,0.00098963,0.00030435,-0.00040121,0.
 00010306,-0.00006075,0.00002453,0.00009311,-0.00078221,-0.00002948,0.0
 0081671,-0.00026390,-0.00003023,0.35607941,-0.01027742,-0.00129322,-0.
 00368342,-0.05458335,-0.05515548,0.01351299,0.02901986,0.00367416,-0.0
 0800395,-0.00185434,0.00304236,-0.00000619,0.00015280,-0.00006703,0.00
 002703,0.00120672,0.00100407,0.00102574,-0.00042086,-0.00025983,-0.000
 03003,-0.00007723,0.00000815,0.00008550,-0.00146187,0.00202518,-0.0002
 3477,0.00035799,-0.00001633,0.00000314,0.00002335,-0.00001433,0.000018
 95,-0.02808407,-0.00575956,0.00840333,0.00170228,0.00170976,-0.0011187
 9,0.00032642,-0.00056211,-0.00015083,0.00003097,0.00011669,0.00002499,
 -0.00002580,0.00002321,-0.00000488,-0.00000442,-0.00001583,-0.00003067
 ,0.00003025,0.00001093,0.00001554,-0.00004102,0.00000593,-0.00000935,-
 0.00000328,0.00000416,-0.00000010,0.00000553,0.00000050,0.00000197,-0.
 00000177,-0.00000050,-0.00000093,0.00000135,-0.00001279,0.00001081,-0.
 00000448,0.00000200,-0.00003509,0.00000442,0.00000288,-0.00000262,-0.0
 0000314,-0.00000623,-0.00000020,-0.00000005,0.00000776,0.00000045,-0.0
 0000128,-0.00000702,-0.00000074,0.00000108,0.00000183,0.00000016,-0.00
 000050,0.00000002,0.00000003,0.00000083,0.00000123,0.00000099,0.000002
 11,-0.00000095,-0.00000240,0.00000690,0.00000648,0.00000775,0.00000274
 ,-0.00000812,0.00000276,0.00000050,0.00000163,0.00000087,-0.00000043,0
 .00000308,-0.00000394,0.00000018,-0.00000010,0.00000162,-0.00081095,0.
 00124321,0.00027196,0.00044363,0.00013452,-0.00013867,0.00095858,-0.00
 031978,-0.00045992,-0.00079298,-0.00326304,0.00365494,0.06258189,0.058
 13510,-0.03954706,-0.01067760,-0.00989174,0.07076607,0.01251050,-0.057
 03285,0.01241657,0.00365073,-0.00275036,-0.00153220,0.00049730,0.00067
 698,-0.00015910,-0.00018560,-0.00005662,0.00157306,0.00007231,0.000220
 32,-0.00046808,-0.00001800,0.00001577,0.00002363,0.00002281,0.00000701
 ,-0.00004137,-0.00124530,0.00003279,-0.00006004,-0.00002577,0.00020509
 ,-0.00000671,-0.00005553,0.00005104,0.02448989,0.00590096,-0.00534468,
 -0.00129944,-0.00126451,0.00228708,0.00036750,0.00004195,-0.00032536,-
 0.00010275,-0.00000823,-0.00014747,0.00000233,-0.00003683,0.00001376,0
 .00002138,0.00002024,0.00003571,-0.00005401,-0.00002320,-0.00003019,0.
 00005599,0.00002136,-0.00000100,0.00000279,-0.00001174,0.00000821,-0.0
 0000887,0.00001060,-0.00001551,0.00000255,-0.00000029,0.00000329,0.000
 00928,0.00001147,-0.00000940,-0.00001266,-0.00001520,-0.00000262,0.000
 00634,0.00000324,-0.00000228,0.00001291,0.00001553,0.00001227,-0.00000
 949,-0.00000251,-0.00001810,0.00000966,0.00000003,0.00001979,0.0000007
 4,-0.00000071,-0.00001541,0.00000131,0.00000054,0.00000298,-0.00000352
 ,-0.00000112,-0.00000292,-0.00000538,0.00000036,0.00000420,-0.00001203
 ,-0.00000644,-0.00001310,-0.00000947,0.00000325,0.00001363,-0.00000574
 ,-0.00000195,-0.00000606,-0.00000121,-0.00000443,-0.00000119,-0.000004
 54,0.00000009,0.00000419,-0.00243481,0.00033218,0.00349219,-0.00015999
 ,-0.00006232,0.00004935,-0.00056551,0.00045752,0.00033941,0.00041596,0
 .00341894,-0.00345014,-0.06380072,-0.01085315,0.07261808,0.00189442,-0
 .00016517,-0.00039935,-0.01699769,-0.00194376,0.00073319,-0.34199130,-
 0.04609073,0.03836231,0.00216536,-0.00431763,0.00488636,0.00103006,-0.
 00071166,0.00003784,-0.01675048,-0.00029788,0.00032383,0.00202716,-0.0
 0033208,-0.00003950,0.00012654,0.00003313,0.00013474,0.00053765,0.0003
 3012,-0.00026558,0.00003301,-0.00001334,-0.00001261,-0.00000220,0.0000
 1663,0.00000862,-0.00114155,-0.00159844,0.00079588,0.00059916,0.000527
 76,0.00007476,-0.00079106,-0.00138566,0.00116066,0.00054775,0.00012507
 ,-0.00017653,-0.00010996,0.00003996,-0.00003631,-0.00000046,-0.0000227
 4,-0.00006397,0.00004492,0.00001913,0.00004244,-0.00002664,-0.00000754
 ,0.00000196,-0.00001853,0.00001352,0.00000216,0.00001436,0.00000252,0.
 00000330,-0.00000530,-0.00000044,-0.00000343,-0.00005267,-0.00004488,0
 .00004840,0.00002938,0.00003338,-0.00006902,-0.00001756,-0.00000758,0.
 00000618,0.00000087,-0.00000436,-0.00000447,0.00001132,0.00001875,-0.0
 0001243,-0.00000652,-0.00001925,-0.00000343,0.00000461,0.00000695,0.00
 000178,-0.00000123,-0.00000130,-0.00000107,0.00000349,0.00000197,0.000
 00257,0.00000682,-0.00000010,-0.00000386,0.00001187,-0.00000057,0.0000
 0926,0.00001570,0.00000549,-0.00004069,0.00000994,-0.00000095,0.000010
 49,0.00000713,0.00000762,-0.00000682,0.00001704,0.00000582,-0.00001395
 ,0.00037242,-0.00032191,-0.00026036,-0.00001340,0.00012030,0.00001351,
 0.00013024,-0.00034246,-0.00005837,0.00138373,0.00064337,-0.00080972,-
 0.00033859,0.00209102,0.00070139,0.36720365,-0.00174770,0.00181375,0.0
 0162475,0.02928295,0.00154715,-0.00346920,-0.04525256,-0.04704987,0.00
 293822,-0.02918249,-0.01731201,0.01639511,-0.00027328,0.00085528,-0.00
 112997,-0.00939600,0.00016970,-0.00017122,0.00053964,0.00088152,0.0010
 1078,0.00010424,0.00002945,-0.00007256,0.00003359,-0.00005591,0.000000
 81,-0.00008710,-0.00006009,-0.00003600,-0.00000777,0.00000923,-0.00000
 840,0.00184887,0.00201116,-0.00153214,-0.00019527,-0.00017630,0.000304
 27,0.00033332,-0.00035698,0.00039128,0.00012919,-0.00003498,-0.0001230
 3,-0.00002530,0.00001973,-0.00001690,0.00000017,-0.00001192,-0.0000245
 2,-0.00000920,0.00000056,0.00003503,0.00001016,0.00001650,-0.00003731,
 -0.00000498,0.00001033,-0.00000034,0.00000323,-0.00000567,0.00000251,-
 0.00000132,0.00000221,-0.00000128,-0.00001638,0.00001634,-0.00000942,0
 .00003408,0.00000217,0.00007039,-0.00002034,-0.00000732,0.00000498,-0.
 00000860,0.00001943,-0.00000169,0.00000770,-0.00001503,0.00000232,-0.0
 0000514,0.00000700,-0.00000902,-0.00000118,-0.00000201,0.00000842,-0.0
 0000041,-0.00000004,-0.00000167,0.00000165,-0.00000091,0.00000084,0.00
 000112,0.00000050,0.00000093,0.00000097,0.00000012,-0.00000039,0.00000
 085,0.00000812,-0.00000736,0.00000436,-0.00000475,0.00000189,0.0000020
 8,-0.00000314,0.00000673,0.00000426,0.00000210,-0.00000738,-0.00002332
 ,0.00023955,0.00042740,-0.00007112,-0.00004550,0.00001439,-0.00022346,
 0.00002750,0.00008692,-0.00038418,-0.00047026,0.00050263,0.00204824,-0
 .00420051,-0.00196607,0.05322126,0.06178493,-0.00056579,0.00109110,0.0
 0160756,0.01621834,-0.00124798,-0.00111171,0.03686131,0.00163415,-0.04
 721043,0.02225757,0.01735582,-0.01092223,0.00124358,0.00005535,0.00109
 664,-0.03301564,-0.00430148,0.00228826,0.00218123,0.00117523,0.0020005
 4,0.00008501,0.00023896,-0.00001006,-0.00015199,-0.00016060,0.00015143
 ,-0.00002705,-0.00000796,-0.00001580,-0.00000320,0.00000641,-0.0000095
 4,-0.00040640,0.00102358,-0.00082704,-0.00002482,0.00038926,-0.0003440
 4,-0.00101891,-0.00120158,0.00227014,0.00045829,0.00004380,-0.00014019
 ,-0.00000417,0.00001675,0.00003041,0.00000597,-0.00000841,-0.00001889,
 0.00001830,0.00001400,-0.00001191,-0.00001537,-0.00002948,0.00002662,-
 0.00000823,0.00000094,0.00000946,0.00000246,0.00000840,-0.00001317,-0.
 00000113,0.00000078,0.00000045,-0.00002039,0.00001398,0.00001420,0.000
 02484,-0.00001093,0.00007499,-0.00000563,0.00000743,-0.00000215,-0.000
 00330,0.00002402,0.00002021,0.00000569,-0.00000439,-0.00002574,0.00000
 073,-0.00000608,0.00001502,0.00000436,0.00000149,-0.00001206,-0.000000
 05,0.00000032,0.00000229,0.00000017,0.00000048,-0.00000021,0.00000034,
 0.00000110,-0.00000176,0.00000233,-0.00000484,0.00000586,0.00001744,0.
 00001444,-0.00005063,0.00000645,-0.00000355,0.00000768,0.00000180,-0.0
 0000613,0.00000368,0.00000694,0.00000150,-0.00000639,-0.00015545,0.000
 36492,0.00020675,-0.00002567,-0.00009689,0.00000107,-0.00006955,0.0001
 2784,0.00000200,-0.00070739,0.00037083,0.00047982,0.00105462,-0.001940
 38,-0.00086270,-0.04185448,-0.01397157,0.05674987,0.00092688,0.0003722
 2,-0.00000172,-0.00124410,0.00114033,0.00128742,-0.02081474,-0.0064070
 3,0.00081462,0.00174804,0.00040869,0.00066374,0.00033283,0.00008068,0.
 00017448,-0.32944736,-0.05151696,0.05364437,-0.00978012,0.01510133,0.0
 1013234,-0.00055842,0.00019677,-0.00141116,-0.00004942,-0.00003017,0.0
 0003052,0.00006900,0.00005353,0.00002073,-0.00001419,-0.00000337,0.000
 00488,-0.00027505,-0.00048158,-0.00004774,0.00223419,-0.00037268,-0.00
 125861,-0.00654687,-0.00067451,0.00169866,0.00094428,-0.00012984,0.000
 28567,0.00025056,0.00002445,0.00012269,-0.00001170,0.00008674,0.000070
 23,0.00002731,-0.00003067,-0.00014798,-0.00001022,-0.00005794,0.000084
 26,-0.00000739,0.00001330,-0.00000446,0.00001146,-0.00003343,-0.000000
 87,-0.00000403,0.00000661,-0.00000009,0.00001530,0.00024953,-0.0001748
 6,0.00020307,-0.00011462,0.00070510,-0.00005105,-0.00002327,-0.0000228
 1,-0.00007424,0.00008117,0.00001147,0.00005030,-0.00012152,0.00003223,
 -0.00004085,0.00009141,-0.00002788,0.00000444,-0.00002554,0.00001534,-
 0.00000299,0.00000146,-0.00000177,0.00000956,-0.00000589,0.00000428,0.
 00000829,0.00000338,-0.00000194,0.00000712,-0.00001921,0.00001500,0.00
 001226,0.00006273,-0.00021834,0.00002048,-0.00000954,0.00001599,-0.000
 00331,-0.00004058,0.00006608,-0.00000683,-0.00001982,-0.00001596,-0.00
 000599,-0.00018869,-0.00018039,0.00000832,-0.00001155,-0.00001554,0.00
 005365,-0.00005065,-0.00002143,0.00009240,0.00023251,-0.00007855,0.001
 35083,-0.00039242,-0.00034799,-0.00042326,-0.00077352,-0.00287880,0.36
 029923,0.00022421,-0.00005660,0.00010100,-0.00140559,-0.00000612,-0.00
 031053,-0.00853372,-0.00029831,-0.00000766,0.00084251,0.00046024,-0.00
 010342,-0.00001313,-0.00011653,0.00001986,-0.04927585,-0.04221931,0.01
 318777,0.04025511,-0.01558126,-0.01716988,0.00136899,0.00081888,0.0011
 9479,-0.00003913,0.00001970,-0.00001018,0.00003416,0.00000258,0.000016
 56,-0.00000496,-0.00000159,0.00000086,-0.00030499,-0.00042876,-0.00019
 893,0.00054198,0.00263447,-0.00019439,-0.02864406,-0.00729417,0.008709
 99,0.00135247,0.00111508,-0.00125306,-0.00021347,0.00009502,-0.0000091
 4,0.00003149,0.00002878,-0.00015131,0.00015567,-0.00009076,0.00005614,
 -0.00009572,0.00001296,0.00012414,-0.00001576,0.00003024,-0.00001187,0
 .00001026,-0.00000054,0.00001529,-0.00000287,-0.00000307,-0.00000311,-
 0.00008415,-0.00023453,0.00018725,-0.00032176,-0.00000817,-0.00067271,
 0.00007946,0.00002081,-0.00002171,0.00013237,-0.00010191,-0.00003712,-
 0.00002996,0.00008621,-0.00001023,0.00001339,-0.00005773,-0.00000698,-
 0.00000077,0.00001684,0.00000315,0.00000034,-0.00000080,-0.00000125,-0
 .00000112,0.00000639,0.00000227,0.00000907,0.00000117,-0.00000673,0.00
 002530,-0.00001578,0.00002701,0.00019566,0.00000276,-0.00009240,-0.000
 00282,0.00003627,0.00003270,0.00001301,0.00004709,-0.00005719,0.000024
 09,-0.00000061,0.00001915,0.00000611,-0.00000603,-0.00001318,-0.000002
 12,-0.00000033,0.00001471,0.00003870,-0.00004882,-0.00002609,0.0001914
 1,0.00018864,0.00002938,0.00009760,-0.00004355,-0.00051273,-0.00034119
 ,0.00005796,-0.00138646,0.04338207,0.06444094,0.00030694,0.00017671,-0
 .00008561,-0.00137582,0.00033759,0.00084765,-0.03320952,-0.00757440,0.
 00159351,0.00175369,-0.00023879,0.00234163,0.00025873,-0.00017203,0.00
 040140,0.05393977,0.01449929,-0.05470466,0.01633570,-0.01083057,-0.003
 01563,0.00114339,0.00006160,0.00052139,-0.00001414,-0.00001024,0.00007
 020,-0.00000512,-0.00001844,-0.00000911,0.00000609,-0.00000057,-0.0000
 0129,-0.00015876,-0.00012278,-0.00030412,-0.00151832,-0.00202250,0.001
 13588,0.02883057,0.00970064,-0.00737379,-0.00087763,-0.00121314,0.0022
 6616,0.00039678,-0.00015398,-0.00026649,-0.00003837,-0.00004821,0.0002
 0045,-0.00013307,0.00008659,-0.00003860,0.00007410,-0.00001884,-0.0000
 5164,0.00002329,-0.00005453,-0.00000688,-0.00001793,0.00000941,0.00000
 786,0.00000490,-0.00000554,0.00000380,0.00003944,-0.00002890,-0.000010
 43,-0.00022919,-0.00003909,-0.00028023,0.00004220,-0.00000558,0.000009
 25,-0.00003660,-0.00002495,-0.00000561,-0.00003261,0.00002641,0.000037
 32,0.00001937,0.00000141,0.00000919,-0.00000563,0.00000014,-0.00000746
 ,0.00000204,0.00000009,0.00000044,-0.00000575,-0.00000053,-0.00000489,
 -0.00001295,-0.00000454,0.00000897,-0.00003970,0.00003709,-0.00002763,
 -0.00029305,-0.00005241,0.00007451,-0.00003297,-0.00001720,-0.00006628
 ,-0.00000683,0.00000691,-0.00001843,-0.00002451,-0.00000296,0.00003741
 ,0.00010848,-0.00004402,-0.00002143,0.00000988,-0.00002472,0.00001063,
 -0.00000063,-0.00001005,0.00000287,0.00008832,0.00010637,-0.00023834,0
 .00020902,-0.00028359,-0.00029538,-0.00250817,-0.00110058,-0.00520618,
 -0.06324381,-0.00444377,0.06526676,0.00010130,-0.00008787,0.00026018,0
 .00015122,0.00052656,-0.00011525,0.00004017,-0.00017717,-0.00011857,0.
 00027347,0.00004019,-0.00014065,-0.00004917,0.00000228,0.00009394,-0.0
 0284663,0.00008656,0.00232359,0.00133525,-0.00113147,-0.00113754,-0.00
 034961,-0.00017578,0.00008585,0.00060121,-0.00014289,0.00003177,0.0000
 4199,0.00023043,0.00010403,-0.00001958,-0.00000628,0.00004165,-0.00025
 443,-0.00076752,-0.00119997,-0.01298575,0.01008863,0.00883871,-0.31914
 554,-0.05862038,0.06915960,-0.02205501,-0.00603420,-0.00846995,-0.0000
 9448,-0.00120007,0.00466541,0.00022404,0.00019869,-0.00038534,0.000698
 85,-0.00035988,-0.00006637,-0.00039377,-0.00028804,0.00075064,-0.00003
 651,0.00015769,0.00000047,0.00004562,-0.00000733,-0.00003313,-0.000014
 86,0.00001213,-0.00001140,-0.00031279,0.00002808,0.00006658,0.00014250
 ,-0.00001673,-0.00002759,0.00001110,-0.00003191,-0.00000906,0.00072052
 ,0.00008849,0.00000553,0.00004372,-0.00008360,-0.00027290,-0.00001453,
 -0.00006111,0.00001450,0.00001445,0.00001428,-0.00001325,-0.00000146,0
 .00000232,0.00000137,0.00000741,0.00000955,0.00000868,0.00004248,0.000
 01740,-0.00004317,0.00015097,-0.00025937,0.00018844,0.00163668,0.00063
 721,-0.00133608,0.00014649,0.00020936,0.00035207,0.00006147,0.00001128
 ,-0.00000251,0.00010708,-0.00002235,-0.00005044,0.00000426,-0.00000741
 ,-0.00001343,-0.00002375,-0.00003429,0.00000489,0.00002384,-0.00021423
 ,-0.00012806,0.00076225,0.00047628,0.00123590,-0.00004162,-0.00010974,
 -0.00022664,0.00045974,0.00009871,0.00050565,0.00069233,0.00030770,0.0
 0022837,0.35009905,-0.00006937,0.00032701,-0.00022227,-0.00045620,-0.0
 0060201,-0.00012345,-0.00127068,-0.00008945,-0.00148489,0.00050736,0.0
 0004972,0.00015613,0.00012463,-0.00007297,0.00006520,-0.02607937,-0.00
 323156,0.01100987,0.00176599,0.00299326,-0.00152538,-0.00049156,-0.000
 29610,-0.00007248,-0.00004680,0.00015159,-0.00001923,-0.00013510,-0.00
 022132,-0.00006295,-0.00000435,0.00002720,-0.00003837,0.00443958,0.001
 54533,0.00404663,0.03581479,-0.00897872,-0.01904789,-0.06301738,-0.055
 05749,0.01848218,-0.00792852,0.00309339,-0.00171875,0.00041212,-0.0002
 8489,0.00165817,0.00020261,0.00004803,0.00009513,-0.00031263,0.0000651
 2,0.00010229,0.00021446,0.00024710,-0.00080140,0.00003018,0.00000448,0
 .00007470,-0.00001207,0.00005342,-0.00007821,-0.00000338,0.00000259,0.
 00000662,-0.00015103,0.00003771,-0.00008414,0.00005461,-0.00006134,0.0
 0001045,-0.00001617,-0.00001511,-0.00000914,0.00005537,0.00011335,0.00
 006104,0.00001101,-0.00004751,-0.00013938,0.00000648,-0.00000681,0.000
 08509,0.00001619,0.00000260,-0.00006050,0.00000145,0.00000071,0.000010
 66,-0.00000326,-0.00000315,-0.00000653,-0.00001059,0.00000759,0.000001
 23,0.00000822,-0.00008851,0.00001056,0.00055795,0.00047352,-0.00006873
 ,0.00002772,0.00000810,0.00007251,0.00004176,-0.00001700,0.00000388,0.
 00004753,-0.00001422,-0.00005476,-0.00001860,0.00000822,0.00002277,0.0
 0004563,0.00001253,0.00001727,-0.00013545,0.00007696,0.00006028,-0.001
 53601,0.00037775,0.00032823,0.00006319,-0.00015852,-0.00001267,0.00070
 784,0.00028089,0.00040580,-0.00005390,-0.00350777,0.00351720,0.0565957
 7,0.06274623,-0.00013479,-0.00003792,-0.00029269,-0.00018917,0.0001563
 9,-0.00020614,0.00172033,-0.00003707,0.00142701,-0.00051627,0.00000904
 ,0.00004650,-0.00003509,-0.00002907,-0.00004105,0.02346549,0.00679959,
 -0.00545155,-0.00191944,-0.00022054,0.00146993,-0.00013056,0.00010412,
 -0.00029072,-0.00016177,-0.00006400,-0.00000548,-0.00010000,-0.0001425
 4,-0.00006118,0.00001054,0.00000946,-0.00001833,0.00345827,0.00074548,
 0.00304220,0.01498036,-0.00753597,-0.00577824,0.07832548,0.01999480,-0
 .06151993,-0.03509026,-0.00570335,-0.01208147,-0.00742898,-0.00247712,
 0.00261713,-0.00016915,0.00011747,-0.00055605,0.00007497,0.00012730,0.
 00040821,0.00004627,0.00008710,-0.00038224,-0.00003136,0.00008527,0.00
 005927,0.00002699,0.00004156,-0.00004491,-0.00000265,0.00000379,-0.000
 00436,-0.00008327,0.00014348,0.00009373,0.00006323,-0.00013111,0.00012
 381,0.00002750,-0.00000930,-0.00003407,-0.00033205,-0.00013900,-0.0000
 5975,0.00015144,0.00009997,-0.00022242,0.00001940,-0.00013647,0.000075
 82,0.00001674,0.00003240,-0.00005171,0.00000033,0.00000192,0.00000827,
 -0.00000130,0.00000690,0.00000931,0.00004654,0.00001376,-0.00005026,0.
 00027025,-0.00003537,-0.00003095,0.00054294,0.00005394,-0.00113642,0.0
 0026827,0.00005644,-0.00005319,0.00001722,-0.00001018,0.00000358,0.000
 03983,-0.00005940,-0.00001754,-0.00001861,0.00000102,0.00001871,0.0000
 0902,0.00002655,-0.00000953,-0.00013316,0.00013085,0.00003893,-0.00121
 049,-0.00016794,0.00001597,-0.00021156,-0.00007694,0.00016195,-0.00071
 754,-0.00013254,-0.00026213,0.00020261,0.00297001,-0.00280717,-0.07516
 654,-0.01467277,0.08184913\\0.00107642,0.00028453,-0.01189088,0.002640
 09,-0.00440157,-0.00050326,-0.00733407,-0.01406105,0.01732883,0.009546
 78,-0.00151282,0.01327552,-0.01551761,0.00639496,-0.03079381,-0.014847
 26,-0.03761698,-0.01794386,0.00544817,0.01460153,-0.00608361,0.0064695
 2,0.00579050,0.01925053,-0.01950010,0.01943976,-0.00260150,0.01451911,
 0.00909963,-0.00008837,-0.00569927,-0.03595807,-0.00015934,0.04241370,
 0.01609556,0.00836415,-0.01436622,0.00192928,0.02010886,-0.01609716,0.
 01517377,-0.00612003,0.01844056,-0.01133578,0.02495624,-0.02653732,0.0
 0032790,-0.00254628,0.00044936,0.02241736,0.00559438,-0.01230700,-0.00
 076716,0.00097135,0.01472748,0.00003863,-0.02280188,0.03468640,0.01560
 531,-0.02930693,-0.02132071,0.01112566,-0.00092873,0.00020047,-0.01771
 418,0.03415286,0.01364067,-0.01236380,-0.01001120,-0.01307802,-0.02259
 740,-0.01478383,-0.00447050,0.03075907,0.01459168,0.00535752,-0.013393
 20,0.01267267,-0.00988664,0.00906293,0.01900061,0.02758930,-0.01939040
 ,-0.01579249,-0.00843681,0.00987631,0.01585451,-0.00259988,-0.00267568
 ,-0.00209577,-0.02020171,-0.00354169,-0.00487318,0.02408148,-0.0024504
 7,0.00131767,-0.02050920,-0.00367037,0.00275758,0.01682683,0.00194132,
 0.00127642,-0.02138784,0.00000485,0.00042864,-0.00334194,-0.00672161,-
 0.01683215,0.02020028,0.00394599,-0.00266639,-0.00105154,0.00272942,-0
 .00011217,-0.00204510,0.00571993,-0.01819057,-0.02200239,0.00205944,0.
 00550933,0.02578897,0.00272355,-0.00188323,-0.01769541,-0.00621278,0.0
 0405479,0.02003559,0.00447450,-0.00132496,-0.02282096,-0.00040879,0.00
 510260,0.01891598,0.00517212,-0.00623482\\\@


 IF MATHEMATICALLY YOU END UP WITH THE INCORRECT ANSWER,
 TRY MULTIPLYING BY THE PAGE NUMBER.
 Job cpu time:  1 days  7 hours 28 minutes 38.1 seconds.
 File lengths (MBytes):  RWF=   1769 Int=      0 D2E=      0 Chk=     28 Scr=      1
 Normal termination of Gaussian 09 at Fri Apr  1 08:22:12 2016.
Gaussian '09 finished on node008 at Fri Apr  1 08:22:12 EDT 2016.
