Gaussian '09 started on node031 at Sat Oct 17 14:43:18 EDT 2015.
 Entering Gaussian System, Link 0=/usr/local/gaussian/g09/g09
 Initial command:
 /usr/local/gaussian/g09/l1.exe /home/srmcgrat/data/gaussian/cellobiose/450/6-31gdp/6000ps/gaussian7097/Gau-7133.inp -scrdir=/home/srmcgrat/data/gaussian/cellobiose/450/6-31gdp/6000ps/gaussian7097/
 Entering Link 1 = /usr/local/gaussian/g09/l1.exe PID=      7135.
  
 Copyright (c) 1988,1990,1992,1993,1995,1998,2003,2009,2010,
            Gaussian, Inc.  All Rights Reserved.
  
 This is part of the Gaussian(R) 09 program.  It is based on
 the Gaussian(R) 03 system (copyright 2003, Gaussian, Inc.),
 the Gaussian(R) 98 system (copyright 1998, Gaussian, Inc.),
 the Gaussian(R) 94 system (copyright 1995, Gaussian, Inc.),
 the Gaussian 92(TM) system (copyright 1992, Gaussian, Inc.),
 the Gaussian 90(TM) system (copyright 1990, Gaussian, Inc.),
 the Gaussian 88(TM) system (copyright 1988, Gaussian, Inc.),
 the Gaussian 86(TM) system (copyright 1986, Carnegie Mellon
 University), and the Gaussian 82(TM) system (copyright 1983,
 Carnegie Mellon University). Gaussian is a federally registered
 trademark of Gaussian, Inc.
  
 This software contains proprietary and confidential information,
 including trade secrets, belonging to Gaussian, Inc.
  
 This software is provided under written license and may be
 used, copied, transmitted, or stored only in accord with that
 written license.
  
 The following legend is applicable only to US Government
 contracts under FAR:
  
                    RESTRICTED RIGHTS LEGEND
  
 Use, reproduction and disclosure by the US Government is
 subject to restrictions as set forth in subparagraphs (a)
 and (c) of the Commercial Computer Software - Restricted
 Rights clause in FAR 52.227-19.
  
 Gaussian, Inc.
 340 Quinnipiac St., Bldg. 40, Wallingford CT 06492
  
  
 ---------------------------------------------------------------
 Warning -- This program may not be used in any manner that
 competes with the business of Gaussian, Inc. or will provide
 assistance to any competitor of Gaussian, Inc.  The licensee
 of this program is prohibited from giving any competitor of
 Gaussian, Inc. access to this program.  By using this program,
 the user acknowledges that Gaussian, Inc. is engaged in the
 business of creating and licensing software in the field of
 computational chemistry and represents and warrants to the
 licensee that it is not a competitor of Gaussian, Inc. and that
 it will not use this program in any manner prohibited above.
 ---------------------------------------------------------------
  

 Cite this work as:
 Gaussian 09, Revision B.01,
 M. J. Frisch, G. W. Trucks, H. B. Schlegel, G. E. Scuseria, 
 M. A. Robb, J. R. Cheeseman, G. Scalmani, V. Barone, B. Mennucci, 
 G. A. Petersson, H. Nakatsuji, M. Caricato, X. Li, H. P. Hratchian, 
 A. F. Izmaylov, J. Bloino, G. Zheng, J. L. Sonnenberg, M. Hada, 
 M. Ehara, K. Toyota, R. Fukuda, J. Hasegawa, M. Ishida, T. Nakajima, 
 Y. Honda, O. Kitao, H. Nakai, T. Vreven, J. A. Montgomery, Jr., 
 J. E. Peralta, F. Ogliaro, M. Bearpark, J. J. Heyd, E. Brothers, 
 K. N. Kudin, V. N. Staroverov, T. Keith, R. Kobayashi, J. Normand, 
 K. Raghavachari, A. Rendell, J. C. Burant, S. S. Iyengar, J. Tomasi, 
 M. Cossi, N. Rega, J. M. Millam, M. Klene, J. E. Knox, J. B. Cross, 
 V. Bakken, C. Adamo, J. Jaramillo, R. Gomperts, R. E. Stratmann, 
 O. Yazyev, A. J. Austin, R. Cammi, C. Pomelli, J. W. Ochterski, 
 R. L. Martin, K. Morokuma, V. G. Zakrzewski, G. A. Voth, 
 P. Salvador, J. J. Dannenberg, S. Dapprich, A. D. Daniels, 
 O. Farkas, J. B. Foresman, J. V. Ortiz, J. Cioslowski, 
 and D. J. Fox, Gaussian, Inc., Wallingford CT, 2010.
 
 ******************************************
 Gaussian 09:  EM64L-G09RevB.01 12-Aug-2010
                17-Oct-2015 
 ******************************************
 -------------------------------
 ## freq=raman b3lyp/6-31+g(d,p)
 -------------------------------
 1/10=4,30=1,38=1/1,3;
 2/12=2,17=6,18=5,40=1/2;
 3/5=1,6=6,7=111,11=2,16=1,25=1,30=1,71=2,74=-5/1,2,3;
 4//1;
 5/5=2,38=5,98=1/2;
 8/6=4,10=90,11=11/1;
 10/13=10,15=4/2;
 11/6=3,8=1,9=11,15=111,16=1/1,2,10;
 10/6=1/2;
 6/7=2,8=2,9=2,10=2,18=1,28=1/1;
 7/8=1,10=1,25=1/1,2,3,16;
 1/10=4,30=1/3;
 99//99;
 -----------------------------
 450K 6000ps Cellobiose Unit 1
 -----------------------------
 Symbolic Z-matrix:
 Charge =  0 Multiplicity = 1
 O(PDBName=O1,ResName=GLC,ResNum=6)  9.783     7.917     32.403 
 C(PDBName=C4,ResName=GLC,ResNum=7)  10.631    7.845     33.558 
 C(PDBName=C3,ResName=GLC,ResNum=7)  10.877    9.18      34.24 
 O(PDBName=O3,ResName=GLC,ResNum=7)  11.412    10.226    33.416 
 H(PDBName=HO3,ResName=GLC,ResNum=7)  10.873    10.103    32.583 
 C(PDBName=C2,ResName=GLC,ResNum=7)  11.687    9.126     35.526 
 O(PDBName=O2,ResName=GLC,ResNum=7)  11.955    10.402    36.125 
 H(PDBName=HO2,ResName=GLC,ResNum=7)  12.629    10.936    35.615 
 C(PDBName=C6,ResName=GLC,ResNum=7)  10.087    5.385     34.143 
 O(PDBName=O6,ResName=GLC,ResNum=7)  9.373     4.628     35.13 
 H(PDBName=HO6,ResName=GLC,ResNum=7)  9.151     3.788     34.635 
 C(PDBName=C5,ResName=GLC,ResNum=7)  10.131    6.839     34.583 
 O(PDBName=O5,ResName=GLC,ResNum=7)  10.9      6.945     35.79 
 C(PDBName=C1,ResName=GLC,ResNum=7)  10.97     8.195     36.491 
 O(PDBName=O1,ResName=GLC,ResNum=7)  11.758    7.966     37.668 
 C(PDBName=C4,ResName=GLC,ResNum=8)  11.084    8.014     38.935 
 C(PDBName=C3,ResName=GLC,ResNum=8)  10.5      6.681     39.373 
 O(PDBName=O3,ResName=GLC,ResNum=8)  9.809     5.898     38.388 
 H(PDBName=HO3,ResName=GLC,ResNum=8)  10.309    5.719     37.541 
 C(PDBName=C2,ResName=GLC,ResNum=8)  9.612     6.775     40.603 
 O(PDBName=O2,ResName=GLC,ResNum=8)  9.092     5.452     40.799 
 H(PDBName=HO2,ResName=GLC,ResNum=8)  8.725     5.336     39.876 
 C(PDBName=C6,ResName=GLC,ResNum=8)  12.533    9.731     39.976 
 O(PDBName=O6,ResName=GLC,ResNum=8)  11.837    10.985    39.938 
 H(PDBName=HO6,ResName=GLC,ResNum=8)  12.294    11.628    39.322 
 C(PDBName=C5,ResName=GLC,ResNum=8)  11.978    8.324     40.124 
 O(PDBName=O5,ResName=GLC,ResNum=8)  11.329    8.215     41.399 
 C(PDBName=C1,ResName=GLC,ResNum=8)  10.579    7.042     41.745 
 O(PDBName=O1,ResName=GLC,ResNum=8)  9.915     7.353     42.979 
 H                     10.32393   7.96634   31.61144 
 H                     10.56941   7.52465   43.66009 
 
 Residue   4                        charge    0.00000000 ave dist*************
 Residue   2 PDB Number     7_0 GLC charge    0.00000000 ave dist*************
 Residue   3 PDB Number     8_0 GLC charge    0.00000000 ave dist*************
 Residue   1 PDB Number     6_0 GLC charge    0.00000000 ave dist*************

 GradGradGradGradGradGradGradGradGradGradGradGradGradGradGradGradGradGrad
 Berny optimization.
 Initialization pass.
 Trust Radius=3.00D-01 FncErr=1.00D-07 GrdErr=1.00D-07
 Number of steps in this run=      2 maximum allowed number of steps=      2.
 GradGradGradGradGradGradGradGradGradGradGradGradGradGradGradGradGradGrad

                          Input orientation:                          
 ---------------------------------------------------------------------
 Center     Atomic      Atomic             Coordinates (Angstroms)
 Number     Number       Type             X           Y           Z
 ---------------------------------------------------------------------
      1          8           0        9.783000    7.917000   32.403000
      2          6           0       10.631000    7.845000   33.558000
      3          6           0       10.877000    9.180000   34.240000
      4          8           0       11.412000   10.226000   33.416000
      5          1           0       10.873000   10.103000   32.583000
      6          6           0       11.687000    9.126000   35.526000
      7          8           0       11.955000   10.402000   36.125000
      8          1           0       12.629000   10.936000   35.615000
      9          6           0       10.087000    5.385000   34.143000
     10          8           0        9.373000    4.628000   35.130000
     11          1           0        9.151000    3.788000   34.635000
     12          6           0       10.131000    6.839000   34.583000
     13          8           0       10.900000    6.945000   35.790000
     14          6           0       10.970000    8.195000   36.491000
     15          8           0       11.758000    7.966000   37.668000
     16          6           0       11.084000    8.014000   38.935000
     17          6           0       10.500000    6.681000   39.373000
     18          8           0        9.809000    5.898000   38.388000
     19          1           0       10.309000    5.719000   37.541000
     20          6           0        9.612000    6.775000   40.603000
     21          8           0        9.092000    5.452000   40.799000
     22          1           0        8.725000    5.336000   39.876000
     23          6           0       12.533000    9.731000   39.976000
     24          8           0       11.837000   10.985000   39.938000
     25          1           0       12.294000   11.628000   39.322000
     26          6           0       11.978000    8.324000   40.124000
     27          8           0       11.329000    8.215000   41.399000
     28          6           0       10.579000    7.042000   41.745000
     29          8           0        9.915000    7.353000   42.979000
     30          1           0       10.323925    7.966344   31.611441
     31          1           0       10.569406    7.524653   43.660093
 ---------------------------------------------------------------------
                    Distance matrix (angstroms):
                    1          2          3          4          5
     1  O    0.000000
     2  C    1.434682   0.000000
     3  C    2.483259   1.519166   0.000000
     4  O    3.001881   2.509838   1.435032   0.000000
     5  H    2.449305   2.471387   1.896732   0.999769   0.000000
     6  C    3.852275   2.574708   1.520793   2.395355   3.205990
     7  O    4.974545   3.857553   2.491705   2.768484   3.715628
     8  H    5.247001   4.216341   2.836136   2.611664   3.601451
     9  C    3.087238   2.586457   3.877568   5.071433   5.030996
    10  O    4.292103   3.795107   4.875943   6.199429   6.221964
    11  H    4.736020   4.450795   5.675277   6.931517   6.859680
    12  C    2.456743   1.520744   2.480816   3.804552   3.899264
    13  O    3.696518   2.421608   2.719973   4.082031   4.500949
    14  C    4.265911   2.973199   2.458836   3.711597   4.349981
    15  O    5.623455   4.263434   3.741810   4.827714   5.586342
    16  C    6.661008   5.398694   4.842048   5.954821   6.690018
    17  C    7.114962   5.931803   5.721435   6.991754   7.612707
    18  O    6.316428   5.272134   5.396115   6.783950   7.246526
    19  H    5.613103   4.526351   4.816404   6.208485   6.642237
    20  C    8.280906   7.198284   6.918961   8.173272   8.774173
    21  O    8.777615   7.779913   7.752721   9.092973   9.607623
    22  H    7.976632   7.060102   7.153456   8.536022   8.973630
    23  C    8.258536   6.954518   5.995634   6.673475   7.586200
    24  O    8.390933   7.212381   6.053662   6.579756   7.470157
    25  H    8.243131   7.092274   5.816126   6.133870   7.054005
    26  C    8.037258   6.719837   6.047015   6.995372   7.826401
    27  O    9.132740   7.880697   7.237873   8.232818   9.027421
    28  C    9.416592   8.226450   7.809281   8.955668   9.664285
    29  O   10.591850   9.460970   8.979615  10.096836  10.796160
    30  H    0.960000   1.974363   2.947571   3.089722   2.410541
    31  H   11.291347  10.107359   9.569375  10.627732  11.377260
                    6          7          8          9         10
     6  C    0.000000
     7  O    1.434852   0.000000
     8  H    2.042397   0.999766   0.000000
     9  C    4.297414   5.708593   6.280298   0.000000
    10  O    5.073797   6.402798   7.115309   1.434229   0.000000
    11  H    5.976573   7.336724   8.009419   1.915351   0.999954
    12  C    2.922457   4.289488   4.908201   1.519754   2.400478
    13  O    2.333629   3.629890   4.352947   2.409809   2.852336
    14  C    1.520551   2.444387   3.321557   3.766815   4.138384
    15  O    2.436966   2.890286   3.714075   4.677545   4.824097
    16  C    3.636129   3.789101   4.684817   5.555980   5.373131
    17  C    4.710244   5.149016   6.063022   5.403988   4.846441
    18  O    4.705094   5.478367   6.404949   4.284913   3.523856
    19  H    4.191272   5.161866   6.025692   3.421585   2.807009
    20  C    5.967307   6.220712   7.162147   6.624902   5.883915
    21  O    6.930861   7.385496   8.334175   6.730293   5.735460
    22  H    6.485372   7.082885   8.047194   5.892770   4.842074
    23  C    4.569928   3.951522   4.525435   7.674277   7.714268
    24  O    4.790003   3.859117   4.395224   8.246486   8.342638
    25  H    4.586727   3.440757   3.785887   8.406422   8.666320
    26  C    4.676483   4.506730   5.251421   6.927190   6.736949
    27  O    5.954008   5.743685   6.522921   7.886761   7.482838
    28  C    6.651818   6.690843   7.546034   7.796032   7.144232
    29  O    7.863251   7.774016   8.627409   9.054143   8.326235
    30  H    4.304247   5.381918   5.491877   3.623294   4.942576
    31  H    8.365214   8.183925   8.977903   9.766570   9.087600
                   11         12         13         14         15
    11  H    0.000000
    12  C    3.204950   0.000000
    13  O    3.789416   1.435077   0.000000
    14  C    5.116165   2.486588   1.434852   0.000000
    15  O    5.783703   3.665308   2.303365   1.434822   0.000000
    16  C    6.331316   4.607465   3.326807   2.453343   1.435921
    17  C    5.712958   4.806789   3.614911   3.289228   2.478067
    18  O    4.355465   3.932835   3.006010   3.197302   2.931489
    19  H    3.676216   3.167941   2.217737   2.769476   2.676703
    20  C    6.689672   6.042670   4.985260   4.557314   3.825967
    21  O    6.384925   6.453057   5.530641   5.441488   4.819846
    22  H    5.481410   5.679057   4.900500   4.967105   4.581621
    23  C    8.676604   6.574018   5.286878   4.116733   3.007111
    24  O    9.334517   6.983966   5.865618   4.518584   3.778029
    25  H    9.659815   7.076101   6.028992   4.642524   4.053795
    26  C    7.661354   6.026551   4.674108   3.772452   2.491686
    27  O    8.372199   7.055950   5.766960   4.921153   3.763828
    28  C    7.948572   7.178869   5.964434   5.393219   4.343472
    29  O    9.105782   8.414492   7.267628   6.626925   5.655010
    30  H    5.289255   3.184067   4.339972   4.927453   6.224024
    31  H    9.870500   9.113503   7.898333   7.211501   6.124763
                   16         17         18         19         20
    16  C    0.000000
    17  C    1.519799   0.000000
    18  O    2.530275   1.435547   0.000000
    19  H    2.794796   2.078016   0.999725   0.000000
    20  C    2.546395   1.519961   2.390432   3.313124   0.000000
    21  O    3.742513   2.350826   2.554589   3.488114   1.434972
    22  H    3.690806   2.283125   1.924849   2.847450   1.840114
    23  C    2.476161   3.714727   4.963246   5.193414   4.202774
    24  O    3.224881   4.542159   5.691472   5.984242   4.808009
    25  H    3.830779   5.262494   6.315099   6.482937   5.690843
    26  C    1.519558   2.334081   3.688324   4.030319   2.868240
    27  O    2.484295   2.673027   4.092067   4.706865   2.378089
    28  C    3.015942   2.400614   3.629199   4.415523   1.520047
    29  O    4.261152   3.714437   4.817213   5.691839   2.463995
    30  H    7.363049   7.869238   7.103868   6.341170   9.098036
    31  H    4.778156   4.369867   5.569487   6.385256   3.290050
                   21         22         23         24         25
    21  O    0.000000
    22  H    1.000037   0.000000
    23  C    5.552265   5.816089   0.000000
    24  O    6.236220   6.449774   1.434704   0.000000
    25  H    7.111773   7.254925   2.020754   1.000877   0.000000
    26  C    4.127106   4.423987   1.519730   2.671217   3.414597
    27  O    3.605321   4.170010   2.402665   3.172615   4.110197
    28  C    2.373644   3.137023   3.765395   4.516089   5.462925
    29  O    3.007246   3.887544   4.639700   5.112063   6.108102
    30  H    9.604728   8.819195   8.829488   8.985169   8.760230
    31  H    3.829422   4.744618   4.721887   5.237822   6.215363
                   26         27         28         29         30
    26  C    0.000000
    27  O    1.434820   0.000000
    28  C    2.495669   1.434624   0.000000
    29  O    3.653743   2.288851   1.435400   0.000000
    30  H    8.679144   9.842170  10.178825  11.391435   0.000000
    31  H    3.889351   2.483164   1.975001   0.960000  12.059244
                   31
    31  H    0.000000
 Stoichiometry    C12H8O11
 Framework group  C1[X(C12H8O11)]
 Deg. of freedom    87
 Full point group                 C1      NOp   1
 Largest Abelian subgroup         C1      NOp   1
 Largest concise Abelian subgroup C1      NOp   1
                         Standard orientation:                         
 ---------------------------------------------------------------------
 Center     Atomic      Atomic             Coordinates (Angstroms)
 Number     Number       Type             X           Y           Z
 ---------------------------------------------------------------------
      1          8           0        5.114689   -0.566685   -0.791702
      2          6           0        3.956362   -0.197915   -0.029730
      3          6           0        3.346795    1.137387   -0.421214
      4          8           0        4.225126    2.271720   -0.387439
      5          1           0        5.051025    1.881792   -0.794116
      6          6           0        2.058675    1.511521    0.295434
      7          8           0        1.528786    2.799960   -0.047997
      8          1           0        2.065861    3.553608    0.330285
      9          6           0        3.240677   -2.611396    0.564128
     10          8           0        2.215357   -3.559523    0.237346
     11          1           0        2.664776   -4.432823    0.425173
     12          6           0        2.879426   -1.271334   -0.055051
     13          8           0        1.678849   -0.776240    0.555639
     14          6           0        1.045973    0.405496    0.044005
     15          8           0       -0.142683    0.608230    0.821636
     16          6           0       -1.404373    0.410726    0.165130
     17          6           0       -1.912628   -1.020315    0.225018
     18          8           0       -0.970230   -2.075143   -0.019970
     19          1           0       -0.134744   -2.052369    0.528568
     20          6           0       -3.134613   -1.273913   -0.642576
     21          8           0       -3.400766   -2.678973   -0.523769
     22          1           0       -2.484850   -2.990206   -0.777355
     23          6           0       -2.353484    2.641072    0.671211
     24          8           0       -2.247195    3.449608   -0.509191
     25          1           0       -1.598125    4.198851   -0.371001
     26          6           0       -2.576175    1.143045    0.797306
     27          8           0       -3.854327    0.816752    0.232888
     28          6           0       -4.261892   -0.549700    0.075269
     29          8           0       -5.476503   -0.509253   -0.688575
     30          1           0        5.907036   -0.318938   -0.309614
     31          1           0       -6.148253   -0.031587   -0.196449
 ---------------------------------------------------------------------
 Rotational constants (GHZ):      0.4058665      0.1570422      0.1171261
 Standard basis: 6-31+G(d,p) (6D, 7F)
 There are   477 symmetry adapted basis functions of A   symmetry.
 Integral buffers will be    131072 words long.
 Raffenetti 2 integral format.
 Two-electron integral symmetry is turned on.
   477 basis functions,   792 primitive gaussians,   477 cartesian basis functions
    84 alpha electrons       84 beta electrons
       nuclear repulsion energy      1921.9274408344 Hartrees.
 NAtoms=   31 NActive=   31 NUniq=   31 SFac= 1.00D+00 NAtFMM=   50 NAOKFM=F Big=F
 One-electron integrals computed using PRISM.
 NBasis=   477 RedAO= T  NBF=   477
 NBsUse=   477 1.00D-06 NBFU=   477
 Harris functional with IExCor=  402 diagonalized for initial guess.
 ExpMin= 4.38D-02 ExpMax= 5.48D+03 ExpMxC= 8.25D+02 IAcc=2 IRadAn=         0 AccDes= 0.00D+00
 HarFok:  IExCor=  402 AccDes= 0.00D+00 IRadAn=         0 IDoV= 1
 ScaDFX=  1.000000  1.000000  1.000000  1.000000
 FoFCou: FMM=F IPFlag=           0 FMFlag=      100000 FMFlg1=           0
         NFxFlg=           0 DoJE=T BraDBF=F KetDBF=T FulRan=T
         Omega=  0.000000  0.000000  1.000000  0.000000  0.000000 ICntrl=     500 IOpCl=  0
         NMat0=    1 NMatS0=    1 NMatT0=    0 NMatD0=    1 NMtDS0=    0 NMtDT0=    0
         I1Cent=           4 NGrid=           0.
 Petite list used in FoFCou.
 Initial guess orbital symmetries:
       Occupied  (A) (A) (A) (A) (A) (A) (A) (A) (A) (A) (A) (A)
                 (A) (A) (A) (A) (A) (A) (A) (A) (A) (A) (A) (A)
                 (A) (A) (A) (A) (A) (A) (A) (A) (A) (A) (A) (A)
                 (A) (A) (A) (A) (A) (A) (A) (A) (A) (A) (A) (A)
                 (A) (A) (A) (A) (A) (A) (A) (A) (A) (A) (A) (A)
                 (A) (A) (A) (A) (A) (A) (A) (A) (A) (A) (A) (A)
                 (A) (A) (A) (A) (A) (A) (A) (A) (A) (A) (A) (A)
       Virtual   (A) (A) (A) (A) (A) (A) (A) (A) (A) (A) (A) (A)
                 (A) (A) (A) (A) (A) (A) (A) (A) (A) (A) (A) (A)
                 (A) (A) (A) (A) (A) (A) (A) (A) (A) (A) (A) (A)
                 (A) (A) (A) (A) (A) (A) (A) (A) (A) (A) (A) (A)
                 (A) (A) (A) (A) (A) (A) (A) (A) (A) (A) (A) (A)
                 (A) (A) (A) (A) (A) (A) (A) (A) (A) (A) (A) (A)
                 (A) (A) (A) (A) (A) (A) (A) (A) (A) (A) (A) (A)
                 (A) (A) (A) (A) (A) (A) (A) (A) (A) (A) (A) (A)
                 (A) (A) (A) (A) (A) (A) (A) (A) (A) (A) (A) (A)
                 (A) (A) (A) (A) (A) (A) (A) (A) (A) (A) (A) (A)
                 (A) (A) (A) (A) (A) (A) (A) (A) (A) (A) (A) (A)
                 (A) (A) (A) (A) (A) (A) (A) (A) (A) (A) (A) (A)
                 (A) (A) (A) (A) (A) (A) (A) (A) (A) (A) (A) (A)
                 (A) (A) (A) (A) (A) (A) (A) (A) (A) (A) (A) (A)
                 (A) (A) (A) (A) (A) (A) (A) (A) (A) (A) (A) (A)
                 (A) (A) (A) (A) (A) (A) (A) (A) (A) (A) (A) (A)
                 (A) (A) (A) (A) (A) (A) (A) (A) (A) (A) (A) (A)
                 (A) (A) (A) (A) (A) (A) (A) (A) (A) (A) (A) (A)
                 (A) (A) (A) (A) (A) (A) (A) (A) (A) (A) (A) (A)
                 (A) (A) (A) (A) (A) (A) (A) (A) (A) (A) (A) (A)
                 (A) (A) (A) (A) (A) (A) (A) (A) (A) (A) (A) (A)
                 (A) (A) (A) (A) (A) (A) (A) (A) (A) (A) (A) (A)
                 (A) (A) (A) (A) (A) (A) (A) (A) (A) (A) (A) (A)
                 (A) (A) (A) (A) (A) (A) (A) (A) (A) (A) (A) (A)
                 (A) (A) (A) (A) (A) (A) (A) (A) (A) (A) (A) (A)
                 (A) (A) (A) (A) (A) (A) (A) (A) (A) (A) (A) (A)
                 (A) (A) (A) (A) (A) (A) (A) (A) (A) (A) (A) (A)
                 (A) (A) (A) (A) (A) (A) (A) (A) (A) (A) (A) (A)
                 (A) (A) (A) (A) (A) (A) (A) (A) (A) (A) (A) (A)
                 (A) (A) (A) (A) (A) (A) (A) (A) (A) (A) (A) (A)
                 (A) (A) (A) (A) (A) (A) (A) (A) (A) (A) (A) (A)
                 (A) (A) (A) (A) (A) (A) (A) (A) (A) (A) (A) (A)
                 (A) (A) (A) (A) (A) (A) (A) (A) (A)
 The electronic state of the initial guess is 1-A.
 Requested convergence on RMS density matrix=1.00D-08 within 128 cycles.
 Requested convergence on MAX density matrix=1.00D-06.
 Requested convergence on             energy=1.00D-06.
 No special actions if energy rises.
 Rare condition: small coef for last iteration:  0.000D+00
 EnCoef did   100 forward-backward iterations
 EnCoef did   100 forward-backward iterations
 EnCoef did   100 forward-backward iterations
 EnCoef did     7 forward-backward iterations
 EnCoef did     7 forward-backward iterations
 EnCoef did     6 forward-backward iterations
 Rare condition: small coef for last iteration:  0.000D+00
 EnCoef did   100 forward-backward iterations
 Rare condition: small coef for last iteration:  0.000D+00
 EnCoef did   100 forward-backward iterations
 EnCoef did   100 forward-backward iterations
 Rare condition: small coef for last iteration:  0.248D-15
 EnCoef did   100 forward-backward iterations
 EnCoef did   100 forward-backward iterations
 Rare condition: small coef for last iteration: -0.232D-15
 EnCoef did     2 forward-backward iterations
 Restarting incremental Fock formation.
 Matrix for removal  4 Erem= -1282.73774680601     Crem= 0.000D+00
 SCF Done:  E(RB3LYP) =  -1288.82696911     A.U. after   33 cycles
             Convg  =    0.4468D-08             -V/T =  2.0108
 Range of M.O.s used for correlation:     1   477
 NBasis=   477 NAE=    84 NBE=    84 NFC=     0 NFV=     0
 NROrb=    477 NOA=    84 NOB=    84 NVA=   393 NVB=   393

 **** Warning!!: The largest alpha MO coefficient is  0.76260778D+02


 **** Warning!!: The smallest alpha delta epsilon is  0.21308807D-01

          Differentiating once with respect to electric field.
                with respect to dipole field.
          Electric field/nuclear overlap derivatives assumed to be zero.
          There are     3 degrees of freedom in the 1st order CPHF.  IDoFFX=0.
      3 vectors produced by pass  0 Test12= 1.10D-12 3.33D-08 XBig12= 5.46D+04 2.32D+02.
 AX will form     3 AO Fock derivatives at one time.
      3 vectors produced by pass  1 Test12= 1.10D-12 3.33D-08 XBig12= 8.21D+04 1.00D+02.
      3 vectors produced by pass  2 Test12= 1.10D-12 3.33D-08 XBig12= 8.97D+04 8.61D+01.
      3 vectors produced by pass  3 Test12= 1.10D-12 3.33D-08 XBig12= 3.25D+04 3.49D+01.
      3 vectors produced by pass  4 Test12= 1.10D-12 3.33D-08 XBig12= 2.84D+04 5.81D+01.
      3 vectors produced by pass  5 Test12= 1.10D-12 3.33D-08 XBig12= 9.86D+03 4.08D+01.
      3 vectors produced by pass  6 Test12= 1.10D-12 3.33D-08 XBig12= 5.89D+03 1.99D+01.
      3 vectors produced by pass  7 Test12= 1.10D-12 3.33D-08 XBig12= 2.25D+03 9.94D+00.
      3 vectors produced by pass  8 Test12= 1.10D-12 3.33D-08 XBig12= 9.83D+02 5.68D+00.
      3 vectors produced by pass  9 Test12= 1.10D-12 3.33D-08 XBig12= 8.22D+02 6.20D+00.
      3 vectors produced by pass 10 Test12= 1.10D-12 3.33D-08 XBig12= 1.55D+02 1.95D+00.
      3 vectors produced by pass 11 Test12= 1.10D-12 3.33D-08 XBig12= 6.87D+01 1.67D+00.
      3 vectors produced by pass 12 Test12= 1.10D-12 3.33D-08 XBig12= 3.43D+01 1.36D+00.
      3 vectors produced by pass 13 Test12= 1.10D-12 3.33D-08 XBig12= 7.69D+00 6.41D-01.
      3 vectors produced by pass 14 Test12= 1.10D-12 3.33D-08 XBig12= 2.01D+00 2.06D-01.
      3 vectors produced by pass 15 Test12= 1.10D-12 3.33D-08 XBig12= 1.21D+00 1.58D-01.
      3 vectors produced by pass 16 Test12= 1.10D-12 3.33D-08 XBig12= 1.27D-01 5.78D-02.
      3 vectors produced by pass 17 Test12= 1.10D-12 3.33D-08 XBig12= 7.34D-03 1.77D-02.
      3 vectors produced by pass 18 Test12= 1.10D-12 3.33D-08 XBig12= 1.12D-03 6.74D-03.
      3 vectors produced by pass 19 Test12= 1.10D-12 3.33D-08 XBig12= 1.05D-04 1.94D-03.
      3 vectors produced by pass 20 Test12= 1.10D-12 3.33D-08 XBig12= 6.34D-06 4.72D-04.
      3 vectors produced by pass 21 Test12= 1.10D-12 3.33D-08 XBig12= 3.56D-07 7.81D-05.
      3 vectors produced by pass 22 Test12= 1.10D-12 3.33D-08 XBig12= 1.85D-08 1.74D-05.
      3 vectors produced by pass 23 Test12= 1.10D-12 3.33D-08 XBig12= 7.88D-10 3.61D-06.
      2 vectors produced by pass 24 Test12= 1.10D-12 3.33D-08 XBig12= 4.36D-11 7.57D-07.
      1 vectors produced by pass 25 Test12= 1.10D-12 3.33D-08 XBig12= 6.42D-12 2.70D-07.
      1 vectors produced by pass 26 Test12= 1.10D-12 3.33D-08 XBig12= 1.94D-13 3.60D-08.
 Inverted reduced A of dimension    76 with in-core refinement.
 End of Minotr Frequency-dependent properties file   721 does not exist.
 End of Minotr Frequency-dependent properties file   722 does not exist.
 Symmetrizing basis deriv contribution to polar:
 IMax=3 JMax=2 DiffMx= 0.00D+00
 G2DrvN: will do    32 centers at a time, making    1 passes doing MaxLOS=2.
 Calling FoFCou, ICntrl=  3107 FMM=F I1Cent=   0 AccDes= 0.00D+00.
 FoFDir/FoFCou used for L=0 through L=2.
 End of G2Drv Frequency-dependent properties file   721 does not exist.
 End of G2Drv Frequency-dependent properties file   722 does not exist.
          IDoAtm=1111111111111111111111111111111
          Differentiating once with respect to electric field.
                with respect to dipole field.
          Differentiating once with respect to nuclear coordinates.
          There are    96 degrees of freedom in the 1st order CPHF.  IDoFFX=5.
 Will reuse    3 saved solutions.
     90 vectors produced by pass  0 Test12= 3.44D-14 1.04D-09 XBig12= 4.74D-01 5.38D-01.
 AX will form    90 AO Fock derivatives at one time.
     90 vectors produced by pass  1 Test12= 3.44D-14 1.04D-09 XBig12= 2.83D-01 6.60D-02.
     90 vectors produced by pass  2 Test12= 3.44D-14 1.04D-09 XBig12= 2.13D-03 6.60D-03.
     90 vectors produced by pass  3 Test12= 3.44D-14 1.04D-09 XBig12= 3.22D-05 5.48D-04.
     90 vectors produced by pass  4 Test12= 3.44D-14 1.04D-09 XBig12= 1.52D-07 2.86D-05.
     90 vectors produced by pass  5 Test12= 3.44D-14 1.04D-09 XBig12= 4.04D-10 1.48D-06.
     79 vectors produced by pass  6 Test12= 3.44D-14 1.04D-09 XBig12= 3.69D-12 1.43D-07.
     52 vectors produced by pass  7 Test12= 3.44D-14 1.04D-09 XBig12= 1.51D-13 2.95D-08.
      1 vectors produced by pass  8 Test12= 3.44D-14 1.04D-09 XBig12= 5.01D-16 1.27D-09.
 Inverted reduced A of dimension   672 with in-core refinement.
 Isotropic polarizability for W=    0.000000      399.41 Bohr**3.
 End of Minotr Frequency-dependent properties file   721 does not exist.
 End of Minotr Frequency-dependent properties file   722 does not exist.

 **********************************************************************

            Population analysis using the SCF density.

 **********************************************************************

 Orbital symmetries:
       Occupied  (A) (A) (A) (A) (A) (A) (A) (A) (A) (A) (A) (A)
                 (A) (A) (A) (A) (A) (A) (A) (A) (A) (A) (A) (A)
                 (A) (A) (A) (A) (A) (A) (A) (A) (A) (A) (A) (A)
                 (A) (A) (A) (A) (A) (A) (A) (A) (A) (A) (A) (A)
                 (A) (A) (A) (A) (A) (A) (A) (A) (A) (A) (A) (A)
                 (A) (A) (A) (A) (A) (A) (A) (A) (A) (A) (A) (A)
                 (A) (A) (A) (A) (A) (A) (A) (A) (A) (A) (A) (A)
       Virtual   (A) (A) (A) (A) (A) (A) (A) (A) (A) (A) (A) (A)
                 (A) (A) (A) (A) (A) (A) (A) (A) (A) (A) (A) (A)
                 (A) (A) (A) (A) (A) (A) (A) (A) (A) (A) (A) (A)
                 (A) (A) (A) (A) (A) (A) (A) (A) (A) (A) (A) (A)
                 (A) (A) (A) (A) (A) (A) (A) (A) (A) (A) (A) (A)
                 (A) (A) (A) (A) (A) (A) (A) (A) (A) (A) (A) (A)
                 (A) (A) (A) (A) (A) (A) (A) (A) (A) (A) (A) (A)
                 (A) (A) (A) (A) (A) (A) (A) (A) (A) (A) (A) (A)
                 (A) (A) (A) (A) (A) (A) (A) (A) (A) (A) (A) (A)
                 (A) (A) (A) (A) (A) (A) (A) (A) (A) (A) (A) (A)
                 (A) (A) (A) (A) (A) (A) (A) (A) (A) (A) (A) (A)
                 (A) (A) (A) (A) (A) (A) (A) (A) (A) (A) (A) (A)
                 (A) (A) (A) (A) (A) (A) (A) (A) (A) (A) (A) (A)
                 (A) (A) (A) (A) (A) (A) (A) (A) (A) (A) (A) (A)
                 (A) (A) (A) (A) (A) (A) (A) (A) (A) (A) (A) (A)
                 (A) (A) (A) (A) (A) (A) (A) (A) (A) (A) (A) (A)
                 (A) (A) (A) (A) (A) (A) (A) (A) (A) (A) (A) (A)
                 (A) (A) (A) (A) (A) (A) (A) (A) (A) (A) (A) (A)
                 (A) (A) (A) (A) (A) (A) (A) (A) (A) (A) (A) (A)
                 (A) (A) (A) (A) (A) (A) (A) (A) (A) (A) (A) (A)
                 (A) (A) (A) (A) (A) (A) (A) (A) (A) (A) (A) (A)
                 (A) (A) (A) (A) (A) (A) (A) (A) (A) (A) (A) (A)
                 (A) (A) (A) (A) (A) (A) (A) (A) (A) (A) (A) (A)
                 (A) (A) (A) (A) (A) (A) (A) (A) (A) (A) (A) (A)
                 (A) (A) (A) (A) (A) (A) (A) (A) (A) (A) (A) (A)
                 (A) (A) (A) (A) (A) (A) (A) (A) (A) (A) (A) (A)
                 (A) (A) (A) (A) (A) (A) (A) (A) (A) (A) (A) (A)
                 (A) (A) (A) (A) (A) (A) (A) (A) (A) (A) (A) (A)
                 (A) (A) (A) (A) (A) (A) (A) (A) (A) (A) (A) (A)
                 (A) (A) (A) (A) (A) (A) (A) (A) (A) (A) (A) (A)
                 (A) (A) (A) (A) (A) (A) (A) (A) (A) (A) (A) (A)
                 (A) (A) (A) (A) (A) (A) (A) (A) (A) (A) (A) (A)
                 (A) (A) (A) (A) (A) (A) (A) (A) (A)
 The electronic state is 1-A.
 Alpha  occ. eigenvalues --  -19.25652 -19.24678 -19.22707 -19.22189 -19.21875
 Alpha  occ. eigenvalues --  -19.21805 -19.21583 -19.21580 -19.21578 -19.21187
 Alpha  occ. eigenvalues --  -19.20030 -10.34574 -10.31929 -10.31926 -10.31626
 Alpha  occ. eigenvalues --  -10.31472 -10.31307 -10.30344 -10.30329 -10.30312
 Alpha  occ. eigenvalues --  -10.29622 -10.27818 -10.26863  -1.11974  -1.10678
 Alpha  occ. eigenvalues --   -1.08227  -1.08119  -1.07859  -1.06659  -1.06076
 Alpha  occ. eigenvalues --   -1.05469  -1.04994  -1.04869  -1.04366  -0.82746
 Alpha  occ. eigenvalues --   -0.79566  -0.79416  -0.77586  -0.70108  -0.68719
 Alpha  occ. eigenvalues --   -0.67851  -0.64157  -0.62988  -0.61039  -0.58503
 Alpha  occ. eigenvalues --   -0.56958  -0.56541  -0.55898  -0.55045  -0.52323
 Alpha  occ. eigenvalues --   -0.50608  -0.50469  -0.49888  -0.48966  -0.47462
 Alpha  occ. eigenvalues --   -0.47293  -0.46946  -0.46475  -0.46232  -0.45327
 Alpha  occ. eigenvalues --   -0.43781  -0.43429  -0.43225  -0.42748  -0.41804
 Alpha  occ. eigenvalues --   -0.41636  -0.41077  -0.39521  -0.39115  -0.38407
 Alpha  occ. eigenvalues --   -0.37855  -0.36975  -0.36770  -0.35242  -0.34152
 Alpha  occ. eigenvalues --   -0.33229  -0.32793  -0.30249  -0.28222  -0.27248
 Alpha  occ. eigenvalues --   -0.27152  -0.22814  -0.22022  -0.16680
 Alpha virt. eigenvalues --   -0.14549  -0.12728  -0.12018  -0.11614  -0.08448
 Alpha virt. eigenvalues --   -0.07362  -0.05152  -0.02129  -0.01807  -0.00080
 Alpha virt. eigenvalues --   -0.00048   0.00706   0.01718   0.03030   0.03777
 Alpha virt. eigenvalues --    0.05289   0.05403   0.05509   0.05994   0.06430
 Alpha virt. eigenvalues --    0.07120   0.07334   0.07661   0.08364   0.08944
 Alpha virt. eigenvalues --    0.09058   0.09227   0.09830   0.10052   0.10694
 Alpha virt. eigenvalues --    0.10977   0.11392   0.11762   0.11976   0.12370
 Alpha virt. eigenvalues --    0.12933   0.12999   0.13356   0.13912   0.14610
 Alpha virt. eigenvalues --    0.14803   0.15117   0.15549   0.15798   0.16327
 Alpha virt. eigenvalues --    0.16551   0.16718   0.17170   0.17408   0.17594
 Alpha virt. eigenvalues --    0.17944   0.18283   0.18683   0.18952   0.19341
 Alpha virt. eigenvalues --    0.19678   0.20059   0.20166   0.20392   0.20576
 Alpha virt. eigenvalues --    0.20899   0.21134   0.21853   0.22206   0.22455
 Alpha virt. eigenvalues --    0.22680   0.22928   0.23528   0.23910   0.23961
 Alpha virt. eigenvalues --    0.24469   0.24539   0.24971   0.25184   0.25389
 Alpha virt. eigenvalues --    0.25804   0.26324   0.26587   0.26705   0.27044
 Alpha virt. eigenvalues --    0.27276   0.27599   0.27705   0.28088   0.28607
 Alpha virt. eigenvalues --    0.28817   0.29177   0.29233   0.29773   0.30012
 Alpha virt. eigenvalues --    0.30297   0.30409   0.30762   0.31140   0.31502
 Alpha virt. eigenvalues --    0.31806   0.32036   0.32453   0.32807   0.33168
 Alpha virt. eigenvalues --    0.33508   0.34035   0.34227   0.35072   0.35554
 Alpha virt. eigenvalues --    0.35962   0.36353   0.36377   0.37031   0.37563
 Alpha virt. eigenvalues --    0.37715   0.38282   0.38364   0.39426   0.39996
 Alpha virt. eigenvalues --    0.40803   0.40903   0.41440   0.42238   0.43026
 Alpha virt. eigenvalues --    0.43429   0.43732   0.44406   0.44892   0.46226
 Alpha virt. eigenvalues --    0.46700   0.47088   0.48628   0.49098   0.50728
 Alpha virt. eigenvalues --    0.52118   0.65197   0.65505   0.65891   0.67950
 Alpha virt. eigenvalues --    0.70143   0.70863   0.71119   0.71732   0.72812
 Alpha virt. eigenvalues --    0.73725   0.74111   0.75083   0.76391   0.76695
 Alpha virt. eigenvalues --    0.77201   0.78379   0.78446   0.79168   0.79803
 Alpha virt. eigenvalues --    0.80572   0.81602   0.83221   0.84508   0.85460
 Alpha virt. eigenvalues --    0.86093   0.87682   0.88621   0.89202   0.89915
 Alpha virt. eigenvalues --    0.91163   0.92313   0.94196   0.95083   0.95833
 Alpha virt. eigenvalues --    0.97512   0.99333   0.99864   1.00481   1.00943
 Alpha virt. eigenvalues --    1.01736   1.03371   1.04190   1.07981   1.09150
 Alpha virt. eigenvalues --    1.09662   1.11416   1.12321   1.13879   1.14034
 Alpha virt. eigenvalues --    1.15453   1.15558   1.17006   1.17386   1.18210
 Alpha virt. eigenvalues --    1.18802   1.19504   1.20133   1.20944   1.21182
 Alpha virt. eigenvalues --    1.21604   1.22242   1.23241   1.23668   1.24210
 Alpha virt. eigenvalues --    1.25171   1.25797   1.25898   1.27540   1.27852
 Alpha virt. eigenvalues --    1.28057   1.28833   1.29718   1.30388   1.31029
 Alpha virt. eigenvalues --    1.31650   1.32619   1.33448   1.34103   1.35214
 Alpha virt. eigenvalues --    1.35775   1.36307   1.37312   1.37652   1.38406
 Alpha virt. eigenvalues --    1.39293   1.42705   1.42979   1.43354   1.44654
 Alpha virt. eigenvalues --    1.46214   1.46741   1.47752   1.49343   1.50602
 Alpha virt. eigenvalues --    1.50925   1.52813   1.53092   1.53483   1.54937
 Alpha virt. eigenvalues --    1.55689   1.56712   1.57623   1.58514   1.58733
 Alpha virt. eigenvalues --    1.59594   1.60737   1.61855   1.61924   1.62533
 Alpha virt. eigenvalues --    1.63340   1.64291   1.65072   1.66789   1.67470
 Alpha virt. eigenvalues --    1.68131   1.69814   1.70514   1.71171   1.71921
 Alpha virt. eigenvalues --    1.72759   1.72946   1.75157   1.75350   1.76345
 Alpha virt. eigenvalues --    1.77419   1.78518   1.79265   1.79874   1.80865
 Alpha virt. eigenvalues --    1.81467   1.81845   1.82388   1.83772   1.84785
 Alpha virt. eigenvalues --    1.85104   1.85679   1.86160   1.88079   1.89372
 Alpha virt. eigenvalues --    1.89808   1.91018   1.91138   1.92351   1.93103
 Alpha virt. eigenvalues --    1.94149   1.94688   1.95771   1.96843   1.97888
 Alpha virt. eigenvalues --    1.98177   1.98863   1.99843   2.00789   2.03297
 Alpha virt. eigenvalues --    2.04372   2.05434   2.08085   2.08789   2.09467
 Alpha virt. eigenvalues --    2.11320   2.12837   2.14726   2.15913   2.17430
 Alpha virt. eigenvalues --    2.18783   2.19650   2.21313   2.22752   2.24364
 Alpha virt. eigenvalues --    2.27341   2.28700   2.30907   2.31613   2.33116
 Alpha virt. eigenvalues --    2.34371   2.34986   2.36019   2.37116   2.39168
 Alpha virt. eigenvalues --    2.40130   2.41417   2.42034   2.44581   2.45184
 Alpha virt. eigenvalues --    2.45984   2.46357   2.48096   2.48429   2.51086
 Alpha virt. eigenvalues --    2.53948   2.54957   2.55998   2.56373   2.57409
 Alpha virt. eigenvalues --    2.57467   2.59481   2.59871   2.60970   2.61974
 Alpha virt. eigenvalues --    2.62853   2.63762   2.65091   2.65992   2.66367
 Alpha virt. eigenvalues --    2.68463   2.69640   2.70400   2.70681   2.75885
 Alpha virt. eigenvalues --    2.79520   2.83413   2.86454   2.87145   2.88011
 Alpha virt. eigenvalues --    2.90379   2.90609   2.91170   2.92696   2.94705
 Alpha virt. eigenvalues --    2.97260   2.98367   2.99580   3.00399   3.02331
 Alpha virt. eigenvalues --    3.03246   3.05063   3.05643   3.10718   3.12695
 Alpha virt. eigenvalues --    3.14403   3.16467   3.39544   3.43965   3.45028
 Alpha virt. eigenvalues --    3.46590   3.46990   3.48762   3.51993   3.54760
 Alpha virt. eigenvalues --    4.14966   4.16334   4.23200   4.25265   4.28567
 Alpha virt. eigenvalues --    4.29548   4.30491   4.31561   4.33792   4.35663
 Alpha virt. eigenvalues --    4.37135   4.40316   4.43007   4.46157   4.47123
 Alpha virt. eigenvalues --    4.50884   4.53205   4.55361   4.58486   4.59159
 Alpha virt. eigenvalues --    4.61354   4.66192   4.68577
          Condensed to atoms (all electrons):
              1          2          3          4          5          6
     1  O    8.156710   0.441024  -0.233534  -0.007373   0.031053   0.015409
     2  C    0.441024  10.292243  -1.757292  -0.096477  -0.039672  -0.685777
     3  C   -0.233534  -1.757292  10.493413   0.232160  -0.043214  -1.258369
     4  O   -0.007373  -0.096477   0.232160   8.189053   0.208524  -0.120218
     5  H    0.031053  -0.039672  -0.043214   0.208524   0.419344   0.032436
     6  C    0.015409  -0.685777  -1.258369  -0.120218   0.032436  11.874029
     7  O   -0.001068  -0.003393   0.024943   0.003297   0.000712   0.175767
     8  H   -0.000045   0.015272  -0.085513   0.011339  -0.000191   0.025029
     9  C    0.090307  -0.306667  -0.492470  -0.003521  -0.002217   0.617866
    10  O   -0.000981   0.089864  -0.018389   0.000125  -0.000001  -0.008143
    11  H   -0.000108  -0.002231   0.003288   0.000000   0.000000   0.000204
    12  C   -0.254890  -3.633604   0.409277   0.024668   0.026135   0.631623
    13  O    0.009138  -0.013129  -0.160557   0.001075  -0.000221   0.147919
    14  C    0.025279   1.102544  -1.043664   0.025024   0.015351  -4.245034
    15  O    0.000637   0.028176   0.074226  -0.001079   0.000043  -0.106193
    16  C    0.003505   0.262379  -0.289630   0.002200   0.001152  -0.582782
    17  C    0.000576  -0.045659  -0.043697   0.000489   0.000110  -0.007302
    18  O   -0.000011   0.008163   0.015522  -0.000047   0.000000  -0.014802
    19  H    0.000002  -0.002016  -0.001948   0.000002   0.000000   0.004618
    20  C    0.000041   0.017330   0.009140  -0.000126   0.000004   0.100713
    21  O    0.000000   0.000178   0.000029   0.000000   0.000000  -0.000117
    22  H    0.000000  -0.000063   0.000006   0.000000   0.000000   0.000295
    23  C   -0.000014   0.018838   0.026983  -0.000530  -0.000041  -0.286266
    24  O    0.000000  -0.000667  -0.003765   0.000025   0.000000   0.005314
    25  H    0.000000  -0.000083  -0.000263   0.000008   0.000000   0.004999
    26  C    0.000204  -0.016042  -0.058270   0.000329   0.000042  -0.026731
    27  O    0.000000   0.000391  -0.000374   0.000002   0.000000  -0.006187
    28  C    0.000004  -0.005984  -0.015944   0.000086   0.000001  -0.032767
    29  O    0.000000   0.000003   0.000058   0.000000   0.000000   0.000127
    30  H    0.226984  -0.018078  -0.034769   0.003838  -0.001451  -0.002461
    31  H    0.000000   0.000000   0.000001   0.000000   0.000000   0.000014
              7          8          9         10         11         12
     1  O   -0.001068  -0.000045   0.090307  -0.000981  -0.000108  -0.254890
     2  C   -0.003393   0.015272  -0.306667   0.089864  -0.002231  -3.633604
     3  C    0.024943  -0.085513  -0.492470  -0.018389   0.003288   0.409277
     4  O    0.003297   0.011339  -0.003521   0.000125   0.000000   0.024668
     5  H    0.000712  -0.000191  -0.002217  -0.000001   0.000000   0.026135
     6  C    0.175767   0.025029   0.617866  -0.008143   0.000204   0.631623
     7  O    8.151859   0.205977  -0.007142  -0.000029   0.000000   0.014143
     8  H    0.205977   0.398980   0.000084   0.000001   0.000000  -0.009171
     9  C   -0.007142   0.000084  10.390037   0.029024  -0.082079  -2.527956
    10  O   -0.000029   0.000001   0.029024   8.184159   0.205523  -0.050466
    11  H    0.000000   0.000000  -0.082079   0.205523   0.411221   0.056556
    12  C    0.014143  -0.009171  -2.527956  -0.050466   0.056556  12.327523
    13  O    0.007802  -0.001418   0.213521   0.025118  -0.000777  -0.096230
    14  C   -0.046504   0.056517  -1.178947  -0.001879   0.004786  -0.748084
    15  O    0.007188  -0.000867  -0.020091  -0.003031   0.000014  -0.016987
    16  C   -0.090252   0.010576  -0.205266   0.012666  -0.000350  -0.167295
    17  C    0.007449  -0.000791   0.007813  -0.001168  -0.000315  -0.212656
    18  O    0.000450  -0.000003   0.002856   0.003045  -0.000162  -0.034279
    19  H   -0.000082   0.000000   0.002838   0.005992  -0.000142   0.002318
    20  C    0.000309  -0.000088  -0.026384  -0.004359   0.000157  -0.012791
    21  O   -0.000006   0.000000   0.000083  -0.000032  -0.000003   0.000171
    22  H    0.000000   0.000000   0.000026  -0.000019   0.000000  -0.000111
    23  C   -0.017337  -0.000557  -0.000257  -0.000143   0.000003  -0.002288
    24  O    0.005997  -0.000234   0.000187   0.000000   0.000000   0.002354
    25  H    0.001223   0.000043   0.000001   0.000000   0.000000   0.000103
    26  C    0.015723   0.001496  -0.030605  -0.000072   0.000006  -0.059763
    27  O   -0.000023   0.000002  -0.000256  -0.000002   0.000000  -0.000864
    28  C   -0.000135   0.000009   0.003745   0.001168  -0.000015   0.010614
    29  O   -0.000002   0.000000   0.000009  -0.000001   0.000000   0.000011
    30  H   -0.000043   0.000000  -0.004524   0.000025  -0.000001   0.062722
    31  H    0.000000   0.000000   0.000000   0.000000   0.000000   0.000000
             13         14         15         16         17         18
     1  O    0.009138   0.025279   0.000637   0.003505   0.000576  -0.000011
     2  C   -0.013129   1.102544   0.028176   0.262379  -0.045659   0.008163
     3  C   -0.160557  -1.043664   0.074226  -0.289630  -0.043697   0.015522
     4  O    0.001075   0.025024  -0.001079   0.002200   0.000489  -0.000047
     5  H   -0.000221   0.015351   0.000043   0.001152   0.000110   0.000000
     6  C    0.147919  -4.245034  -0.106193  -0.582782  -0.007302  -0.014802
     7  O    0.007802  -0.046504   0.007188  -0.090252   0.007449   0.000450
     8  H   -0.001418   0.056517  -0.000867   0.010576  -0.000791  -0.000003
     9  C    0.213521  -1.178947  -0.020091  -0.205266   0.007813   0.002856
    10  O    0.025118  -0.001879  -0.003031   0.012666  -0.001168   0.003045
    11  H   -0.000777   0.004786   0.000014  -0.000350  -0.000315  -0.000162
    12  C   -0.096230  -0.748084  -0.016987  -0.167295  -0.212656  -0.034279
    13  O    8.399993  -0.046830  -0.051219  -0.081034   0.000099  -0.002227
    14  C   -0.046830  13.125204   0.194487  -0.269447  -0.534882   0.015661
    15  O   -0.051219   0.194487   8.162811   0.290552  -0.202341   0.030921
    16  C   -0.081034  -0.269447   0.290552  15.722781  -5.919565  -0.268106
    17  C    0.000099  -0.534882  -0.202341  -5.919565  14.309816   0.435257
    18  O   -0.002227   0.015661   0.030921  -0.268106   0.435257   8.138943
    19  H    0.017696  -0.018575   0.009045  -0.035378   0.003184   0.218948
    20  C   -0.008891  -0.511311   0.026537  -1.000700  -1.343063  -0.123090
    21  O   -0.000041   0.000233   0.000499  -0.075488  -0.093193   0.002933
    22  H    0.000023   0.006012  -0.000082   0.048585  -0.087330   0.029767
    23  C   -0.013952   0.239390   0.093855   0.918468  -1.394469   0.025484
    24  O    0.000560   0.007707   0.000604   0.000132  -0.069612  -0.000101
    25  H    0.000018   0.003543  -0.000296   0.021648   0.007138  -0.000013
    26  C   -0.030201  -0.847559  -0.250216  -4.010278   1.534256   0.022731
    27  O   -0.000358  -0.019461   0.006290  -0.056057  -0.252502   0.009952
    28  C    0.006115   0.226186   0.002240   1.096946  -0.334446  -0.015609
    29  O   -0.000024   0.004575   0.000363   0.023773   0.062187  -0.000384
    30  H   -0.001273  -0.001440  -0.000004   0.000166  -0.000015  -0.000001
    31  H    0.000000   0.000228   0.000002  -0.000046  -0.002521  -0.000005
             19         20         21         22         23         24
     1  O    0.000002   0.000041   0.000000   0.000000  -0.000014   0.000000
     2  C   -0.002016   0.017330   0.000178  -0.000063   0.018838  -0.000667
     3  C   -0.001948   0.009140   0.000029   0.000006   0.026983  -0.003765
     4  O    0.000002  -0.000126   0.000000   0.000000  -0.000530   0.000025
     5  H    0.000000   0.000004   0.000000   0.000000  -0.000041   0.000000
     6  C    0.004618   0.100713  -0.000117   0.000295  -0.286266   0.005314
     7  O   -0.000082   0.000309  -0.000006   0.000000  -0.017337   0.005997
     8  H    0.000000  -0.000088   0.000000   0.000000  -0.000557  -0.000234
     9  C    0.002838  -0.026384   0.000083   0.000026  -0.000257   0.000187
    10  O    0.005992  -0.004359  -0.000032  -0.000019  -0.000143   0.000000
    11  H   -0.000142   0.000157  -0.000003   0.000000   0.000003   0.000000
    12  C    0.002318  -0.012791   0.000171  -0.000111  -0.002288   0.002354
    13  O    0.017696  -0.008891  -0.000041   0.000023  -0.013952   0.000560
    14  C   -0.018575  -0.511311   0.000233   0.006012   0.239390   0.007707
    15  O    0.009045   0.026537   0.000499  -0.000082   0.093855   0.000604
    16  C   -0.035378  -1.000700  -0.075488   0.048585   0.918468   0.000132
    17  C    0.003184  -1.343063  -0.093193  -0.087330  -1.394469  -0.069612
    18  O    0.218948  -0.123090   0.002933   0.029767   0.025484  -0.000101
    19  H    0.320876   0.029160   0.001739  -0.000998  -0.000345   0.000002
    20  C    0.029160   9.050516   0.415857  -0.019009   0.133251   0.009335
    21  O    0.001739   0.415857   8.085734   0.215192  -0.000580  -0.000038
    22  H   -0.000998  -0.019009   0.215192   0.390827   0.001849  -0.000001
    23  C   -0.000345   0.133251  -0.000580   0.001849  10.535944   0.376729
    24  O    0.000002   0.009335  -0.000038  -0.000001   0.376729   7.971734
    25  H    0.000000  -0.002043   0.000000   0.000000  -0.159736   0.240722
    26  C    0.016004   1.340244   0.046362  -0.019940  -3.874456  -0.163364
    27  O    0.000100   0.123644   0.009910  -0.001071   0.258092   0.009525
    28  C    0.000244  -2.052552  -0.218657   0.056084  -0.265162  -0.001886
    29  O    0.000008  -0.176942   0.012329  -0.000572   0.001779  -0.000316
    30  H    0.000000   0.000000   0.000000   0.000000   0.000000   0.000000
    31  H    0.000000   0.058389  -0.001036   0.000010   0.000857   0.000004
             25         26         27         28         29         30
     1  O    0.000000   0.000204   0.000000   0.000004   0.000000   0.226984
     2  C   -0.000083  -0.016042   0.000391  -0.005984   0.000003  -0.018078
     3  C   -0.000263  -0.058270  -0.000374  -0.015944   0.000058  -0.034769
     4  O    0.000008   0.000329   0.000002   0.000086   0.000000   0.003838
     5  H    0.000000   0.000042   0.000000   0.000001   0.000000  -0.001451
     6  C    0.004999  -0.026731  -0.006187  -0.032767   0.000127  -0.002461
     7  O    0.001223   0.015723  -0.000023  -0.000135  -0.000002  -0.000043
     8  H    0.000043   0.001496   0.000002   0.000009   0.000000   0.000000
     9  C    0.000001  -0.030605  -0.000256   0.003745   0.000009  -0.004524
    10  O    0.000000  -0.000072  -0.000002   0.001168  -0.000001   0.000025
    11  H    0.000000   0.000006   0.000000  -0.000015   0.000000  -0.000001
    12  C    0.000103  -0.059763  -0.000864   0.010614   0.000011   0.062722
    13  O    0.000018  -0.030201  -0.000358   0.006115  -0.000024  -0.001273
    14  C    0.003543  -0.847559  -0.019461   0.226186   0.004575  -0.001440
    15  O   -0.000296  -0.250216   0.006290   0.002240   0.000363  -0.000004
    16  C    0.021648  -4.010278  -0.056057   1.096946   0.023773   0.000166
    17  C    0.007138   1.534256  -0.252502  -0.334446   0.062187  -0.000015
    18  O   -0.000013   0.022731   0.009952  -0.015609  -0.000384  -0.000001
    19  H    0.000000   0.016004   0.000100   0.000244   0.000008   0.000000
    20  C   -0.002043   1.340244   0.123644  -2.052552  -0.176942   0.000000
    21  O    0.000000   0.046362   0.009910  -0.218657   0.012329   0.000000
    22  H    0.000000  -0.019940  -0.001071   0.056084  -0.000572   0.000000
    23  C   -0.159736  -3.874456   0.258092  -0.265162   0.001779   0.000000
    24  O    0.240722  -0.163364   0.009525  -0.001886  -0.000316   0.000000
    25  H    0.392352   0.079341  -0.000034   0.002007   0.000002   0.000000
    26  C    0.079341  12.863910   0.068933  -0.907792  -0.041797   0.000001
    27  O   -0.000034   0.068933   8.384426  -0.253915  -0.050765   0.000000
    28  C    0.002007  -0.907792  -0.253915   8.216935   0.246646   0.000000
    29  O    0.000002  -0.041797  -0.050765   0.246646   8.143481   0.000000
    30  H    0.000000   0.000001   0.000000   0.000000   0.000000   0.405212
    31  H    0.000000  -0.002415  -0.002160  -0.039254   0.221804   0.000000
             31
     1  O    0.000000
     2  C    0.000000
     3  C    0.000001
     4  O    0.000000
     5  H    0.000000
     6  C    0.000014
     7  O    0.000000
     8  H    0.000000
     9  C    0.000000
    10  O    0.000000
    11  H    0.000000
    12  C    0.000000
    13  O    0.000000
    14  C    0.000228
    15  O    0.000002
    16  C   -0.000046
    17  C   -0.002521
    18  O   -0.000005
    19  H    0.000000
    20  C    0.058389
    21  O   -0.001036
    22  H    0.000010
    23  C    0.000857
    24  O    0.000004
    25  H    0.000000
    26  C   -0.002415
    27  O   -0.002160
    28  C   -0.039254
    29  O    0.221804
    30  H    0.000000
    31  H    0.401719
 Mulliken atomic charges:
              1
     1  O   -0.502849
     2  C    0.350430
     3  C    0.252616
     4  O   -0.472872
     5  H    0.352102
     6  C   -0.253211
     7  O   -0.456823
     8  H    0.373554
     9  C   -0.470017
    10  O   -0.467998
    11  H    0.404424
    12  C    0.259216
    13  O   -0.320695
    14  C    0.460891
    15  O   -0.276081
    16  C    0.636144
    17  C    0.177151
    18  O   -0.501794
    19  H    0.426709
    20  C   -0.033277
    21  O   -0.402059
    22  H    0.380521
    23  C   -0.615390
    24  O   -0.390948
    25  H    0.409321
    26  C    0.349918
    27  O   -0.227239
    28  C    0.275087
    29  O   -0.446350
    30  H    0.365108
    31  H    0.364410
 Sum of Mulliken atomic charges =   0.00000
 Mulliken charges with hydrogens summed into heavy atoms:
              1
     1  O   -0.137741
     2  C    0.350430
     3  C    0.252616
     4  O   -0.120770
     6  C   -0.253211
     7  O   -0.083268
     9  C   -0.470017
    10  O   -0.063574
    12  C    0.259216
    13  O   -0.320695
    14  C    0.460891
    15  O   -0.276081
    16  C    0.636144
    17  C    0.177151
    18  O   -0.075085
    20  C   -0.033277
    21  O   -0.021539
    23  C   -0.615390
    24  O    0.018373
    26  C    0.349918
    27  O   -0.227239
    28  C    0.275087
    29  O   -0.081940
 Sum of Mulliken charges with hydrogens summed into heavy atoms =   0.00000
 APT atomic charges:
              1
     1  O   -0.714326
     2  C    0.792162
     3  C    0.181592
     4  O   -0.838362
     5  H    0.311749
     6  C    0.438612
     7  O   -0.483826
     8  H    0.287140
     9  C    0.185928
    10  O   -0.302711
    11  H    0.361267
    12  C   -0.819050
    13  O    0.246633
    14  C   -0.070554
    15  O    0.077633
    16  C   -0.114246
    17  C   -0.029139
    18  O   -0.034947
    19  H    0.067786
    20  C    0.562341
    21  O   -0.562466
    22  H    0.243533
    23  C   -0.037294
    24  O   -0.552653
    25  H    0.322860
    26  C    0.537855
    27  O   -0.322585
    28  C    0.392362
    29  O   -0.857800
    30  H    0.330006
    31  H    0.400503
 Sum of APT charges=   0.00000
 APT Atomic charges with hydrogens summed into heavy atoms:
              1
     1  O   -0.384320
     2  C    0.792162
     3  C    0.181592
     4  O   -0.526613
     5  H    0.000000
     6  C    0.438612
     7  O   -0.196686
     8  H    0.000000
     9  C    0.185928
    10  O    0.058556
    11  H    0.000000
    12  C   -0.819050
    13  O    0.246633
    14  C   -0.070554
    15  O    0.077633
    16  C   -0.114246
    17  C   -0.029139
    18  O    0.032839
    19  H    0.000000
    20  C    0.562341
    21  O   -0.318933
    22  H    0.000000
    23  C   -0.037294
    24  O   -0.229793
    25  H    0.000000
    26  C    0.537855
    27  O   -0.322585
    28  C    0.392362
    29  O   -0.457297
    30  H    0.000000
    31  H    0.000000
 Sum of APT charges=   0.00000
 Electronic spatial extent (au):  <R**2>=           8441.2288
 Charge=              0.0000 electrons
 Dipole moment (field-independent basis, Debye):
    X=              2.3373    Y=              2.9559    Z=              0.7413  Tot=              3.8406
 Quadrupole moment (field-independent basis, Debye-Ang):
   XX=           -108.6303   YY=           -115.7496   ZZ=           -140.4502
   XY=              0.7559   XZ=             -4.1268   YZ=             -2.6078
 Traceless Quadrupole moment (field-independent basis, Debye-Ang):
   XX=             12.9797   YY=              5.8604   ZZ=            -18.8401
   XY=              0.7559   XZ=             -4.1268   YZ=             -2.6078
 Octapole moment (field-independent basis, Debye-Ang**2):
  XXX=             75.2097  YYY=             25.4965  ZZZ=            -13.6027  XYY=             40.9283
  XXY=             84.9541  XXZ=             25.7303  XZZ=             -0.2529  YZZ=             -7.0223
  YYZ=             -3.2964  XYZ=              8.3367
 Hexadecapole moment (field-independent basis, Debye-Ang**3):
 XXXX=          -5788.5441 YYYY=          -2079.8753 ZZZZ=           -340.4750 XXXY=             76.7684
 XXXZ=           -225.2948 YYYX=           -148.8472 YYYZ=            -55.8663 ZZZX=             11.9638
 ZZZY=            -21.1170 XXYY=          -1879.5671 XXZZ=          -1430.2042 YYZZ=           -569.1208
 XXYZ=            -43.2064 YYXZ=             36.3814 ZZXY=             59.9029
 N-N= 1.921927440834D+03 E-N=-6.861700611792D+03  KE= 1.275111298936D+03
  Exact polarizability: 706.629 -53.911 356.331 -13.651  10.187 135.278
 Approx polarizability:5100.791-593.337 866.425-471.368 101.139 323.106
 Calling FoFJK, ICntrl=    100127 FMM=F ISym2X=0 I1Cent= 0 IOpClX= 0 NMat=1 NMatS=1 NMatT=0.
 Full mass-weighted force constant matrix:
 Low frequencies --- -561.7572 -448.6571 -426.9835 -332.7034 -243.2312    0.0006
 Low frequencies ---    0.0007    0.0009   41.2686
 ******    5 imaginary frequencies (negative Signs) ****** 
 Harmonic frequencies (cm**-1), IR intensities (KM/Mole), Raman scattering
 activities (A**4/AMU), depolarization ratios for plane and unpolarized
 incident light, reduced masses (AMU), force constants (mDyne/A),
 and normal coordinates:
                     1                      2                      3
                     A                      A                      A
 Frequencies --  -561.6063              -448.5044              -426.9508
 Red. masses --     5.2741                 4.8150                 1.3151
 Frc consts  --     0.9801                 0.5707                 0.1412
 IR Inten    --   145.0073               184.7016               168.6467
 Raman Activ --  2313.3482              1348.4056                94.7867
 Depolar (P) --     0.5847                 0.3491                 0.3671
 Depolar (U) --     0.7379                 0.5175                 0.5370
  Atom  AN      X      Y      Z        X      Y      Z        X      Y      Z
     1   8     0.00   0.00   0.00     0.02   0.07  -0.02    -0.01  -0.08   0.05
     2   6     0.00   0.01   0.01     0.01   0.06   0.00     0.01   0.00  -0.01
     3   6     0.01  -0.01   0.01     0.05  -0.05  -0.02     0.00   0.00  -0.02
     4   8     0.00   0.00   0.00    -0.02  -0.01  -0.02    -0.01   0.02   0.01
     5   1     0.00   0.01  -0.01     0.02  -0.03   0.05    -0.02   0.09  -0.06
     6   6     0.01   0.00   0.03    -0.04   0.01   0.04     0.00   0.00   0.01
     7   8     0.00   0.00   0.00    -0.01   0.00  -0.03     0.00   0.00   0.00
     8   1    -0.01   0.00   0.01    -0.05  -0.01   0.04    -0.01   0.00   0.01
     9   6     0.00   0.01  -0.02     0.00   0.04  -0.06     0.00   0.01  -0.01
    10   8    -0.01  -0.01   0.00    -0.03  -0.02   0.03    -0.01   0.00   0.00
    11   1     0.00   0.00  -0.01     0.02   0.00  -0.02     0.00   0.00   0.00
    12   6     0.02  -0.02  -0.02     0.02  -0.06  -0.06     0.01  -0.01  -0.02
    13   8    -0.01   0.00   0.00    -0.05   0.00  -0.06     0.00   0.00  -0.02
    14   6     0.07   0.01   0.07     0.13   0.06   0.35     0.02   0.01   0.06
    15   8    -0.02   0.03  -0.11     0.04  -0.02  -0.03     0.01  -0.01   0.00
    16   6    -0.07   0.02   0.04    -0.04   0.04  -0.03    -0.01   0.01   0.00
    17   6    -0.06  -0.06  -0.01    -0.04   0.00   0.04    -0.01   0.00   0.01
    18   8     0.02  -0.01   0.00     0.02   0.02  -0.04     0.00   0.01  -0.01
    19   1     0.00  -0.02   0.02    -0.06  -0.10   0.07    -0.01  -0.02   0.01
    20   6     0.04  -0.01   0.06    -0.01   0.00   0.02     0.00   0.00   0.00
    21   8     0.01   0.01  -0.04     0.00  -0.01   0.00     0.00   0.00   0.00
    22   1     0.01  -0.01  -0.02     0.01   0.00   0.00     0.00   0.00   0.00
    23   6    -0.16   0.13   0.09     0.22  -0.17  -0.14     0.05  -0.04  -0.03
    24   8     0.08  -0.06   0.01    -0.09   0.08   0.02    -0.02   0.02   0.01
    25   1    -0.15   0.12   0.05     0.17  -0.13  -0.03     0.04  -0.03   0.00
    26   6     0.02  -0.03  -0.32    -0.06   0.06   0.00    -0.01   0.01   0.00
    27   8     0.12   0.08   0.06    -0.03   0.02   0.00    -0.01   0.00   0.00
    28   6    -0.12  -0.17   0.26    -0.04  -0.05   0.06    -0.01  -0.01   0.02
    29   8     0.02   0.08  -0.09    -0.01   0.00  -0.03     0.00   0.00  -0.01
    30   1     0.00   0.00   0.00     0.03  -0.66   0.33    -0.01   0.88  -0.43
    31   1    -0.29  -0.68   0.21    -0.09  -0.19   0.05    -0.03  -0.07   0.02
                     4                      5                      6
                     A                      A                      A
 Frequencies --  -332.5497              -239.8651                77.9855
 Red. masses --     2.0388                 2.4122                 9.1764
 Frc consts  --     0.1328                 0.0818                 0.0329
 IR Inten    --   184.9664                56.2258                11.8464
 Raman Activ --   253.9216               349.8135                20.1651
 Depolar (P) --     0.5883                 0.6554                 0.3679
 Depolar (U) --     0.7408                 0.7919                 0.5379
  Atom  AN      X      Y      Z        X      Y      Z        X      Y      Z
     1   8    -0.01   0.00  -0.01     0.01  -0.01   0.01     0.10   0.13   0.05
     2   6    -0.01  -0.02   0.01     0.00   0.01  -0.01     0.07   0.07   0.02
     3   6    -0.02   0.02   0.02     0.01  -0.02  -0.03    -0.02   0.02  -0.04
     4   8     0.01   0.00   0.01    -0.02   0.00  -0.03    -0.08   0.07  -0.06
     5   1     0.00  -0.02   0.01    -0.01   0.01  -0.02    -0.07   0.09  -0.06
     6   6     0.02   0.00  -0.02    -0.02   0.00   0.00    -0.04  -0.05  -0.02
     7   8     0.01   0.00   0.02    -0.01   0.00  -0.03    -0.09  -0.07  -0.01
     8   1     0.03   0.00  -0.02    -0.03   0.00   0.00    -0.11  -0.06  -0.03
     9   6     0.00  -0.02   0.04     0.00   0.01  -0.02     0.22   0.05   0.13
    10   8     0.03   0.01  -0.02    -0.03   0.00   0.03     0.29  -0.01   0.14
    11   1     0.00   0.00   0.00    -0.01   0.00   0.02     0.32   0.01   0.16
    12   6    -0.01   0.03   0.05     0.00  -0.02  -0.03     0.14   0.01   0.06
    13   8     0.03   0.00   0.03    -0.03   0.00  -0.03     0.08  -0.08  -0.04
    14   6    -0.07  -0.03  -0.17     0.03   0.02   0.13     0.02  -0.09   0.00
    15   8     0.00  -0.01   0.01     0.01   0.00   0.05     0.01  -0.19  -0.03
    16   6     0.01   0.02   0.04     0.03  -0.02  -0.05    -0.02  -0.08  -0.07
    17   6     0.00   0.02  -0.01     0.05   0.02  -0.03    -0.10  -0.04  -0.09
    18   8    -0.01   0.02   0.01     0.01  -0.01  -0.02    -0.14  -0.09  -0.16
    19   1     0.01   0.07  -0.02     0.00  -0.05   0.00    -0.18  -0.17  -0.10
    20   6    -0.01   0.01   0.01     0.00   0.02  -0.02    -0.16   0.04  -0.03
    21   8     0.00   0.01  -0.01    -0.01   0.01   0.04    -0.24   0.05  -0.01
    22   1    -0.01   0.02  -0.03    -0.01   0.01   0.04    -0.27   0.00  -0.04
    23   6     0.13  -0.09  -0.07    -0.13   0.06   0.07     0.07  -0.02   0.03
    24   8    -0.05   0.04   0.02     0.04  -0.05  -0.02     0.11  -0.04   0.02
    25   1     0.10  -0.08  -0.01    -0.08   0.05   0.01     0.11  -0.04   0.03
    26   6    -0.02   0.02   0.00     0.01  -0.02   0.14     0.04  -0.02   0.03
    27   8    -0.01   0.00   0.02    -0.02   0.00  -0.02     0.00   0.07   0.02
    28   6     0.00   0.00   0.02     0.07   0.08  -0.13    -0.09   0.09   0.03
    29   8     0.01   0.03  -0.04     0.02   0.01  -0.03    -0.11   0.18   0.05
    30   1    -0.01  -0.07   0.02     0.00   0.02   0.00     0.08   0.15   0.09
    31   1    -0.32  -0.82   0.33    -0.27  -0.81   0.37    -0.08   0.17   0.10
                     7                      8                      9
                     A                      A                      A
 Frequencies --    89.2491               101.2674               123.7965
 Red. masses --     8.8463                 8.6239                 8.2209
 Frc consts  --     0.0415                 0.0521                 0.0742
 IR Inten    --     5.0134                 3.8787                25.7911
 Raman Activ --    13.7239                 5.4164                16.9537
 Depolar (P) --     0.3677                 0.5492                 0.1601
 Depolar (U) --     0.5376                 0.7090                 0.2760
  Atom  AN      X      Y      Z        X      Y      Z        X      Y      Z
     1   8    -0.02  -0.08   0.01     0.11  -0.04   0.21     0.10   0.08   0.26
     2   6    -0.01  -0.03   0.01     0.04  -0.02   0.07    -0.01   0.05   0.06
     3   6     0.00  -0.04  -0.09     0.10   0.00   0.05     0.00   0.03  -0.03
     4   8     0.01  -0.06  -0.18     0.14  -0.02   0.20     0.01   0.04   0.03
     5   1    -0.01  -0.09  -0.19     0.16  -0.02   0.24     0.02   0.04   0.05
     6   6     0.01   0.01  -0.07     0.06   0.01  -0.05    -0.05   0.05  -0.15
     7   8     0.03   0.00  -0.13     0.11   0.03  -0.04    -0.05   0.03  -0.29
     8   1     0.02   0.01  -0.13     0.14   0.01  -0.04    -0.09   0.05  -0.28
     9   6    -0.04   0.02   0.21    -0.02   0.00  -0.02    -0.11   0.04  -0.09
    10   8    -0.06   0.02   0.27    -0.04   0.02  -0.04    -0.22   0.10  -0.05
    11   1    -0.07   0.03   0.31    -0.06   0.01  -0.05    -0.25   0.08  -0.09
    12   6    -0.01  -0.01   0.10     0.02   0.01  -0.02    -0.01   0.03  -0.04
    13   8    -0.01   0.03   0.04    -0.03   0.01  -0.16    -0.04   0.06  -0.07
    14   6     0.00   0.02  -0.01     0.02   0.05  -0.13    -0.01   0.02  -0.09
    15   8     0.00   0.05  -0.03     0.01   0.05  -0.17     0.00   0.02  -0.05
    16   6     0.00   0.06  -0.03    -0.01   0.05  -0.18     0.01  -0.09   0.07
    17   6     0.03   0.05  -0.13     0.02   0.06  -0.16    -0.01  -0.11   0.11
    18   8     0.07   0.08  -0.18     0.03   0.07  -0.26    -0.05  -0.14   0.11
    19   1     0.05   0.06  -0.16     0.02   0.03  -0.25    -0.03  -0.15   0.08
    20   6     0.05   0.06  -0.13    -0.07  -0.02   0.04     0.00  -0.03   0.01
    21   8     0.12   0.07  -0.35    -0.05  -0.04   0.21    -0.06  -0.01  -0.07
    22   1     0.13   0.12  -0.39    -0.03  -0.04   0.24    -0.09  -0.04  -0.12
    23   6    -0.03  -0.05   0.14    -0.10  -0.02  -0.03     0.18  -0.09   0.09
    24   8    -0.08   0.01   0.18    -0.08   0.00  -0.01     0.17  -0.07   0.11
    25   1    -0.05  -0.02   0.18    -0.09   0.01   0.00     0.22  -0.12   0.10
    26   6    -0.03  -0.03   0.09    -0.05   0.00   0.02     0.07  -0.07   0.04
    27   8    -0.03  -0.05   0.14    -0.07  -0.02   0.03     0.04  -0.03   0.08
    28   6     0.00  -0.08   0.08    -0.04  -0.03   0.09     0.03   0.01  -0.02
    29   8    -0.01  -0.05   0.09    -0.11  -0.09   0.22     0.04   0.06  -0.04
    30   1    -0.01  -0.08   0.00     0.06  -0.04   0.30     0.01   0.11   0.40
    31   1     0.06   0.09   0.05    -0.09  -0.14   0.30     0.03   0.04  -0.04
                    10                     11                     12
                     A                      A                      A
 Frequencies --   126.3499               136.7451               151.4553
 Red. masses --     8.0938                 7.3019                 8.8068
 Frc consts  --     0.0761                 0.0804                 0.1190
 IR Inten    --     2.6983                28.2233                 6.3713
 Raman Activ --    54.5791                 9.6000                15.5769
 Depolar (P) --     0.3676                 0.3781                 0.2106
 Depolar (U) --     0.5376                 0.5487                 0.3480
  Atom  AN      X      Y      Z        X      Y      Z        X      Y      Z
     1   8     0.13   0.00   0.23     0.00  -0.04  -0.02     0.05  -0.04  -0.16
     2   6     0.02  -0.03   0.05     0.00  -0.01  -0.03     0.10   0.00  -0.10
     3   6     0.02  -0.06  -0.03     0.01  -0.02  -0.06     0.14   0.02   0.00
     4   8     0.01  -0.05  -0.03     0.02  -0.02  -0.08     0.18   0.01   0.12
     5   1     0.01  -0.05  -0.03     0.02  -0.03  -0.08     0.20   0.02   0.15
     6   6    -0.01  -0.06  -0.09     0.02   0.00  -0.05     0.12   0.05   0.02
     7   8    -0.02  -0.08  -0.17     0.04   0.01  -0.03     0.21   0.08   0.08
     8   1    -0.06  -0.06  -0.16     0.06   0.00  -0.04     0.26   0.05   0.08
     9   6     0.13  -0.06  -0.10     0.01   0.01   0.08     0.04   0.06   0.01
    10   8     0.22  -0.14  -0.16     0.04   0.00   0.09    -0.03   0.08   0.17
    11   1     0.29  -0.11  -0.19     0.04   0.00   0.11    -0.04   0.08   0.21
    12   6     0.05  -0.06  -0.03     0.00   0.00   0.01     0.06   0.02  -0.10
    13   8    -0.01  -0.08  -0.05    -0.01   0.00  -0.06     0.06   0.05  -0.12
    14   6     0.00  -0.06  -0.01     0.00   0.01  -0.06     0.08   0.07  -0.05
    15   8     0.01   0.00   0.03     0.00   0.03  -0.07     0.03   0.01  -0.07
    16   6    -0.03   0.09   0.05    -0.04   0.02  -0.01    -0.01  -0.04  -0.02
    17   6    -0.04   0.08   0.09    -0.01   0.00   0.00    -0.09  -0.07   0.12
    18   8    -0.04   0.09   0.23     0.04   0.03  -0.05    -0.17  -0.13   0.24
    19   1     0.00   0.20   0.18     0.01   0.00   0.00    -0.14  -0.10   0.20
    20   6     0.02   0.06  -0.01     0.00  -0.07   0.07    -0.07   0.01  -0.04
    21   8     0.07   0.07  -0.10    -0.01  -0.09   0.27    -0.12   0.02  -0.15
    22   1     0.08   0.10  -0.12     0.00  -0.10   0.34    -0.15  -0.01  -0.21
    23   6    -0.17   0.09   0.02    -0.03  -0.04   0.20    -0.13  -0.06  -0.01
    24   8    -0.23   0.10   0.02    -0.09   0.11   0.31    -0.17  -0.07  -0.01
    25   1    -0.27   0.13   0.01    -0.06   0.07   0.36    -0.20  -0.05  -0.03
    26   6    -0.07   0.07   0.03    -0.04  -0.02   0.01    -0.05  -0.05   0.05
    27   8    -0.06   0.02   0.04     0.00   0.01  -0.10    -0.09  -0.05   0.07
    28   6    -0.02   0.01   0.00    -0.05   0.00  -0.09    -0.06   0.01  -0.06
    29   8    -0.01  -0.01  -0.03     0.07   0.06  -0.33    -0.06   0.03  -0.07
    30   1     0.04   0.05   0.36     0.00  -0.05  -0.02     0.10  -0.07  -0.22
    31   1    -0.02   0.01  -0.06     0.03   0.17  -0.48    -0.08  -0.03  -0.04
                    13                     14                     15
                     A                      A                      A
 Frequencies --   163.2564               163.8740               199.0496
 Red. masses --     9.1172                 8.3894                 8.0859
 Frc consts  --     0.1432                 0.1327                 0.1888
 IR Inten    --     0.8249                14.7400                12.5421
 Raman Activ --     2.4225                 9.2015                18.4993
 Depolar (P) --     0.3739                 0.4646                 0.1409
 Depolar (U) --     0.5443                 0.6344                 0.2469
  Atom  AN      X      Y      Z        X      Y      Z        X      Y      Z
     1   8    -0.06   0.01  -0.08     0.09   0.06   0.23    -0.04  -0.03  -0.01
     2   6    -0.09  -0.01  -0.13    -0.03   0.01   0.01    -0.02   0.01   0.01
     3   6    -0.06   0.01  -0.03    -0.04  -0.02  -0.09     0.01   0.00   0.00
     4   8    -0.07   0.07   0.35    -0.06  -0.03  -0.32     0.02  -0.01  -0.04
     5   1     0.01   0.17   0.42    -0.11  -0.07  -0.37     0.01  -0.04  -0.05
     6   6    -0.11  -0.09  -0.11     0.02  -0.01   0.07     0.01   0.04   0.03
     7   8    -0.16  -0.10   0.00     0.07   0.03   0.40     0.05   0.06   0.00
     8   1    -0.14  -0.11  -0.02     0.19  -0.03   0.35     0.06   0.04   0.01
     9   6     0.06   0.03   0.02    -0.03   0.02   0.02     0.03   0.02   0.00
    10   8     0.03  -0.03   0.28    -0.06   0.03   0.05     0.10  -0.04  -0.02
    11   1     0.07   0.00   0.34    -0.07   0.03   0.06     0.14  -0.02  -0.02
    12   6    -0.04  -0.06  -0.17    -0.02  -0.01  -0.06    -0.03   0.01   0.01
    13   8    -0.14  -0.14  -0.30    -0.11  -0.07  -0.29    -0.02   0.04   0.03
    14   6    -0.05  -0.05  -0.11    -0.04   0.04  -0.11     0.00   0.05   0.03
    15   8     0.01   0.00  -0.04     0.00   0.01  -0.02    -0.04   0.02  -0.06
    16   6     0.00   0.04   0.01     0.00   0.00   0.02    -0.02   0.04  -0.20
    17   6     0.04   0.04   0.02     0.01  -0.01   0.03    -0.05   0.05  -0.06
    18   8     0.06   0.06   0.09     0.00  -0.01   0.06    -0.10   0.01   0.25
    19   1     0.09   0.12   0.04     0.04   0.02   0.01    -0.05   0.19   0.16
    20   6     0.07   0.02   0.01     0.02  -0.01   0.01    -0.03  -0.02  -0.10
    21   8     0.11   0.02  -0.03     0.03  -0.01  -0.02     0.00  -0.04  -0.04
    22   1     0.12   0.04  -0.02     0.03   0.00  -0.02    -0.01  -0.04  -0.05
    23   6     0.08   0.07   0.02     0.04   0.01  -0.02     0.03  -0.04   0.04
    24   8     0.07   0.08   0.01     0.03   0.00  -0.05     0.32   0.13   0.21
    25   1     0.09   0.06   0.02     0.04  -0.01  -0.06     0.37   0.06   0.36
    26   6     0.04   0.05  -0.01     0.01   0.00   0.00    -0.07   0.02  -0.09
    27   8     0.05   0.02   0.00     0.01  -0.01   0.01    -0.06   0.01  -0.20
    28   6     0.07   0.00   0.02     0.02  -0.01   0.00    -0.03  -0.06  -0.04
    29   8     0.07  -0.02   0.03     0.02  -0.02   0.01    -0.12  -0.23   0.14
    30   1    -0.07  -0.07  -0.03    -0.02   0.12   0.39    -0.02  -0.03  -0.04
    31   1     0.06  -0.03   0.03     0.02  -0.03   0.02    -0.10  -0.27   0.21
                    16                     17                     18
                     A                      A                      A
 Frequencies --   200.3174               226.1771               258.1477
 Red. masses --     8.5367                 7.5796                 6.2979
 Frc consts  --     0.2018                 0.2285                 0.2473
 IR Inten    --    37.5290                31.2617                39.7529
 Raman Activ --     2.6381                75.9099                84.6947
 Depolar (P) --     0.2146                 0.2893                 0.6526
 Depolar (U) --     0.3533                 0.4487                 0.7898
  Atom  AN      X      Y      Z        X      Y      Z        X      Y      Z
     1   8    -0.16  -0.18   0.04     0.08   0.12  -0.06     0.03   0.37  -0.06
     2   6    -0.12  -0.01   0.00     0.07   0.00   0.00    -0.05  -0.01   0.01
     3   6    -0.02   0.02  -0.02     0.00  -0.01   0.02    -0.04  -0.05   0.18
     4   8     0.05  -0.03   0.03    -0.04   0.01  -0.01     0.03  -0.16  -0.01
     5   1     0.05  -0.07   0.05    -0.04   0.03  -0.02    -0.05  -0.25  -0.10
     6   6    -0.01   0.09   0.00     0.00  -0.05   0.01     0.00   0.04   0.06
     7   8     0.06   0.12  -0.02    -0.04  -0.06   0.03     0.11   0.07  -0.08
     8   1     0.06   0.10   0.03    -0.03  -0.05   0.00     0.09   0.06  -0.01
     9   6     0.06   0.07   0.02    -0.03  -0.06  -0.02    -0.02  -0.11  -0.06
    10   8     0.31  -0.12  -0.08    -0.12   0.03   0.00     0.02  -0.23   0.12
    11   1     0.42  -0.06  -0.06    -0.17   0.00   0.00     0.11  -0.18   0.14
    12   6    -0.13   0.05   0.01     0.07  -0.03  -0.02    -0.04  -0.12  -0.10
    13   8    -0.16   0.04  -0.07     0.08  -0.03   0.03    -0.01   0.03   0.02
    14   6    -0.06   0.14   0.03     0.02  -0.06  -0.02    -0.02   0.02  -0.05
    15   8    -0.05   0.19  -0.02     0.01  -0.10  -0.03    -0.04   0.09  -0.02
    16   6    -0.05   0.01   0.05    -0.01   0.11  -0.15    -0.02   0.00   0.08
    17   6     0.00   0.00   0.06    -0.01   0.17  -0.14     0.00  -0.02   0.04
    18   8     0.03   0.01  -0.06     0.00   0.22   0.14     0.01   0.01  -0.07
    19   1     0.00  -0.02  -0.02     0.06   0.42   0.06     0.01  -0.02  -0.06
    20   6     0.00   0.02   0.03     0.00   0.06  -0.05     0.00   0.00   0.02
    21   8     0.01   0.02  -0.01     0.12   0.02   0.09    -0.03   0.01   0.00
    22   1     0.02   0.04  -0.02     0.13   0.06   0.09    -0.03   0.00   0.00
    23   6     0.07  -0.09   0.00    -0.05  -0.14  -0.04     0.03   0.01   0.00
    24   8     0.17  -0.24  -0.08     0.16  -0.24  -0.01     0.02   0.00   0.00
    25   1     0.21  -0.25  -0.14     0.20  -0.26  -0.05     0.03  -0.01  -0.01
    26   6    -0.05  -0.05   0.12    -0.10   0.00   0.08    -0.01   0.00  -0.01
    27   8    -0.08  -0.03   0.16    -0.14  -0.02   0.17    -0.01  -0.01   0.00
    28   6    -0.04   0.00   0.02    -0.10  -0.04   0.06     0.01   0.02  -0.04
    29   8     0.02   0.06  -0.12    -0.02   0.05  -0.15     0.00  -0.03   0.01
    30   1    -0.13  -0.25   0.04     0.07   0.18  -0.07    -0.04   0.67  -0.11
    31   1     0.00   0.10  -0.19    -0.02   0.19  -0.29    -0.01  -0.05   0.01
                    19                     20                     21
                     A                      A                      A
 Frequencies --   261.2238               283.0402               295.3030
 Red. masses --    10.7601                 9.0052                10.8430
 Frc consts  --     0.4326                 0.4251                 0.5571
 IR Inten    --    34.2750                17.4185               222.9794
 Raman Activ --    36.2126                40.2527                51.4398
 Depolar (P) --     0.7460                 0.6246                 0.2007
 Depolar (U) --     0.8545                 0.7689                 0.3344
  Atom  AN      X      Y      Z        X      Y      Z        X      Y      Z
     1   8     0.11  -0.01   0.00     0.06  -0.02  -0.03     0.12  -0.08   0.08
     2   6     0.05  -0.02  -0.10     0.08   0.00   0.01     0.03  -0.02  -0.11
     3   6     0.02  -0.02  -0.10     0.03  -0.02  -0.03     0.02   0.00  -0.17
     4   8     0.06  -0.02   0.04    -0.07   0.07   0.00    -0.09   0.16   0.02
     5   1     0.07  -0.02   0.06    -0.03   0.14   0.01    -0.02   0.28   0.05
     6   6     0.02  -0.02  -0.06     0.00  -0.07  -0.03     0.00  -0.08  -0.10
     7   8     0.12   0.00  -0.06    -0.02  -0.09   0.06    -0.08  -0.10   0.18
     8   1     0.17  -0.02  -0.09     0.03  -0.09  -0.01     0.07  -0.12  -0.01
     9   6     0.02   0.04   0.00     0.02  -0.02  -0.01     0.09  -0.05  -0.25
    10   8    -0.03   0.12   0.02    -0.03   0.01  -0.02    -0.03  -0.10   0.15
    11   1    -0.09   0.09   0.05    -0.04   0.00  -0.05     0.07  -0.06   0.08
    12   6     0.06   0.04  -0.06     0.05  -0.01   0.04    -0.01  -0.06  -0.10
    13   8     0.06  -0.01  -0.09     0.04  -0.01   0.08     0.07   0.05   0.28
    14   6    -0.07  -0.02   0.00     0.03  -0.05  -0.01     0.06  -0.07  -0.05
    15   8    -0.01  -0.12   0.30    -0.02   0.12  -0.12    -0.02   0.34  -0.15
[...]
 0.00014053,-0.00024288,-0.00036679,-0.00015855,0.00077567,0.00318912,-
 0.00106788,0.00026248,0.00017973,0.00120499,0.00048685,0.00042364,0.00
 018627,0.00001971,0.00002941,-0.00021812,-0.00023046,0.00019875,-0.000
 01873,-0.00003437,-0.00034087,-0.00000785,-0.00005695,0.00002108,0.000
 11199,-0.00689188,-0.01533196,-0.01271970,0.11708141,0.16046477,-0.163
 70428,-0.11510786,-0.14695375,0.16538453,-0.00027397,0.00025966,-0.000
 77707,0.00175601,-0.00378546,0.00241754,0.00019251,-0.00068198,0.00516
 080,0.00175919,0.00313736,-0.00311099,-0.00025236,0.00025400,0.0007316
 5,0.00345256,-0.00534902,-0.00684490,0.00091278,0.00199262,0.00190078,
 -0.00032085,-0.00017408,-0.00010821,0.00010139,0.00433511,-0.00348027,
 -0.00071425,-0.00324565,0.00401179,-0.00013149,0.00096322,-0.00007834,
 -0.00429202,-0.00141106,-0.00560461,0.00888678,-0.00457607,0.00379611,
 -0.01226514,0.00793951,-0.01995883,-0.01342174,0.02118706,0.03277515,-
 0.01964924,-0.03164930,0.00410681,-0.04751888,-0.04291192,0.01363811,0
 .00407160,-0.00347885,-0.00118036,-0.00122435,0.00023210,-0.00308808,0
 .00672300,0.00340079,-0.03586126,0.00327932,0.00953589,0.00633695,0.00
 006384,0.00065703,-0.00072500,0.01387604,-0.01374215,0.02816091,-0.021
 74913,-0.00818505,-0.01863618,0.00356109,0.00053410,0.00448422,0.09264
 409,0.00061177,-0.00037612,0.00125651,-0.00268162,0.00072043,-0.002115
 60,0.00217060,0.00100775,-0.00203444,-0.00202278,-0.00310349,0.0029204
 2,0.00010087,0.00003469,-0.00059028,-0.00026091,0.00726558,0.00376132,
 -0.00107932,-0.00524896,-0.00263198,0.00066928,0.00049426,0.00057008,-
 0.00037744,-0.00502459,0.00281183,0.00094622,0.00343966,-0.00347562,0.
 00010647,-0.00095866,-0.00000344,0.00437314,0.00341322,0.00411503,-0.0
 0398120,0.00169458,-0.00183663,-0.00743314,-0.00210584,0.00856385,0.01
 696099,0.00216798,0.00421229,-0.05604983,-0.08124071,-0.03010926,-0.03
 234288,-0.01246933,-0.03544444,-0.00504500,-0.01113471,0.00112218,-0.0
 0023422,0.00024536,0.00165894,-0.00213527,-0.00148571,0.00652369,0.001
 05720,0.00103919,-0.00083337,0.00007675,-0.00021768,-0.00064680,0.0517
 5935,-0.10203610,0.01407269,-0.04094194,-0.01072332,-0.00306148,0.0019
 3003,-0.00480662,0.00129239,0.11615963,0.29266889,0.00010587,0.0001065
 0,0.00034325,-0.00147692,-0.00108201,-0.00105341,0.00170541,0.00115403
 ,0.00035335,-0.00094767,-0.00116206,0.00091040,0.00000015,0.00011315,-
 0.00025217,-0.00119524,-0.00006134,-0.00156709,0.00014501,0.00020394,0
 .00061837,0.00008238,0.00014050,-0.00001574,-0.00026249,-0.00406684,0.
 00065841,0.00065307,0.00226084,-0.00184267,0.00008855,-0.00046354,-0.0
 0003530,0.00360755,0.00336652,0.00209879,-0.00220069,0.00140768,-0.001
 30753,-0.00555750,-0.00058113,-0.00081494,-0.00575993,0.00361537,-0.02
 248117,-0.03028927,-0.03897174,-0.09384982,-0.01616904,-0.01675457,0.0
 0782904,0.00049560,0.00208456,-0.00104240,-0.00020747,0.00008986,0.000
 64562,-0.00931040,-0.00453722,-0.00345716,-0.00031639,-0.00699814,-0.0
 0191991,-0.00009180,-0.00028932,0.00138631,0.03340819,0.02110812,-0.02
 428794,-0.01800026,-0.00813780,-0.01972823,0.00695570,0.00477360,0.009
 29805,-0.01353920,0.01090661,0.28980723,0.00028843,-0.00018930,0.00052
 813,-0.00094887,0.00131278,-0.00104070,-0.00022945,0.00051404,-0.00242
 679,-0.00048444,-0.00144762,0.00131767,0.00014256,-0.00012845,-0.00028
 396,-0.00100050,0.00318867,0.00415008,-0.00050413,-0.00151685,-0.00115
 489,0.00023218,0.00017298,0.00016633,-0.00011357,-0.00214591,0.0013115
 4,0.00044912,0.00158493,-0.00168478,0.00004979,-0.00044603,0.00001422,
 0.00146077,0.00132070,0.00257915,-0.00089013,0.00149627,-0.00019825,-0
 .00547844,-0.00174934,0.00568652,0.01195716,-0.00660029,-0.00013823,-0
 .00606464,-0.00341480,-0.01394565,0.00159427,0.00957211,-0.01212615,-0
 .00071281,0.00091198,0.00058799,0.00029459,-0.00016780,0.00080156,-0.0
 3085728,-0.04951699,0.01402663,-0.00011852,-0.00151291,-0.01100222,0.0
 0002726,-0.00307659,-0.00014583,-0.02351530,-0.00677882,0.00103402,0.0
 0291006,0.00890236,0.00779137,-0.00074482,-0.00064554,-0.00100485,-0.0
 0292369,-0.02981414,0.03947963,0.13983933,-0.00082349,0.00036312,-0.00
 141073,0.00221357,-0.00082264,0.00161017,-0.00177675,-0.00096124,0.001
 06352,0.00185784,0.00229363,-0.00243251,0.00003298,-0.00021408,0.00048
 454,0.00009093,-0.00318872,-0.00007655,0.00030255,0.00278975,0.0007948
 4,-0.00021110,-0.00044208,0.00001214,0.00069465,0.00321513,-0.00345219
 ,-0.00091042,-0.00248498,0.00345620,0.00006259,0.00088901,-0.00005284,
 -0.00311918,-0.00105977,-0.00183382,0.00760555,-0.00164155,0.00314293,
 -0.01745959,0.00507278,-0.00285534,0.00698870,-0.00314714,0.01230017,0
 .00822629,0.00533042,-0.00680894,0.00654937,-0.00255243,-0.00512254,0.
 00067209,0.00286598,0.00452043,0.00039299,0.00067089,-0.00204636,-0.02
 175297,-0.02854715,0.01219800,-0.00427973,-0.00531821,-0.00729010,-0.0
 0204668,-0.00112004,0.00102453,-0.02213499,0.00018940,0.00330418,0.001
 38804,0.00577023,0.01547257,-0.00076717,-0.00229949,-0.00380327,0.0119
 6459,-0.08551216,-0.01761214,0.08870627,0.17748023,-0.00044850,0.00029
 043,-0.00085248,0.00121130,-0.00220516,0.00161032,0.00010777,-0.000402
 46,0.00373242,0.00095106,0.00207602,-0.00212130,-0.00012090,0.00011639
 ,0.00042470,0.00140939,-0.00354598,-0.00574411,0.00061653,0.00182133,0
 .00140727,-0.00027997,-0.00021830,-0.00014417,0.00022912,0.00337124,-0
 .00190354,-0.00079029,-0.00238184,0.00252723,-0.00005852,0.00065982,-0
 .00001610,-0.00231441,-0.00177573,-0.00344278,0.00242234,-0.00288535,-
 0.00094913,0.00613412,-0.00041312,-0.00597183,-0.02296361,0.00733911,-
 0.00217945,0.03938105,0.00627858,-0.02982236,-0.01388729,-0.00642338,0
 .01390560,0.00171802,0.00056677,-0.00090994,-0.00013917,0.00004156,-0.
 00123050,0.00594277,-0.01315665,-0.00584942,-0.00367427,0.00986568,0.0
 0019322,-0.00064367,-0.00085608,-0.00128524,0.03673176,0.01777664,-0.0
 0147467,-0.00662658,-0.00868966,-0.00655087,0.00074455,0.00008621,0.00
 118802,-0.04099229,-0.00222836,-0.11917207,-0.04600597,0.02749870,0.23
 789392,-0.00067375,0.00017355,-0.00101359,0.00163064,0.00083298,0.0008
 1890,-0.00129317,-0.00111413,-0.00040869,0.00074356,0.00114242,-0.0010
 4008,0.00002233,-0.00018015,0.00021424,-0.00065166,-0.00107553,0.00079
 073,-0.00005868,0.00114036,-0.00003411,-0.00006892,-0.00026485,0.00010
 839,0.00064180,0.00224719,-0.00212136,-0.00066527,-0.00182129,0.002142
 47,0.00002711,0.00064001,-0.00003666,-0.00146183,-0.00163895,-0.000801
 65,0.00128321,-0.00014650,0.00166748,-0.00269047,0.00141372,0.00351856
 ,0.00795535,-0.00337118,0.00023898,-0.01376478,-0.00980017,-0.00841437
 ,0.03484707,0.01664099,-0.00921511,-0.00908445,0.00041859,0.00856215,0
 .00190761,0.00091106,0.00125567,-0.07086989,-0.00087216,-0.00244286,-0
 .02231267,-0.03559806,-0.01539351,-0.00438004,-0.00018113,0.00447384,0
 .00552415,-0.00183922,-0.00260973,-0.00406836,0.00639790,0.00181469,-0
 .00012940,-0.00108226,0.00036264,-0.00415543,-0.01402191,0.01521491,-0
 .07019381,-0.06722273,0.01609099,0.22118726,0.00125965,-0.00042211,0.0
 0207870,-0.00336325,-0.00037963,-0.00204663,0.00336575,0.00166150,0.00
 041610,-0.00264153,-0.00282341,0.00298681,-0.00014734,0.00047364,-0.00
 059696,0.00086323,0.00296606,-0.00307518,-0.00026055,-0.00341657,-0.00
 056151,0.00020620,0.00059371,-0.00010706,-0.00122788,-0.00467697,0.004
 84994,0.00139996,0.00361467,-0.00482430,-0.00012854,-0.00130731,0.0001
 0860,0.00455076,0.00184881,0.00142626,-0.01063632,0.00120341,-0.005591
 65,0.02757918,-0.00731520,-0.00436758,-0.03025135,0.01207567,-0.016796
 66,0.02874286,0.01198016,0.01618504,-0.02113316,-0.00339924,0.01785985
 ,0.00383942,-0.00009505,-0.00690058,-0.00096461,-0.00072116,0.00173580
 ,-0.01189523,-0.05620518,-0.04258544,-0.02973686,-0.01048869,-0.027919
 40,-0.00445569,-0.00456787,0.00127604,-0.00191607,-0.00567199,0.014022
 61,0.00695242,-0.01193755,-0.01008118,0.00033543,0.00174111,0.00056673
 ,-0.07691549,0.01906207,0.05463289,0.01828176,-0.06149565,-0.07927532,
 0.12420876,0.15821889,0.00020942,-0.00012121,0.00038453,-0.00059915,0.
 00046571,-0.00056374,0.00044101,0.00036985,-0.00092924,-0.00035324,-0.
 00074586,0.00069187,0.00005360,-0.00000860,-0.00015848,-0.00061018,0.0
 0082226,0.00129553,-0.00014123,-0.00039268,-0.00017383,0.00008368,0.00
 008522,-0.00000266,0.00011773,-0.00106085,0.00012590,0.00019093,0.0005
 7433,-0.00038173,-0.00002923,-0.00015109,-0.00005035,0.00061766,0.0010
 0258,0.00105008,0.00033151,0.00016385,0.00121133,-0.00783801,0.0017926
 3,0.00426846,0.01440425,-0.00521004,0.00559683,-0.01872310,-0.00649039
 ,-0.01088884,0.00287557,0.00544895,-0.05576355,-0.00043530,0.00103884,
 0.00341750,0.00088684,-0.00068185,-0.00029657,-0.02803594,-0.02400795,
 -0.09209378,-0.00530212,-0.00165563,0.00437999,-0.00159311,0.00273365,
 0.00146046,-0.00695909,-0.00051293,-0.00380401,0.00185134,0.00232791,0
 .00001817,0.00004577,0.00120631,0.00020221,0.04400020,0.02104213,-0.02
 234174,-0.01624859,-0.04929418,-0.04908236,-0.01458009,0.11310953,0.37
 822026,0.00059463,-0.00019980,0.00095598,-0.00157615,-0.00022869,-0.00
 093823,0.00124784,0.00092415,-0.00009690,-0.00095920,-0.00132181,0.001
 28049,-0.00001965,0.00015820,-0.00026187,0.00034375,0.00169863,-0.0002
 8546,-0.00016233,-0.00154590,-0.00039237,0.00011442,0.00026802,-0.0000
 2782,-0.00054089,-0.00230813,0.00205752,0.00067353,0.00174306,-0.00217
 210,-0.00004882,-0.00059307,0.00002756,0.00188431,0.00130145,0.0009780
 8,-0.00308659,0.00052323,-0.00175084,0.00614695,-0.00216999,-0.0014832
 9,-0.00731491,0.00289729,-0.00334060,0.00875929,0.00383989,0.00603547,
 -0.01342947,-0.00601023,0.00709735,0.00314018,-0.00005198,-0.00437231,
 -0.00065492,-0.00072519,0.00039826,0.01530007,-0.00704280,-0.02735592,
 0.00066300,0.00813935,-0.00010085,0.00016913,-0.00022979,-0.00038258,-
 0.00147860,-0.00020676,0.00010561,0.00156107,-0.00273409,0.00054233,0.
 00008976,-0.00005535,-0.00017585,-0.01084465,0.00141969,0.00247410,-0.
 01428814,0.00500419,0.02633335,-0.08365382,-0.03127265,0.01464225,0.38
 159797,-0.00055663,0.00018114,-0.00088010,0.00143405,0.00040692,0.0007
 7654,-0.00137708,-0.00082629,-0.00032325,0.00093842,0.00112107,-0.0011
 1539,0.00004840,-0.00019477,0.00022039,-0.00052308,-0.00119142,0.00118
 471,0.00008311,0.00140575,0.00018493,-0.00008427,-0.00027341,0.0000424
 3,0.00050455,0.00184781,-0.00183204,-0.00057327,-0.00145421,0.00179235
 ,0.00004565,0.00051865,-0.00002740,-0.00168250,-0.00097342,-0.00053472
 ,0.00322836,-0.00022176,0.00188445,-0.00749003,0.00234658,0.00256659,0
 .01078483,-0.00567362,0.00282805,-0.00990946,-0.00157261,-0.00702259,0
 .00654508,0.00318899,-0.00833438,-0.00082063,0.00047873,0.00268921,0.0
 0018210,0.00067487,-0.00071228,0.00374798,0.00202954,0.00158174,-0.000
 17540,-0.00529763,0.00139464,0.00026761,0.00041379,0.00034587,0.000020
 48,0.00128271,-0.00469578,-0.00205277,0.00462938,0.00368580,-0.0002198
 4,-0.00081016,-0.00027750,0.01780035,-0.00824566,-0.00760749,-0.030818
 04,-0.00956320,0.04989176,-0.01089072,-0.02876794,-0.05126593,0.087102
 58,0.05561871,-0.00070657,0.00024709,-0.00112644,0.00179484,0.00028734
 ,0.00106532,-0.00150452,-0.00108391,0.00014878,0.00104322,0.00149624,-
 0.00144069,0.00000886,-0.00018158,0.00029395,-0.00037876,-0.00176903,0
 .00024037,0.00019686,0.00167107,0.00036903,-0.00014315,-0.00031507,0.0
 0003063,0.00049593,0.00249419,-0.00193071,-0.00072823,-0.00187718,0.00
 205144,0.00005597,0.00063935,-0.00001887,-0.00192177,-0.00162193,-0.00
 104839,0.00260965,-0.00015847,0.00120862,-0.00238317,0.00143577,0.0012
 4766,0.00381603,-0.00235330,-0.00128587,-0.00302487,0.00097098,-0.0012
 8777,-0.00280053,-0.00235828,-0.00066020,0.00155457,-0.00077897,-0.001
 10545,-0.00064453,0.00061230,-0.00080559,0.01211992,-0.00478727,-0.042
 53685,-0.00126001,-0.00631165,0.00312435,0.00066687,0.00043835,0.00023
 140,0.00340181,-0.00215002,0.00064669,-0.00201380,0.00244153,-0.000460
 32,-0.00019754,-0.00047891,0.00016228,0.00238036,0.00021089,0.00128080
 ,0.02929334,0.01395630,-0.02636714,0.02225459,-0.01438847,-0.13987318,
 0.20663471,0.08230410,0.48370826,-0.20307273,-0.01449429,0.26375846,0.
 01165504,0.00257498,-0.02716791,-0.00095997,-0.00022095,-0.00222661,-0
 .00057138,-0.00013775,0.00080878,0.00106834,-0.00070551,-0.00025184,-0
 .00085001,-0.00027010,0.00002648,0.00004018,-0.00009374,-0.00027495,0.
 00003720,0.00000045,-0.00000500,-0.00006583,0.00001363,-0.00033215,0.0
 0006089,-0.00000949,0.00031417,0.00001980,0.00009036,-0.00001172,-0.00
 120723,-0.00114599,-0.00144397,-0.00026590,0.00091331,-0.00125223,0.00
 005638,0.00003735,0.00032906,0.00002883,-0.00004458,-0.00008255,0.0000
 0127,0.00000335,0.00001023,0.00000582,0.00000500,0.00002221,0.00000091
 ,0.00001266,-0.00003562,-0.00002439,-0.00004165,0.00003396,0.00000486,
 0.00003038,-0.00002030,-0.00001089,-0.00002890,0.00000262,0.00000595,0
 .00000240,0.00000253,0.00000585,-0.00001907,-0.00000752,-0.00001477,0.
 00003329,0.00000151,0.00000326,-0.00000664,0.00000263,0.00003061,-0.00
 001165,-0.00002311,-0.00001567,0.00002247,0.00002949,0.00002499,-0.000
 04053,-0.00001160,-0.00002060,0.00001802,0.00002388,0.19402816,-0.0139
 5131,0.01126061,0.01819946,0.00154578,-0.00123880,0.00654398,-0.000360
 20,-0.00061458,-0.00667424,-0.00143046,-0.00079573,0.00339574,-0.00075
 640,-0.00326544,-0.00205820,-0.00109392,0.00024655,0.00133643,0.000292
 74,-0.00040984,-0.00009683,-0.00009964,0.00009277,-0.00016476,-0.00043
 143,-0.00019135,0.00020149,0.00028752,-0.00015438,-0.00030228,-0.00015
 699,-0.00002996,0.00007301,0.00197500,0.00005827,0.00341856,0.00035923
 ,-0.00133371,0.00114042,0.00093053,0.00004094,-0.00093107,-0.00060578,
 -0.00002030,-0.00020402,-0.00012401,0.00003860,0.00032153,0.00010198,0
 .00004812,0.00000889,-0.00006308,-0.00003164,-0.00008651,0.00004405,0.
 00001677,0.00002402,-0.00002891,0.00001451,0.00004138,0.00000709,-0.00
 002352,-0.00002103,-0.00000990,0.00000559,0.00002034,-0.00010371,0.000
 03701,0.00000115,0.00005857,-0.00007020,0.00000657,0.00000270,0.000032
 27,-0.00001619,0.00013612,0.00001668,-0.00003073,-0.00002008,-0.000015
 23,0.00004887,-0.00005750,0.00005903,-0.00000364,0.00003434,-0.0000423
 5,-0.00004468,0.01351493,-0.00374291,0.22067352,0.02240892,-0.36694748
 ,0.01387798,0.00405009,-0.02550361,0.00029953,-0.00008327,-0.00107934,
 0.00029789,-0.00012427,0.00002464,-0.00011711,-0.00172376,0.00027202,-
 0.00070639,-0.00001070,-0.00065223,0.00014019,0.00022887,0.00015408,-0
 .00005689,-0.00008958,0.00000679,0.00057985,0.00113695,-0.00091932,-0.
 00006137,-0.00046188,0.00044302,-0.00001475,0.00018558,0.00003546,-0.0
 0184572,-0.00279534,-0.00266095,-0.00104390,0.00209013,-0.00007090,-0.
 00027890,-0.00060240,0.00096236,0.00053901,0.00001922,0.00005209,-0.00
 004494,0.00001650,-0.00006235,0.00004733,0.00010520,0.00020469,-0.0001
 6424,-0.00020184,-0.00028585,-0.00006008,0.00001574,0.00010893,0.00008
 905,0.00033542,-0.00013373,-0.00010836,-0.00027334,0.00002807,0.000056
 17,0.00004576,0.00000520,0.00028521,-0.00006063,-0.00016170,-0.0002397
 7,0.00040417,0.00007437,-0.00002699,-0.00010850,0.00002021,0.00022137,
 -0.00036597,-0.00015112,-0.00014665,0.00038455,0.00021996,0.00029813,-
 0.00058587,-0.00010474,-0.00027147,0.00025020,0.00031910,-0.23221101,-
 0.02415742,0.39590587,0.00001559,-0.00000206,0.00002104,-0.00003378,-0
 .00006308,0.00000294,0.00005228,0.00002667,0.00007571,-0.00001267,-0.0
 0000337,0.00000213,-0.00000100,0.00000795,-0.00000048,0.00005671,-0.00
 000629,-0.00012022,-0.00000009,-0.00002904,0.00001217,0.00000514,0.000
 00718,-0.00000114,-0.00001447,0.00000054,0.00002053,0.00000328,0.00001
 283,-0.00000406,0.00000167,-0.00000967,0.00000188,0.00000172,0.0000150
 7,-0.00004062,-0.00000441,-0.00006799,-0.00005065,0.00011133,-0.000048
 54,-0.00023926,-0.00063663,0.00033556,0.00017096,0.00085291,0.00000480
 ,0.00005942,0.00056612,-0.00001156,0.00052290,-0.00020977,0.00012777,0
 .00027694,0.00005439,0.00003215,0.00001669,-0.00103317,-0.00061253,0.0
 0316158,0.00006479,0.00063109,-0.00022720,-0.00005927,-0.00000095,-0.0
 0004932,-0.00023641,0.00011676,0.00012327,0.00021804,-0.00029115,-0.00
 009097,0.00001813,0.00004332,-0.00001788,-0.00157362,0.00009127,0.0009
 3124,-0.00016131,-0.00027086,-0.00110816,0.01438131,0.00540167,0.02070
 819,-0.28420714,-0.06557785,-0.27064397,0.00000103,0.00000275,-0.00000
 666,0.27177929,0.00007879,-0.00002947,0.00011895,-0.00018937,-0.000116
 28,-0.00006719,0.00023151,0.00011628,0.00014561,-0.00012076,-0.0001233
 8,0.00012098,-0.00001334,0.00003767,-0.00002005,0.00015330,0.00012860,
 -0.00032068,0.00000096,-0.00023245,-0.00001188,0.00000571,0.00004926,-
 0.00000660,-0.00004802,-0.00014546,0.00017944,0.00004980,0.00009564,-0
 .00015964,-0.00001660,-0.00003939,-0.00000678,0.00016233,0.00007559,-0
 .00004333,-0.00035609,-0.00009103,-0.00023659,0.00102336,-0.00030314,-
 0.00068848,-0.00211133,0.00112716,0.00001000,0.00231767,0.00025942,0.0
 0099034,-0.00303276,-0.00022540,0.00052836,0.00026992,-0.00022196,-0.0
 0091425,-0.00009549,-0.00017449,0.00006072,0.00479239,0.00081409,0.001
 25880,0.00025050,0.00174889,-0.00002899,-0.00005427,-0.00002221,-0.000
 07072,-0.00038730,-0.00018031,0.00106047,0.00061383,-0.00110020,-0.000
 68898,0.00004479,0.00013891,0.00003801,-0.00438305,0.00141933,0.002391
 89,0.00402466,0.00345520,-0.00327169,-0.00498909,-0.01180721,-0.010580
 92,-0.05835787,-0.01103619,-0.06854678,-0.00000174,0.00001221,-0.00003
 251,0.06013757,0.01637029,0.00022232,-0.00008160,0.00036489,-0.0005896
 9,0.00001703,-0.00038772,0.00044568,0.00034326,-0.00018267,-0.00037021
 ,-0.00053352,0.00051890,0.00000299,0.00004985,-0.00010982,0.00002231,0
 .00069129,0.00008947,-0.00008173,-0.00057306,-0.00017064,0.00005207,0.
 00009952,-0.00000622,-0.00016882,-0.00088345,0.00072844,0.00024177,0.0
 0065346,-0.00078449,-0.00001348,-0.00022040,0.00000433,0.00071169,0.00
 051004,0.00046500,-0.00110465,0.00024964,-0.00050443,0.00164602,-0.000
 63369,0.00002901,-0.00114650,0.00058284,-0.00103947,0.00082224,0.00038
 116,0.00141834,-0.00241436,-0.00143332,0.00047325,0.00056278,0.0000403
 3,-0.00101456,-0.00021351,-0.00014959,0.00017735,0.00434463,-0.0010646
 0,-0.00505142,0.00003810,0.00115955,0.00014791,-0.00001921,-0.00014203
 ,-0.00004536,-0.00066181,-0.00012299,-0.00024675,0.00038073,-0.0004488
 2,0.00022574,0.00002755,0.00004830,-0.00001540,-0.00013715,0.00033683,
 0.00009078,-0.00121468,0.00286773,0.00196680,-0.02171555,-0.01155109,-
 0.02581432,-0.22615457,-0.06899493,-0.27618123,-0.00000794,0.00000977,
 -0.00010354,0.24649296,0.07879250,0.30495781\\-0.02809669,0.00332669,-
 0.01945806,0.09034064,-0.02385366,-0.06471510,-0.11087830,0.02253835,0
 .02720107,0.05102563,0.02466034,0.01007066,-0.01653669,-0.01321487,-0.
 01595275,0.10749762,-0.04092570,-0.03376493,-0.02781404,0.02154612,0.0
 2495481,0.02213404,0.01861303,-0.00563730,0.05435670,-0.01037692,-0.03
 114824,-0.02098965,-0.00747486,0.04829232,-0.01256100,-0.01897296,-0.0
 1944262,-0.07718635,0.02160837,0.03781024,0.03567693,0.00118308,-0.018
 85662,-0.08392602,0.00072947,0.03179027,0.03764189,-0.01860756,-0.0140
 3034,-0.07256657,0.09315058,-0.01702997,0.09854304,-0.05302456,0.06520
 506,-0.03706262,-0.00678148,-0.01729002,0.00668068,-0.01261610,-0.0171
 7223,-0.10912011,0.11291768,-0.03535084,0.03823668,-0.04717628,0.03415
 342,-0.00296448,0.01752769,-0.02225147,-0.00775248,-0.02531263,0.03099
 735,-0.01034564,0.07083506,0.00333684,-0.00326694,0.02234500,-0.023825
 96,0.06722059,-0.11925011,-0.00589053,-0.02635137,0.02757332,0.0053134
 3,0.07422556,-0.08727567,0.00280326,-0.02243946,0.02594449,0.03685481,
 -0.00543252,0.00224732,0.00905223,-0.00828906,-0.00188323,-0.00601880\
 \\@


 A COMPLEXITY IS MERELY A DISARRANGEMENT OF SIMPLICITIES.

                                    -- G. O. ABELL IN "EXPLORATION OF THE UNIVERSE"
 Job cpu time:  0 days  7 hours  6 minutes 40.2 seconds.
 File lengths (MBytes):  RWF=    792 Int=      0 D2E=      0 Chk=     14 Scr=      1
 Normal termination of Gaussian 09 at Sat Oct 17 21:50:14 2015.
Gaussian '09 finished on node031 at Sat Oct 17 21:50:14 EDT 2015.
