Job furfural_raman_sdf started on volta at Tue Mar 10 11:44:20 2015
jobid: volta-0-54ff113d

  +--------------------------------------------------------------------+
  |  Jaguar version 8.5, release  13                                   |
  |                                                                    |
  |  Copyright Schrodinger, Inc.                                       |
  |  All Rights Reserved.                                              |
  |                                                                    |
  |  The following have contributed to Jaguar (listed alphabetically): |
  |  Mike Beachy, Art Bochevarov, Dale Braden, Yixiang Cao,            |
  |  Chris Cortis, Rich Friesner, Bill Goddard, Hod Greeley,           |
  |  Tom Hughes, Jean-Marc Langlois, Daniel Mainz, Rob Murphy,         |
  |  Dean Philipp, Tom Pollard, Murco Ringnalda.                       |
  |                                                                    |
  |  Use of this program should be acknowledged in publications as:    |
  |                                                                    |
  |  Jaguar, version 8.5, Schrodinger, Inc., New York, NY, 2014.       |
  |                                                                    |
  |  A. D. Bochevarov, E. Harder, T. F. Hughes, J. R. Greenwood,       |
  |  D. A. Braden, D. M. Philipp, D. Rinaldo, M. D. Halls,             |
  |  J. Zhang, R. A. Friesner, "Jaguar: A High-Performance Quantum     |
  |  Chemistry Software Program with Strengths in Life and Materials   |
  |  Sciences", Int. J. Quantum Chem., 2013, 113(18), 2110-2142.       |
  +--------------------------------------------------------------------+
  
  start of program pre
  
  Job name: furfural_raman_sdf
  Executables used: /opt/schrodinger2014-3/jaguar-v85013/bin/Linux-x86_64
  Temporary files : /tmp/srmcgrat/furfural_raman_sdf
  Maestro file (input):  furfural_raman_sdf.mae
  Maestro file (output): furfural_raman_sdf.01.mae
  
  
  basis set:             6-31g**         
  net molecular charge:    0
  multiplicity:            1
  
  number of basis functions....          125
  
 Input geometry:
                                   angstroms
  atom               x                 y                 z
  O1           -0.6263000000      1.1312000000      0.0001000000 
  O2            2.6036000000     -0.3523000000      0.0001000000 
  C3            0.2861000000      0.1243000000      0.0001000000 
  C4           -0.3439000000     -1.0985000000      0.0000000000 
  C5           -1.7326000000     -0.8253000000      0.0000000000 
  C6           -1.8522000000      0.5449000000     -0.0001000000 
  C7            1.6652000000      0.4756000000     -0.0001000000 
  H8            0.1331000000     -2.0684000000     -0.0001000000 
  H9           -2.5446000000     -1.5378000000      0.0000000000 
  H10          -2.6939000000      1.2219000000     -0.0001000000 
  H11           1.8989000000      1.5538000000     -0.0003000000 
   
  principal moments of inertia:
        amu*angstrom^2:       62.08944      244.88952      306.97896
                g*cm^2: 1.03101925E-38 4.06648569E-38 5.09750492E-38
   
  rotational constants:
               cm^(-1):      0.27150558      0.06883769      0.05491461
                   GHz:      8.13953261      2.06370204      1.64629852
   
  Molecular weight:      96.02 amu
   
  Stoichiometry: C5H4O2
  Molecular Point Group: C1      
  Point Group used: C1 (symmetry turned off)
  
  nuclear repulsion energy.......     270.758473680 hartrees
 
 Non-default options chosen:
   SCF calculation type: DFT(b3lyp)                  
   DFT=Becke_3_Parameter/HF+Slater+Becke88+VWN+LYP (B3LYP)
   Solvation energy will be computed using PBF
   Vibrational frequencies and related properties will be computed
      from analytic second derivatives
   IR intensities will be computed
   High accuracy cutoffs used in SCF
   Solvent: water                                                           
   Internal dielectric constant:    1.000
   Continuum dielectric constant:  80.370
   Solvent probe molecule radius:   1.400
  
 Temporary integer options set:
     73=  2
  
  atom       vdw   vdw2    cov     mass  grid  daf  charge   basis
  O1        1.702  1.450  0.730   15.995    Y    Y      Y    6-31g**
  O2        1.702  1.550  0.730   15.995    Y    Y      Y    6-31g**
  C3        1.949  2.000  0.770   12.000    Y    Y      Y    6-31g**
  C4        1.949  2.000  0.770   12.000    Y    Y      Y    6-31g**
  C5        1.949  2.000  0.770   12.000    Y    Y      Y    6-31g**
  C6        1.949  2.000  0.770   12.000    Y    Y      Y    6-31g**
  C7        1.949  2.000  0.770   12.000    Y    Y      Y    6-31g**
  H8        1.597  1.250  0.320    1.008    Y    Y      Y    6-31g**
  H9        1.597  1.250  0.320    1.008    Y    Y      Y    6-31g**
  H10       1.597  1.250  0.320    1.008    Y    Y      Y    6-31g**
  H11       1.597  1.250  0.320    1.008    Y    Y      Y    6-31g**
  
  Peak memory usage:    712 Mb
  
  end of program pre
   
 Time(pre)  user:        0.8  user+sys:        0.8  wallclock:        5.2
  
  start of program onee
  
  smallest eigenvalue of S:    8.860E-04
  number of canonical orbitals.....          125
  Peak memory usage:    654 Mb
  
  end of program onee
   
 Time(onee)  user:        0.2  user+sys:        0.2  wallclock:        0.6
  
  start of program hfig
  
  initial wavefunction generated automatically from atomic wavefunctions
 
  Irreducible     Total no   No of occupied orbitals 
  representation  orbitals   Shell_1  Shell_2    ...
  No Symm          125         25
  ------------------------
  Orbital occupation/shell    1.000
 
  Peak memory usage:    595 Mb
  
  end of program hfig
   
 Time(hfig)  user:        0.2  user+sys:        0.2  wallclock:        0.6
  
  start of program probe
  
  Peak memory usage:    595 Mb
  
  end of program probe
   
 Time(probe)  user:        0.1  user+sys:        0.1  wallclock:        0.1
  
  start of program grid
  
  
   grid     grid set  grid #  grid sym
  ------    --------  ------  --------
  coarse        0        0        1
  medium        2        1        1
  fine          0        0        1
  ultrafine     4        2        1
  charge       -1        3        1
  gradient      4        2        1
  density       0        0        1
  DFT-fine    -11        4        1
  DFT-med.    -10        5        1
  DFT-grad    -12        6        1
  DFT-der2     -8        7        1
  DFT-cphf     -9        8        1
  LMP2-enrg     4        2        1
  LMP2-grad     2        1        1
  DFT-cphf2   -15        9        1
  PBF-dens      0        0        1
  plotting      0        0        1
  Rel-grad    -17        0        1
  
   
  number of gridpoints: 
     atom        O1       O2       C3       C4       C5       C6       C7
  grid # 1      115      123       97       95       95       92       92
  grid # 2      458      516      360      334      334      334      328
  grid # 3      204      386       68       52       52       54       48
  grid # 4     4304     4304     4304     4304     4304     4304     4304
  grid # 5     1192     1192     1192     1192     1192     1192     1192
  grid # 6     5226     5226     5226     5226     5226     5226     5226
  grid # 7    23504    23504    12650    12650    12650    12650    12650
  grid # 8      714      714      688      688      688      688      688
  grid # 9      360      360      358      358      358      358      358
   
  number of gridpoints: 
     atom        H8       H9      H10      H11    total
  grid # 1      118      118      118      118     1181
  grid # 2      455      461      461      453     4494
  grid # 3      440      491      497      449     2741
  grid # 4     4304     4304     4304     4304    47344
  grid # 5     1192     1192     1192     1192    13112
  grid # 6     5226     5226     5226     5226    57486
  grid # 7    13718    13718    13718    13718   165130
  grid # 8      744      744      744      744     7844
  grid # 9      382      382      382      382     4038
   
  Peak memory usage:    638 Mb
  
  end of program grid
   
 Time(grid)  user:        1.1  user+sys:        1.1  wallclock:        4.0
  
  start of program rwr
  
  Peak memory usage:    520 Mb
  
  end of program rwr
   
 Time(rwr)  user:        0.8  user+sys:        0.8  wallclock:        2.2
  
  start of program scf
  
 number of electrons..........         50
 number of alpha electrons....         25
 number of beta electrons.....         25
 number of orbitals, total....        125
 number of doubly-occ'd orbs..         25
 number of open shell orbs....          0
 number of occupied orbitals..         25
 number of virtual orbitals...        100
 number of hamiltonians.......          1
 number of shells.............          1
 SCF type: DFT=Becke_3_Parameter/HF+Slater+Becke88+VWN+LYP (B3LYP)
  
       i  u  d  i  g                   
       t  p  i  c  r                                 RMS    maximum
       e  d  i  u  i                       energy  density   DIIS  
       r  t  s  t  d       total energy    change  change    error 
  
etot    1  N  N  4  M    -342.27774055499           1.3E-02  2.0E-01
etot    2  Y  Y  6  M    -340.78433798901 -1.5E+00  1.4E-02  2.9E-01
etot    3  Y  Y  6  M    -341.93003793703  1.1E+00  7.9E-03  2.5E-01
etot    4  N  Y  1  U    -343.22350744233  1.3E+00  4.4E-03  8.5E-02
etot    5  Y  Y  6  M    -343.23856901623  1.5E-02  2.7E-03  6.9E-02
etot    6  N  Y  1  U    -343.34655527958  1.1E-01  7.4E-04  1.3E-02
etot    7  Y  Y  6  M    -343.34990043443  3.3E-03  4.6E-04  9.1E-03
etot    8  Y  Y  6  M    -343.35194297020  2.0E-03  1.6E-04  3.1E-03
etot    9  N  Y  1  U    -343.35207519279  1.3E-04  6.4E-05  1.2E-03
etot   10  Y  Y  6  M    -343.35214829148  7.3E-05  2.4E-05  1.9E-04
etot   11  N  Y  1  U    -343.35213595133 -1.2E-05  5.5E-06  9.4E-05
etot   12  N  Y  1  U    -343.35213622520  2.7E-07  3.6E-06  5.2E-05
etot   13  N  N  1  U    -343.35213628705  6.2E-08  0.0E+00  0.0E+00
  
  
 Energy components, in hartrees:
   (A)  Nuclear repulsion............     270.75847368008
   (E)  Total one-electron terms.....   -1002.51511046998
   (F)    Electron-nuclear...........   -1342.75374803590
   (H)    Kinetic....................     340.23863756592
   (I)  Total two-electron terms.....     388.40450050285
   (J)    Coulomb....................     434.15136686706
   (K)    Exchange+Correlation.......     -45.74686636421
   (L)  Electronic energy............    -614.11060996713  (E+I)
   (M)  -V/T.........................       2.00915092637  (-(A+F+I)/H)
   (N)  Total energy.................    -343.35213628705  (A+L)
  
 SCFE: SCF energy: DFT(b3lyp)      -343.35213628705 hartrees   iterations:  13
  
 
 HOMO energy:    -0.24843
 LUMO energy:    -0.06795
 
  Orbital energies (hartrees): 
   -19.24204   -19.13834   -10.27437   -10.26767   -10.25286   -10.21456
   -10.21246    -1.13856    -1.01671    -0.82395    -0.78556    -0.65803
    -0.61975    -0.57311    -0.53155    -0.48463    -0.47830    -0.42964
    -0.42243    -0.41580    -0.39615    -0.37435    -0.30276    -0.25339
    -0.24843    -0.06795     0.02419     0.09432     0.10368     0.12128
     0.13835     0.15214     0.16731     0.19963     0.27353
 
  Peak memory usage:    737 Mb
  
  end of program scf
   
 Time(scf)  user:       13.4  user+sys:       13.4  wallclock:       22.6
  
  start of program ch
  
  gridpoints used for charge fit         2540
    out of a possible maximum of         2741
  
   Electrostatic potential fitting constrained to reproduce
     total charge:                yes
     dipole moment:               no 
     traceless quadrupole moment: no 
     traceless octapole moment:   no 
  
  Atomic charges from electrostatic potential: 
   
 Atom       O1           O2           C3           C4           C5      
 Charge   -0.21158     -0.42583      0.13661     -0.08665     -0.27498
   
 Atom       C6           C7           H8           H9           H10     
 Charge    0.07932      0.29713      0.14319      0.17577      0.13408
   
 Atom       H11     
 Charge    0.03295
  
  sum of atomic charges:    -0.000000
   
 RMS Error   1.06E-03 hartrees
 
  Peak memory usage:    549 Mb
  
  end of program ch
   
 Time(ch)  user:        0.3  user+sys:        0.3  wallclock:        1.4
  
  start of program post
  
  Writing input files for PBF
  Peak memory usage:    517 Mb
  
  end of program post
   
 Time(post)  user:        0.1  user+sys:        0.1  wallclock:        1.2

  start of program pbf

Pbf Version 4.00

Molecular surface area:      119.58416   [A2]
Reaction field energy:        -9.77138   [kT]

Solvent-accessible surface area:  261.66746 [A2]
Cavity energy:                      3.99144 [kT]

  Peak memory usage: 531 Mb

  end of program pbf

 Time(pbf)  user:        0.3  user+sys:        0.3  wallclock:        0.5
  
  start of program solv
  
   number of surface charges from PBF    1240
   sum of surface charges      0.00005
   
  nuclear repulsion energy.......     270.758473680 hartrees
  Peak memory usage:    649 Mb
  
  end of program solv
   
 Time(solv)  user:        0.3  user+sys:        0.3  wallclock:        0.3
  
  start of program scf
  
  
       i  u  d  i  g                   
       t  p  i  c  r                                 RMS    maximum
       e  d  i  u  i                       energy  density   DIIS  
       r  t  s  t  d       total energy    change  change    error 
  
etot    1  N  N  1  U    -343.37092351560           1.0E-03  9.3E-03
etot    2  Y  Y  6  M    -343.37179307343  8.7E-04  3.5E-04  1.2E-02
etot    3  Y  Y  6  M    -343.37370289541  1.9E-03  1.1E-04  9.6E-04
etot    4  Y  Y  6  M    -343.37371820834  1.5E-05  3.6E-05  6.0E-04
etot    5  N  Y  1  U    -343.37277813760 -9.4E-04  1.8E-05  3.2E-04
etot    6  N  Y  1  U    -343.37278103355  2.9E-06  7.1E-06  8.3E-05
etot    7  N  Y  1  U    -343.37278120373  1.7E-07  5.9E-06  4.1E-05
etot    8  N  Y  1  U    -343.37278122394  2.0E-08  1.5E-06  2.6E-05
etot    9  N  N  1  U    -343.37278125279  2.9E-08  0.0E+00  0.0E+00
  
  
 Energy components, in hartrees:
   (A)  Total zero-electron terms....     270.95820569282
   (B)    Nuclear-nuclear............     270.75847368008
   (C)    Nuclear-solvent............       0.19973201274
   (E)  Total one-electron terms.....   -1002.87908416610
   (F)    Electron-nuclear...........   -1342.91207019355
   (G)    Electron-solvent...........      -0.22222979500
   (H)    Kinetic....................     340.25521582246
   (I)  Total two-electron terms.....     388.54809722049
   (J)    Coulomb....................     434.30712973018
   (K)    Exchange+Correlation.......     -45.75903250969
   (L)  Electronic energy............    -614.33098694561  (E+I)
   (N)  Total quantum mech. energy...    -343.37278125279  (A+L)
   (O)  Gas phase energy.............    -343.35213628705
   (P)  Solution phase energy........    -343.35569391446  (Q+R+S+T)
   (Q)    Total solute energy........    -343.35028347053  (N-C-G)
   (R)    Total solvent energy.......      -0.01124889113  (C/2+G/2)
   (S)    Solute cavity energy.......       0.00376676531
   (T)    First shell corr. factor...       0.00207168188
   (U)  Reorganization energy........       0.00185281652  (Q-O)
   (V)  Solvation energy.............      -0.00355762741  (P-O)
  
 SCFE:  Solution phase energy: DFT(b3lyp)       -343.35569391446 hartrees
        SCF iterations:   9
  
 
 HOMO energy:    -0.24943
 LUMO energy:    -0.07181
 
  Orbital energies (hartrees): 
   -19.24180   -19.14622   -10.28175   -10.26477   -10.25238   -10.21360
   -10.20770    -1.13859    -1.02702    -0.82230    -0.78531    -0.65793
    -0.61756    -0.57075    -0.53170    -0.48308    -0.47885    -0.43380
    -0.42323    -0.41764    -0.39542    -0.38375    -0.30165    -0.26447
    -0.24943    -0.07181     0.02630     0.09324     0.11280     0.13182
     0.14253     0.16376     0.17366     0.20149     0.27527
 
  Peak memory usage:    737 Mb
  
  end of program scf
   
 Time(scf)  user:        8.7  user+sys:        8.7  wallclock:       18.0
  
  start of program sole
  
    SCRF                   solvation energy
  iteration          Hartrees            kcal/mol
     0               0.0000000            0.0000
     1              -0.0035576           -2.2324
  
  solvation energy not yet converged... 
  
  Peak memory usage:    618 Mb
  
  end of program sole
   
 Time(sole)  user:        0.1  user+sys:        0.1  wallclock:        0.1
  
  start of program ch
  
  gridpoints used for charge fit         2540
    out of a possible maximum of         2540
  
   Electrostatic potential fitting constrained to reproduce
     total charge:                yes
     dipole moment:               no 
     traceless quadrupole moment: no 
     traceless octapole moment:   no 
  
  Atomic charges from electrostatic potential: 
   
 Atom       O1           O2           C3           C4           C5      
 Charge   -0.23697     -0.50913      0.13599     -0.08256     -0.28670
   
 Atom       C6           C7           H8           H9           H10     
 Charge    0.10034      0.32801      0.15629      0.19355      0.15182
   
 Atom       H11     
 Charge    0.04938
  
  sum of atomic charges:    -0.000000
   
 RMS Error   1.05E-03 hartrees
 
  Peak memory usage:    549 Mb
  
  end of program ch
   
 Time(ch)  user:        0.2  user+sys:        0.2  wallclock:        3.8
  
  start of program post
  
  Writing input files for PBF
  Peak memory usage:    517 Mb
  
  end of program post
   
 Time(post)  user:        0.1  user+sys:        0.1  wallclock:        3.3

  start of program pbf

Pbf Version 4.00

Molecular surface area:      119.58416   [A2]
Reaction field energy:       -14.38584   [kT]

Solvent-accessible surface area:  261.66746 [A2]
Cavity energy:                      3.99144 [kT]

  Peak memory usage: 531 Mb

  end of program pbf

 Time(pbf)  user:        0.2  user+sys:        0.3  wallclock:        0.3
  
  start of program solv
  
   number of surface charges from PBF    1240
   sum of surface charges      0.00006
   
  nuclear repulsion energy.......     270.758473680 hartrees
  Peak memory usage:    649 Mb
  
  end of program solv
   
 Time(solv)  user:        0.2  user+sys:        0.2  wallclock:        0.2
  
  start of program scf
  
  
       i  u  d  i  g                   
       t  p  i  c  r                                 RMS    maximum
       e  d  i  u  i                       energy  density   DIIS  
       r  t  s  t  d       total energy    change  change    error 
  
etot    1  N  N  1  U    -343.37762551562           2.8E-04  2.4E-03
etot    2  Y  Y  6  M    -343.37838826202  7.6E-04  1.0E-04  3.3E-03
etot    3  Y  Y  6  M    -343.37855267758  1.6E-04  3.3E-05  4.0E-04
etot    4  N  Y  1  U    -343.37774993162 -8.0E-04  1.0E-05  2.5E-04
etot    5  N  Y  1  U    -343.37775091405  9.8E-07  3.8E-06  5.5E-05
etot    6  N  N  1  U    -343.37775102723  1.1E-07  0.0E+00  0.0E+00
  
  
 Energy components, in hartrees:
   (A)  Total zero-electron terms....     270.99257187744
   (B)    Nuclear-nuclear............     270.75847368008
   (C)    Nuclear-solvent............       0.23409819736
   (E)  Total one-electron terms.....   -1002.94441497183
   (F)    Electron-nuclear...........   -1342.93997660479
   (G)    Electron-solvent...........      -0.26261704008
   (H)    Kinetic....................     340.25817867304
   (I)  Total two-electron terms.....     388.57409206716
   (J)    Coulomb....................     434.33554286411
   (K)    Exchange+Correlation.......     -45.76145079696
   (L)  Electronic energy............    -614.37032290467  (E+I)
   (N)  Total quantum mech. energy...    -343.37775102723  (A+L)
   (O)  Gas phase energy.............    -343.35213628705
   (P)  Solution phase energy........    -343.35765315868  (Q+R+S+T)
   (Q)    Total solute energy........    -343.34923218452  (N-C-G)
   (R)    Total solvent energy.......      -0.01425942136  (C/2+G/2)
   (S)    Solute cavity energy.......       0.00376676531
   (T)    First shell corr. factor...       0.00207168188
   (U)  Reorganization energy........       0.00290410253  (Q-O)
   (V)  Solvation energy.............      -0.00551687163  (P-O)
  
 SCFE:  Solution phase energy: DFT(b3lyp)       -343.35765315868 hartrees
        SCF iterations:   6
  
 
 HOMO energy:    -0.24941
 LUMO energy:    -0.07286
 
  Orbital energies (hartrees): 
   -19.24131   -19.14844   -10.28373   -10.26381   -10.25218   -10.21339
   -10.20618    -1.13811    -1.02993    -0.82156    -0.78508    -0.65798
    -0.61684    -0.56997    -0.53193    -0.48279    -0.47848    -0.43666
    -0.42268    -0.41675    -0.39476    -0.38649    -0.30080    -0.26752
    -0.24941    -0.07286     0.02732     0.09301     0.11435     0.13367
     0.14364     0.16607     0.17519     0.20195     0.27494
 
  Peak memory usage:    737 Mb
  
  end of program scf
   
 Time(scf)  user:        5.4  user+sys:        5.4  wallclock:        6.4
  
  start of program sole
  
    SCRF                   solvation energy
  iteration          Hartrees            kcal/mol
     0               0.0000000            0.0000
     1              -0.0035576           -2.2324
     2              -0.0055169           -3.4619
  
  solvation energy not yet converged... 
  
  Peak memory usage:    618 Mb
  
  end of program sole
   
 Time(sole)  user:        0.1  user+sys:        0.1  wallclock:        0.1
  
  start of program ch
  
  gridpoints used for charge fit         2540
    out of a possible maximum of         2540
  
   Electrostatic potential fitting constrained to reproduce
     total charge:                yes
     dipole moment:               no 
     traceless quadrupole moment: no 
     traceless octapole moment:   no 
  
  Atomic charges from electrostatic potential: 
   
 Atom       O1           O2           C3           C4           C5      
 Charge   -0.24041     -0.52875      0.13197     -0.07947     -0.28540
   
 Atom       C6           C7           H8           H9           H10     
 Charge    0.10831      0.33247      0.15704      0.19656      0.15467
   
 Atom       H11     
 Charge    0.05301
  
  sum of atomic charges:    -0.000000
   
 RMS Error   1.05E-03 hartrees
 
  Peak memory usage:    549 Mb
  
  end of program ch
   
 Time(ch)  user:        0.3  user+sys:        0.3  wallclock:        9.1
  
  start of program post
  
  Writing input files for PBF
  Peak memory usage:    517 Mb
  
  end of program post
   
 Time(post)  user:        0.1  user+sys:        0.1  wallclock:        1.5

  start of program pbf

Pbf Version 4.00

Molecular surface area:      119.58416   [A2]
Reaction field energy:       -15.71435   [kT]

Solvent-accessible surface area:  261.66746 [A2]
Cavity energy:                      3.99144 [kT]

  Peak memory usage: 531 Mb

  end of program pbf

 Time(pbf)  user:        0.2  user+sys:        0.3  wallclock:        0.3
  
  start of program solv
  
   number of surface charges from PBF    1240
   sum of surface charges      0.00006
   
  nuclear repulsion energy.......     270.758473680 hartrees
  Peak memory usage:    649 Mb
  
  end of program solv
   
 Time(solv)  user:        0.2  user+sys:        0.2  wallclock:        0.2
  
  start of program scf
  
  
       i  u  d  i  g                   
       t  p  i  c  r                                 RMS    maximum
       e  d  i  u  i                       energy  density   DIIS  
       r  t  s  t  d       total energy    change  change    error 
  
etot    1  N  N  1  U    -343.37903876222           7.9E-05  6.6E-04
etot    2  Y  Y  6  M    -343.37981036017  7.7E-04  3.1E-05  8.7E-04
etot    3  N  Y  1  U    -343.37904876559 -7.6E-04  9.6E-06  1.3E-04
etot    4  N  Y  1  U    -343.37904906556  3.0E-07  3.0E-06  8.0E-05
etot    5  N  N  1  U    -343.37904915661  9.1E-08  0.0E+00  0.0E+00
  
  
 Energy components, in hartrees:
   (A)  Total zero-electron terms....     271.00000313131
   (B)    Nuclear-nuclear............     270.75847368008
   (C)    Nuclear-solvent............       0.24152945123
   (E)  Total one-electron terms.....   -1002.95898906858
   (F)    Electron-nuclear...........   -1342.94598112982
   (G)    Electron-solvent...........      -0.27168043123
   (H)    Kinetic....................     340.25867249247
   (I)  Total two-electron terms.....     388.57993678066
   (J)    Coulomb....................     434.34192547673
   (K)    Exchange+Correlation.......     -45.76198869607
   (L)  Electronic energy............    -614.37905228792  (E+I)
   (N)  Total quantum mech. energy...    -343.37904915661  (A+L)
   (O)  Gas phase energy.............    -343.35213628705
   (P)  Solution phase energy........    -343.35813521941  (Q+R+S+T)
   (Q)    Total solute energy........    -343.34889817661  (N-C-G)
   (R)    Total solvent energy.......      -0.01507549000  (C/2+G/2)
   (S)    Solute cavity energy.......       0.00376676531
   (T)    First shell corr. factor...       0.00207168188
   (U)  Reorganization energy........       0.00323811044  (Q-O)
   (V)  Solvation energy.............      -0.00599893237  (P-O)
  
 SCFE:  Solution phase energy: DFT(b3lyp)       -343.35813521941 hartrees
        SCF iterations:   5
  
 
 HOMO energy:    -0.24936
 LUMO energy:    -0.07318
 
  Orbital energies (hartrees): 
   -19.24093   -19.14921   -10.28430   -10.26364   -10.25199   -10.21346
   -10.20571    -1.13784    -1.03081    -0.82134    -0.78497    -0.65800
    -0.61659    -0.56974    -0.53202    -0.48272    -0.47826    -0.43750
    -0.42254    -0.41645    -0.39448    -0.38729    -0.30049    -0.26843
    -0.24936    -0.07318     0.02766     0.09294     0.11469     0.13407
     0.14393     0.16660     0.17563     0.20206     0.27476
 
  Peak memory usage:    737 Mb
  
  end of program scf
   
 Time(scf)  user:        5.1  user+sys:        5.1  wallclock:        5.5
  
  start of program sole
  
    SCRF                   solvation energy
  iteration          Hartrees            kcal/mol
     0               0.0000000            0.0000
     1              -0.0035576           -2.2324
     2              -0.0055169           -3.4619
     3              -0.0059989           -3.7644
  
  solvation energy not yet converged... 
  
  Peak memory usage:    618 Mb
  
  end of program sole
   
 Time(sole)  user:        0.1  user+sys:        0.1  wallclock:        0.1
  
  start of program ch
  
  gridpoints used for charge fit         2540
    out of a possible maximum of         2540
  
   Electrostatic potential fitting constrained to reproduce
     total charge:                yes
     dipole moment:               no 
     traceless quadrupole moment: no 
     traceless octapole moment:   no 
  
  Atomic charges from electrostatic potential: 
   
 Atom       O1           O2           C3           C4           C5      
 Charge   -0.24110     -0.53378      0.13022     -0.07827     -0.28487
   
 Atom       C6           C7           H8           H9           H10     
 Charge    0.11142      0.33324      0.15686      0.19733      0.15527
   
 Atom       H11     
 Charge    0.05370
  
  sum of atomic charges:    -0.000000
   
 RMS Error   1.05E-03 hartrees
 
  Peak memory usage:    549 Mb
  
  end of program ch
   
 Time(ch)  user:        0.2  user+sys:        0.2  wallclock:        2.1
  
  start of program post
  
  Writing input files for PBF
  Peak memory usage:    517 Mb
  
  end of program post
   
 Time(post)  user:        0.1  user+sys:        0.1  wallclock:        2.1

  start of program pbf

Pbf Version 4.00

Molecular surface area:      119.58416   [A2]
Reaction field energy:       -16.09343   [kT]

Solvent-accessible surface area:  261.66746 [A2]
Cavity energy:                      3.99144 [kT]

  Peak memory usage: 531 Mb

  end of program pbf

 Time(pbf)  user:        0.2  user+sys:        0.2  wallclock:        0.3
  
  start of program solv
  
   number of surface charges from PBF    1240
   sum of surface charges      0.00006
   
  nuclear repulsion energy.......     270.758473680 hartrees
  Peak memory usage:    649 Mb
  
  end of program solv
   
 Time(solv)  user:        0.3  user+sys:        0.3  wallclock:        0.2
  
  start of program scf
  
  
       i  u  d  i  g                   
       t  p  i  c  r                                 RMS    maximum
       e  d  i  u  i                       energy  density   DIIS  
       r  t  s  t  d       total energy    change  change    error 
  
etot    1  N  N  1  U    -343.37940881396           2.3E-05  1.9E-04
etot    2  N  Y  1  U    -343.37940836716 -4.5E-07  9.6E-06  2.7E-04
etot    3  N  Y  1  U    -343.37940967805  1.3E-06  2.8E-06  3.4E-05
etot    4  N  N  1  U    -343.37940970019  2.2E-08  0.0E+00  0.0E+00
  
  
 Energy components, in hartrees:
   (A)  Total zero-electron terms....     271.00211496116
   (B)    Nuclear-nuclear............     270.75847368008
   (C)    Nuclear-solvent............       0.24364128108
   (E)  Total one-electron terms.....   -1002.96289787899
   (F)    Electron-nuclear...........   -1342.94771458595
   (G)    Electron-solvent...........      -0.27425374678
   (H)    Kinetic....................     340.25907045374
   (I)  Total two-electron terms.....     388.58137321764
   (J)    Coulomb....................     434.34354613049
   (K)    Exchange+Correlation.......     -45.76217291285
   (L)  Electronic energy............    -614.38152466134  (E+I)
   (N)  Total quantum mech. energy...    -343.37940970019  (A+L)
   (O)  Gas phase energy.............    -343.35213628705
   (P)  Solution phase energy........    -343.35826502014  (Q+R+S+T)
   (Q)    Total solute energy........    -343.34879723449  (N-C-G)
   (R)    Total solvent energy.......      -0.01530623285  (C/2+G/2)
   (S)    Solute cavity energy.......       0.00376676531
   (T)    First shell corr. factor...       0.00207168188
   (U)  Reorganization energy........       0.00333905256  (Q-O)
   (V)  Solvation energy.............      -0.00612873309  (P-O)
  
 SCFE:  Solution phase energy: DFT(b3lyp)       -343.35826502014 hartrees
        SCF iterations:   4
  
 
 HOMO energy:    -0.24934
 LUMO energy:    -0.07329
 
  Orbital energies (hartrees): 
   -19.24087   -19.14934   -10.28462   -10.26344   -10.25209   -10.21347
   -10.20548    -1.13777    -1.03108    -0.82126    -0.78497    -0.65804
    -0.61652    -0.56967    -0.53207    -0.48271    -0.47821    -0.43775
    -0.42248    -0.41634    -0.39440    -0.38755    -0.30039    -0.26870
    -0.24934    -0.07329     0.02779     0.09288     0.11477     0.13417
     0.14400     0.16676     0.17578     0.20207     0.27466
 
  Peak memory usage:    737 Mb
  
  end of program scf
   
 Time(scf)  user:        4.8  user+sys:        4.8  wallclock:        5.2
  
  start of program sole
  
    SCRF                   solvation energy
  iteration          Hartrees            kcal/mol
     0               0.0000000            0.0000
     1              -0.0035576           -2.2324
     2              -0.0055169           -3.4619
     3              -0.0059989           -3.7644
     4              -0.0061287           -3.8458
  
  stopping: solvation energy converged
  
  iterations:   4    sfinal:     -3.8458 kcal/mol
  
  Peak memory usage:    618 Mb
  
  end of program sole
   
 Time(sole)  user:        0.1  user+sys:        0.1  wallclock:        0.1
  
  start of program cutabab2
  
  Peak memory usage:    609 Mb
  
  end of program cutabab2
   
 Time(cutabab2)  user:        0.2  user+sys:        0.2  wallclock:        0.7
  
  start of program der2a
  
  Peak memory usage:    657 Mb
  
  end of program der2a
   
 Time(der2a)  user:        2.0  user+sys:        2.0  wallclock:        2.5
  
  start of program der2b
  
  Peak memory usage:    809 Mb
  
  end of program der2b
   
 Time(der2b)  user:       27.9  user+sys:       27.9  wallclock:       30.0
  
  start of program der2nda
  
 
  Peak memory usage:    654 Mb
  
  end of program der2nda
   
 Time(der2nda)  user:        3.2  user+sys:        3.2  wallclock:        6.1
  
  start of program der2ndb
  
  Peak memory usage:    627 Mb
  
  end of program der2ndb
   
 Time(der2ndb)  user:       94.7  user+sys:       94.7  wallclock:      103.4
  
  start of program rwr
  
  Peak memory usage:    520 Mb
  
  end of program rwr
   
 Time(rwr)  user:        0.8  user+sys:        0.8  wallclock:        0.9
  
  start of program cphfa
  
       1  vectors produced in CPHF
  
     v    i  j  k  i  g
     e    t  c  c  c  r
     c    e  o  o  u  i
     t    r  r  r  t  d       RMS  
  
     1    1  0  0  6  M     2.4E-02
     1    2  0  0  6  M     1.7E-03
     1    3  0  0  6  M     5.9E-04
     1    4  0  0  6  M     2.1E-04
     1    5  0  0  6  M     8.3E-05
     1    6  0  0  6  M     2.4E-05
  
  
  Atomic Polar Tensors (au): Total
  =========================
  
  APT for atom O1      
  --------------------------------------
        0.0131      -0.1493       0.0001
       -0.1126      -0.7736      -0.0000
        0.0000      -0.0001      -0.1398
  --------------------------------------
  
  APT for atom O2      
  --------------------------------------
       -1.4533       0.0806      -0.0000
        0.6123      -0.6231       0.0001
       -0.0001       0.0001      -0.4296
  --------------------------------------
  
  APT for atom C3      
  --------------------------------------
       -1.0340      -0.2156      -0.0001
       -0.7369       0.1625       0.0001
        0.0001       0.0001       0.0378
  --------------------------------------
  
  APT for atom C4      
  --------------------------------------
        0.5023      -0.0929       0.0000
        0.1791       0.0425       0.0000
        0.0000      -0.0000      -0.0779
  --------------------------------------
  
  APT for atom C5      
  --------------------------------------
       -0.2573       0.1593       0.0000
        0.4500      -0.1301       0.0000
        0.0001       0.0001      -0.1585
  --------------------------------------
  
  APT for atom C6      
  --------------------------------------
       -0.0995       0.1344       0.0000
       -0.2361       0.4661      -0.0000
       -0.0001       0.0001       0.0034
  --------------------------------------
  
  APT for atom C7      
  --------------------------------------
        2.0020       0.1160      -0.0000
       -0.0210       0.7909      -0.0001
        0.0000      -0.0001       0.2334
  --------------------------------------
  
  APT for atom H8      
  --------------------------------------
        0.0885       0.0453      -0.0000
        0.0270       0.0904       0.0000
       -0.0001       0.0001       0.1440
  --------------------------------------
  
  APT for atom H9      
  --------------------------------------
        0.0529      -0.0374       0.0000
       -0.0279       0.0956       0.0000
        0.0001       0.0001       0.1524
  --------------------------------------
  
  APT for atom H10     
  --------------------------------------
        0.1119      -0.0065       0.0000
        0.0100       0.0789      -0.0000
        0.0002      -0.0001       0.1669
  --------------------------------------
  
  APT for atom H11     
  --------------------------------------
        0.0398      -0.0209       0.0000
       -0.0813      -0.1611       0.0001
       -0.0001       0.0000       0.0686
  --------------------------------------
  
  Peak memory usage:    742 Mb
  
  end of program cphfa
   
 Time(cphfa)  user:       60.5  user+sys:       60.5  wallclock:       65.5
  
  start of program rwr
  
  Peak memory usage:    520 Mb
  
  end of program rwr
   
 Time(rwr)  user:        0.9  user+sys:        0.9  wallclock:        0.9
  
  start of program scf
  
 number of electrons..........         50
 number of alpha electrons....         25
 number of beta electrons.....         25
 number of orbitals, total....        125
 number of doubly-occ'd orbs..         25
 number of open shell orbs....          0
 number of occupied orbitals..         25
 number of virtual orbitals...        100
 number of hamiltonians.......          1
 number of shells.............          1
 SCF type: DFT=Becke_3_Parameter/HF+Slater+Becke88+VWN+LYP (B3LYP)
  
       i  u  d  i  g                   
       t  p  i  c  r                                 RMS    maximum
       e  d  i  u  i                       energy  density   DIIS  
       r  t  s  t  d       total energy    change  change    error 
  
etot    1  N  N  4  M    -343.37894988910           5.9E-04  3.6E-03
etot    2  Y  Y  6  M    -343.37902276678  7.3E-05  4.5E-05  3.9E-04
etot    3  N  Y  1  U    -343.37903035081  7.6E-06  1.4E-04  3.6E-03
etot    4  Y  Y  6  M    -343.37918759528  1.6E-04  1.0E-04  2.7E-03
etot    5  Y  Y  6  M    -343.37926172160  7.4E-05  1.0E-04  2.0E-03
etot    6  Y  Y  6  M    -343.37931126697  5.0E-05  9.2E-05  1.4E-03
etot    7  Y  Y  6  M    -343.37933579785  2.5E-05  3.0E-05  8.9E-04
etot    8  N  Y  1  U    -343.37939570567  6.0E-05  1.6E-05  7.1E-04
etot    9  N  Y  1  U    -343.37939942508  3.7E-06  1.8E-06  6.1E-04
etot   10  N  N  1  U    -343.37939978399  3.6E-07  0.0E+00  0.0E+00
  
  
 Energy components, in hartrees:
   (A)  Total zero-electron terms....     271.00211496116
   (B)    Nuclear-nuclear............     270.75847368008
   (C)    Nuclear-solvent............       0.24364128108
   (E)  Total one-electron terms.....   -1002.96255918248
   (F)    Electron-nuclear...........   -1342.94574207712
   (G)    Electron-solvent...........      -0.27427312231
   (H)    Kinetic....................     340.25745601694
   (I)  Total two-electron terms.....     388.58104443734
   (J)    Coulomb....................     434.34300901524
   (K)    Exchange+Correlation.......     -45.76196457790
   (L)  Electronic energy............    -614.38151474515  (E+I)
   (N)  Total energy.................    -343.37939978399  (A+L)
  
 SCFE: SCF energy: DFT(b3lyp)      -343.37939978399 hartrees   iterations:  10
  
 
 HOMO energy:    -0.24934
 LUMO energy:    -0.07325
 
  Orbital energies (hartrees): 
   -19.24092   -19.14932   -10.28447   -10.26351   -10.25209   -10.21355
   -10.20563    -1.13779    -1.03098    -0.82133    -0.78495    -0.65801
    -0.61655    -0.56973    -0.53205    -0.48270    -0.47822    -0.43768
    -0.42255    -0.41641    -0.39444    -0.38746    -0.30045    -0.26862
    -0.24934    -0.07325     0.02775     0.09289     0.11474     0.13417
     0.14401     0.16669     0.17574     0.20207     0.27468
 
  Peak memory usage:    737 Mb
  
  end of program scf
   
 Time(scf)  user:        8.6  user+sys:        8.6  wallclock:        9.7
  
  start of program der1a
  
  Peak memory usage:    656 Mb
  
  end of program der1a
   
 Time(der1a)  user:        1.0  user+sys:        1.0  wallclock:        1.2
  
  start of program rwr
  
  Peak memory usage:    521 Mb
  
  end of program rwr
   
 Time(rwr)  user:        0.9  user+sys:        0.9  wallclock:        0.9
  
  start of program der1b
  
   
  forces (hartrees/bohr) : total     
   
 atom  label           x              y              z
 ---- --------   -------------  -------------  -------------
    1 O1         -1.246621E-02   4.728024E-03  -1.109023E-05
    2 O2         -1.972812E-02   1.313043E-02  -1.047354E-05
    3 C3          5.078036E-03  -1.144510E-02  -1.604993E-05
    4 C4         -3.028929E-03  -2.272580E-03   1.211658E-05
    5 C5         -3.114628E-03   4.582435E-03  -1.052437E-05
    6 C6          1.966282E-03  -4.594609E-04   3.248553E-05
    7 C7          3.545852E-02  -1.072571E-02   3.691890E-05
    8 H8          1.443615E-03   3.086241E-04  -7.132593E-06
    9 H9         -1.008682E-03  -2.752588E-04  -2.241804E-05
   10 H10        -1.133329E-03  -4.083005E-04  -1.718016E-05
   11 H11        -3.326876E-03   2.280187E-03  -2.836279E-06
 -------------   -------------  -------------  -------------
     total        1.396720E-04  -5.567141E-04  -1.618412E-05
   
  Peak memory usage:    736 Mb
  
  end of program der1b
   
 Time(der1b)  user:        4.5  user+sys:        4.5  wallclock:        4.8
  
  start of program raman
  
  calculation with applied electric field of
     Ex= 0.02400 Ey= 0.00000 Ez= 0.00000 follows...
  nuclear repulsion energy.......     270.758473680 hartrees
  nuclear electric field energy..      -0.033901687 hartrees
  Peak memory usage:    480 Mb
  
  end of program raman
   
 Time(raman)  user:        0.1  user+sys:        0.1  wallclock:        0.3
  
  start of program rwr
  
  Peak memory usage:    520 Mb
  
  end of program rwr
   
 Time(rwr)  user:        0.8  user+sys:        0.8  wallclock:        1.1
  
  start of program scf
  
 number of electrons..........         50
 number of alpha electrons....         25
 number of beta electrons.....         25
 number of orbitals, total....        125
 number of doubly-occ'd orbs..         25
 number of open shell orbs....          0
 number of occupied orbitals..         25
 number of virtual orbitals...        100
 number of hamiltonians.......          1
 number of shells.............          1
 SCF type: DFT=Becke_3_Parameter/HF+Slater+Becke88+VWN+LYP (B3LYP)
  
       i  u  d  i  g                   
       t  p  i  c  r                                 RMS    maximum
       e  d  i  u  i                       energy  density   DIIS  
       r  t  s  t  d       total energy    change  change    error 
  
etot    1  N  N  4  M    -343.57106641783           3.1E-03  2.9E-02
etot    2  Y  Y  6  M    -343.57838977705  7.3E-03  1.2E-03  2.8E-02
etot    3  N  Y  1  U    -343.59509988975  1.7E-02  5.7E-04  7.1E-03
etot    4  Y  Y  6  M    -343.59590101463  8.0E-04  2.0E-04  5.3E-03
etot    5  Y  Y  6  M    -343.59623250401  3.3E-04  2.5E-04  1.6E-03
etot    6  N  Y  1  U    -343.59638818319  1.6E-04  5.1E-05  9.7E-04
etot    7  Y  Y  6  M    -343.59641034536  2.2E-05  2.4E-05  2.8E-04
etot    8  N  Y  1  U    -343.59641708527  6.7E-06  6.4E-06  7.9E-05
etot    9  N  Y  1  U    -343.59641732257  2.4E-07  5.1E-06  2.6E-05
etot   10  N  Y  1  U    -343.59641735654  3.4E-08  2.1E-06  1.2E-05
etot   11  N  N  1  U    -343.59641736436  7.8E-09  0.0E+00  0.0E+00
  
  
 Energy components, in hartrees:
   (A)  Nuclear repulsion............     270.72457199340
   (E)  Total one-electron terms.....   -1002.56917043833
   (F)    Electron-nuclear...........   -1342.84639703441
   (H)    Kinetic....................     340.24107616595
   (I)  Total two-electron terms.....     388.24818108057
   (J)    Coulomb....................     433.98841202229
   (K)    Exchange+Correlation.......     -45.74023094172
   (L)  Electronic energy............    -614.32098935776  (E+I)
   (M)  -V/T.........................       2.00996790766  (-(A+F+I)/H)
   (N)  Total energy.................    -343.59641736436  (A+L)
  
 SCFE: SCF energy: DFT(b3lyp)      -343.59641736436 hartrees   iterations:  11
  
 
 HOMO energy:    -0.22763
 LUMO energy:    -0.06696
 
  Orbital energies (hartrees): 
   -19.26317   -19.11902   -10.29498   -10.26335   -10.24975   -10.24532
   -10.22167    -1.15894    -0.99365    -0.84585    -0.79945    -0.66464
    -0.64170    -0.59246    -0.53877    -0.49805    -0.49218    -0.44645
    -0.43585    -0.41308    -0.39196    -0.35553    -0.32758    -0.25964
    -0.22763    -0.06696     0.00031     0.04738     0.06425     0.09841
     0.11831     0.15491     0.17139     0.21680     0.25291
 
  Peak memory usage:    737 Mb
  
  end of program scf
   
 Time(scf)  user:       11.7  user+sys:       11.7  wallclock:       18.0
  
  start of program der1a
  
  Peak memory usage:    656 Mb
  
  end of program der1a
   
 Time(der1a)  user:        0.2  user+sys:        0.2  wallclock:        0.2
  
  start of program rwr
  
  Peak memory usage:    521 Mb
  
  end of program rwr
   
 Time(rwr)  user:        0.9  user+sys:        0.9  wallclock:        1.0
  
  start of program der1b
  
   
  forces (hartrees/bohr) : total     
   
 atom  label           x              y              z
 ---- --------   -------------  -------------  -------------
    1 O1         -1.626655E-02   1.269867E-03  -2.113863E-05
    2 O2         -3.726730E-02   1.463531E-02  -1.260045E-05
    3 C3         -1.182592E-02  -2.723039E-02  -1.113431E-05
    4 C4          3.616607E-04  -3.802358E-03   9.382457E-06
    5 C5         -7.974407E-03   1.113181E-02  -7.391804E-06
    6 C6         -5.637546E-03  -1.124774E-03   3.480372E-05
    7 C7          6.472832E-02   2.708057E-03   2.685115E-05
    8 H8          3.189764E-03   4.812329E-03   4.614586E-06
    9 H9          4.121289E-03   3.460370E-03  -1.272422E-05
   10 H10         6.791224E-03  -4.928502E-03  -4.342765E-06
   11 H11        -4.569757E-06  -6.056931E-04  -6.502218E-06
 -------------   -------------  -------------  -------------
     total        2.159584E-04   3.260326E-04  -1.824913E-07
   
  Peak memory usage:    736 Mb
  
  end of program der1b
   
 Time(der1b)  user:        4.0  user+sys:        4.0  wallclock:        4.0
  
  start of program raman
  
  calculation with applied electric field of
     Ex=-0.02400 Ey= 0.00000 Ez= 0.00000 follows...
  nuclear repulsion energy.......     270.758473680 hartrees
  nuclear electric field energy..       0.033901687 hartrees
  Peak memory usage:    480 Mb
  
  end of program raman
   
 Time(raman)  user:        0.1  user+sys:        0.1  wallclock:        0.1
  
  start of program rwr
  
  Peak memory usage:    520 Mb
  
  end of program rwr
   
 Time(rwr)  user:        0.9  user+sys:        0.9  wallclock:        2.0
  
  start of program scf
  
 number of electrons..........         50
 number of alpha electrons....         25
 number of beta electrons.....         25
 number of orbitals, total....        125
 number of doubly-occ'd orbs..         25
 number of open shell orbs....          0
 number of occupied orbitals..         25
 number of virtual orbitals...        100
 number of hamiltonians.......          1
 number of shells.............          1
 SCF type: DFT=Becke_3_Parameter/HF+Slater+Becke88+VWN+LYP (B3LYP)
  
       i  u  d  i  g                   
       t  p  i  c  r                                 RMS    maximum
       e  d  i  u  i                       energy  density   DIIS  
       r  t  s  t  d       total energy    change  change    error 
  
etot    1  N  N  4  M    -343.67422901182           3.5E-03  2.9E-02
etot    2  Y  Y  6  M    -343.66416609501 -1.0E-02  1.4E-03  4.0E-02
etot    3  N  Y  1  U    -343.69977169867  3.6E-02  4.8E-04  5.0E-03
etot    4  Y  Y  6  M    -343.70074876837  9.8E-04  2.4E-04  2.3E-03
etot    5  Y  Y  6  M    -343.70084895577  1.0E-04  1.0E-04  1.7E-03
etot    6  N  Y  1  U    -343.70102849710  1.8E-04  3.0E-05  4.8E-04
etot    7  N  Y  1  U    -343.70103384866  5.4E-06  1.2E-05  2.6E-04
etot    8  N  Y  1  U    -343.70103510485  1.3E-06  9.0E-06  4.1E-05
etot    9  N  Y  1  U    -343.70103515758  5.3E-08  1.2E-06  2.2E-05
etot   10  N  N  1  U    -343.70103517972  2.2E-08  0.0E+00  0.0E+00
  
  
 Energy components, in hartrees:
   (A)  Nuclear repulsion............     270.79237536676
   (E)  Total one-electron terms.....   -1003.28540013061
   (F)    Electron-nuclear...........   -1343.43097879934
   (H)    Kinetic....................     340.28484652631
   (I)  Total two-electron terms.....     388.79198958413
   (J)    Coulomb....................     434.56891960469
   (K)    Exchange+Correlation.......     -45.77693002056
   (L)  Electronic energy............    -614.49341054648  (E+I)
   (M)  -V/T.........................       2.00962993454  (-(A+F+I)/H)
   (N)  Total energy.................    -343.70103517972  (A+L)
  
 SCFE: SCF energy: DFT(b3lyp)      -343.70103517972 hartrees   iterations:  10
  
 
 HOMO energy:    -0.23969
 LUMO energy:    -0.08415
 
  Orbital energies (hartrees): 
   -19.22522   -19.17535   -10.30837   -10.24926   -10.24370   -10.20878
   -10.17698    -1.12430    -1.06316    -0.80809    -0.77782    -0.65874
    -0.60175    -0.56273    -0.53371    -0.48792    -0.46897    -0.45242
    -0.41555    -0.41066    -0.38829    -0.37409    -0.30457    -0.28501
    -0.23969    -0.08415     0.04799     0.08659     0.09665     0.13313
     0.15404     0.21230     0.22209     0.24394     0.25753
 
  Peak memory usage:    737 Mb
  
  end of program scf
   
 Time(scf)  user:       11.3  user+sys:       11.3  wallclock:       17.9
  
  start of program der1a
  
  Peak memory usage:    656 Mb
  
  end of program der1a
   
 Time(der1a)  user:        0.2  user+sys:        0.2  wallclock:        0.2
  
  start of program rwr
  
  Peak memory usage:    521 Mb
  
  end of program rwr
   
 Time(rwr)  user:        0.9  user+sys:        0.9  wallclock:        0.9
  
  start of program der1b
  
   
  forces (hartrees/bohr) : total     
   
 atom  label           x              y              z
 ---- --------   -------------  -------------  -------------
    1 O1         -1.588782E-02   6.355273E-03  -2.351392E-05
    2 O2          2.819881E-02  -1.084227E-02  -9.913777E-06
    3 C3          3.333001E-02   5.605029E-03  -1.584988E-05
    4 C4         -2.238378E-02  -1.138767E-02   7.010446E-06
    5 C5          2.014898E-03  -1.010161E-02  -1.470436E-05
    6 C6         -2.086937E-03   9.674846E-03   3.289268E-05
    7 C7         -2.726658E-02   4.634969E-03   2.869428E-05
    8 H8         -1.136048E-03   3.211805E-03   4.769124E-06
    9 H9          3.867941E-03   5.782877E-03  -5.143017E-06
   10 H10         4.129454E-03  -6.347325E-03  -1.655051E-06
   11 H11        -2.547319E-03   3.637521E-03  -3.002152E-06
 -------------   -------------  -------------  -------------
     total        2.326252E-04   2.234449E-04  -4.156125E-07
   
  Peak memory usage:    736 Mb
  
  end of program der1b
   
 Time(der1b)  user:        4.3  user+sys:        4.3  wallclock:        5.9
  
  start of program raman
  
  calculation with applied electric field of
     Ex= 0.00000 Ey= 0.02400 Ez= 0.00000 follows...
  nuclear repulsion energy.......     270.758473680 hartrees
  nuclear electric field energy..      -0.032958335 hartrees
  Peak memory usage:    480 Mb
  
  end of program raman
   
 Time(raman)  user:        0.1  user+sys:        0.1  wallclock:        0.1
  
  start of program rwr
  
  Peak memory usage:    520 Mb
  
  end of program rwr
   
 Time(rwr)  user:        0.8  user+sys:        0.8  wallclock:        0.8
  
  start of program scf
  
 number of electrons..........         50
 number of alpha electrons....         25
 number of beta electrons.....         25
 number of orbitals, total....        125
 number of doubly-occ'd orbs..         25
 number of open shell orbs....          0
 number of occupied orbitals..         25
 number of virtual orbitals...        100
 number of hamiltonians.......          1
 number of shells.............          1
 SCF type: DFT=Becke_3_Parameter/HF+Slater+Becke88+VWN+LYP (B3LYP)
  
       i  u  d  i  g                   
       t  p  i  c  r                                 RMS    maximum
       e  d  i  u  i                       energy  density   DIIS  
       r  t  s  t  d       total energy    change  change    error 
  
etot    1  N  N  4  M    -343.62784148286           3.3E-03  1.8E-02
etot    2  Y  Y  6  M    -343.62406734740 -3.8E-03  1.4E-03  2.6E-02
etot    3  N  Y  1  U    -343.64275641059  1.9E-02  3.8E-04  7.1E-03
etot    4  Y  Y  6  M    -343.64406899413  1.3E-03  1.9E-04  1.8E-03
etot    5  Y  Y  6  M    -343.64413476106  6.6E-05  2.7E-04  1.1E-03
etot    6  N  Y  1  U    -343.64418809688  5.3E-05  6.2E-05  7.5E-04
etot    7  Y  Y  6  M    -343.64421490264  2.7E-05  1.5E-05  2.0E-04
etot    8  N  Y  1  U    -343.64421455600 -3.5E-07  8.0E-06  4.3E-05
etot    9  N  Y  1  U    -343.64421463470  7.9E-08  5.7E-06  3.0E-05
etot   10  N  Y  1  U    -343.64421465104  1.6E-08  9.4E-07  1.7E-05
etot   11  N  N  1  U    -343.64421465649  5.5E-09  0.0E+00  0.0E+00
  
  
 Energy components, in hartrees:
   (A)  Nuclear repulsion............     270.72551534468
   (E)  Total one-electron terms.....   -1002.73859808184
   (F)    Electron-nuclear...........   -1342.96818614512
   (H)    Kinetic....................     340.23375556536
   (I)  Total two-electron terms.....     388.36886808067
   (J)    Coulomb....................     434.12444785096
   (K)    Exchange+Correlation.......     -45.75557977028
   (L)  Electronic energy............    -614.36973000117  (E+I)
   (M)  -V/T.........................       2.01001162152  (-(A+F+I)/H)
   (N)  Total energy.................    -343.64421465649  (A+L)
  
 SCFE: SCF energy: DFT(b3lyp)      -343.64421465649 hartrees   iterations:  11
  
 
 HOMO energy:    -0.25414
 LUMO energy:    -0.07505
 
  Orbital energies (hartrees): 
   -19.23762   -19.15145   -10.27887   -10.26345   -10.25767   -10.23198
   -10.22062    -1.13379    -1.03266    -0.83403    -0.78476    -0.65951
    -0.62260    -0.58599    -0.52754    -0.48296    -0.47456    -0.44450
    -0.43833    -0.42569    -0.38938    -0.38768    -0.31302    -0.26805
    -0.25414    -0.07505     0.02230     0.06569     0.08566     0.10302
     0.15147     0.16758     0.18600     0.21968     0.25905
 
  Peak memory usage:    737 Mb
  
  end of program scf
   
 Time(scf)  user:       12.9  user+sys:       12.9  wallclock:       13.7
  
  start of program der1a
  
  Peak memory usage:    656 Mb
  
  end of program der1a
   
 Time(der1a)  user:        0.2  user+sys:        0.2  wallclock:        0.2
  
  start of program rwr
  
  Peak memory usage:    521 Mb
  
  end of program rwr
   
 Time(rwr)  user:        0.9  user+sys:        0.9  wallclock:        0.9
  
  start of program der1b
  
   
  forces (hartrees/bohr) : total     
   
 atom  label           x              y              z
 ---- --------   -------------  -------------  -------------
    1 O1         -1.794932E-02  -1.267771E-02  -2.462117E-05
    2 O2         -1.112333E-02  -9.223869E-03  -1.130509E-05
    3 C3         -7.739447E-05  -1.010850E-02  -1.210909E-05
    4 C4         -6.797582E-03  -3.374382E-03   1.045558E-05
    5 C5         -4.392150E-03   2.005598E-03  -9.424442E-06
    6 C6         -2.401640E-04   1.174326E-02   3.555877E-05
    7 C7          2.869963E-02   1.747119E-02   2.808860E-05
    8 H8          2.112944E-03   3.305354E-03   3.424876E-06
    9 H9          3.929592E-03   6.083488E-03  -1.210679E-05
   10 H10         7.764632E-03  -4.396903E-03  -2.049418E-06
   11 H11        -1.689525E-03  -5.491356E-04  -6.075974E-06
 -------------   -------------  -------------  -------------
     total        2.373434E-04   2.783972E-04  -1.641496E-07
   
  Peak memory usage:    736 Mb
  
  end of program der1b
   
 Time(der1b)  user:        4.0  user+sys:        4.0  wallclock:        4.2
  
  start of program raman
  
  calculation with applied electric field of
     Ex= 0.00000 Ey=-0.02400 Ez= 0.00000 follows...
  nuclear repulsion energy.......     270.758473680 hartrees
  nuclear electric field energy..       0.032958335 hartrees
  Peak memory usage:    480 Mb
  
  end of program raman
   
 Time(raman)  user:        0.1  user+sys:        0.1  wallclock:        0.1
  
  start of program rwr
  
  Peak memory usage:    520 Mb
  
  end of program rwr
   
 Time(rwr)  user:        0.9  user+sys:        0.9  wallclock:        0.9
  
  start of program scf
  
 number of electrons..........         50
 number of alpha electrons....         25
 number of beta electrons.....         25
 number of orbitals, total....        125
 number of doubly-occ'd orbs..         25
 number of open shell orbs....          0
 number of occupied orbitals..         25
 number of virtual orbitals...        100
 number of hamiltonians.......          1
 number of shells.............          1
 SCF type: DFT=Becke_3_Parameter/HF+Slater+Becke88+VWN+LYP (B3LYP)
  
       i  u  d  i  g                   
       t  p  i  c  r                                 RMS    maximum
       e  d  i  u  i                       energy  density   DIIS  
       r  t  s  t  d       total energy    change  change    error 
  
etot    1  N  N  4  M    -343.61745394680           3.4E-03  1.9E-02
etot    2  Y  Y  6  M    -343.61239903394 -5.1E-03  1.4E-03  2.7E-02
etot    3  N  Y  1  U    -343.63244664759  2.0E-02  4.1E-04  7.1E-03
etot    4  Y  Y  6  M    -343.63362700741  1.2E-03  1.6E-04  1.8E-03
etot    5  Y  Y  6  M    -343.63368124192  5.4E-05  2.8E-04  2.0E-03
etot    6  N  Y  1  U    -343.63382381931  1.4E-04  6.6E-05  1.0E-03
etot    7  Y  Y  6  M    -343.63386077794  3.7E-05  2.1E-05  3.1E-04
etot    8  N  Y  1  U    -343.63385296656 -7.8E-06  9.1E-06  4.4E-05
etot    9  N  Y  1  U    -343.63385303140  6.5E-08  4.6E-06  1.7E-05
etot   10  N  N  1  U    -343.63385303592  4.5E-09  0.0E+00  0.0E+00
  
  
 Energy components, in hartrees:
   (A)  Nuclear repulsion............     270.79143201548
   (E)  Total one-electron terms.....   -1003.10654178487
   (F)    Electron-nuclear...........   -1343.32520599607
   (H)    Kinetic....................     340.27852584081
   (I)  Total two-electron terms.....     388.68125673348
   (J)    Coulomb....................     434.44273609676
   (K)    Exchange+Correlation.......     -45.76147936328
   (L)  Electronic energy............    -614.42528505140  (E+I)
   (M)  -V/T.........................       2.00968461221  (-(A+F+I)/H)
   (N)  Total energy.................    -343.63385303592  (A+L)
  
 SCFE: SCF energy: DFT(b3lyp)      -343.63385303592 hartrees   iterations:  10
  
 
 HOMO energy:    -0.24780
 LUMO energy:    -0.07421
 
  Orbital energies (hartrees): 
   -19.24708   -19.15110   -10.29299   -10.26572   -10.24994   -10.19848
   -10.19370    -1.14465    -1.03268    -0.81243    -0.78911    -0.66362
    -0.61198    -0.56158    -0.53960    -0.48980    -0.48541    -0.43595
    -0.40738    -0.40112    -0.39586    -0.39033    -0.29027    -0.27191
    -0.24780    -0.07421     0.03071     0.08628     0.10043     0.10092
     0.13268     0.19739     0.20678     0.22421     0.27300
 
  Peak memory usage:    737 Mb
  
  end of program scf
   
 Time(scf)  user:       10.3  user+sys:       10.3  wallclock:       10.8
  
  start of program der1a
  
  Peak memory usage:    656 Mb
  
  end of program der1a
   
 Time(der1a)  user:        0.2  user+sys:        0.2  wallclock:        0.2
  
  start of program rwr
  
  Peak memory usage:    521 Mb
  
  end of program rwr
   
 Time(rwr)  user:        0.9  user+sys:        0.9  wallclock:        0.9
  
  start of program der1b
  
   
  forces (hartrees/bohr) : total     
   
 atom  label           x              y              z
 ---- --------   -------------  -------------  -------------
    1 O1         -1.027765E-02   2.419549E-02  -1.991786E-05
    2 O2         -1.280197E-02   2.084262E-02  -1.349447E-05
    3 C3          1.052898E-02  -1.852196E-02  -1.490918E-05
    4 C4         -3.294715E-03  -6.527059E-03   6.816650E-06
    5 C5         -1.160694E-02   7.557631E-03  -1.440014E-05
    6 C6         -7.037705E-03  -1.217429E-02   3.389819E-05
    7 C7          2.096975E-02  -1.930278E-02   3.156323E-05
    8 H8          7.886004E-04   6.376907E-04   5.234802E-06
    9 H9          6.999134E-03   2.795070E-03  -5.584821E-06
   10 H10         6.758183E-03  -6.874356E-03  -4.413906E-06
   11 H11        -7.974477E-04   7.655472E-03  -5.196477E-06
 -------------   -------------  -------------  -------------
     total        2.282225E-04   2.835284E-04  -4.039824E-07
   
  Peak memory usage:    736 Mb
  
  end of program der1b
   
 Time(der1b)  user:        4.1  user+sys:        4.1  wallclock:        6.0
  
  start of program raman
  
  calculation with applied electric field of
     Ex= 0.00000 Ey= 0.00000 Ez= 0.02400 follows...
  nuclear repulsion energy.......     270.758473680 hartrees
  nuclear electric field energy..      -0.000022677 hartrees
  Peak memory usage:    480 Mb
  
  end of program raman
   
 Time(raman)  user:        0.1  user+sys:        0.1  wallclock:        0.1
  
  start of program rwr
  
  Peak memory usage:    520 Mb
  
  end of program rwr
   
 Time(rwr)  user:        0.8  user+sys:        0.8  wallclock:        0.9
  
  start of program scf
  
 number of electrons..........         50
 number of alpha electrons....         25
 number of beta electrons.....         25
 number of orbitals, total....        125
 number of doubly-occ'd orbs..         25
 number of open shell orbs....          0
 number of occupied orbitals..         25
 number of virtual orbitals...        100
 number of hamiltonians.......          1
 number of shells.............          1
 SCF type: DFT=Becke_3_Parameter/HF+Slater+Becke88+VWN+LYP (B3LYP)
  
       i  u  d  i  g                   
       t  p  i  c  r                                 RMS    maximum
       e  d  i  u  i                       energy  density   DIIS  
       r  t  s  t  d       total energy    change  change    error 
  
etot    1  N  N  4  M    -343.62263871972           2.0E-03  1.4E-02
etot    2  Y  Y  6  M    -343.62686255849  4.2E-03  4.9E-04  9.4E-03
etot    3  N  Y  1  U    -343.62914014945  2.3E-03  1.9E-04  3.6E-03
etot    4  Y  Y  6  M    -343.62933183227  1.9E-04  4.3E-04  2.4E-03
etot    5  Y  Y  6  M    -343.62941853551  8.7E-05  4.9E-05  1.5E-03
etot    6  N  Y  1  U    -343.62951760418  9.9E-05  2.9E-05  2.5E-04
etot    7  N  Y  1  U    -343.62951941704  1.8E-06  8.6E-06  9.4E-05
etot    8  N  Y  1  U    -343.62951964866  2.3E-07  9.2E-06  4.6E-05
etot    9  N  Y  1  U    -343.62951974709  9.8E-08  5.6E-07  9.0E-06
etot   10  N  N  1  U    -343.62951975161  4.5E-09  0.0E+00  0.0E+00
  
  
 Energy components, in hartrees:
   (A)  Nuclear repulsion............     270.75845100337
   (E)  Total one-electron terms.....   -1002.95823623868
   (F)    Electron-nuclear...........   -1343.20066059840
   (H)    Kinetic....................     340.25535156582
   (I)  Total two-electron terms.....     388.57026548371
   (J)    Coulomb....................     434.33113543894
   (K)    Exchange+Correlation.......     -45.76086995523
   (L)  Electronic energy............    -614.38797075497  (E+I)
   (M)  -V/T.........................       2.00987858373  (-(A+F+I)/H)
   (N)  Total energy.................    -343.62951975161  (A+L)
  
 SCFE: SCF energy: DFT(b3lyp)      -343.62951975161 hartrees   iterations:  10
  
 
 HOMO energy:    -0.24963
 LUMO energy:    -0.07363
 
  Orbital energies (hartrees): 
   -19.24123   -19.14992   -10.28497   -10.26387   -10.25244   -10.21388
   -10.20596    -1.13809    -1.03151    -0.82169    -0.78535    -0.65846
    -0.61689    -0.57007    -0.53245    -0.48323    -0.47827    -0.43829
    -0.42280    -0.41669    -0.39467    -0.38768    -0.30061    -0.26905
    -0.24963    -0.07363     0.02725     0.09221     0.11460     0.13399
     0.14388     0.16652     0.17554     0.20192     0.27408
 
  Peak memory usage:    737 Mb
  
  end of program scf
   
 Time(scf)  user:       11.4  user+sys:       11.4  wallclock:       30.1
  
  start of program der1a
  
  Peak memory usage:    656 Mb
  
  end of program der1a
   
 Time(der1a)  user:        0.2  user+sys:        0.2  wallclock:        0.2
  
  start of program rwr
  
  Peak memory usage:    521 Mb
  
  end of program rwr
   
 Time(rwr)  user:        0.9  user+sys:        0.9  wallclock:        0.9
  
  start of program der1b
  
   
  forces (hartrees/bohr) : total     
   
 atom  label           x              y              z
 ---- --------   -------------  -------------  -------------
    1 O1         -1.473495E-02   3.750912E-03  -3.112754E-03
    2 O2         -1.169778E-02   6.271162E-03  -1.296140E-02
    3 C3          5.211103E-03  -1.442213E-02   3.638995E-04
    4 C4         -5.893130E-03  -4.774148E-03  -1.782381E-03
    5 C5         -7.064359E-03   4.797022E-03  -3.486839E-03
    6 C6         -3.497698E-03   1.516457E-04  -1.331039E-04
    7 C7          2.468645E-02   4.947753E-04   8.518284E-03
    8 H8          9.037783E-04   4.032902E-03   3.420910E-03
    9 H9          6.071378E-03   5.626883E-03   3.612487E-03
   10 H10         7.842870E-03  -6.706117E-03   3.862424E-03
   11 H11        -1.604491E-03   1.054861E-03   1.727479E-03
 -------------   -------------  -------------  -------------
     total        2.231757E-04   2.777728E-04   2.900791E-05
   
  Peak memory usage:    736 Mb
  
  end of program der1b
   
 Time(der1b)  user:        4.0  user+sys:        4.0  wallclock:        4.8
  
  start of program raman
  
  calculation with applied electric field of
     Ex= 0.00000 Ey= 0.00000 Ez=-0.02400 follows...
  nuclear repulsion energy.......     270.758473680 hartrees
  nuclear electric field energy..       0.000022677 hartrees
  Peak memory usage:    480 Mb
  
  end of program raman
   
 Time(raman)  user:        0.1  user+sys:        0.1  wallclock:        0.2
  
  start of program rwr
  
  Peak memory usage:    520 Mb
  
  end of program rwr
   
 Time(rwr)  user:        0.8  user+sys:        0.8  wallclock:        0.8
  
  start of program scf
  
 number of electrons..........         50
 number of alpha electrons....         25
 number of beta electrons.....         25
 number of orbitals, total....        125
 number of doubly-occ'd orbs..         25
 number of open shell orbs....          0
 number of occupied orbitals..         25
 number of virtual orbitals...        100
 number of hamiltonians.......          1
 number of shells.............          1
 SCF type: DFT=Becke_3_Parameter/HF+Slater+Becke88+VWN+LYP (B3LYP)
  
       i  u  d  i  g                   
       t  p  i  c  r                                 RMS    maximum
       e  d  i  u  i                       energy  density   DIIS  
       r  t  s  t  d       total energy    change  change    error 
  
etot    1  N  N  4  M    -343.62265670994           2.0E-03  1.4E-02
etot    2  Y  Y  6  M    -343.62688120513  4.2E-03  4.9E-04  9.4E-03
etot    3  N  Y  1  U    -343.62915820420  2.3E-03  1.9E-04  3.6E-03
etot    4  Y  Y  6  M    -343.62934990180  1.9E-04  4.4E-04  2.4E-03
etot    5  Y  Y  6  M    -343.62943762005  8.8E-05  4.7E-05  1.4E-03
etot    6  N  Y  1  U    -343.62953560457  9.8E-05  2.9E-05  2.5E-04
etot    7  N  Y  1  U    -343.62953741257  1.8E-06  8.6E-06  9.4E-05
etot    8  N  Y  1  U    -343.62953764400  2.3E-07  9.2E-06  4.6E-05
etot    9  N  Y  1  U    -343.62953773970  9.6E-08  5.7E-07  8.6E-06
etot   10  N  N  1  U    -343.62953774436  4.7E-09  0.0E+00  0.0E+00
  
  
 Energy components, in hartrees:
   (A)  Nuclear repulsion............     270.75849635679
   (E)  Total one-electron terms.....   -1002.95841422324
   (F)    Electron-nuclear...........   -1343.20076810651
   (H)    Kinetic....................     340.25534441082
   (I)  Total two-electron terms.....     388.57038012208
   (J)    Coulomb....................     434.33125703654
   (K)    Exchange+Correlation.......     -45.76087691446
   (L)  Electronic energy............    -614.38803410116  (E+I)
   (M)  -V/T.........................       2.00987847175  (-(A+F+I)/H)
   (N)  Total energy.................    -343.62953774436  (A+L)
  
 SCFE: SCF energy: DFT(b3lyp)      -343.62953774436 hartrees   iterations:  10
  
 
 HOMO energy:    -0.24963
 LUMO energy:    -0.07363
 
  Orbital energies (hartrees): 
   -19.24124   -19.14992   -10.28497   -10.26387   -10.25244   -10.21388
   -10.20596    -1.13809    -1.03151    -0.82169    -0.78534    -0.65845
    -0.61689    -0.57007    -0.53245    -0.48323    -0.47827    -0.43829
    -0.42279    -0.41669    -0.39467    -0.38767    -0.30061    -0.26905
    -0.24963    -0.07363     0.02726     0.09221     0.11461     0.13400
     0.14389     0.16653     0.17554     0.20192     0.27409
 
  Peak memory usage:    737 Mb
  
  end of program scf
   
 Time(scf)  user:       11.7  user+sys:       11.7  wallclock:       16.1
  
  start of program der1a
  
  Peak memory usage:    656 Mb
  
  end of program der1a
   
 Time(der1a)  user:        0.2  user+sys:        0.2  wallclock:        0.2
  
  start of program rwr
  
  Peak memory usage:    521 Mb
  
  end of program rwr
   
 Time(rwr)  user:        0.9  user+sys:        0.9  wallclock:        1.0
  
  start of program der1b
  
   
  forces (hartrees/bohr) : total     
   
 atom  label           x              y              z
 ---- --------   -------------  -------------  -------------
    1 O1         -1.474241E-02   3.754658E-03   3.067737E-03
    2 O2         -1.169495E-02   6.268588E-03   1.293729E-02
    3 C3          5.216963E-03  -1.443009E-02  -3.900685E-04
    4 C4         -5.893034E-03  -4.772058E-03   1.798962E-03
    5 C5         -7.062407E-03   4.799346E-03   3.463491E-03
    6 C6         -3.496179E-03   1.501357E-04   2.017473E-04
    7 C7          2.468502E-02   5.031660E-04  -8.459854E-03
    8 H8          9.038330E-04   4.032436E-03  -3.411777E-03
    9 H9          6.069896E-03   5.625547E-03  -3.630018E-03
   10 H10         7.841814E-03  -6.704968E-03  -3.868587E-03
   11 H11        -1.605482E-03   1.051020E-03  -1.738462E-03
 -------------   -------------  -------------  -------------
     total        2.230616E-04   2.777818E-04  -2.953458E-05
   
  Peak memory usage:    736 Mb
  
  end of program der1b
   
 Time(der1b)  user:        4.0  user+sys:        4.0  wallclock:        4.1
  
  start of program raman
  
  calculation with applied electric field of
     Ex= 0.01200 Ey= 0.01200 Ez= 0.00000 follows...
  nuclear repulsion energy.......     270.758473680 hartrees
  nuclear electric field energy..      -0.033430011 hartrees
  Peak memory usage:    480 Mb
  
  end of program raman
   
 Time(raman)  user:        0.1  user+sys:        0.1  wallclock:        0.1
  
  start of program rwr
  
  Peak memory usage:    520 Mb
  
  end of program rwr
   
 Time(rwr)  user:        0.8  user+sys:        0.8  wallclock:        0.8
  
  start of program scf
  
 number of electrons..........         50
 number of alpha electrons....         25
 number of beta electrons.....         25
 number of orbitals, total....        125
 number of doubly-occ'd orbs..         25
 number of open shell orbs....          0
 number of occupied orbitals..         25
 number of virtual orbitals...        100
 number of hamiltonians.......          1
 number of shells.............          1
 SCF type: DFT=Becke_3_Parameter/HF+Slater+Becke88+VWN+LYP (B3LYP)
  
       i  u  d  i  g                   
       t  p  i  c  r                                 RMS    maximum
       e  d  i  u  i                       energy  density   DIIS  
       r  t  s  t  d       total energy    change  change    error 
  
etot    1  N  N  4  M    -343.59945395035           2.4E-03  1.7E-02
etot    2  Y  Y  6  M    -343.59908094197 -3.7E-04  1.0E-03  2.1E-02
etot    3  N  Y  1  U    -343.60928119495  1.0E-02  3.5E-04  5.0E-03
etot    4  Y  Y  6  M    -343.61013358798  8.5E-04  1.7E-04  1.9E-03
etot    5  Y  Y  6  M    -343.61018588504  5.2E-05  3.1E-04  1.0E-03
etot    6  N  Y  1  U    -343.61026749933  8.2E-05  8.2E-05  6.2E-04
etot    7  Y  Y  6  M    -343.61029296273  2.5E-05  1.7E-05  1.6E-04
etot    8  N  Y  1  U    -343.61029477449  1.8E-06  1.0E-05  8.7E-05
etot    9  N  Y  1  U    -343.61029500531  2.3E-07  1.1E-05  3.6E-05
etot   10  N  Y  1  U    -343.61029509628  9.1E-08  2.6E-06  1.3E-05
etot   11  N  N  1  U    -343.61029509355 -2.7E-09  0.0E+00  0.0E+00
  
  
 Energy components, in hartrees:
   (A)  Nuclear repulsion............     270.72504366904
   (E)  Total one-electron terms.....   -1002.67008107367
   (F)    Electron-nuclear...........   -1342.94387061853
   (H)    Kinetic....................     340.23788210281
   (I)  Total two-electron terms.....     388.33474231108
   (J)    Coulomb....................     434.08449073471
   (K)    Exchange+Correlation.......     -45.74974842363
   (L)  Electronic energy............    -614.33533876258  (E+I)
   (M)  -V/T.........................       2.01001746311  (-(A+F+I)/H)
   (N)  Total energy.................    -343.61029509355  (A+L)
  
 SCFE: SCF energy: DFT(b3lyp)      -343.61029509355 hartrees   iterations:  11
  
 
 HOMO energy:    -0.24772
 LUMO energy:    -0.06927
 
  Orbital energies (hartrees): 
   -19.24948   -19.13456   -10.27810   -10.26480   -10.25958   -10.23148
   -10.22601    -1.14542    -1.01283    -0.83822    -0.79087    -0.66059
    -0.63105    -0.58736    -0.52935    -0.48751    -0.48489    -0.44291
    -0.43473    -0.41630    -0.40169    -0.37080    -0.31860    -0.25732
    -0.24772    -0.06927     0.01039     0.06916     0.09193     0.11664
     0.12059     0.15609     0.16147     0.21781     0.25574
 
  Peak memory usage:    737 Mb
  
  end of program scf
   
 Time(scf)  user:       11.7  user+sys:       11.7  wallclock:       13.6
  
  start of program der1a
  
  Peak memory usage:    656 Mb
  
  end of program der1a
   
 Time(der1a)  user:        0.2  user+sys:        0.2  wallclock:        0.2
  
  start of program rwr
  
  Peak memory usage:    521 Mb
  
  end of program rwr
   
 Time(rwr)  user:        0.9  user+sys:        0.9  wallclock:        0.9
  
  start of program der1b
  
   
  forces (hartrees/bohr) : total     
   
 atom  label           x              y              z
 ---- --------   -------------  -------------  -------------
    1 O1         -1.676745E-02  -6.104310E-03  -2.304265E-05
    2 O2         -2.624322E-02   4.541759E-03  -1.217533E-05
    3 C3         -7.639042E-03  -1.957213E-02  -1.174588E-05
    4 C4         -1.724769E-03  -3.196690E-03   1.005370E-05
    5 C5         -7.382899E-03   8.192520E-03  -8.766169E-06
    6 C6         -2.917709E-03   3.854652E-03   3.574716E-05
    7 C7          4.861789E-02   9.371195E-03   2.779418E-05
    8 H8          2.191274E-03   4.978376E-03   4.082358E-06
    9 H9          4.128098E-03   4.798176E-03  -1.245371E-05
   10 H10         8.690431E-03  -5.792257E-03  -3.250541E-06
   11 H11        -7.323183E-04  -7.736214E-04  -6.413547E-06
 -------------   -------------  -------------  -------------
     total        2.202845E-04   2.976751E-04  -1.704369E-07
   
  Peak memory usage:    736 Mb
  
  end of program der1b
   
 Time(der1b)  user:        4.2  user+sys:        4.2  wallclock:        4.2
  
  start of program raman
  
  calculation with applied electric field of
     Ex=-0.01200 Ey=-0.01200 Ez= 0.00000 follows...
  nuclear repulsion energy.......     270.758473680 hartrees
  nuclear electric field energy..       0.033430011 hartrees
  Peak memory usage:    480 Mb
  
  end of program raman
   
 Time(raman)  user:        0.1  user+sys:        0.1  wallclock:        0.1
  
  start of program rwr
  
  Peak memory usage:    520 Mb
  
  end of program rwr
   
 Time(rwr)  user:        0.8  user+sys:        0.8  wallclock:        0.8
  
  start of program scf
  
 number of electrons..........         50
 number of alpha electrons....         25
 number of beta electrons.....         25
 number of orbitals, total....        125
 number of doubly-occ'd orbs..         25
 number of open shell orbs....          0
 number of occupied orbitals..         25
 number of virtual orbitals...        100
 number of hamiltonians.......          1
 number of shells.............          1
 SCF type: DFT=Becke_3_Parameter/HF+Slater+Becke88+VWN+LYP (B3LYP)
  
       i  u  d  i  g                   
       t  p  i  c  r                                 RMS    maximum
       e  d  i  u  i                       energy  density   DIIS  
       r  t  s  t  d       total energy    change  change    error 
  
etot    1  N  N  4  M    -343.64584147931           2.2E-03  1.8E-02
etot    2  Y  Y  6  M    -343.64859195818  2.8E-03  8.8E-04  1.9E-02
etot    3  N  Y  1  U    -343.65595057979  7.4E-03  3.2E-04  4.4E-03
etot    4  Y  Y  6  M    -343.65670155301  7.5E-04  1.5E-04  1.8E-03
etot    5  Y  Y  6  M    -343.65674631479  4.5E-05  2.6E-04  1.2E-03
etot    6  N  Y  1  U    -343.65684815943  1.0E-04  5.9E-05  1.3E-03
etot    7  Y  Y  6  M    -343.65687792051  3.0E-05  3.0E-05  2.9E-04
etot    8  N  Y  1  U    -343.65688020940  2.3E-06  1.2E-05  7.1E-05
etot    9  N  Y  1  U    -343.65688038504  1.8E-07  7.9E-06  2.5E-05
etot   10  N  Y  1  U    -343.65688042413  3.9E-08  7.1E-07  1.3E-05
etot   11  N  N  1  U    -343.65688043010  6.0E-09  0.0E+00  0.0E+00
  
  
 Energy components, in hartrees:
   (A)  Nuclear repulsion............     270.79190369112
   (E)  Total one-electron terms.....   -1003.21038052142
   (F)    Electron-nuclear...........   -1343.41442752581
   (H)    Kinetic....................     340.28214246071
   (I)  Total two-electron terms.....     388.76159640020
   (J)    Coulomb....................     434.53241617919
   (K)    Exchange+Correlation.......     -45.77081977899
   (L)  Electronic energy............    -614.44878412122  (E+I)
   (M)  -V/T.........................       2.00968796802  (-(A+F+I)/H)
   (N)  Total energy.................    -343.65688043010  (A+L)
  
 SCFE: SCF energy: DFT(b3lyp)      -343.65688043010 hartrees   iterations:  11
  
 
 HOMO energy:    -0.24332
 LUMO energy:    -0.07909
 
  Orbital energies (hartrees): 
   -19.23511   -19.16284   -10.30182   -10.25310   -10.24860   -10.20327
   -10.18321    -1.13337    -1.04802    -0.80873    -0.78237    -0.66006
    -0.60584    -0.56034    -0.53492    -0.48215    -0.47529    -0.45086
    -0.40760    -0.40347    -0.39490    -0.38598    -0.28846    -0.28597
    -0.24332    -0.07909     0.04013     0.08643     0.09840     0.14140
     0.15551     0.19117     0.20761     0.22855     0.26329
 
  Peak memory usage:    737 Mb
  
  end of program scf
   
 Time(scf)  user:       11.7  user+sys:       11.7  wallclock:       22.0
  
  start of program der1a
  
  Peak memory usage:    656 Mb
  
  end of program der1a
   
 Time(der1a)  user:        0.2  user+sys:        0.2  wallclock:        0.2
  
  start of program rwr
  
  Peak memory usage:    521 Mb
  
  end of program rwr
   
 Time(rwr)  user:        0.9  user+sys:        0.9  wallclock:        1.6
  
  start of program der1b
  
   
  forces (hartrees/bohr) : total     
   
 atom  label           x              y              z
 ---- --------   -------------  -------------  -------------
    1 O1         -1.252742E-02   1.484963E-02  -2.190471E-05
    2 O2          5.690358E-03   6.960709E-03  -1.201189E-05
    3 C3          2.114511E-02  -6.556573E-03  -1.535426E-05
    4 C4         -1.204439E-02  -8.811729E-03   6.868910E-06
    5 C5         -5.651127E-03   4.257615E-04  -1.471962E-05
    6 C6         -4.610874E-03  -3.036760E-03   3.373108E-05
    7 C7         -2.049424E-03  -8.259075E-03   3.062466E-05
    8 H8         -5.730799E-04   2.694658E-03   5.075414E-06
    9 H9          5.603420E-03   4.346221E-03  -5.459519E-06
   10 H10         6.805233E-03  -7.794749E-03  -3.019426E-06
   11 H11        -1.561410E-03   5.431457E-03  -4.239413E-06
 -------------   -------------  -------------  -------------
     total        2.263949E-04   2.495500E-04  -4.087668E-07
   
  Peak memory usage:    736 Mb
  
  end of program der1b
   
 Time(der1b)  user:        4.0  user+sys:        4.0  wallclock:        4.0
  
  start of program raman
  
  calculation with applied electric field of
     Ex=-0.01200 Ey= 0.01200 Ez= 0.00000 follows...
  nuclear repulsion energy.......     270.758473680 hartrees
  nuclear electric field energy..       0.000471676 hartrees
  Peak memory usage:    480 Mb
  
  end of program raman
   
 Time(raman)  user:        0.1  user+sys:        0.1  wallclock:        8.2
  
  start of program rwr
  
  Peak memory usage:    520 Mb
  
  end of program rwr
   
 Time(rwr)  user:        0.8  user+sys:        0.8  wallclock:        5.6
  
  start of program scf
  
 number of electrons..........         50
 number of alpha electrons....         25
 number of beta electrons.....         25
 number of orbitals, total....        125
[...]
 number of occupied orbitals..         25
 number of virtual orbitals...        100
 number of hamiltonians.......          1
 number of shells.............          1
 SCF type: DFT=Becke_3_Parameter/HF+Slater+Becke88+VWN+LYP (B3LYP)
  
       i  u  d  i  g                   
       t  p  i  c  r                                 RMS    maximum
       e  d  i  u  i                       energy  density   DIIS  
       r  t  s  t  d       total energy    change  change    error 
  
etot    1  N  N  4  M    -343.62524909640           2.0E-03  8.5E-03
etot    2  Y  Y  6  M    -343.62537932254  1.3E-04  8.1E-04  1.3E-02
etot    3  N  Y  1  U    -343.62995382898  4.6E-03  2.9E-04  5.9E-03
etot    4  Y  Y  6  M    -343.63110915551  1.2E-03  4.3E-05  2.2E-03
etot    5  N  Y  1  U    -343.63115082761  4.2E-05  4.1E-04  2.0E-03
etot    6  Y  Y  6  M    -343.63118491673  3.4E-05  6.2E-05  1.0E-03
etot    7  Y  Y  6  M    -343.63122817375  4.3E-05  3.1E-05  2.5E-04
etot    8  N  Y  1  U    -343.63126802519  4.0E-05  9.0E-06  1.3E-04
etot    9  N  Y  1  U    -343.63126830023  2.8E-07  1.7E-05  1.1E-04
etot   10  N  Y  1  U    -343.63126870253  4.0E-07  1.1E-05  6.7E-05
etot   11  N  Y  1  U    -343.63126888571  1.8E-07  8.6E-06  4.0E-05
etot   12  N  Y  1  U    -343.63126897724  9.2E-08  6.0E-06  1.7E-05
etot   13  N  Y  1  U    -343.63126905741  8.0E-08  2.0E-07  2.5E-06
etot   14  N  N  1  U    -343.63126905819  7.9E-10  0.0E+00  0.0E+00
  
  
 Energy components, in hartrees:
   (A)  Nuclear repulsion............     270.74200585074
   (E)  Total one-electron terms.....   -1002.85956013503
   (F)    Electron-nuclear...........   -1343.10823618671
   (H)    Kinetic....................     340.24603166507
   (I)  Total two-electron terms.....     388.48628522610
   (J)    Coulomb....................     434.24571514098
   (K)    Exchange+Correlation.......     -45.75942991488
   (L)  Electronic energy............    -614.37327490893  (E+I)
   (M)  -V/T.........................       2.00995715296  (-(A+F+I)/H)
   (N)  Total energy.................    -343.63126905819  (A+L)
  
 SCFE: SCF energy: DFT(b3lyp)      -343.63126905819 hartrees   iterations:  14
  
 
 HOMO energy:    -0.25140
 LUMO energy:    -0.07390
 
  Orbital energies (hartrees): 
   -19.23897   -19.15010   -10.28146   -10.26327   -10.25451   -10.22239
   -10.21279    -1.13549    -1.03159    -0.82726    -0.78444    -0.65789
    -0.61954    -0.57715    -0.52925    -0.48165    -0.47594    -0.44040
    -0.43162    -0.42164    -0.39208    -0.38728    -0.30649    -0.26817
    -0.25140    -0.07390     0.02520     0.08906     0.09462     0.13358
     0.14687     0.15996     0.17733     0.20703     0.26883
 
  Peak memory usage:    737 Mb
  
  end of program scf
   
 Time(scf)  user:       18.0  user+sys:       18.0  wallclock:       28.5
  
  start of program der1a
  
  Peak memory usage:    656 Mb
  
  end of program der1a
   
 Time(der1a)  user:        0.2  user+sys:        0.2  wallclock:        0.2
  
  start of program rwr
  
  Peak memory usage:    521 Mb
  
  end of program rwr
   
 Time(rwr)  user:        0.9  user+sys:        0.9  wallclock:        0.9
  
  start of program der1b
  
   
  forces (hartrees/bohr) : total     
   
 atom  label           x              y              z
 ---- --------   -------------  -------------  -------------
    1 O1         -1.654701E-02  -4.948995E-03   1.365117E-03
    2 O2         -1.136574E-02  -1.323635E-03   6.680212E-03
    3 C3          2.599526E-03  -1.234161E-02  -5.127385E-04
    4 C4         -6.528000E-03  -4.015473E-03   1.385389E-03
    5 C5         -5.508614E-03   3.418952E-03   2.143254E-03
    6 C6         -1.814965E-03   5.971352E-03  -3.878308E-04
    7 C7          2.658139E-02   9.267777E-03  -4.299261E-03
    8 H8          1.325971E-03   4.281889E-03  -1.534794E-03
    9 H9          5.208555E-03   6.213533E-03  -1.703071E-03
   10 H10         8.012453E-03  -5.855139E-03  -2.014435E-03
   11 H11        -1.740506E-03  -3.958078E-04  -1.136562E-03
 -------------   -------------  -------------  -------------
     total        2.230679E-04   2.728448E-04  -1.471945E-05
   
  Peak memory usage:    736 Mb
  
  end of program der1b
   
 Time(der1b)  user:        4.0  user+sys:        4.0  wallclock:       12.1
  
  start of program raman
  
   gradient of polarizability calculations complete...
  Peak memory usage:    480 Mb
  
  end of program raman
   
 Time(raman)  user:        0.1  user+sys:        0.1  wallclock:        0.1
  
  start of program freq
  
   
  harmonic frequencies in cm**-1, reduced masses in amu,
  force constants in mDyne/A, and
  normal modes in cartesian coordinates:
  IR intensities in km/mol
  Raman intensities in Angstrom^4
  
  frequencies       187.00   234.09   262.72   513.77   605.56   638.87
  intensities         0.05     7.35    18.54     6.80    11.78     1.53
  reduc. mass         2.34     3.00     1.78     3.79     1.70     3.89
  force const         0.05     0.10     0.07     0.59     0.37     0.94
  Raman Int.          8.21     0.40     1.31     5.41     0.36     1.71
    O1       X     0.00006  0.05766  0.00002  0.09078  0.00001  0.00000
    O1       Y    -0.00004 -0.05118 -0.00000 -0.02325  0.00001  0.00001
    O1       Z    -0.05040  0.00004 -0.06527  0.00003 -0.05982 -0.13938
    O2       X     0.00005  0.09340 -0.00004 -0.16301 -0.00000  0.00000
    O2       Y     0.00010  0.12075 -0.00003  0.01896  0.00000  0.00001
    O2       Z     0.10935 -0.00008 -0.09706  0.00002 -0.00501 -0.01245
    C3       X    -0.00000 -0.00091 -0.00000  0.00347 -0.00000 -0.00001
    C3       Y    -0.00009 -0.10781 -0.00001 -0.04598 -0.00000 -0.00002
    C3       Z    -0.16258  0.00011 -0.04820  0.00000 -0.04751  0.18929
    C4       X    -0.00007 -0.09250  0.00001  0.03737 -0.00001  0.00001
    C4       Y    -0.00006 -0.06664 -0.00001 -0.05753 -0.00000 -0.00001
    C4       Z    -0.11141  0.00009  0.00764  0.00002  0.11111 -0.08260
    C5       X    -0.00006 -0.07718  0.00002  0.05569 -0.00000  0.00002
    C5       Y     0.00003  0.03725 -0.00000  0.01379 -0.00001  0.00001
    C5       Z     0.07422 -0.00005  0.05404 -0.00001 -0.15320  0.00435
    C6       X     0.00001  0.02061  0.00002  0.09223  0.00001  0.00002
    C6       Y     0.00003  0.04544 -0.00000  0.02266  0.00001  0.00001
    C6       Z     0.10414 -0.00009 -0.02098 -0.00002  0.12242  0.07093
    C7       X    -0.00000 -0.01785 -0.00001 -0.09554 -0.00000 -0.00004
    C7       Y     0.00000 -0.01055  0.00005  0.06379  0.00000 -0.00002
    C7       Z    -0.00578  0.00001  0.16166 -0.00004  0.00609  0.03151
    H8       X    -0.00014 -0.17854  0.00001  0.02735 -0.00001  0.00002
    H8       Y    -0.00009 -0.11003 -0.00001 -0.06168 -0.00001  0.00000
    H8       Z    -0.15847  0.00012  0.06319 -0.00002  0.32064 -0.22951
    H9       X    -0.00011 -0.12913  0.00001  0.01702 -0.00001 -0.00001
    H9       Y     0.00009  0.09614  0.00001  0.05878 -0.00000  0.00004
    H9       Z     0.17411 -0.00012  0.12595 -0.00001 -0.20941  0.02839
    H10      X     0.00003  0.06992  0.00002  0.10914 -0.00003 -0.00001
    H10      Y     0.00005  0.10717  0.00000  0.04116 -0.00005 -0.00002
    H10      Z     0.21822 -0.00022 -0.05855 -0.00003  0.38988  0.18567
    H11      X    -0.00009 -0.16122 -0.00005 -0.11731 -0.00002 -0.00008
    H11      Y     0.00003  0.02058  0.00014  0.06864  0.00002 -0.00004
    H11      Z     0.03820  0.00005  0.61014 -0.00016  0.06445 -0.11695
  
  frequencies       775.29   797.64   868.09   897.01   928.61   986.49
  intensities        66.82    52.33     4.42     9.21     0.53     5.24
  reduc. mass         3.16     0.57     0.47     2.80     0.62     2.48
  force const         1.12     0.21     0.21     1.33     0.32     1.42
  Raman Int.         25.60     0.61     4.42     7.07     0.27     7.44
    O1       X    -0.00064 -0.00001 -0.00003  0.06724  0.00005 -0.04332
    O1       Y     0.10309 -0.00007 -0.00006  0.07730  0.00012  0.12946
    O1       Z     0.00004  0.03132  0.00313  0.00001 -0.00108  0.00001
    O2       X     0.04941 -0.00003  0.00001 -0.00725 -0.00000 -0.00027
    O2       Y     0.03003 -0.00002  0.00000  0.00468 -0.00001 -0.01594
    O2       Z     0.00000  0.00046 -0.00183 -0.00001  0.00386 -0.00001
    C3       X    -0.08526  0.00005 -0.00001 -0.00147 -0.00000  0.00068
    C3       Y    -0.00665 -0.00001 -0.00001  0.04424  0.00005 -0.03030
    C3       Z    -0.00003  0.02593  0.02023  0.00004 -0.01215  0.00000
    C4       X     0.04207 -0.00003  0.00004 -0.08332 -0.00008 -0.00614
    C4       Y    -0.01940 -0.00000  0.00000  0.05810  0.00000 -0.15225
    C4       Z    -0.00001 -0.03826 -0.09200 -0.00017  0.10034 -0.00005
    C5       X     0.07468 -0.00003  0.00007 -0.11093 -0.00013  0.01873
    C5       Y     0.00173  0.00003  0.00005 -0.12180 -0.00013  0.00243
    C5       Z    -0.00002 -0.03501 -0.05859  0.00009 -0.10540  0.00003
    C6       X     0.03024 -0.00002 -0.00006  0.11721  0.00012  0.02237
    C6       Y     0.01054 -0.00001  0.00005 -0.09417 -0.00012 -0.01559
    C6       Z    -0.00008 -0.11349  0.09240 -0.00001  0.03794  0.00002
    C7       X    -0.12131  0.00008 -0.00002 -0.00199  0.00003  0.05679
    C7       Y    -0.15244  0.00010 -0.00003  0.00477  0.00003  0.06368
    C7       Z     0.00000 -0.00324  0.00651  0.00001 -0.01108  0.00003
    H8       X     0.17866 -0.00014  0.00005  0.07453  0.00007 -0.19191
    H8       Y     0.04815 -0.00008 -0.00004  0.13746  0.00012 -0.25517
    H8       Z     0.00009  0.25460  0.56651  0.00089 -0.58114  0.00026
    H9       X     0.05515 -0.00008  0.00009 -0.18526 -0.00036 -0.18593
    H9       Y     0.02603  0.00011  0.00003 -0.04553  0.00014  0.23309
    H9       Z     0.00035  0.58692  0.38245 -0.00037  0.57508 -0.00021
    H10      X    -0.04349 -0.00011  0.00005  0.11823  0.00011 -0.16872
    H10      Y    -0.08263 -0.00013  0.00020 -0.10361 -0.00013 -0.25454
    H10      Z     0.00036  0.61142 -0.52009  0.00004 -0.21664 -0.00016
    H11      X    -0.25495  0.00017 -0.00004 -0.00107  0.00008  0.13783
    H11      Y    -0.12503  0.00008 -0.00004  0.00677  0.00004  0.04688
    H11      Z     0.00012 -0.00374 -0.07499 -0.00010  0.06386 -0.00023
  
  frequencies      1021.76  1053.64  1115.13  1177.47  1269.16  1310.37
  intensities         0.05    35.59    26.36    13.60     3.42    22.96
  reduc. mass         2.02     0.49     2.08     1.23     1.03     1.81
  force const         1.24     0.32     1.53     1.00     0.98     1.84
  Raman Int.          1.04     1.34  2609.45    38.20  1922.29   140.00
    O1       X     0.00002  0.02740  0.09742  0.10556  0.06740 -0.05650
    O1       Y    -0.00004  0.04797  0.07548 -0.00605 -0.01768  0.05071
    O1       Z     0.00425  0.00000 -0.00000  0.00000 -0.00000  0.00000
    O2       X     0.00001 -0.00786 -0.00765 -0.01878  0.00744 -0.01766
    O2       Y     0.00001  0.00330 -0.00077  0.00966  0.01569 -0.00900
    O2       Z    -0.04455 -0.00001  0.00000 -0.00000 -0.00000  0.00000
    C3       X    -0.00005  0.02744 -0.01714  0.03542 -0.06630  0.15627
    C3       Y     0.00002 -0.00784 -0.03482 -0.02976  0.12446 -0.05184
    C3       Z    -0.06663 -0.00001  0.00002  0.00000  0.00001 -0.00002
    C4       X     0.00002 -0.07815  0.04444  0.01399  0.07294  0.10704
    C4       Y     0.00001  0.03777 -0.07557  0.07151 -0.01422  0.04138
    C4       Z     0.01363  0.00001 -0.00001  0.00000 -0.00001 -0.00000
    C5       X    -0.00003  0.06477 -0.07015 -0.00788  0.00997 -0.07194
    C5       Y     0.00000 -0.02368 -0.05703  0.07142 -0.03168 -0.02189
    C5       Z    -0.00231 -0.00002 -0.00001 -0.00001  0.00000 -0.00000
    C6       X    -0.00001 -0.01001 -0.14383 -0.09823 -0.06722 -0.02070
    C6       Y     0.00000 -0.00877  0.04464 -0.07953 -0.05873 -0.01200
    C6       Z    -0.00668  0.00000 -0.00002  0.00002 -0.00001 -0.00001
    C7       X    -0.00001 -0.01184  0.02793 -0.00347 -0.02317 -0.01742
    C7       Y    -0.00000 -0.00799  0.02556 -0.01756 -0.03246 -0.02780
    C7       Z     0.17680  0.00004 -0.00002  0.00001 -0.00001  0.00003
    H8       X     0.00018 -0.57851  0.29715 -0.04214 -0.41114 -0.17675
    H8       Y     0.00009 -0.20203  0.03809  0.05167 -0.25622 -0.10483
    H8       Z    -0.05760 -0.00010  0.00005 -0.00000  0.00002  0.00001
    H9       X    -0.00005  0.44542  0.13330 -0.09739 -0.23366 -0.14616
    H9       Y     0.00003 -0.45063 -0.30942  0.17848  0.23841  0.04789
    H9       Z     0.03219  0.00016  0.00006 -0.00006 -0.00007  0.00002
    H10      X     0.00005 -0.03155 -0.01834 -0.41769  0.19687  0.12902
    H10      Y     0.00008 -0.03659  0.22250 -0.48227  0.26847  0.18670
    H10      Z     0.02433 -0.00004  0.00007 -0.00018  0.00009  0.00007
    H11      X     0.00005 -0.05269  0.05325 -0.10343  0.13878 -0.45393
    H11      Y    -0.00019  0.00073  0.02079  0.00333 -0.06872  0.06741
    H11      Z    -0.72638 -0.00016  0.00005 -0.00000  0.00010 -0.00009
  
  frequencies      1412.52  1461.15  1500.89  1627.96  1666.27  3009.36
  intensities        65.20    10.47   119.77    21.90   398.87    60.49
  reduc. mass         1.02     1.06     2.37     3.07     5.02     0.93
  force const         1.20     1.33     3.15     4.80     8.21     4.96
  Raman Int.         78.63     5.05    98.68     9.35     4.43    77.35
    O1       X    -0.02683  0.01417  0.00700 -0.00200 -0.00713  0.00029
    O1       Y     0.00368 -0.04025 -0.03816 -0.00552 -0.00772 -0.00030
    O1       Z    -0.00000 -0.00000  0.00000  0.00000  0.00000  0.00000
    O2       X    -0.03672  0.04737 -0.00880 -0.03643 -0.08954 -0.00165
    O2       Y     0.06719 -0.05826  0.01945  0.03675  0.06820  0.00023
    O2       Z    -0.00001  0.00001 -0.00000 -0.00001 -0.00001  0.00000
    C3       X     0.01619 -0.07065  0.08316  0.12218 -0.08580 -0.00365
    C3       Y    -0.02736  0.09655  0.07634  0.14072 -0.00467  0.00097
    C3       Z    -0.00000  0.00000 -0.00000 -0.00000  0.00001  0.00000
    C4       X     0.09996  0.07850 -0.00703 -0.08461  0.01784 -0.00027
    C4       Y     0.00487 -0.05129 -0.01605 -0.11955  0.01484 -0.00043
    C4       Z    -0.00000 -0.00001 -0.00000 -0.00001  0.00000 -0.00000
    C5       X    -0.11490 -0.10681  0.00513 -0.00513  0.00534  0.00010
    C5       Y     0.06130  0.04916 -0.13845  0.08006 -0.02424 -0.00034
    C5       Z    -0.00001 -0.00000  0.00001 -0.00000  0.00000 -0.00000
    C6       X     0.05655  0.06460 -0.00093 -0.01954  0.02112  0.00059
    C6       Y    -0.00857  0.02563  0.16881 -0.06275  0.03083  0.00022
    C6       Z     0.00001  0.00001 -0.00000  0.00000  0.00000  0.00000
    C7       X    -0.02119 -0.00918 -0.03751  0.01334  0.20103  0.02359
    C7       Y    -0.07062  0.05065 -0.04031 -0.07481 -0.09602  0.07785
    C7       Z     0.00001 -0.00001  0.00001  0.00002  0.00001 -0.00002
    H8       X    -0.07545 -0.07233 -0.05392  0.21064 -0.05049 -0.00065
    H8       Y    -0.09022 -0.14120 -0.04688  0.00028 -0.01589  0.00077
    H8       Z     0.00002  0.00001 -0.00002  0.00000 -0.00001  0.00000
    H9       X     0.11785  0.13508 -0.16691  0.12552 -0.01425  0.00043
    H9       Y    -0.21174 -0.23955  0.02325 -0.05103 -0.00737 -0.00058
    H9       Z     0.00004  0.00003  0.00002 -0.00000 -0.00000 -0.00000
    H10      X    -0.03120 -0.13220 -0.33821  0.07188 -0.02862  0.00294
    H10      Y    -0.13004 -0.23325 -0.20648  0.03405 -0.03036 -0.00199
    H10      Z    -0.00003 -0.00006 -0.00007  0.00001 -0.00001 -0.00000
    H11      X     0.56146 -0.38899  0.07771 -0.11061 -0.27199 -0.22367
    H11      Y    -0.21202  0.14507 -0.07219 -0.04639  0.03743 -0.92907
    H11      Z     0.00012 -0.00004  0.00001  0.00002  0.00001  0.00017
  
  frequencies      3264.85  3274.93  3289.95
  intensities         0.06     5.63     3.14
  reduc. mass         0.40     0.42     0.53
  force const         2.53     2.68     3.40
  Raman Int.         38.59   118.42  6864.24
    O1       X     0.00102 -0.00012 -0.00057
    O1       Y    -0.00015  0.00097 -0.00051
    O1       Z     0.00000 -0.00000 -0.00000
    O2       X     0.00001 -0.00008 -0.00005
    O2       Y    -0.00019  0.00026 -0.00006
    O2       Z    -0.00000  0.00000  0.00000
    C3       X    -0.00209  0.00134 -0.00273
    C3       Y    -0.00169  0.00419 -0.00023
    C3       Z    -0.00000  0.00000 -0.00000
    C4       X    -0.01941  0.03020 -0.00938
    C4       Y     0.04609 -0.06182  0.01415
    C4       Z     0.00000 -0.00000  0.00000
    C5       X    -0.04573 -0.03147  0.03247
    C5       Y    -0.04190 -0.02223  0.03426
    C5       Z     0.00000  0.00000 -0.00000
    C6       X     0.02099  0.02836  0.05585
    C6       Y    -0.01521 -0.02204 -0.05030
    C6       Z    -0.00000 -0.00000  0.00000
    C7       X     0.00009  0.00021  0.00034
    C7       Y     0.00061 -0.00054  0.00044
    C7       Z    -0.00000  0.00000  0.00000
    H8       X     0.24555 -0.32987  0.07581
    H8       Y    -0.50663  0.66925 -0.15129
    H8       Z    -0.00003  0.00004 -0.00001
    H9       X     0.52843  0.31635 -0.35791
    H9       Y     0.46695  0.27326 -0.31969
    H9       Z    -0.00001 -0.00000  0.00001
    H10      X    -0.24100 -0.32303 -0.61931
    H10      Y     0.19028  0.25839  0.50241
    H10      Z     0.00001  0.00001  0.00001
    H11      X     0.00037 -0.00138 -0.00030
    H11      Y    -0.00113 -0.00053 -0.00231
    H11      Z     0.00000 -0.00000  0.00000
  
  Number of imaginary frequencies:   0
   
  Writing vibrational animation data to furfural_raman_sdf.vib
  Writing vibrational spectrum data to furfural_raman_sdf_vib.spm
  
  Thermochemical properties at    1.0000 atm
  
  rotational symmetry number:  1

  rotational temperatures (K):      0.390636      0.099042      0.079010
   
  vibrational temperatures:
       mode:      1        2        3        4        5        6
  temp. (K):   269.05   336.80   378.00   739.20   871.26   919.19
   
       mode:      7        8        9       10       11       12
  temp. (K):  1115.47  1147.62  1248.98  1290.59  1336.07  1419.34
   
       mode:     13       14       15       16       17       18
  temp. (K):  1470.08  1515.95  1604.43  1694.12  1826.03  1885.33
   
       mode:     19       20       21       22       23       24
  temp. (K):  2032.31  2102.27  2159.44  2342.26  2397.39  4329.79
   
       mode:     25       26       27
  temp. (K):  4697.38  4711.88  4733.51
   
   
  Thermodynamic properties calculated assuming an ideal gas

  In the table below, the units for temperature
  are kelvins, the units for U, H, and G are
  kcal/mol and the units for Cv and S are cal/(mol K)

  The zero point energy (ZPE):     50.250 kcal/mol
  is not included in U, H, or G in the table below


  T =   298.15 K
   
              U         Cv          S          H          G        ln(Q)
          ---------  ---------  ---------  ---------  ---------  ---------
  trans.      0.889      2.981     39.597      1.481    -10.325   17.42598
    rot.      0.889      2.981     26.855      0.889     -7.118   12.01395
    vib.      1.625     13.650      8.539      1.625     -0.921    1.55369
   elec.      0.000      0.000      0.000      0.000      0.000    0.00000
   total      3.403     19.611     74.991      3.995    -18.363   30.99361
   
  Total internal energy, Utot (SCFE + ZPE + U):    -343.545768 hartrees
              Total enthalpy, Htot (Utot + pV):    -343.544823 hartrees
    Total Gibbs free energy, Gtot (Htot - T*S):    -343.580454 hartrees
   
  Peak memory usage:    513 Mb
  
  end of program freq
   
 Time(freq)  user:        0.1  user+sys:        0.1  wallclock:        9.3
  
  start of program post
  
  Writing input files for PBF
  Peak memory usage:    517 Mb
  
  end of program post
   
 Time(post)  user:        0.1  user+sys:        0.1  wallclock:        4.2

 Total cpu seconds     user:     414.477   user+sys:     414.477
  
 Total elapsed time:    953 seconds

Job furfural_raman_sdf completed on volta at Tue Mar 10 12:00:13 2015
