Gaussian '09 started on node025 at Fri Feb 12 12:27:55 EST 2016.
 Entering Gaussian System, Link 0=/usr/local/gaussian/g09/g09
 Initial command:
 /usr/local/gaussian/g09/l1.exe /home/srmcgrat/thesis/gaussian/cellobiose/500/9000/1/2dfp/gaussian6537/Gau-6573.inp -scrdir=/home/srmcgrat/thesis/gaussian/cellobiose/500/9000/1/2dfp/gaussian6537/
 Entering Link 1 = /usr/local/gaussian/g09/l1.exe PID=      6575.
  
 Copyright (c) 1988,1990,1992,1993,1995,1998,2003,2009,2010,
            Gaussian, Inc.  All Rights Reserved.
  
 This is part of the Gaussian(R) 09 program.  It is based on
 the Gaussian(R) 03 system (copyright 2003, Gaussian, Inc.),
 the Gaussian(R) 98 system (copyright 1998, Gaussian, Inc.),
 the Gaussian(R) 94 system (copyright 1995, Gaussian, Inc.),
 the Gaussian 92(TM) system (copyright 1992, Gaussian, Inc.),
 the Gaussian 90(TM) system (copyright 1990, Gaussian, Inc.),
 the Gaussian 88(TM) system (copyright 1988, Gaussian, Inc.),
 the Gaussian 86(TM) system (copyright 1986, Carnegie Mellon
 University), and the Gaussian 82(TM) system (copyright 1983,
 Carnegie Mellon University). Gaussian is a federally registered
 trademark of Gaussian, Inc.
  
 This software contains proprietary and confidential information,
 including trade secrets, belonging to Gaussian, Inc.
  
 This software is provided under written license and may be
 used, copied, transmitted, or stored only in accord with that
 written license.
  
 The following legend is applicable only to US Government
 contracts under FAR:
  
                    RESTRICTED RIGHTS LEGEND
  
 Use, reproduction and disclosure by the US Government is
 subject to restrictions as set forth in subparagraphs (a)
 and (c) of the Commercial Computer Software - Restricted
 Rights clause in FAR 52.227-19.
  
 Gaussian, Inc.
 340 Quinnipiac St., Bldg. 40, Wallingford CT 06492
  
  
 ---------------------------------------------------------------
 Warning -- This program may not be used in any manner that
 competes with the business of Gaussian, Inc. or will provide
 assistance to any competitor of Gaussian, Inc.  The licensee
 of this program is prohibited from giving any competitor of
 Gaussian, Inc. access to this program.  By using this program,
 the user acknowledges that Gaussian, Inc. is engaged in the
 business of creating and licensing software in the field of
 computational chemistry and represents and warrants to the
 licensee that it is not a competitor of Gaussian, Inc. and that
 it will not use this program in any manner prohibited above.
 ---------------------------------------------------------------
  

 Cite this work as:
 Gaussian 09, Revision B.01,
 M. J. Frisch, G. W. Trucks, H. B. Schlegel, G. E. Scuseria, 
 M. A. Robb, J. R. Cheeseman, G. Scalmani, V. Barone, B. Mennucci, 
 G. A. Petersson, H. Nakatsuji, M. Caricato, X. Li, H. P. Hratchian, 
 A. F. Izmaylov, J. Bloino, G. Zheng, J. L. Sonnenberg, M. Hada, 
 M. Ehara, K. Toyota, R. Fukuda, J. Hasegawa, M. Ishida, T. Nakajima, 
 Y. Honda, O. Kitao, H. Nakai, T. Vreven, J. A. Montgomery, Jr., 
 J. E. Peralta, F. Ogliaro, M. Bearpark, J. J. Heyd, E. Brothers, 
 K. N. Kudin, V. N. Staroverov, T. Keith, R. Kobayashi, J. Normand, 
 K. Raghavachari, A. Rendell, J. C. Burant, S. S. Iyengar, J. Tomasi, 
 M. Cossi, N. Rega, J. M. Millam, M. Klene, J. E. Knox, J. B. Cross, 
 V. Bakken, C. Adamo, J. Jaramillo, R. Gomperts, R. E. Stratmann, 
 O. Yazyev, A. J. Austin, R. Cammi, C. Pomelli, J. W. Ochterski, 
 R. L. Martin, K. Morokuma, V. G. Zakrzewski, G. A. Voth, 
 P. Salvador, J. J. Dannenberg, S. Dapprich, A. D. Daniels, 
 O. Farkas, J. B. Foresman, J. V. Ortiz, J. Cioslowski, 
 and D. J. Fox, Gaussian, Inc., Wallingford CT, 2010.
 
 ******************************************
 Gaussian 09:  EM64L-G09RevB.01 12-Aug-2010
                12-Feb-2016 
 ******************************************
 --------------------------------------------------
 # freq=raman b3lyp/6-31+g(2df,p) geom=connectivity
 --------------------------------------------------
 1/10=4,30=1,38=1,57=2/1,3;
 2/12=2,17=6,18=5,40=1/2;
 3/5=1,6=6,7=114,11=2,16=1,25=1,30=1,71=2,74=-5/1,2,3;
 4//1;
 5/5=2,38=5,98=1/2;
 8/6=4,10=90,11=11/1;
 10/13=10,15=4/2;
 11/6=3,8=1,9=11,15=111,16=1/1,2,10;
 10/6=1/2;
 6/7=2,8=2,9=2,10=2,18=1,28=1/1;
 7/8=1,10=1,25=1/1,2,3,16;
 1/10=4,30=1/3;
 99//99;
 ------------
 500 9000.com
 ------------
 Symbolic Z-matrix:
 Charge =  0 Multiplicity = 1
 O                     8.796     6.815     11.965 
 C                     9.264     7.254     13.248 
 C                     9.153     8.687     13.743 
 O                     9.76      9.581     12.799 
 H                     9.365     9.371     11.904 
 C                     9.372     8.967     15.221 
 O                     8.69      10.152    15.656 
 H                     8.884     11.027    15.213 
 C                     9.28      4.924     13.811 
 O                     8.653     3.88      14.571 
 H                     9.031     3.021     14.225 
 C                     8.811     6.277     14.321 
 O                     9.378     6.545     15.611 
 C                     8.966     7.818     16.13 
 O                     9.823     7.595     17.259 
 C                     9.194     7.276     18.509 
 C                     8.802     5.829     18.758 
 O                     7.968     5.287     17.723 
 H                     8.444     5.513     16.873 
 C                     8.18      5.598     20.125 
 O                     7.903     4.195     20.244 
 H                     7.297     3.953     19.486 
 C                     9.775     9.3       19.42 
 O                     10.193    10.326    20.332 
 H                     10.21     11.17     19.796 
 C                     10.015    7.82      19.667 
 O                     9.404     7.609     20.948 
 C                     9.074     6.232     21.178 
 O                     8.324     6.326     22.398 
 H                     8.92845   6.38329   23.14161 
 H                     9.95978   5.65      21.32488 
 H                     7.24267   6.11357   20.14715 
 H                     9.7107    5.26433   18.74051 
 H                     8.27655   7.82656   18.51694 
 H                     11.04972   7.55035   19.62769 
 H                     8.71905   9.41858   19.29428 
 H                     10.23046   9.5276    18.47891 
 H                     9.54718   6.62148   11.39942 
 H                     10.34242   4.85235   13.91604 
 H                     9.01622   4.82119   12.77913 
 H                     7.74314   6.28576   14.38808 
 H                     10.32116   7.10062   13.18643 
 H                     8.10974   8.89471   13.62738 
 H                     10.42     9.13075   15.36167 
 H                     7.92998   7.83287   16.3971 
 

 GradGradGradGradGradGradGradGradGradGradGradGradGradGradGradGradGradGrad
 Berny optimization.
 Initialization pass.
 Trust Radius=3.00D-01 FncErr=1.00D-07 GrdErr=1.00D-07
 Number of steps in this run=      2 maximum allowed number of steps=      2.
 GradGradGradGradGradGradGradGradGradGradGradGradGradGradGradGradGradGrad

                          Input orientation:                          
 ---------------------------------------------------------------------
 Center     Atomic      Atomic             Coordinates (Angstroms)
 Number     Number       Type             X           Y           Z
 ---------------------------------------------------------------------
      1          8           0        8.796000    6.815000   11.965000
      2          6           0        9.264000    7.254000   13.248000
      3          6           0        9.153000    8.687000   13.743000
      4          8           0        9.760000    9.581000   12.799000
      5          1           0        9.365000    9.371000   11.904000
      6          6           0        9.372000    8.967000   15.221000
      7          8           0        8.690000   10.152000   15.656000
      8          1           0        8.884000   11.027000   15.213000
      9          6           0        9.280000    4.924000   13.811000
     10          8           0        8.653000    3.880000   14.571000
     11          1           0        9.031000    3.021000   14.225000
     12          6           0        8.811000    6.277000   14.321000
     13          8           0        9.378000    6.545000   15.611000
     14          6           0        8.966000    7.818000   16.130000
     15          8           0        9.823000    7.595000   17.259000
     16          6           0        9.194000    7.276000   18.509000
     17          6           0        8.802000    5.829000   18.758000
     18          8           0        7.968000    5.287000   17.723000
     19          1           0        8.444000    5.513000   16.873000
     20          6           0        8.180000    5.598000   20.125000
     21          8           0        7.903000    4.195000   20.244000
     22          1           0        7.297000    3.953000   19.486000
     23          6           0        9.775000    9.300000   19.420000
     24          8           0       10.193000   10.326000   20.332000
     25          1           0       10.210000   11.170000   19.796000
     26          6           0       10.015000    7.820000   19.667000
     27          8           0        9.404000    7.609000   20.948000
     28          6           0        9.074000    6.232000   21.178000
     29          8           0        8.324000    6.326000   22.398000
     30          1           0        8.928448    6.383295   23.141613
     31          1           0        9.959780    5.650004   21.324882
     32          1           0        7.242665    6.113571   20.147153
     33          1           0        9.710702    5.264328   18.740506
     34          1           0        8.276549    7.826564   18.516940
     35          1           0       11.049720    7.550353   19.627691
     36          1           0        8.719049    9.418580   19.294281
     37          1           0       10.230463    9.527595   18.478908
     38          1           0        9.547178    6.621477   11.399420
     39          1           0       10.342418    4.852352   13.916044
     40          1           0        9.016225    4.821192   12.779131
     41          1           0        7.743141    6.285764   14.388084
     42          1           0       10.321158    7.100618   13.186428
     43          1           0        8.109741    8.894709   13.627379
     44          1           0       10.419997    9.130751   15.361667
     45          1           0        7.929980    7.832865   16.397100
 ---------------------------------------------------------------------
                    Distance matrix (angstroms):
                    1          2          3          4          5
     1  O    0.000000
     2  C    1.434515   0.000000
     3  C    2.606361   1.520143   0.000000
     4  O    3.045588   2.421270   1.434859   0.000000
     5  H    2.619278   2.509627   1.973505   1.000575   0.000000
     6  C    3.945176   2.615103   1.520146   2.528562   3.341520
     7  O    4.976976   3.811344   2.453602   3.103770   3.891412
     8  H    5.319604   4.270966   2.776484   2.947149   3.731377
     9  C    2.686606   2.397108   3.765756   4.789801   4.839389
    10  O    3.927583   3.675259   4.903349   6.071806   6.145805
    11  H    4.422359   4.350530   5.687773   6.752667   6.769128
    12  C    2.416693   1.520219   2.501829   3.759455   3.965052
    13  O    3.702018   2.469706   2.851002   4.155787   4.661362
    14  C    4.287439   2.951749   2.547135   3.851515   4.519965
    15  O    5.448813   4.064097   3.742141   4.882598   5.660386
    16  C    6.572280   5.261512   4.970650   6.183646   6.931399
    17  C    6.864188   5.710006   5.782870   7.106683   7.735635
    18  O    6.014560   5.057107   5.366994   6.774620   7.245097
    19  H    5.089948   4.104157   4.513741   5.905756   6.357937
    20  C    8.273219   7.156153   7.156715   8.487106   9.122752
    21  O    8.729472   7.755889   8.000223   9.374725   9.923912
    22  H    8.185566   7.326550   7.670563   9.080568   9.545579
    23  C    7.919008   6.522332   5.743778   6.626977   7.527509
    24  O    9.180709   7.777100   6.868977   7.582124   8.522253
    25  H    9.071383   7.688061   6.627318   7.189258   8.138433
    26  C    7.862365   6.487520   6.048844   7.094757   7.943064
    27  O    9.038495   7.709450   7.289521   8.391765   9.214125
    28  C    9.235613   7.997842   7.830229   9.049532   9.795156
    29  O   10.455113   9.244852   9.009472  10.237086  10.976326
    30  H   11.185731   9.937519   9.679432  10.857552  11.636189
    31  H    9.503630   8.263954   8.207263   9.390597  10.146556
    32  H    8.357779   7.279058   7.161361   8.506197   9.113985
    33  H    7.010616   5.858836   6.082827   7.344221   7.982611
    34  H    6.649888   5.391161   4.929403   6.162265   6.877571
    35  H    8.021024   6.631521   6.286422   7.240022   8.112240
    36  H    7.778362   6.445145   5.616071   6.580170   7.418610
    37  H    7.200476   5.784953   4.929133   5.699609   6.633473
    38  H    0.960000   1.974215   3.148671   3.280685   2.801369
    39  H    3.170169   2.716097   4.018605   4.893579   5.042009
    40  H    2.164851   2.489937   3.986505   4.817610   4.646316
    41  H    2.694428   2.133140   2.858281   4.177498   4.280162
    42  H    1.974733   1.070000   2.047187   2.572410   2.777318
    43  H    2.749481   2.041609   1.070000   1.969914   2.184620
    44  H    4.420115   3.053868   2.102922   2.684322   3.623010
    45  H    4.629206   3.468648   3.044597   4.399008   4.961158
                    6          7          8          9         10
     6  C    0.000000
     7  O    1.434773   0.000000
     8  H    2.117028   0.999755   0.000000
     9  C    4.282804   5.575312   6.274474   0.000000
    10  O    5.178516   6.365263   7.179494   1.435502   0.000000
    11  H    6.038478   7.281154   8.068072   1.963366   1.000240
    12  C    2.891508   4.100304   4.833580   1.520089   2.415176
    13  O    2.453206   3.672304   4.526673   2.424303   2.951178
    14  C    1.520302   2.397584   3.338457   3.721773   4.246916
    15  O    2.497845   3.223592   4.104444   4.395201   4.732385
    16  C    3.701636   4.082279   5.002971   5.254570   5.228130
    17  C    4.762595   5.321962   6.292293   5.051764   4.620798
    18  O    4.666221   5.334979   6.331410   4.142084   3.519088
    19  H    3.939594   4.802283   5.775240   3.228260   2.830119
    20  C    6.067968   6.400858   7.355094   6.444445   5.832853
    21  O    7.082406   7.560090   8.541051   6.618992   5.731026
    22  H    6.901887   7.418689   8.415377   6.089397   5.099146
    23  C    4.231418   4.008843   4.634141   7.131289   7.358538
    24  O    5.351938   4.914698   5.330013   8.516960   8.781323
    25  H    5.146463   4.526182   4.773114   8.700439   9.103240
    26  C    4.636375   4.825139   5.603760   6.574175   6.583909
    27  O    5.885891   5.914551   6.696518   7.626360   7.425333
    28  C    6.561622   6.782797   7.655674   7.485051   7.025781
    29  O    7.718971   7.760593   8.604489   8.753063   8.206893
    30  H    8.343163   8.384175   9.188519   9.450580   8.932959
    31  H    6.971752   7.349594   8.211242   7.579420   7.103204
    32  H    6.078084   6.210809   7.154134   6.761113   6.170199
    33  H    5.119709   5.869016   6.806991   4.959975   4.518835
    34  H    3.655657   3.709929   4.639807   5.619400   5.593525
    35  H    4.923470   5.301997   6.022202   6.622955   6.692225
    36  H    4.149927   3.711582   4.389884   7.112123   7.279397
    37  H    3.415434   3.275930   3.837620   6.624639   7.046664
    38  H    4.487387   5.596233   5.864455   2.961171   4.286511
    39  H    4.424359   5.817577   6.475752   1.070000   2.056348
    40  H    4.824627   6.066326   6.667327   1.070000   2.056348
    41  H    3.245914   4.177552   4.945844   2.132923   2.578565
    42  H    2.919549   4.250929   4.646385   2.492341   3.882289
    43  H    2.034244   2.456172   2.767731   4.143640   5.131555
    44  H    1.070000   2.030387   2.444821   4.626112   5.596232
    45  H    2.179195   2.550538   3.537618   4.119704   4.413903
                   11         12         13         14         15
    11  H    0.000000
    12  C    3.264836   0.000000
    13  O    3.802628   1.434369   0.000000
    14  C    5.161827   2.381425   1.435143   0.000000
    15  O    5.545620   3.375368   2.004103   1.434859   0.000000
    16  C    6.040219   4.322503   2.994432   2.450590   1.435236
    17  C    5.337171   4.459569   3.278421   3.299909   2.531442
    18  O    4.301247   3.642026   2.833939   3.152715   2.997196
    19  H    3.683278   2.689068   1.878836   2.477410   2.526927
    20  C    6.494238   5.877552   4.765313   4.637480   3.860235
    21  O    6.235304   6.343589   5.400261   5.584003   4.914939
    22  H    5.617250   5.862627   5.105355   5.383913   4.960279
    23  C    8.183361   6.005633   4.717639   3.697960   2.753044
    24  O    9.592117   7.378106   6.103116   5.045037   4.127783
    25  H    9.941443   7.474910   6.292621   5.120839   4.400768
    26  C    7.322160   5.692994   4.299131   3.689278   2.426098
    27  O    8.147859   6.785499   5.442090   4.842381   3.712745
    28  C    7.658758   6.862189   5.584073   5.292387   4.216317
    29  O    8.844253   8.091817   6.871844   6.475033   5.501516
    30  H    9.530033   8.822035   7.545752   7.156990   6.072362
    31  H    7.627753   7.125109   5.812739   5.716170   4.509225
    32  H    6.916215   6.035763   5.032143   4.691746   4.146587
    33  H    5.087662   4.622445   3.397737   3.727005   2.763965
    34  H    6.487171   4.504742   3.361560   2.484532   2.006875
    35  H    7.333439   5.898666   4.465332   4.080118   2.667870
    36  H    8.168474   5.883155   4.717864   3.554648   2.947291
    37  H    7.865763   5.465294   4.224626   3.168430   2.321449
    38  H    4.605842   3.032533   4.215671   4.914044   5.946302
    39  H    2.273570   2.130459   2.582254   3.948569   4.355143
    40  H    2.308992   2.130459   3.334948   4.495743   5.330490
    41  H    3.513383   1.070000   2.058031   2.622480   3.779163
    42  H    4.403002   2.060626   2.660227   3.318992   4.132604
    43  H    5.975477   2.797370   3.326314   2.855800   4.220565
    44  H    6.367918   3.437405   2.798934   2.104224   2.512928
    45  H    5.392987   2.739909   2.091246   1.070000   2.093556
                   16         17         18         19         20
    16  C    0.000000
    17  C    1.519695   0.000000
    18  O    2.465156   1.435460   0.000000
    19  H    2.519358   1.944542   1.000076   0.000000
    20  C    2.540735   1.519518   2.431310   3.263805   0.000000
    21  O    3.764235   2.384608   2.748114   3.659706   1.435026
    22  H    3.949110   2.512844   2.310404   3.252227   1.973331
    23  C    2.294354   3.665080   4.716909   4.753960   4.092170
    24  O    3.691047   4.963403   6.095000   6.179697   5.142859
    25  H    4.225146   5.620159   6.628241   6.607899   5.939388
    26  C    1.520178   2.502345   3.792813   3.949269   2.917923
    27  O    2.470569   2.885638   4.225447   4.681927   2.493918
    28  C    2.868431   2.468358   3.748771   4.409862   1.519869
    29  O    4.096794   3.704739   4.802279   5.585785   2.391077
    30  H    4.725308   4.420327   5.611211   6.347252   3.205747
    31  H    3.340580   2.821591   4.131890   4.704850   2.147100
    32  H    2.800445   2.107665   2.661925   3.538922   1.070000
    33  H    2.089833   1.070000   2.018128   2.270231   2.090744
    34  H    1.070000   2.079536   2.678605   2.843089   2.749850
    35  H    2.184132   2.961699   4.271722   4.304521   3.506322
    36  H    2.330857   3.630367   4.483632   4.603457   3.946834
    37  H    2.478879   3.974671   4.865468   4.678393   4.728185
    38  H    7.148375   7.438549   6.652992   5.692610   8.891143
    39  H    5.318663   5.174096   4.507737   3.575477   6.616886
    40  H    6.236111   6.066996   5.075194   4.191157   7.434009
    41  H    4.479677   4.519511   3.488517   2.695027   5.794486
    42  H    5.443438   5.913313   5.422827   4.431147   7.415268
    43  H    5.256050   6.016732   5.459832   4.699121   7.286447
    44  H    3.853423   5.005452   5.134452   4.390537   6.339342
    45  H    2.523483   3.217102   2.870694   2.423318   4.353662
                   21         22         23         24         25
    21  O    0.000000
    22  H    1.000182   0.000000
    23  C    5.499490   5.893662   0.000000
    24  O    6.545304   7.051075   1.434972   0.000000
    25  H    7.360270   7.788887   1.956400   0.999960   0.000000
    26  C    4.234867   4.730114   1.519542   2.598835   3.358149
    27  O    3.795262   4.465784   2.309092   2.895525   3.828506
    28  C    2.528432   3.348796   3.604801   4.327668   5.252072
    29  O    3.059104   3.894304   4.451804   4.874579   5.813066
    30  H    3.773107   4.683104   4.803563   5.003792   5.978967
    31  H    2.741476   3.653999   4.121309   4.785932   5.733275
    32  H    2.031338   2.260120   4.134586   5.146183   5.873318
    33  H    2.582972   2.846278   4.092982   5.327851   6.019994
    34  H    4.038630   4.111337   2.287332   3.635163   4.068512
    35  H    4.641129   5.200378   2.174698   2.989019   3.719584
    36  H    5.371563   5.650801   1.070000   2.018119   2.354173
    37  H    6.080231   6.379306   1.070000   2.018119   2.105384
    38  H    9.317602   8.807772   8.459084   9.691830   9.572406
    39  H    6.813655   6.411537   7.099089   8.434906   8.631575
    40  H    7.573351   6.977935   8.045906   9.419848   9.537762
    41  H    6.220016   5.624017   6.207596   7.593119   7.693290
    42  H    8.006212   7.664049   6.632721   7.840836   7.762646
    43  H    8.118478   7.707430   6.040845   7.165228   6.902167
    44  H    7.384720   7.319312   4.112752   5.117065   4.885278
    45  H    5.294661   4.999532   3.833342   5.178843   5.280860
                   26         27         28         29         30
    26  C    0.000000
    27  O    1.434853   0.000000
    28  C    2.385445   1.434548   0.000000
    29  O    3.542581   2.216977   1.435178   0.000000
    30  H    3.913777   2.557428   1.974804   0.960000   0.000000
    31  H    2.731392   2.070893   1.070000   2.069862   2.214017
    32  H    3.290636   2.747550   2.104865   2.506137   3.446941
    33  H    2.735407   3.234901   2.698733   4.053067   4.608009
    34  H    2.084441   2.688593   3.203093   4.161318   4.888312
    35  H    1.070000   2.110699   2.836368   4.074703   4.267255
    36  H    2.091380   2.545295   3.718694   4.399226   4.904974
    37  H    2.091380   3.234264   4.414006   5.407781   5.772580
    38  H    8.367090   9.600577   9.797766  11.070331  11.760895
    39  H    6.479786   7.611054   7.499888   8.842467   9.458023
    40  H    7.578465   8.640177   8.516731   9.760444  10.479928
    41  H    5.948292   6.895064   6.919323   8.031050   8.833953
    42  H    6.527562   7.832090   8.134810   9.457364  10.077693
    43  H    6.423553   7.544511   8.064223   9.141552   9.874114
    44  H    4.518626   5.878358   6.636580   7.859377   8.384556
    45  H    3.878108   4.788898   5.169967   6.199734   6.970412
                   31         32         33         34         35
    31  H    0.000000
    32  H    2.997441   0.000000
    33  H    2.624840   2.964975   0.000000
    34  H    3.931312   2.580863   2.944797   0.000000
    35  H    2.771236   4.102176   2.793918   3.000089   0.000000
    36  H    4.457008   3.718896   4.306723   1.826084   3.005572
    37  H    4.817525   4.833791   4.302794   2.590894   2.429068
    38  H    9.981423   9.060440   7.467271   7.329790   8.415752
    39  H    7.461470   7.072896   4.883054   5.855083   6.356287
    40  H    8.637539   7.687880   6.018027   6.519343   7.647626
    41  H    7.310051   5.783338   4.884485   4.439148   6.323458
    42  H    8.274618   7.674834   5.881530   5.755153   6.497917
    43  H    8.555835   7.141008   6.472002   5.007650   6.815754
    44  H    6.920067   6.488427   5.183520   4.031255   4.592729
    45  H    5.759167   4.182257   3.906393   2.147992   4.499923
                   36         37         38         39         40
    36  H    0.000000
    37  H    1.720782   0.000000
    38  H    8.416557   7.683200   0.000000
    39  H    7.239559   6.533771   3.177359   0.000000
    40  H    7.979441   7.490799   2.329494   1.747092   0.000000
    41  H    5.902348   5.781962   3.507045   3.005617   2.520802
    42  H    6.726483   5.823126   2.005497   2.363788   2.657917
    43  H    5.723589   5.332479   3.492508   4.626968   4.258495
    44  H    4.294360   3.148110   4.770500   4.516696   5.216547
    45  H    3.395701   3.535287   5.390695   4.567160   4.831128
                   41         42         43         44         45
    41  H    0.000000
    42  H    2.958739   0.000000
    43  H    2.742201   2.881591   0.000000
    44  H    4.025838   2.977058   2.898405   0.000000
    45  H    2.542553   4.069684   2.971730   2.992793   0.000000
 Stoichiometry    C12H22O11
 Framework group  C1[X(C12H22O11)]
 Deg. of freedom   129
 Full point group                 C1      NOp   1
 Largest Abelian subgroup         C1      NOp   1
 Largest concise Abelian subgroup C1      NOp   1
                         Standard orientation:                         
 ---------------------------------------------------------------------
 Center     Atomic      Atomic             Coordinates (Angstroms)
 Number     Number       Type             X           Y           Z
 ---------------------------------------------------------------------
      1          8           0       -5.071901   -0.749647    0.256133
      2          6           0       -3.835139   -0.125665   -0.116561
      3          6           0       -3.435947    1.278704    0.306794
      4          8           0       -4.454972    2.214528   -0.073525
      5          1           0       -5.322378    1.857561    0.274800
      6          6           0       -1.987029    1.706820    0.138876
      7          8           0       -1.615061    2.738641    1.063841
      8          1           0       -2.121764    3.600393    1.075913
      9          6           0       -3.115519   -2.346553   -0.660555
     10          8           0       -2.269237   -3.446001   -0.292198
     11          1           0       -2.566256   -4.222088   -0.848929
     12          6           0       -2.686057   -1.098555    0.093590
     13          8           0       -1.433404   -0.618279   -0.413963
     14          6           0       -0.991093    0.565280    0.266611
     15          8           0        0.126421    0.621070   -0.631648
     16          6           0        1.412091    0.261559   -0.104670
     17          6           0        1.769704   -1.214435   -0.049636
     18          8           0        0.797369   -2.002037    0.653778
     19          1           0       -0.078835   -1.737996    0.250417
     20          6           0        3.165876   -1.478351    0.488867
     21          8           0        3.387677   -2.895397    0.443198
     22          1           0        2.664893   -3.320505    0.988386
     23          6           0        2.166867    2.424686   -0.228165
     24          8           0        2.995056    3.581334   -0.416344
     25          1           0        2.402592    4.366810   -0.237641
     26          6           0        2.507316    1.057129   -0.796400
     27          8           0        3.816056    0.808871   -0.263136
     28          6           0        4.148248   -0.586646   -0.252624
     29          8           0        5.379224   -0.573738    0.485120
     30          1           0        6.100274   -0.329591   -0.099757
     31          1           0        4.309935   -0.944674   -1.247899
     32          1           0        3.178709   -1.184122    1.517538
     33          1           0        1.765648   -1.562437   -1.061456
     34          1           0        1.407820    0.593204    0.912627
     35          1           0        2.457952    1.022423   -1.864697
     36          1           0        2.062516    2.295833    0.828910
     37          1           0        1.200274    2.679103   -0.610094
     38          1           0       -5.643483   -0.811606   -0.512668
     39          1           0       -3.035159   -2.172131   -1.713180
     40          1           0       -4.130336   -2.580022   -0.414511
     41          1           0       -2.590324   -1.322846    1.135429
     42          1           0       -3.915238   -0.043956   -1.180426
     43          1           0       -3.536644    1.240061    1.371345
     44          1           0       -1.886765    2.109474   -0.847388
     45          1           0       -0.697177    0.368508    1.276460
 ---------------------------------------------------------------------
 Rotational constants (GHZ):      0.3892331      0.1511355      0.1133030
 Standard basis: 6-31+G(2df,p) (6D, 7F)
 There are   846 symmetry adapted basis functions of A   symmetry.
 Integral buffers will be    131072 words long.
 Raffenetti 2 integral format.
 Two-electron integral symmetry is turned on.
   846 basis functions,  1258 primitive gaussians,   915 cartesian basis functions
    91 alpha electrons       91 beta electrons
       nuclear repulsion energy      2285.8439346134 Hartrees.
 NAtoms=   45 NActive=   45 NUniq=   45 SFac= 1.00D+00 NAtFMM=   50 NAOKFM=F Big=F
 One-electron integrals computed using PRISM.
 NBasis=   846 RedAO= T  NBF=   846
 NBsUse=   846 1.00D-06 NBFU=   846
 Harris functional with IExCor=  402 diagonalized for initial guess.
 ExpMin= 4.38D-02 ExpMax= 5.48D+03 ExpMxC= 8.25D+02 IAcc=2 IRadAn=         0 AccDes= 0.00D+00
 HarFok:  IExCor=  402 AccDes= 0.00D+00 IRadAn=         0 IDoV= 1
 ScaDFX=  1.000000  1.000000  1.000000  1.000000
 FoFCou: FMM=F IPFlag=           0 FMFlag=      100000 FMFlg1=           0
         NFxFlg=           0 DoJE=T BraDBF=F KetDBF=T FulRan=T
         Omega=  0.000000  0.000000  1.000000  0.000000  0.000000 ICntrl=     500 IOpCl=  0
         NMat0=    1 NMatS0=    1 NMatT0=    0 NMatD0=    1 NMtDS0=    0 NMtDT0=    0
         I1Cent=           4 NGrid=           0.
 Petite list used in FoFCou.
 Initial guess orbital symmetries:
       Occupied  (A) (A) (A) (A) (A) (A) (A) (A) (A) (A) (A) (A)
                 (A) (A) (A) (A) (A) (A) (A) (A) (A) (A) (A) (A)
                 (A) (A) (A) (A) (A) (A) (A) (A) (A) (A) (A) (A)
                 (A) (A) (A) (A) (A) (A) (A) (A) (A) (A) (A) (A)
                 (A) (A) (A) (A) (A) (A) (A) (A) (A) (A) (A) (A)
                 (A) (A) (A) (A) (A) (A) (A) (A) (A) (A) (A) (A)
                 (A) (A) (A) (A) (A) (A) (A) (A) (A) (A) (A) (A)
                 (A) (A) (A) (A) (A) (A) (A)
       Virtual   (A) (A) (A) (A) (A) (A) (A) (A) (A) (A) (A) (A)
                 (A) (A) (A) (A) (A) (A) (A) (A) (A) (A) (A) (A)
                 (A) (A) (A) (A) (A) (A) (A) (A) (A) (A) (A) (A)
                 (A) (A) (A) (A) (A) (A) (A) (A) (A) (A) (A) (A)
                 (A) (A) (A) (A) (A) (A) (A) (A) (A) (A) (A) (A)
                 (A) (A) (A) (A) (A) (A) (A) (A) (A) (A) (A) (A)
                 (A) (A) (A) (A) (A) (A) (A) (A) (A) (A) (A) (A)
                 (A) (A) (A) (A) (A) (A) (A) (A) (A) (A) (A) (A)
                 (A) (A) (A) (A) (A) (A) (A) (A) (A) (A) (A) (A)
                 (A) (A) (A) (A) (A) (A) (A) (A) (A) (A) (A) (A)
                 (A) (A) (A) (A) (A) (A) (A) (A) (A) (A) (A) (A)
                 (A) (A) (A) (A) (A) (A) (A) (A) (A) (A) (A) (A)
                 (A) (A) (A) (A) (A) (A) (A) (A) (A) (A) (A) (A)
                 (A) (A) (A) (A) (A) (A) (A) (A) (A) (A) (A) (A)
                 (A) (A) (A) (A) (A) (A) (A) (A) (A) (A) (A) (A)
                 (A) (A) (A) (A) (A) (A) (A) (A) (A) (A) (A) (A)
                 (A) (A) (A) (A) (A) (A) (A) (A) (A) (A) (A) (A)
                 (A) (A) (A) (A) (A) (A) (A) (A) (A) (A) (A) (A)
                 (A) (A) (A) (A) (A) (A) (A) (A) (A) (A) (A) (A)
                 (A) (A) (A) (A) (A) (A) (A) (A) (A) (A) (A) (A)
                 (A) (A) (A) (A) (A) (A) (A) (A) (A) (A) (A) (A)
                 (A) (A) (A) (A) (A) (A) (A) (A) (A) (A) (A) (A)
                 (A) (A) (A) (A) (A) (A) (A) (A) (A) (A) (A) (A)
                 (A) (A) (A) (A) (A) (A) (A) (A) (A) (A) (A) (A)
                 (A) (A) (A) (A) (A) (A) (A) (A) (A) (A) (A) (A)
                 (A) (A) (A) (A) (A) (A) (A) (A) (A) (A) (A) (A)
                 (A) (A) (A) (A) (A) (A) (A) (A) (A) (A) (A) (A)
                 (A) (A) (A) (A) (A) (A) (A) (A) (A) (A) (A) (A)
                 (A) (A) (A) (A) (A) (A) (A) (A) (A) (A) (A) (A)
                 (A) (A) (A) (A) (A) (A) (A) (A) (A) (A) (A) (A)
                 (A) (A) (A) (A) (A) (A) (A) (A) (A) (A) (A) (A)
                 (A) (A) (A) (A) (A) (A) (A) (A) (A) (A) (A) (A)
                 (A) (A) (A) (A) (A) (A) (A) (A) (A) (A) (A) (A)
                 (A) (A) (A) (A) (A) (A) (A) (A) (A) (A) (A) (A)
                 (A) (A) (A) (A) (A) (A) (A) (A) (A) (A) (A) (A)
                 (A) (A) (A) (A) (A) (A) (A) (A) (A) (A) (A) (A)
                 (A) (A) (A) (A) (A) (A) (A) (A) (A) (A) (A) (A)
                 (A) (A) (A) (A) (A) (A) (A) (A) (A) (A) (A) (A)
                 (A) (A) (A) (A) (A) (A) (A) (A) (A) (A) (A) (A)
                 (A) (A) (A) (A) (A) (A) (A) (A) (A) (A) (A) (A)
                 (A) (A) (A) (A) (A) (A) (A) (A) (A) (A) (A) (A)
                 (A) (A) (A) (A) (A) (A) (A) (A) (A) (A) (A) (A)
                 (A) (A) (A) (A) (A) (A) (A) (A) (A) (A) (A) (A)
                 (A) (A) (A) (A) (A) (A) (A) (A) (A) (A) (A) (A)
                 (A) (A) (A) (A) (A) (A) (A) (A) (A) (A) (A) (A)
                 (A) (A) (A) (A) (A) (A) (A) (A) (A) (A) (A) (A)
                 (A) (A) (A) (A) (A) (A) (A) (A) (A) (A) (A) (A)
                 (A) (A) (A) (A) (A) (A) (A) (A) (A) (A) (A) (A)
                 (A) (A) (A) (A) (A) (A) (A) (A) (A) (A) (A) (A)
                 (A) (A) (A) (A) (A) (A) (A) (A) (A) (A) (A) (A)
                 (A) (A) (A) (A) (A) (A) (A) (A) (A) (A) (A) (A)
                 (A) (A) (A) (A) (A) (A) (A) (A) (A) (A) (A) (A)
                 (A) (A) (A) (A) (A) (A) (A) (A) (A) (A) (A) (A)
                 (A) (A) (A) (A) (A) (A) (A) (A) (A) (A) (A) (A)
                 (A) (A) (A) (A) (A) (A) (A) (A) (A) (A) (A) (A)
                 (A) (A) (A) (A) (A) (A) (A) (A) (A) (A) (A) (A)
                 (A) (A) (A) (A) (A) (A) (A) (A) (A) (A) (A) (A)
                 (A) (A) (A) (A) (A) (A) (A) (A) (A) (A) (A) (A)
                 (A) (A) (A) (A) (A) (A) (A) (A) (A) (A) (A) (A)
                 (A) (A) (A) (A) (A) (A) (A) (A) (A) (A) (A) (A)
                 (A) (A) (A) (A) (A) (A) (A) (A) (A) (A) (A) (A)
                 (A) (A) (A) (A) (A) (A) (A) (A) (A) (A) (A) (A)
                 (A) (A) (A) (A) (A) (A) (A) (A) (A) (A) (A)
 The electronic state of the initial guess is 1-A.
 Requested convergence on RMS density matrix=1.00D-08 within 128 cycles.
 Requested convergence on MAX density matrix=1.00D-06.
 Requested convergence on             energy=1.00D-06.
 No special actions if energy rises.
 SCF Done:  E(RB3LYP) =  -1297.96439718     A.U. after   13 cycles
             Convg  =    0.4260D-08             -V/T =  2.0064
 Range of M.O.s used for correlation:     1   846
 NBasis=   846 NAE=    91 NBE=    91 NFC=     0 NFV=     0
 NROrb=    846 NOA=    91 NOB=    91 NVA=   755 NVB=   755

 **** Warning!!: The largest alpha MO coefficient is  0.88433150D+02

          Differentiating once with respect to electric field.
                with respect to dipole field.
          Electric field/nuclear overlap derivatives assumed to be zero.
          There are     3 degrees of freedom in the 1st order CPHF.  IDoFFX=0.
      3 vectors produced by pass  0 Test12= 2.29D-12 3.33D-08 XBig12= 1.21D+02 1.53D+00.
 AX will form     3 AO Fock derivatives at one time.
      3 vectors produced by pass  1 Test12= 2.29D-12 3.33D-08 XBig12= 2.64D+01 4.94D-01.
      3 vectors produced by pass  2 Test12= 2.29D-12 3.33D-08 XBig12= 1.13D+01 3.51D-01.
      3 vectors produced by pass  3 Test12= 2.29D-12 3.33D-08 XBig12= 1.26D+00 9.97D-02.
      3 vectors produced by pass  4 Test12= 2.29D-12 3.33D-08 XBig12= 4.43D-01 5.90D-02.
      3 vectors produced by pass  5 Test12= 2.29D-12 3.33D-08 XBig12= 7.66D-02 2.11D-02.
      3 vectors produced by pass  6 Test12= 2.29D-12 3.33D-08 XBig12= 2.41D-02 1.66D-02.
      3 vectors produced by pass  7 Test12= 2.29D-12 3.33D-08 XBig12= 3.70D-03 7.70D-03.
      3 vectors produced by pass  8 Test12= 2.29D-12 3.33D-08 XBig12= 6.50D-04 2.59D-03.
      3 vectors produced by pass  9 Test12= 2.29D-12 3.33D-08 XBig12= 1.75D-04 1.38D-03.
      3 vectors produced by pass 10 Test12= 2.29D-12 3.33D-08 XBig12= 5.15D-05 5.52D-04.
      3 vectors produced by pass 11 Test12= 2.29D-12 3.33D-08 XBig12= 1.23D-05 3.13D-04.
      3 vectors produced by pass 12 Test12= 2.29D-12 3.33D-08 XBig12= 1.24D-06 1.06D-04.
      3 vectors produced by pass 13 Test12= 2.29D-12 3.33D-08 XBig12= 2.15D-07 3.54D-05.
      3 vectors produced by pass 14 Test12= 2.29D-12 3.33D-08 XBig12= 6.11D-08 1.76D-05.
      3 vectors produced by pass 15 Test12= 2.29D-12 3.33D-08 XBig12= 1.34D-08 1.07D-05.
      3 vectors produced by pass 16 Test12= 2.29D-12 3.33D-08 XBig12= 2.97D-09 4.09D-06.
      3 vectors produced by pass 17 Test12= 2.29D-12 3.33D-08 XBig12= 3.38D-10 1.61D-06.
      3 vectors produced by pass 18 Test12= 2.29D-12 3.33D-08 XBig12= 4.23D-11 4.53D-07.
      3 vectors produced by pass 19 Test12= 2.29D-12 3.33D-08 XBig12= 1.55D-11 2.28D-07.
      3 vectors produced by pass 20 Test12= 2.29D-12 3.33D-08 XBig12= 7.01D-12 1.73D-07.
      3 vectors produced by pass 21 Test12= 2.29D-12 3.33D-08 XBig12= 1.72D-12 7.87D-08.
      1 vectors produced by pass 22 Test12= 2.29D-12 3.33D-08 XBig12= 3.26D-13 5.58D-08.
 Inverted reduced A of dimension    67 with in-core refinement.
 End of Minotr Frequency-dependent properties file   721 does not exist.
 End of Minotr Frequency-dependent properties file   722 does not exist.
 Symmetrizing basis deriv contribution to polar:
 IMax=3 JMax=2 DiffMx= 0.00D+00
 G2DrvN: will do     8 centers at a time, making    6 passes doing MaxLOS=3.
 Calling FoFCou, ICntrl=  3107 FMM=F I1Cent=   0 AccDes= 0.00D+00.
 Calling FoFCou, ICntrl=  3107 FMM=F I1Cent=   0 AccDes= 0.00D+00.
 Calling FoFCou, ICntrl=  3107 FMM=F I1Cent=   0 AccDes= 0.00D+00.
 Calling FoFCou, ICntrl=  3107 FMM=F I1Cent=   0 AccDes= 0.00D+00.
 Calling FoFCou, ICntrl=  3107 FMM=F I1Cent=   0 AccDes= 0.00D+00.
 Calling FoFCou, ICntrl=  3107 FMM=F I1Cent=   0 AccDes= 0.00D+00.
 FoFDir/FoFCou used for L=0 through L=3.
 End of G2Drv Frequency-dependent properties file   721 does not exist.
 End of G2Drv Frequency-dependent properties file   722 does not exist.
          IDoAtm=111111111111111111111111111111111111111111111
          Differentiating once with respect to electric field.
                with respect to dipole field.
          Differentiating once with respect to nuclear coordinates.
          There are   138 degrees of freedom in the 1st order CPHF.  IDoFFX=5.
 Will reuse    3 saved solutions.
    135 vectors produced by pass  0 Test12= 6.87D-14 1.00D-09 XBig12= 1.81D-01 5.72D-02.
 AX will form    27 AO Fock derivatives at one time.
    135 vectors produced by pass  1 Test12= 6.87D-14 1.00D-09 XBig12= 1.88D-02 1.48D-02.
    132 vectors produced by pass  2 Test12= 6.87D-14 1.00D-09 XBig12= 1.48D-04 1.54D-03.
    132 vectors produced by pass  3 Test12= 6.87D-14 1.00D-09 XBig12= 6.85D-07 8.16D-05.
    132 vectors produced by pass  4 Test12= 6.87D-14 1.00D-09 XBig12= 1.86D-09 3.41D-06.
    132 vectors produced by pass  5 Test12= 6.87D-14 1.00D-09 XBig12= 6.23D-12 1.27D-07.
     99 vectors produced by pass  6 Test12= 6.87D-14 1.00D-09 XBig12= 2.59D-13 2.73D-08.
      3 vectors produced by pass  7 Test12= 6.87D-14 1.00D-09 XBig12= 1.33D-15 2.08D-09.
 Inverted reduced A of dimension   900 with in-core refinement.
 Isotropic polarizability for W=    0.000000      191.24 Bohr**3.
 End of Minotr Frequency-dependent properties file   721 does not exist.
 End of Minotr Frequency-dependent properties file   722 does not exist.

 **********************************************************************

            Population analysis using the SCF density.

 **********************************************************************

 Orbital symmetries:
       Occupied  (A) (A) (A) (A) (A) (A) (A) (A) (A) (A) (A) (A)
                 (A) (A) (A) (A) (A) (A) (A) (A) (A) (A) (A) (A)
                 (A) (A) (A) (A) (A) (A) (A) (A) (A) (A) (A) (A)
                 (A) (A) (A) (A) (A) (A) (A) (A) (A) (A) (A) (A)
                 (A) (A) (A) (A) (A) (A) (A) (A) (A) (A) (A) (A)
                 (A) (A) (A) (A) (A) (A) (A) (A) (A) (A) (A) (A)
                 (A) (A) (A) (A) (A) (A) (A) (A) (A) (A) (A) (A)
                 (A) (A) (A) (A) (A) (A) (A)
       Virtual   (A) (A) (A) (A) (A) (A) (A) (A) (A) (A) (A) (A)
                 (A) (A) (A) (A) (A) (A) (A) (A) (A) (A) (A) (A)
                 (A) (A) (A) (A) (A) (A) (A) (A) (A) (A) (A) (A)
                 (A) (A) (A) (A) (A) (A) (A) (A) (A) (A) (A) (A)
                 (A) (A) (A) (A) (A) (A) (A) (A) (A) (A) (A) (A)
                 (A) (A) (A) (A) (A) (A) (A) (A) (A) (A) (A) (A)
                 (A) (A) (A) (A) (A) (A) (A) (A) (A) (A) (A) (A)
                 (A) (A) (A) (A) (A) (A) (A) (A) (A) (A) (A) (A)
                 (A) (A) (A) (A) (A) (A) (A) (A) (A) (A) (A) (A)
                 (A) (A) (A) (A) (A) (A) (A) (A) (A) (A) (A) (A)
                 (A) (A) (A) (A) (A) (A) (A) (A) (A) (A) (A) (A)
                 (A) (A) (A) (A) (A) (A) (A) (A) (A) (A) (A) (A)
                 (A) (A) (A) (A) (A) (A) (A) (A) (A) (A) (A) (A)
                 (A) (A) (A) (A) (A) (A) (A) (A) (A) (A) (A) (A)
                 (A) (A) (A) (A) (A) (A) (A) (A) (A) (A) (A) (A)
                 (A) (A) (A) (A) (A) (A) (A) (A) (A) (A) (A) (A)
                 (A) (A) (A) (A) (A) (A) (A) (A) (A) (A) (A) (A)
                 (A) (A) (A) (A) (A) (A) (A) (A) (A) (A) (A) (A)
                 (A) (A) (A) (A) (A) (A) (A) (A) (A) (A) (A) (A)
                 (A) (A) (A) (A) (A) (A) (A) (A) (A) (A) (A) (A)
                 (A) (A) (A) (A) (A) (A) (A) (A) (A) (A) (A) (A)
                 (A) (A) (A) (A) (A) (A) (A) (A) (A) (A) (A) (A)
                 (A) (A) (A) (A) (A) (A) (A) (A) (A) (A) (A) (A)
                 (A) (A) (A) (A) (A) (A) (A) (A) (A) (A) (A) (A)
                 (A) (A) (A) (A) (A) (A) (A) (A) (A) (A) (A) (A)
                 (A) (A) (A) (A) (A) (A) (A) (A) (A) (A) (A) (A)
                 (A) (A) (A) (A) (A) (A) (A) (A) (A) (A) (A) (A)
                 (A) (A) (A) (A) (A) (A) (A) (A) (A) (A) (A) (A)
                 (A) (A) (A) (A) (A) (A) (A) (A) (A) (A) (A) (A)
                 (A) (A) (A) (A) (A) (A) (A) (A) (A) (A) (A) (A)
                 (A) (A) (A) (A) (A) (A) (A) (A) (A) (A) (A) (A)
                 (A) (A) (A) (A) (A) (A) (A) (A) (A) (A) (A) (A)
                 (A) (A) (A) (A) (A) (A) (A) (A) (A) (A) (A) (A)
                 (A) (A) (A) (A) (A) (A) (A) (A) (A) (A) (A) (A)
                 (A) (A) (A) (A) (A) (A) (A) (A) (A) (A) (A) (A)
                 (A) (A) (A) (A) (A) (A) (A) (A) (A) (A) (A) (A)
                 (A) (A) (A) (A) (A) (A) (A) (A) (A) (A) (A) (A)
                 (A) (A) (A) (A) (A) (A) (A) (A) (A) (A) (A) (A)
                 (A) (A) (A) (A) (A) (A) (A) (A) (A) (A) (A) (A)
                 (A) (A) (A) (A) (A) (A) (A) (A) (A) (A) (A) (A)
                 (A) (A) (A) (A) (A) (A) (A) (A) (A) (A) (A) (A)
                 (A) (A) (A) (A) (A) (A) (A) (A) (A) (A) (A) (A)
                 (A) (A) (A) (A) (A) (A) (A) (A) (A) (A) (A) (A)
                 (A) (A) (A) (A) (A) (A) (A) (A) (A) (A) (A) (A)
                 (A) (A) (A) (A) (A) (A) (A) (A) (A) (A) (A) (A)
                 (A) (A) (A) (A) (A) (A) (A) (A) (A) (A) (A) (A)
                 (A) (A) (A) (A) (A) (A) (A) (A) (A) (A) (A) (A)
                 (A) (A) (A) (A) (A) (A) (A) (A) (A) (A) (A) (A)
                 (A) (A) (A) (A) (A) (A) (A) (A) (A) (A) (A) (A)
                 (A) (A) (A) (A) (A) (A) (A) (A) (A) (A) (A) (A)
                 (A) (A) (A) (A) (A) (A) (A) (A) (A) (A) (A) (A)
                 (A) (A) (A) (A) (A) (A) (A) (A) (A) (A) (A) (A)
                 (A) (A) (A) (A) (A) (A) (A) (A) (A) (A) (A) (A)
                 (A) (A) (A) (A) (A) (A) (A) (A) (A) (A) (A) (A)
                 (A) (A) (A) (A) (A) (A) (A) (A) (A) (A) (A) (A)
                 (A) (A) (A) (A) (A) (A) (A) (A) (A) (A) (A) (A)
                 (A) (A) (A) (A) (A) (A) (A) (A) (A) (A) (A) (A)
                 (A) (A) (A) (A) (A) (A) (A) (A) (A) (A) (A) (A)
                 (A) (A) (A) (A) (A) (A) (A) (A) (A) (A) (A) (A)
                 (A) (A) (A) (A) (A) (A) (A) (A) (A) (A) (A) (A)
                 (A) (A) (A) (A) (A) (A) (A) (A) (A) (A) (A) (A)
                 (A) (A) (A) (A) (A) (A) (A) (A) (A) (A) (A) (A)
                 (A) (A) (A) (A) (A) (A) (A) (A) (A) (A) (A)
 The electronic state is 1-A.
 Alpha  occ. eigenvalues --  -19.19536 -19.19336 -19.18253 -19.18121 -19.17535
 Alpha  occ. eigenvalues --  -19.16493 -19.16447 -19.14964 -19.14708 -19.14593
 Alpha  occ. eigenvalues --  -19.14389 -10.32126 -10.28936 -10.28091 -10.26836
 Alpha  occ. eigenvalues --  -10.26741 -10.25699 -10.24711 -10.24519 -10.24312
 Alpha  occ. eigenvalues --  -10.23887 -10.23280 -10.21922  -1.11563  -1.07501
 Alpha  occ. eigenvalues --   -1.07263  -1.05413  -1.03893  -1.03669  -1.02795
 Alpha  occ. eigenvalues --   -1.02390  -1.01116  -1.00276  -0.99789  -0.82787
 Alpha  occ. eigenvalues --   -0.82245  -0.78977  -0.77999  -0.72347  -0.69233
 Alpha  occ. eigenvalues --   -0.68003  -0.65202  -0.63550  -0.61978  -0.61388
 Alpha  occ. eigenvalues --   -0.59498  -0.57655  -0.57040  -0.55390  -0.54237
 Alpha  occ. eigenvalues --   -0.53798  -0.53431  -0.53138  -0.52172  -0.51121
 Alpha  occ. eigenvalues --   -0.50635  -0.49296  -0.49074  -0.48510  -0.46793
 Alpha  occ. eigenvalues --   -0.45901  -0.45093  -0.44468  -0.43997  -0.43417
 Alpha  occ. eigenvalues --   -0.42906  -0.41913  -0.40997  -0.40109  -0.39772
 Alpha  occ. eigenvalues --   -0.37875  -0.37712  -0.37043  -0.36578  -0.36043
 Alpha  occ. eigenvalues --   -0.35910  -0.35423  -0.34265  -0.34105  -0.33369
 Alpha  occ. eigenvalues --   -0.33019  -0.31294  -0.30895  -0.30291  -0.29650
 Alpha  occ. eigenvalues --   -0.29532  -0.28767  -0.28286  -0.27228  -0.27159
 Alpha  occ. eigenvalues --   -0.25992
 Alpha virt. eigenvalues --   -0.03475  -0.02032  -0.01189  -0.00371   0.00722
 Alpha virt. eigenvalues --    0.00794   0.01433   0.01661   0.01981   0.02858
 Alpha virt. eigenvalues --    0.03184   0.04253   0.04783   0.05107   0.05857
 Alpha virt. eigenvalues --    0.06243   0.06678   0.06807   0.06978   0.08075
 Alpha virt. eigenvalues --    0.08452   0.09010   0.09300   0.09741   0.09938
 Alpha virt. eigenvalues --    0.10219   0.10798   0.10948   0.11315   0.11894
 Alpha virt. eigenvalues --    0.12156   0.12285   0.12609   0.13225   0.13661
 Alpha virt. eigenvalues --    0.13981   0.14493   0.14654   0.14946   0.15431
 Alpha virt. eigenvalues --    0.15626   0.15878   0.15983   0.16372   0.16743
 Alpha virt. eigenvalues --    0.16827   0.17556   0.17761   0.18227   0.18380
 Alpha virt. eigenvalues --    0.18639   0.18967   0.19129   0.19613   0.19877
 Alpha virt. eigenvalues --    0.19923   0.20119   0.20723   0.21181   0.21290
 Alpha virt. eigenvalues --    0.21780   0.21997   0.22605   0.22737   0.23131
 Alpha virt. eigenvalues --    0.23597   0.23956   0.24116   0.24340   0.24355
 Alpha virt. eigenvalues --    0.24654   0.25059   0.25351   0.25521   0.25845
 Alpha virt. eigenvalues --    0.26236   0.26439   0.26747   0.26921   0.26981
 Alpha virt. eigenvalues --    0.27770   0.28075   0.28180   0.28623   0.28944
 Alpha virt. eigenvalues --    0.29231   0.29572   0.29963   0.30026   0.30332
 Alpha virt. eigenvalues --    0.30797   0.31040   0.31704   0.31854   0.32159
 Alpha virt. eigenvalues --    0.32811   0.32894   0.33257   0.33409   0.34283
 Alpha virt. eigenvalues --    0.34392   0.34804   0.35182   0.35471   0.35840
 Alpha virt. eigenvalues --    0.35977   0.36238   0.36595   0.36958   0.37252
 Alpha virt. eigenvalues --    0.38145   0.38266   0.38430   0.38827   0.39510
 Alpha virt. eigenvalues --    0.39725   0.40081   0.40143   0.40335   0.40969
 Alpha virt. eigenvalues --    0.41468   0.41820   0.42311   0.42716   0.43220
 Alpha virt. eigenvalues --    0.43509   0.44310   0.44663   0.45077   0.46167
 Alpha virt. eigenvalues --    0.46693   0.46993   0.47528   0.48754   0.49783
 Alpha virt. eigenvalues --    0.50170   0.51320   0.54509   0.55513   0.57329
 Alpha virt. eigenvalues --    0.58083   0.59893   0.60855   0.61133   0.61954
 Alpha virt. eigenvalues --    0.62619   0.63253   0.64137   0.64464   0.65818
 Alpha virt. eigenvalues --    0.66490   0.66835   0.67494   0.68039   0.69301
 Alpha virt. eigenvalues --    0.70001   0.70397   0.71096   0.72128   0.72474
 Alpha virt. eigenvalues --    0.73552   0.73874   0.74586   0.75109   0.76380
 Alpha virt. eigenvalues --    0.77216   0.78037   0.78909   0.79396   0.80340
 Alpha virt. eigenvalues --    0.81066   0.83300   0.83505   0.84759   0.85004
 Alpha virt. eigenvalues --    0.86191   0.87199   0.87824   0.88363   0.88754
 Alpha virt. eigenvalues --    0.89128   0.89636   0.90064   0.90405   0.90883
 Alpha virt. eigenvalues --    0.91394   0.92118   0.92537   0.93024   0.93047
 Alpha virt. eigenvalues --    0.93518   0.94185   0.94640   0.95107   0.95643
 Alpha virt. eigenvalues --    0.95682   0.96102   0.96190   0.97390   0.98252
 Alpha virt. eigenvalues --    0.98728   0.98920   0.99492   1.00511   1.01508
 Alpha virt. eigenvalues --    1.01874   1.03080   1.03236   1.04093   1.04602
 Alpha virt. eigenvalues --    1.05333   1.06315   1.06665   1.06856   1.07449
 Alpha virt. eigenvalues --    1.08523   1.09084   1.09420   1.10142   1.10568
 Alpha virt. eigenvalues --    1.10965   1.11954   1.12703   1.13500   1.14131
 Alpha virt. eigenvalues --    1.14512   1.14907   1.15223   1.16270   1.16645
 Alpha virt. eigenvalues --    1.16828   1.17580   1.18158   1.18405   1.18624
 Alpha virt. eigenvalues --    1.18992   1.19592   1.20188   1.20812   1.21113
 Alpha virt. eigenvalues --    1.21723   1.22220   1.22230   1.22997   1.23989
 Alpha virt. eigenvalues --    1.24576   1.25039   1.25656   1.26191   1.26709
 Alpha virt. eigenvalues --    1.27018   1.28210   1.29070   1.29443   1.30215
 Alpha virt. eigenvalues --    1.30789   1.31618   1.31929   1.32371   1.32994
 Alpha virt. eigenvalues --    1.33079   1.33491   1.34470   1.34755   1.35471
 Alpha virt. eigenvalues --    1.35811   1.36970   1.37711   1.38998   1.39327
 Alpha virt. eigenvalues --    1.39463   1.40990   1.41235   1.41623   1.42652
 Alpha virt. eigenvalues --    1.43402   1.44197   1.44867   1.45421   1.46863
 Alpha virt. eigenvalues --    1.47532   1.49298   1.49940   1.50150   1.51037
 Alpha virt. eigenvalues --    1.51917   1.52884   1.53025   1.54895   1.55003
 Alpha virt. eigenvalues --    1.55581   1.56839   1.57768   1.58689   1.59096
 Alpha virt. eigenvalues --    1.60000   1.60639   1.61797   1.61879   1.63003
 Alpha virt. eigenvalues --    1.63395   1.64269   1.65947   1.66840   1.67189
 Alpha virt. eigenvalues --    1.68283   1.68668   1.69459   1.70313   1.71524
 Alpha virt. eigenvalues --    1.72033   1.73999   1.75741   1.75934   1.76599
 Alpha virt. eigenvalues --    1.77992   1.78251   1.80325   1.80678   1.81968
 Alpha virt. eigenvalues --    1.82875   1.83374   1.83862   1.85816   1.86460
 Alpha virt. eigenvalues --    1.87017   1.87597   1.88585   1.89256   1.90309
 Alpha virt. eigenvalues --    1.90907   1.92220   1.92520   1.93273   1.94912
 Alpha virt. eigenvalues --    1.96240   1.97187   1.97599   1.99139   1.99665
 Alpha virt. eigenvalues --    2.00508   2.01649   2.03959   2.04166   2.06354
 Alpha virt. eigenvalues --    2.07229   2.07413   2.09448   2.11637   2.13160
 Alpha virt. eigenvalues --    2.13857   2.15049   2.16603   2.17769   2.18290
 Alpha virt. eigenvalues --    2.19552   2.22061   2.22973   2.25080   2.25413
 Alpha virt. eigenvalues --    2.26560   2.26698   2.28010   2.28739   2.32685
 Alpha virt. eigenvalues --    2.33151   2.35955   2.38203   2.41779   2.42834
 Alpha virt. eigenvalues --    2.45868   2.47996   2.48809   2.49029   2.50166
 Alpha virt. eigenvalues --    2.52141   2.52358   2.53698   2.54119   2.54399
 Alpha virt. eigenvalues --    2.56248   2.56609   2.57965   2.58575   2.59114
 Alpha virt. eigenvalues --    2.60325   2.62157   2.63197   2.63640   2.64704
 Alpha virt. eigenvalues --    2.64877   2.66088   2.67134   2.68448   2.69284
 Alpha virt. eigenvalues --    2.72327   2.73587   2.73833   2.74892   2.77067
 Alpha virt. eigenvalues --    2.78356   2.79304   2.80406   2.82149   2.83558
 Alpha virt. eigenvalues --    2.83808   2.85225   2.86561   2.86710   2.88284
 Alpha virt. eigenvalues --    2.88852   2.91579   2.91800   2.93079   2.93691
 Alpha virt. eigenvalues --    2.95147   2.95229   2.95831   2.97151   2.98337
 Alpha virt. eigenvalues --    2.99421   3.00081   3.00189   3.01152   3.02570
 Alpha virt. eigenvalues --    3.03134   3.03648   3.04403   3.05381   3.06249
 Alpha virt. eigenvalues --    3.06961   3.07942   3.08795   3.09170   3.09907
 Alpha virt. eigenvalues --    3.11460   3.12850   3.14491   3.16014   3.16424
 Alpha virt. eigenvalues --    3.17220   3.17895   3.20351   3.20812   3.21524
 Alpha virt. eigenvalues --    3.23135   3.24549   3.25764   3.26300   3.28618
 Alpha virt. eigenvalues --    3.28864   3.29845   3.31782   3.32490   3.33028
 Alpha virt. eigenvalues --    3.33591   3.35680   3.35899   3.37369   3.38203
 Alpha virt. eigenvalues --    3.39345   3.41227   3.41709   3.43609   3.44228
 Alpha virt. eigenvalues --    3.47301   3.48243   3.49142   3.51357   3.54003
 Alpha virt. eigenvalues --    3.54799   3.55639   3.56365   3.57447   3.57891
 Alpha virt. eigenvalues --    3.59086   3.62388   3.64081   3.65165   3.65936
 Alpha virt. eigenvalues --    3.68037   3.68703   3.69295   3.70590   3.73364
 Alpha virt. eigenvalues --    3.74856   3.75081   3.76683   3.77968   3.78996
 Alpha virt. eigenvalues --    3.80326   3.80842   3.83265   3.84814   3.86486
 Alpha virt. eigenvalues --    3.87512   3.88574   3.90141   3.91040   3.92324
 Alpha virt. eigenvalues --    3.93895   3.95819   3.97675   4.00642   4.03867
 Alpha virt. eigenvalues --    4.04073   4.07885   4.11203   4.12197   4.13758
 Alpha virt. eigenvalues --    4.14612   4.15237   4.16068   4.17800   4.18598
 Alpha virt. eigenvalues --    4.19446   4.20318   4.21329   4.22706   4.23365
 Alpha virt. eigenvalues --    4.24959   4.25742   4.28048   4.28438   4.30026
 Alpha virt. eigenvalues --    4.31296   4.31911   4.32657   4.33880   4.34054
 Alpha virt. eigenvalues --    4.35414   4.36664   4.37479   4.37717   4.39684
 Alpha virt. eigenvalues --    4.39862   4.40272   4.41116   4.41997   4.42601
 Alpha virt. eigenvalues --    4.43721   4.43957   4.45214   4.45636   4.46435
 Alpha virt. eigenvalues --    4.47174   4.48098   4.48958   4.50009   4.50790
 Alpha virt. eigenvalues --    4.51657   4.52446   4.53142   4.53591   4.54724
 Alpha virt. eigenvalues --    4.55742   4.56813   4.57072   4.57141   4.58059
 Alpha virt. eigenvalues --    4.58426   4.59375   4.59714   4.60970   4.61435
 Alpha virt. eigenvalues --    4.62158   4.63004   4.63764   4.64494   4.64988
 Alpha virt. eigenvalues --    4.65905   4.66796   4.67991   4.68396   4.68575
 Alpha virt. eigenvalues --    4.69808   4.70830   4.71157   4.71618   4.73348
 Alpha virt. eigenvalues --    4.73706   4.74139   4.75326   4.75736   4.75997
 Alpha virt. eigenvalues --    4.76098   4.77240   4.77491   4.78354   4.78654
 Alpha virt. eigenvalues --    4.80255   4.80571   4.80822   4.81899   4.82902
 Alpha virt. eigenvalues --    4.82964   4.83341   4.83435   4.84588   4.86682
 Alpha virt. eigenvalues --    4.87318   4.88065   4.89374   4.89978   4.90436
 Alpha virt. eigenvalues --    4.91329   4.92600   4.93536   4.94580   4.96041
 Alpha virt. eigenvalues --    4.97142   4.98406   4.99402   4.99778   5.02074
 Alpha virt. eigenvalues --    5.03896   5.05215   5.08632   5.09007   5.10552
 Alpha virt. eigenvalues --    5.12673   5.13027   5.15201   5.16210   5.17467
 Alpha virt. eigenvalues --    5.18056   5.20722   5.22406   5.22898   5.23433
 Alpha virt. eigenvalues --    5.24335   5.24713   5.25231   5.25714   5.28146
 Alpha virt. eigenvalues --    5.29304   5.30718   5.33213   5.34209   5.36040
 Alpha virt. eigenvalues --    5.36744   5.38463   5.38773   5.39792   5.40301
 Alpha virt. eigenvalues --    5.40338   5.41038   5.41589   5.41750   5.42578
 Alpha virt. eigenvalues --    5.43582   5.44319   5.45575   5.46428   5.47067
 Alpha virt. eigenvalues --    5.47884   5.49425   5.50488   5.51220   5.52250
 Alpha virt. eigenvalues --    5.53140   5.54802   5.55506   5.56582   5.57656
 Alpha virt. eigenvalues --    5.58393   5.59626   5.60433   5.62601   5.64756
 Alpha virt. eigenvalues --    5.66003   5.68377   5.69634   5.71473   5.73697
 Alpha virt. eigenvalues --    5.75091   5.78050   5.79269   5.80374   5.81937
 Alpha virt. eigenvalues --    5.83727   5.86049   5.86300   5.89537   5.89606
 Alpha virt. eigenvalues --    5.90556   5.91492   5.92329   5.92550   5.96075
 Alpha virt. eigenvalues --    5.96571   5.97057   5.97772   5.99607   6.00087
 Alpha virt. eigenvalues --    6.00616   6.01502   6.03397   6.04328   6.05115
 Alpha virt. eigenvalues --    6.05972   6.07327   6.08244   6.10547   6.12647
 Alpha virt. eigenvalues --    6.12865   6.15258   6.19619   6.20009   6.22283
 Alpha virt. eigenvalues --    6.23288   6.28302   6.31740   6.40116   6.44874
 Alpha virt. eigenvalues --    6.52853   6.74282   6.95260   6.98999   7.07191
 Alpha virt. eigenvalues --    7.10264   7.13609   7.16226   7.20954   7.27647
 Alpha virt. eigenvalues --    7.31988   7.39329   7.44224   7.54436   7.61861
 Alpha virt. eigenvalues --    7.80871   8.07502  12.00900  12.11731  12.21016
 Alpha virt. eigenvalues --   12.25267  12.41754  12.61879  12.82954  12.91358
 Alpha virt. eigenvalues --   12.98728  13.06774  13.16397  13.32643  13.34198
 Alpha virt. eigenvalues --   13.39770  13.40912  13.48861  13.58559  13.59856
 Alpha virt. eigenvalues --   13.66057  13.70356  14.02821  14.17626  14.45597
          Condensed to atoms (all electrons):
              1          2          3          4          5          6
     1  O    8.098527   0.444724  -0.086158  -0.000768   0.013357  -0.005004
     2  C    0.444724   7.429089  -1.140876   0.002637  -0.043044   0.214057
     3  C   -0.086158  -1.140876   8.119500   0.117710  -0.014588  -1.200697
     4  O   -0.000768   0.002637   0.117710   8.117433   0.253420   0.011732
     5  H    0.013357  -0.043044  -0.014588   0.253420   0.407451   0.030256
     6  C   -0.005004   0.214057  -1.200697   0.011732   0.030256   9.350991
     7  O   -0.000166  -0.005424   0.003896   0.000795  -0.000601   0.126898
     8  H   -0.000030   0.001605  -0.035903   0.002989  -0.000091   0.012543
     9  C   -0.082022   0.214246  -0.303782   0.008225  -0.002534   0.110272
    10  O    0.000501   0.028356   0.005013   0.000025  -0.000001  -0.013243
    11  H    0.000343   0.003049   0.000982   0.000000   0.000000   0.000646
    12  C   -0.155529  -1.251581  -0.088321   0.021056   0.009495  -0.276730
    13  O    0.002983  -0.020651  -0.038511  -0.003633   0.000084   0.080502
    14  C   -0.001480  -0.213417   0.450083  -0.012110   0.000180  -2.324910
    15  O   -0.000561  -0.018685   0.002635   0.000787  -0.000007  -0.134981
    16  C    0.001966   0.181798  -0.056697  -0.002326   0.000381   0.260180
    17  C   -0.001823  -0.104584   0.018564   0.000203   0.000035  -0.160049
    18  O    0.000048  -0.006413   0.000934  -0.000014   0.000000   0.022317
    19  H   -0.000068  -0.001171   0.005145   0.000006   0.000000  -0.009383
    20  C   -0.000009  -0.000198  -0.009843  -0.000009   0.000000  -0.012001
    21  O    0.000000   0.000122  -0.000084   0.000000   0.000000   0.000453
    22  H    0.000000  -0.000006  -0.000002   0.000000   0.000000   0.000159
    23  C    0.000037   0.000688  -0.007793   0.000024  -0.000020  -0.030917
    24  O    0.000000  -0.000129   0.000005  -0.000001   0.000000   0.001283
    25  H    0.000000   0.000037  -0.000576   0.000000   0.000000  -0.001245
    26  C    0.000101   0.036141  -0.052995   0.000675   0.000005  -0.138022
    27  O    0.000000   0.000190   0.000065   0.000000   0.000000   0.000053
    28  C    0.000000  -0.000592   0.000867   0.000002   0.000000  -0.003004
    29  O    0.000000  -0.000001   0.000017   0.000000   0.000000  -0.000059
    30  H    0.000000   0.000000   0.000000   0.000000   0.000000   0.000007
    31  H    0.000000   0.000002   0.000015   0.000000   0.000000   0.000154
    32  H    0.000000   0.000177  -0.000078   0.000000   0.000000   0.002445
    33  H    0.000000   0.000296  -0.000042   0.000000   0.000000   0.012458
    34  H   -0.000001  -0.001022   0.001807   0.000003   0.000000   0.009161
    35  H    0.000000  -0.000390   0.000054   0.000000   0.000000  -0.004171
    36  H    0.000000  -0.000588  -0.000334  -0.000001   0.000000   0.002701
    37  H    0.000000   0.000012   0.006263   0.000001   0.000000  -0.013140
    38  H    0.275564  -0.004824   0.000455  -0.000535  -0.000970  -0.004826
    39  H   -0.000181   0.047432  -0.016836   0.000050  -0.000001   0.007144
    40  H   -0.008497   0.013338  -0.001701  -0.000082  -0.000001  -0.001516
    41  H   -0.000298   0.122258  -0.077817   0.000223  -0.000005   0.001092
    42  H   -0.033457   0.323097  -0.060197  -0.000765  -0.000230  -0.012965
    43  H   -0.004861  -0.030475   0.409792  -0.039644  -0.005235  -0.275816
    44  H   -0.000386  -0.015364   0.063980  -0.003793  -0.000069   0.189302
    45  H    0.000055   0.001218  -0.042557  -0.000247   0.000005  -0.009833
              7          8          9         10         11         12
     1  O   -0.000166  -0.000030  -0.082022   0.000501   0.000343  -0.155529
     2  C   -0.005424   0.001605   0.214246   0.028356   0.003049  -1.251581
     3  C    0.003896  -0.035903  -0.303782   0.005013   0.000982  -0.088321
     4  O    0.000795   0.002989   0.008225   0.000025   0.000000   0.021056
     5  H   -0.000601  -0.000091  -0.002534  -0.000001   0.000000   0.009495
     6  C    0.126898   0.012543   0.110272  -0.013243   0.000646  -0.276730
     7  O    8.120416   0.254109  -0.000305  -0.000013   0.000000  -0.010972
     8  H    0.254109   0.384227   0.000640   0.000000   0.000000   0.005941
     9  C   -0.000305   0.000640   6.105998   0.107245  -0.022070  -0.520433
    10  O   -0.000013   0.000000   0.107245   8.134389   0.234877  -0.019089
    11  H    0.000000   0.000000  -0.022070   0.234877   0.441011   0.014521
    12  C   -0.010972   0.005941  -0.520433  -0.019089   0.014521   8.947379
    13  O    0.002453  -0.000410  -0.017120   0.004052   0.000052   0.083861
    14  C   -0.026546   0.013496  -0.139988   0.015205  -0.000784  -0.624700
    15  O    0.005900  -0.000294  -0.028922  -0.003736  -0.000021   0.026829
    16  C    0.075648  -0.009767  -0.026054   0.030493   0.000045  -0.009837
    17  C    0.003625  -0.000367  -0.044119  -0.020568  -0.001056  -0.068228
    18  O    0.000227  -0.000004  -0.005010  -0.004539   0.000403   0.020444
    19  H   -0.000051   0.000000  -0.014008   0.005016  -0.000169   0.010473
    20  C    0.000525  -0.000059  -0.001464  -0.003129  -0.000196  -0.028019
    21  O   -0.000001   0.000000  -0.000389   0.000021  -0.000003   0.000859
    22  H    0.000000   0.000000   0.000029  -0.000011   0.000000  -0.000026
    23  C   -0.024122   0.000855   0.008375   0.000338   0.000006  -0.000452
    24  O    0.000598  -0.000014  -0.000031   0.000000   0.000000  -0.000243
    25  H    0.000113   0.000000  -0.000001   0.000000   0.000000  -0.000053
    26  C    0.004174   0.000547  -0.001208   0.000109  -0.000063  -0.013118
    27  O   -0.000044   0.000001  -0.000061   0.000007   0.000000   0.000220
    28  C    0.000241   0.000004  -0.000821   0.000505  -0.000002   0.004832
    29  O   -0.000001   0.000000   0.000003   0.000001   0.000000   0.000066
    30  H    0.000000   0.000000   0.000000   0.000000   0.000000  -0.000002
    31  H    0.000000   0.000000  -0.000004   0.000000   0.000000   0.000116
    32  H    0.000007   0.000000  -0.000091   0.000000   0.000000   0.000260
    33  H    0.000007   0.000000   0.000285   0.000073  -0.000001  -0.001265
    34  H   -0.000889   0.000001  -0.000449  -0.000002   0.000000  -0.001484
    35  H   -0.000019   0.000000   0.000175   0.000001   0.000000   0.000477
    36  H   -0.000415   0.000012   0.000164   0.000000   0.000000   0.001458
    37  H   -0.000700  -0.000017  -0.000155   0.000000   0.000000  -0.000973
    38  H   -0.000006   0.000000   0.007492   0.000154  -0.000005  -0.008319
    39  H    0.000001   0.000000   0.499530  -0.028148  -0.004612  -0.206030
    40  H   -0.000003   0.000000   0.451529  -0.033380  -0.003547  -0.081978
    41  H   -0.000023  -0.000001   0.071463   0.003750  -0.000040   0.075319
    42  H    0.000504  -0.000004  -0.006521   0.000847  -0.000005  -0.025845
    43  H    0.001204  -0.000653   0.000858   0.000005   0.000000   0.038241
    44  H   -0.034051  -0.003879   0.004326  -0.000020   0.000000   0.042515
    45  H    0.000765  -0.000374   0.006702  -0.000134   0.000000   0.040030
             13         14         15         16         17         18
     1  O    0.002983  -0.001480  -0.000561   0.001966  -0.001823   0.000048
     2  C   -0.020651  -0.213417  -0.018685   0.181798  -0.104584  -0.006413
     3  C   -0.038511   0.450083   0.002635  -0.056697   0.018564   0.000934
     4  O   -0.003633  -0.012110   0.000787  -0.002326   0.000203  -0.000014
     5  H    0.000084   0.000180  -0.000007   0.000381   0.000035   0.000000
     6  C    0.080502  -2.324910  -0.134981   0.260180  -0.160049   0.022317
     7  O    0.002453  -0.026546   0.005900   0.075648   0.003625   0.000227
     8  H   -0.000410   0.013496  -0.000294  -0.009767  -0.000367  -0.000004
     9  C   -0.017120  -0.139988  -0.028922  -0.026054  -0.044119  -0.005010
    10  O    0.004052   0.015205  -0.003736   0.030493  -0.020568  -0.004539
    11  H    0.000052  -0.000784  -0.000021   0.000045  -0.001056   0.000403
    12  C    0.083861  -0.624700   0.026829  -0.009837  -0.068228   0.020444
    13  O    7.882244   0.140093  -0.055630   0.075563  -0.043318  -0.028559
    14  C    0.140093   9.452443   0.337296  -1.298343   0.301708   0.090774
    15  O   -0.055630   0.337296   7.885881   0.110271   0.011689  -0.014955
    16  C    0.075563  -1.298343   0.110271  12.891182  -2.697457  -0.084627
    17  C   -0.043318   0.301708   0.011689  -2.697457   8.801800   0.202037
    18  O   -0.028559   0.090774  -0.014955  -0.084627   0.202037   8.164308
    19  H    0.037625  -0.010410   0.004844  -0.058003   0.052488   0.235330
    20  C   -0.018108  -0.024406   0.003297  -1.534405   0.737892  -0.046570
    21  O    0.000169  -0.002405  -0.000137   0.042126  -0.133405  -0.011299
    22  H   -0.000017   0.003229   0.000042   0.012093  -0.059611   0.012937
    23  C    0.000971   0.282134  -0.113138   0.188703  -0.265127   0.011386
    24  O    0.000012   0.003509  -0.002545   0.017519   0.016443   0.000061
    25  H   -0.000013  -0.003211  -0.000378   0.006553   0.001232   0.000000
    26  C   -0.019559  -0.796584   0.121015  -3.115593  -0.748494  -0.029470
    27  O    0.000744  -0.012397   0.000466   0.030923  -0.021377  -0.001221
    28  C    0.004104   0.006945   0.005702   0.482774  -0.139715  -0.009426
    29  O    0.000002   0.001316   0.000060   0.007287  -0.009972   0.000623
    30  H    0.000000   0.000154   0.000003   0.005736   0.001944  -0.000012
    31  H    0.000023   0.000590  -0.000070   0.058573  -0.012148   0.000844
    32  H    0.000001  -0.010050  -0.000335   0.067316  -0.100293   0.005401
    33  H    0.000248   0.006611  -0.008172  -0.095428   0.321973  -0.025804
    34  H   -0.001232  -0.026828  -0.050048   0.188259   0.052809  -0.001664
    35  H   -0.000067   0.032363  -0.004617   0.147115  -0.022653  -0.000153
    36  H   -0.000271   0.069117  -0.000357   0.106587  -0.004138   0.000214
    37  H    0.000168  -0.018219  -0.014007   0.058260   0.018396   0.000057
    38  H   -0.000663  -0.001753   0.000006   0.000131  -0.000047  -0.000001
    39  H    0.004057   0.011167   0.000509  -0.004294   0.003978   0.000244
    40  H   -0.003348  -0.003968  -0.000312   0.001786  -0.001532  -0.000170
    41  H   -0.014637   0.076984  -0.004808   0.004920  -0.000018   0.000442
    42  H   -0.000870   0.059428  -0.000972  -0.003800   0.001154   0.000020
    43  H   -0.001753   0.124886   0.001141  -0.002547   0.000945   0.000057
    44  H    0.007646   0.017793  -0.010597  -0.003694  -0.002521   0.000092
    45  H   -0.013040   0.275489  -0.033797   0.043648  -0.016131   0.002088
             19         20         21         22         23         24
     1  O   -0.000068  -0.000009   0.000000   0.000000   0.000037   0.000000
     2  C   -0.001171  -0.000198   0.000122  -0.000006   0.000688  -0.000129
     3  C    0.005145  -0.009843  -0.000084  -0.000002  -0.007793   0.000005
     4  O    0.000006  -0.000009   0.000000   0.000000   0.000024  -0.000001
     5  H    0.000000   0.000000   0.000000   0.000000  -0.000020   0.000000
     6  C   -0.009383  -0.012001   0.000453   0.000159  -0.030917   0.001283
     7  O   -0.000051   0.000525  -0.000001   0.000000  -0.024122   0.000598
     8  H    0.000000  -0.000059   0.000000   0.000000   0.000855  -0.000014
     9  C   -0.014008  -0.001464  -0.000389   0.000029   0.008375  -0.000031
    10  O    0.005016  -0.003129   0.000021  -0.000011   0.000338   0.000000
    11  H   -0.000169  -0.000196  -0.000003   0.000000   0.000006   0.000000
    12  C    0.010473  -0.028019   0.000859  -0.000026  -0.000452  -0.000243
    13  O    0.037625  -0.018108   0.000169  -0.000017   0.000971   0.000012
    14  C   -0.010410  -0.024406  -0.002405   0.003229   0.282134   0.003509
    15  O    0.004844   0.003297  -0.000137   0.000042  -0.113138  -0.002545
    16  C   -0.058003  -1.534405   0.042126   0.012093   0.188703   0.017519
    17  C    0.052488   0.737892  -0.133405  -0.059611  -0.265127   0.016443
    18  O    0.235330  -0.046570  -0.011299   0.012937   0.011386   0.000061
    19  H    0.339549   0.003250   0.001083  -0.000293  -0.003590   0.000004
    20  C    0.003250   6.460808   0.346126   0.001470  -0.043869  -0.001221
    21  O    0.001083   0.346126   8.041809   0.260332   0.001019  -0.000043
    22  H   -0.000293   0.001470   0.260332   0.391706  -0.000116   0.000000
    23  C   -0.003590  -0.043869   0.001019  -0.000116   6.123411   0.272850
    24  O    0.000004  -0.001221  -0.000043   0.000000   0.272850   8.107206
    25  H    0.000000   0.000557   0.000000   0.000000  -0.053548   0.244433
    26  C   -0.005453   0.433250   0.010988  -0.004069  -0.887733  -0.147085
    27  O    0.000030  -0.024503   0.000160   0.000022  -0.098967   0.011907
    28  C    0.003008  -0.208829  -0.086690   0.022665  -0.067376  -0.005867
    29  O   -0.000001  -0.073085   0.002125  -0.000278  -0.001288   0.000478
    30  H    0.000000   0.009126  -0.000699   0.000018   0.000074   0.000039
    31  H    0.000005  -0.089026   0.002654  -0.000245   0.005397  -0.000131
    32  H   -0.000063   0.308515  -0.030495  -0.004452   0.008074  -0.000065
    33  H   -0.003773  -0.013163  -0.002773   0.000172   0.001767   0.000053
    34  H   -0.000101   0.045025  -0.000308  -0.000001   0.003769   0.001521
    35  H    0.000011  -0.014172  -0.000059  -0.000001   0.059041   0.001745
    36  H    0.000000  -0.006585   0.000023   0.000000   0.545803  -0.041730
    37  H    0.000001  -0.002293  -0.000009   0.000000   0.416802  -0.026607
    38  H    0.000000  -0.000002   0.000000   0.000000  -0.000002   0.000000
    39  H   -0.000123   0.000226   0.000000   0.000000  -0.000039   0.000000
    40  H    0.000032  -0.000039   0.000000   0.000000   0.000013   0.000000
    41  H   -0.001821   0.000968   0.000002   0.000000   0.000262   0.000000
    42  H   -0.000023   0.000074   0.000000   0.000000   0.000195   0.000000
    43  H   -0.000006   0.000053   0.000000   0.000000   0.000164   0.000000
    44  H   -0.000011   0.000453   0.000000   0.000000   0.002042   0.000012
    45  H   -0.001723   0.007638   0.000009   0.000000  -0.001412  -0.000014
             25         26         27         28         29         30
     1  O    0.000000   0.000101   0.000000   0.000000   0.000000   0.000000
     2  C    0.000037   0.036141   0.000190  -0.000592  -0.000001   0.000000
     3  C   -0.000576  -0.052995   0.000065   0.000867   0.000017   0.000000
     4  O    0.000000   0.000675   0.000000   0.000002   0.000000   0.000000
     5  H    0.000000   0.000005   0.000000   0.000000   0.000000   0.000000
     6  C   -0.001245  -0.138022   0.000053  -0.003004  -0.000059   0.000007
     7  O    0.000113   0.004174  -0.000044   0.000241  -0.000001   0.000000
     8  H    0.000000   0.000547   0.000001   0.000004   0.000000   0.000000
     9  C   -0.000001  -0.001208  -0.000061  -0.000821   0.000003   0.000000
    10  O    0.000000   0.000109   0.000007   0.000505   0.000001   0.000000
    11  H    0.000000  -0.000063   0.000000  -0.000002   0.000000   0.000000
    12  C   -0.000053  -0.013118   0.000220   0.004832   0.000066  -0.000002
    13  O   -0.000013  -0.019559   0.000744   0.004104   0.000002   0.000000
    14  C   -0.003211  -0.796584  -0.012397   0.006945   0.001316   0.000154
    15  O   -0.000378   0.121015   0.000466   0.005702   0.000060   0.000003
    16  C    0.006553  -3.115593   0.030923   0.482774   0.007287   0.005736
    17  C    0.001232  -0.748494  -0.021377  -0.139715  -0.009972   0.001944
    18  O    0.000000  -0.029470  -0.001221  -0.009426   0.000623  -0.000012
    19  H    0.000000  -0.005453   0.000030   0.003008  -0.000001   0.000000
    20  C    0.000557   0.433250  -0.024503  -0.208829  -0.073085   0.009126
    21  O    0.000000   0.010988   0.000160  -0.086690   0.002125  -0.000699
    22  H    0.000000  -0.004069   0.000022   0.022665  -0.000278   0.000018
    23  C   -0.053548  -0.887733  -0.098967  -0.067376  -0.001288   0.000074
    24  O    0.244433  -0.147085   0.011907  -0.005867   0.000478   0.000039
    25  H    0.445861   0.039611   0.000380   0.000312  -0.000002   0.000000
    26  C    0.039611  12.033984   0.207767  -0.485587  -0.007686  -0.010320
    27  O    0.000380   0.207767   7.887821   0.152254  -0.053577   0.000486
    28  C    0.000312  -0.485587   0.152254   5.535639   0.334545  -0.017364
    29  O   -0.000002  -0.007686  -0.053577   0.334545   7.983804   0.265640
    30  H    0.000000  -0.010320   0.000486  -0.017364   0.265640   0.419006
    31  H    0.000000  -0.004981  -0.053514   0.375099  -0.014857  -0.008653
    32  H    0.000000   0.041052  -0.001754  -0.039542  -0.000326  -0.000051
    33  H    0.000000   0.046520   0.001354  -0.007802   0.000243   0.000009
    34  H   -0.000033  -0.008559   0.005023   0.003300  -0.000567   0.000004
    35  H   -0.000102   0.046611  -0.022957   0.031715  -0.000701   0.000006
    36  H   -0.000366  -0.393096   0.001931   0.009147   0.000028   0.000000
    37  H   -0.010421  -0.090346   0.002642   0.001127   0.000038   0.000000
    38  H    0.000000   0.000008   0.000000   0.000000   0.000000   0.000000
    39  H    0.000000   0.000226   0.000000  -0.000013   0.000000   0.000000
    40  H    0.000000   0.000002   0.000000   0.000002   0.000000   0.000000
    41  H    0.000000   0.000907   0.000001  -0.000029   0.000000   0.000000
    42  H    0.000000  -0.000531   0.000000  -0.000006   0.000000   0.000000
    43  H    0.000000  -0.000545   0.000000  -0.000001   0.000000   0.000000
    44  H    0.000000  -0.005980   0.000008  -0.000036   0.000000   0.000000
    45  H    0.000001   0.017772   0.000265   0.000815  -0.000002   0.000000
             31         32         33         34         35         36
     1  O    0.000000   0.000000   0.000000  -0.000001   0.000000   0.000000
     2  C    0.000002   0.000177   0.000296  -0.001022  -0.000390  -0.000588
     3  C    0.000015  -0.000078  -0.000042   0.001807   0.000054  -0.000334
     4  O    0.000000   0.000000   0.000000   0.000003   0.000000  -0.000001
     5  H    0.000000   0.000000   0.000000   0.000000   0.000000   0.000000
     6  C    0.000154   0.002445   0.012458   0.009161  -0.004171   0.002701
     7  O    0.000000   0.000007   0.000007  -0.000889  -0.000019  -0.000415
     8  H    0.000000   0.000000   0.000000   0.000001   0.000000   0.000012
     9  C   -0.000004  -0.000091   0.000285  -0.000449   0.000175   0.000164
    10  O    0.000000   0.000000   0.000073  -0.000002   0.000001   0.000000
    11  H    0.000000   0.000000  -0.000001   0.000000   0.000000   0.000000
    12  C    0.000116   0.000260  -0.001265  -0.001484   0.000477   0.001458
    13  O    0.000023   0.000001   0.000248  -0.001232  -0.000067  -0.000271
    14  C    0.000590  -0.010050   0.006611  -0.026828   0.032363   0.069117
    15  O   -0.000070  -0.000335  -0.008172  -0.050048  -0.004617  -0.000357
    16  C    0.058573   0.067316  -0.095428   0.188259   0.147115   0.106587
    17  C   -0.012148  -0.100293   0.321973   0.052809  -0.022653  -0.004138
    18  O    0.000844   0.005401  -0.025804  -0.001664  -0.000153   0.000214
    19  H    0.000005  -0.000063  -0.003773  -0.000101   0.000011   0.000000
    20  C   -0.089026   0.308515  -0.013163   0.045025  -0.014172  -0.006585
    21  O    0.002654  -0.030495  -0.002773  -0.000308  -0.000059   0.000023
    22  H   -0.000245  -0.004452   0.000172  -0.000001  -0.000001   0.000000
    23  C    0.005397   0.008074   0.001767   0.003769   0.059041   0.545803
    24  O   -0.000131  -0.000065   0.000053   0.001521   0.001745  -0.041730
    25  H    0.000000   0.000000   0.000000  -0.000033  -0.000102  -0.000366
    26  C   -0.004981   0.041052   0.046520  -0.008559   0.046611  -0.393096
    27  O   -0.053514  -0.001754   0.001354   0.005023  -0.022957   0.001931
    28  C    0.375099  -0.039542  -0.007802   0.003300   0.031715   0.009147
    29  O   -0.014857  -0.000326   0.000243  -0.000567  -0.000701   0.000028
    30  H   -0.008653  -0.000051   0.000009   0.000004   0.000006   0.000000
    31  H    0.603735   0.005714   0.001900  -0.000020   0.001992  -0.000010
    32  H    0.005714   0.602669   0.006340   0.001640  -0.000071  -0.000111
    33  H    0.001900   0.006340   0.626832   0.007521   0.000851  -0.000038
    34  H   -0.000020   0.001640   0.007521   0.652277   0.006033   0.007136
    35  H    0.001992  -0.000071   0.000851   0.006033   0.600946   0.005654
    36  H   -0.000010  -0.000111  -0.000038   0.007136   0.005654   0.610938
    37  H    0.000012   0.000000  -0.000013  -0.000228  -0.001868  -0.049326
    38  H    0.000000   0.000000   0.000000   0.000000   0.000000   0.000000
    39  H    0.000000   0.000000  -0.000003   0.000000   0.000000   0.000000
    40  H    0.000000   0.000000   0.000000   0.000000   0.000000   0.000000
    41  H    0.000000   0.000000  -0.000004  -0.000016   0.000000   0.000000
    42  H    0.000000   0.000000   0.000000   0.000000   0.000000   0.000000
    43  H    0.000000   0.000000   0.000000  -0.000001   0.000000   0.000000
    44  H    0.000000   0.000000  -0.000001   0.000038  -0.000001  -0.000012
    45  H    0.000000  -0.000009  -0.000018   0.005540  -0.000001  -0.000058
             37         38         39         40         41         42
[...]
 003955,-0.01630184,-0.00125446,0.00388226,0.00232492,0.00048768,-0.000
 11978,-0.00016336,-0.00002122,-0.00010503,0.00009056,0.00001817,0.0002
 6292,0.00003438,0.00002946,-0.00002446,-0.00003461,0.00000813,-0.00002
 001,0.00007725,-0.00001332,-0.00000087,-0.00009273,0.00001016,0.000010
 67,0.00000150,0.00000439,-0.00000368,0.00000752,-0.00001393,0.00000372
 ,-0.00000789,0.00000713,-0.00000349,-0.00001428,-0.00001285,-0.0000132
 9,0.00002120,0.00001154,0.00001371,-0.00001264,-0.00000132,-0.00000335
 ,-0.00003315,0.00000230,-0.00000121,0.00001643,-0.00000680,0.00001334,
 -0.00001403,0.00000901,-0.00001161,0.00000415,-0.00000402,0.00000678,-
 0.00000199,0.00000245,-0.00000071,0.00000427,-0.00000229,0.00000289,0.
 00000486,-0.00000225,-0.00000380,0.00001851,-0.00000694,0.00001405,0.0
 0000829,-0.00000660,-0.00000912,0.00000957,-0.00000317,0.00000789,0.00
 001261,0.00000053,-0.00000524,-0.00001321,0.00000189,-0.00000063,0.001
 97473,-0.00038568,-0.00074673,0.00117978,-0.00077703,-0.00016653,-0.00
 014761,-0.00001396,-0.00002144,0.00038706,-0.00141488,0.00157071,0.366
 54810,-0.01105920,0.00153695,-0.00806091,0.05025398,-0.04786894,-0.001
 39442,0.03931334,-0.01537206,-0.00666838,-0.00186727,0.00538628,-0.000
 16130,0.00043285,-0.00026992,0.00016132,0.00050749,0.00100505,0.001210
 96,-0.00065050,-0.00035531,-0.00068950,0.00013199,0.00006003,0.0000673
 6,-0.00264531,-0.00076069,0.00091751,0.00052157,0.00037363,-0.00039147
 ,0.00004063,-0.00002462,-0.00006783,-0.02631319,0.00065375,0.00598437,
 0.00118782,0.00098885,-0.00195361,0.00012619,-0.00053910,-0.00003154,0
 .00000030,0.00008411,-0.00004606,-0.00003507,0.00001597,0.00004377,-0.
 00000915,-0.00001797,-0.00001916,0.00008357,0.00002909,-0.00002616,-0.
 00014575,-0.00003769,0.00000214,0.00000205,-0.00000033,0.00000852,0.00
 000669,0.00000846,-0.00000712,-0.00000531,0.00000022,0.00000043,0.0000
 0823,0.00001598,0.00001389,-0.00001615,-0.00001246,-0.00001618,0.00000
 981,0.00000347,0.00000519,0.00000796,0.00000045,0.00000371,-0.00000194
 ,0.00000847,-0.00001487,-0.00000271,-0.00001039,0.00001261,0.00000331,
 0.00000215,-0.00000967,0.00000030,-0.00000081,0.00000225,0.00000008,0.
 00000180,-0.00000019,-0.00000071,-0.00000059,-0.00000202,0.00000784,0.
 00000356,0.00000861,-0.00000442,-0.00000496,0.00000752,-0.00000261,0.0
 0000396,-0.00000340,-0.00000950,-0.00000246,0.00000629,0.00001565,-0.0
 0000059,-0.00000019,-0.00155410,0.00165065,-0.00011086,0.00027842,-0.0
 0024960,0.00046459,0.00000930,0.00004712,-0.00016532,-0.00124590,-0.00
 268677,0.00314106,-0.04747956,0.06334935,-0.04603860,-0.00587874,-0.02
 509664,0.03156364,-0.00232308,-0.03989066,0.01263853,-0.00363561,0.001
 48431,-0.00168411,0.00034711,0.00065032,-0.00022152,-0.00010641,-0.000
 15214,0.00034463,0.00050751,0.00044026,-0.00033625,0.00004643,-0.00009
 186,0.00004606,0.00004051,0.00007806,0.00060058,-0.00101768,0.00036595
 ,-0.00020051,-0.00026352,0.00008826,-0.00008197,-0.00001610,0.00006015
 ,0.02656764,0.00030765,-0.00429934,-0.00117044,-0.00017352,0.00275272,
 0.00034941,-0.00040410,-0.00021263,-0.00001964,0.00003491,-0.00019070,
 -0.00002575,-0.00001908,-0.00001951,0.00005315,0.00001677,0.00003903,-
 0.00013171,-0.00003153,-0.00002157,0.00019160,0.00005162,0.00000341,-0
 .00001020,-0.00000741,0.00000131,-0.00000237,0.00001001,-0.00000933,0.
 00000084,-0.00000866,0.00000969,0.00000992,0.00001241,0.00000393,-0.00
 001475,-0.00001086,-0.00000950,0.00000690,0.00000075,0.00000199,0.0000
 2286,-0.00000113,0.00000357,-0.00001175,0.00000205,-0.00001161,0.00001
 172,-0.00000061,0.00001516,-0.00000141,0.00000094,-0.00001321,0.000001
 13,-0.00000196,0.00000157,-0.00000297,0.00000099,-0.00000255,-0.000003
 02,0.00000171,0.00000466,-0.00002023,0.00000403,-0.00001652,-0.0000070
 3,0.00000586,0.00001213,-0.00000659,0.00000179,-0.00000641,-0.00000777
 ,0.00000066,0.00000279,0.00000680,-0.00000260,-0.00000131,-0.00432281,
 0.00108036,0.00237949,-0.00035030,0.00047454,0.00010426,-0.00025456,0.
 00028873,0.00014013,0.00078156,0.00294767,-0.00332167,-0.01767228,0.01
 047261,0.06523068,0.00124079,0.00026908,0.00104204,-0.00832946,0.00672
 434,-0.00067224,-0.31913803,0.06348658,-0.04152484,-0.02349700,-0.0110
 1870,0.01535389,0.00023361,-0.00067350,-0.00013652,-0.01292425,0.00455
 457,-0.00670648,0.00319043,0.00030725,0.00316246,-0.00021430,-0.000252
 72,-0.00025537,0.00039861,0.00009776,-0.00021081,-0.00000443,0.0002111
 5,0.00007051,0.00001044,0.00004017,-0.00001906,-0.00017724,0.00043719,
 0.00013501,0.00024388,0.00012991,0.00008908,-0.00084251,-0.00121136,0.
 00029570,0.00026345,0.00027104,-0.00060082,-0.00013927,0.00010286,0.00
 011062,-0.00000005,-0.00003553,-0.00010492,0.00006898,0.00000827,0.000
 02792,-0.00006958,-0.00001646,0.00002564,-0.00001970,0.00001270,0.0000
 2613,0.00002508,0.00002126,-0.00001226,-0.00001296,0.00000015,-0.00000
 230,-0.00003086,0.00000162,0.00002766,0.00002865,-0.00001613,-0.000011
 92,-0.00002282,0.00000407,-0.00000176,0.00001127,0.00001732,0.00002323
 ,0.00001605,0.00000782,-0.00003501,-0.00001674,-0.00001886,0.00001839,
 0.00001165,0.00000130,-0.00001373,-0.00000145,-0.00000038,0.00000221,0
 .00000339,0.00000073,0.00000093,0.00000521,-0.00000238,-0.00000558,0.0
 0000845,-0.00000697,0.00000903,0.00002358,-0.00000660,-0.00002536,0.00
 000733,-0.00000846,0.00000633,0.00001834,0.00000565,-0.00001306,-0.000
 01279,0.00002030,0.00000215,0.00017622,-0.00024639,-0.00012819,0.00002
 639,-0.00022368,-0.00005011,0.00001381,-0.00002958,0.00001994,0.000448
 72,0.00056915,-0.00036115,0.00120796,0.00051076,-0.00026731,0.35675008
 ,-0.00304553,0.00291160,0.00044725,0.03979400,-0.01719095,0.00146455,0
 .07042230,-0.05132288,0.00763716,-0.03604311,-0.00416777,0.01251856,0.
 00002339,0.00081165,-0.00129774,-0.00510883,0.00236257,-0.00434237,-0.
 00117406,0.00058874,0.00012444,-0.00049042,-0.00029279,-0.00029606,0.0
 0017932,0.00013379,-0.00022722,-0.00028882,-0.00017847,0.00005450,0.00
 002675,0.00001562,0.00000971,0.00094704,0.00244531,-0.00061840,-0.0003
 4838,-0.00035084,0.00024701,0.00042879,-0.00019668,-0.00014390,-0.0000
 5719,0.00011299,-0.00017123,-0.00002631,0.00003251,0.00001293,0.000006
 66,-0.00001102,-0.00002525,-0.00003747,0.00000706,0.00003542,0.0000632
 3,0.00001267,-0.00005560,0.00000268,0.00000500,0.00000245,-0.00000390,
 0.00000266,0.00000157,0.00000561,-0.00000012,-0.00000276,-0.00000689,-
 0.00000221,0.00000494,0.00000521,-0.00000288,0.00000058,-0.00000570,0.
 00000003,-0.00000329,0.00000782,0.00000290,-0.00000074,-0.00000404,-0.
 00000460,0.00000053,0.00000392,0.00000122,-0.00000268,-0.00000269,-0.0
 0000027,0.00000465,0.00000017,0.00000029,-0.00000109,-0.00000121,-0.00
 000011,-0.00000052,-0.00000111,0.00000066,0.00000156,-0.00000424,0.000
 00070,-0.00000446,0.00000080,0.00000269,0.00000584,-0.00000127,-0.0000
 0172,-0.00000157,0.00000438,0.00000305,-0.00000332,-0.00000275,0.00000
 405,0.00000073,-0.00001046,0.00043374,0.00051048,-0.00033086,0.0000978
 2,0.00003847,0.00003074,-0.00000371,0.00000495,-0.00080653,-0.00026080
 ,0.00044412,0.00103521,-0.00671820,-0.00252468,-0.06463476,0.07078463,
 -0.00031767,0.00201759,0.00132531,0.01130185,-0.00689556,0.00328373,-0
 .04289525,0.00460268,-0.04307428,0.03440161,0.01001064,-0.00989405,0.0
 0184487,0.00003203,0.00096970,-0.03833236,0.00478069,-0.01468924,0.001
 32947,0.00199517,0.00404428,-0.00018369,-0.00052177,-0.00032418,0.0000
 2387,-0.00003092,0.00005432,-0.00003863,-0.00007310,-0.00000602,-0.000
 00024,-0.00001615,0.00000727,-0.00063784,0.00001603,-0.00022194,0.0002
 2276,0.00067672,-0.00060524,-0.00087388,-0.00087251,0.00184019,0.00030
 635,0.00022705,-0.00049210,-0.00003170,0.00008151,0.00011922,0.0000193
 1,-0.00003133,-0.00008136,0.00005860,0.00002492,-0.00000854,-0.0000733
 0,-0.00004234,0.00004212,-0.00002290,0.00000781,0.00002257,0.00002377,
 0.00003102,-0.00001721,-0.00001056,-0.00000504,0.00000156,-0.00004951,
 0.00002112,0.00009807,0.00002081,-0.00004629,-0.00004964,-0.00002190,0
 .00001644,0.00000575,0.00001141,-0.00001062,0.00003829,0.00001778,0.00
 003145,-0.00005227,-0.00001339,-0.00003195,0.00003321,0.00001392,0.000
 00490,-0.00002913,-0.00000047,-0.00000217,0.00000523,0.00000137,0.0000
 0318,-0.00000071,0.00000278,-0.00000074,-0.00000217,0.00000174,-0.0000
 0364,0.00000543,0.00002361,0.00000019,-0.00003903,0.00000553,-0.000008
 96,0.00000533,0.00002098,0.00000748,-0.00002091,-0.00000141,0.00003676
 ,0.00000950,0.00011295,0.00029318,0.00002676,-0.00005098,0.00002163,-0
 .00001699,0.00000494,-0.00000680,0.00001295,0.00002683,0.00011564,0.00
 010622,0.00110715,-0.00213728,-0.00036572,0.03262305,-0.01288233,0.064
 33401,0.00010239,-0.00020235,-0.00004948,-0.00051280,0.00063934,-0.000
 48666,-0.00650104,-0.00358795,-0.00401983,0.00116354,0.00050537,-0.000
 30639,0.00014207,0.00009500,0.00019011,-0.33468818,-0.05715766,-0.0430
 3016,-0.01859864,0.01325401,0.00346520,-0.00005294,-0.00017729,0.00036
 083,-0.00003822,0.00000845,0.00001261,0.00003360,0.00000380,0.00000389
 ,-0.00001147,-0.00000407,-0.00000860,0.00001799,0.00001984,0.00011164,
 0.00095140,-0.00078478,-0.00014154,-0.01172198,-0.00363263,-0.00010407
 ,0.00143610,0.00125648,-0.00192611,-0.00001533,0.00041002,0.00032344,0
 .00008604,-0.00006151,-0.00031024,0.00007902,-0.00002230,0.00004270,-0
 .00003924,-0.00001316,-0.00001419,-0.00003476,0.00004997,0.00007497,0.
 00005026,0.00006594,-0.00004423,-0.00001846,-0.00000461,-0.00000619,-0
 .00012725,0.00002862,0.00021892,0.00005229,-0.00008841,-0.00010121,-0.
 00005176,0.00003025,0.00000652,0.00001678,-0.00004079,0.00007754,0.000
 03099,0.00005721,-0.00008029,-0.00002468,-0.00004754,0.00005365,0.0000
 2304,0.00000540,-0.00004324,-0.00000169,-0.00000185,0.00000761,0.00000
 297,0.00000479,-0.00000096,0.00000802,-0.00000432,-0.00000599,0.000005
 02,-0.00001646,0.00001591,0.00004879,0.00000903,-0.00016335,0.00000972
 ,-0.00001862,0.00000652,0.00005519,0.00001673,-0.00005495,0.00003026,0
 .00008924,0.00005334,-0.00005559,-0.00004181,-0.00001117,0.00002328,-0
 .00002346,-0.00000695,0.00000691,0.00000755,0.00000294,0.00005515,0.00
 006827,0.00001870,0.00023797,-0.00035904,-0.00021399,0.00070150,-0.000
 48262,-0.00025693,0.36692651,0.00020023,0.00007145,0.00001169,-0.00040
 826,0.00041751,0.00075969,-0.00915890,0.00239182,-0.00084999,0.0013112
 2,0.00037883,-0.00039416,-0.00004870,-0.00008726,0.00011459,-0.0601942
 2,-0.05123212,-0.00478122,0.04152501,-0.01127946,-0.00399428,0.0012269
 9,0.00146301,0.00040850,-0.00007986,0.00005603,0.00005577,0.00003143,-
 0.00005795,-0.00000614,-0.00001049,-0.00000855,-0.00000398,-0.00009491
 ,-0.00007054,-0.00003146,0.00125554,0.00083481,-0.00000301,-0.02817670
 ,-0.00480553,-0.00153260,0.00099163,0.00140688,-0.00182642,0.00004106,
 0.00041732,0.00015798,-0.00006066,-0.00009147,-0.00037954,0.00014752,-
 0.00017528,0.00019582,-0.00014108,0.00012727,0.00005282,0.00000551,0.0
 0003415,0.00003257,0.00002141,0.00003337,0.00000236,0.00000407,0.00001
 072,-0.00002356,0.00003565,0.00001568,0.00001363,-0.00003282,-0.000007
 19,-0.00001783,0.00004025,0.00000250,-0.00001422,-0.00000763,-0.000002
 29,0.00004726,0.00001814,0.00001784,-0.00003334,-0.00002114,-0.0000362
 4,0.00000398,0.00000703,0.00000912,0.00000402,-0.00000127,-0.00000118,
 0.00000188,0.00000185,0.00000253,0.00000241,0.00000439,-0.00000214,-0.
 00000785,0.00002499,-0.00001432,0.00002865,0.00013989,-0.00008961,-0.0
 0011849,0.00001215,0.00000800,0.00002770,-0.00002405,-0.00002171,0.000
 02319,0.00002435,0.00005615,0.00001223,0.00000191,0.00001076,-0.000024
 15,0.00002834,-0.00004285,-0.00001115,0.00000734,-0.00001171,-0.000010
 19,0.00011167,0.00008103,0.00003229,0.00019497,-0.00022482,-0.00030600
 ,0.00026128,-0.00006820,-0.00179996,0.05088979,0.06352486,0.00065015,-
 0.00041717,-0.00068445,-0.00149722,0.00223937,0.00068064,-0.03684379,-
 0.00921381,-0.01056016,0.00254912,0.00057945,0.00365117,0.00006968,-0.
 00020918,0.00065512,-0.04644727,-0.00606879,-0.04725651,0.01423960,-0.
 00494660,0.00242942,-0.00036020,0.00051288,0.00024453,-0.00007983,0.00
 003009,0.00008864,0.00001611,-0.00007991,0.00002680,-0.00000875,-0.000
 00756,0.00000779,-0.00025893,-0.00007835,-0.00070013,-0.00077027,-0.00
 017252,0.00020787,0.02309933,0.00719749,0.00122688,-0.00006079,-0.0014
 5740,0.00159496,0.00023938,-0.00017366,-0.00023549,0.00005148,0.000091
 95,0.00029076,-0.00012057,0.00011280,-0.00018428,0.00008418,-0.0001023
 5,-0.00000235,0.00001127,-0.00002043,-0.00002456,-0.00003300,-0.000048
 14,-0.00000058,0.00000228,-0.00000715,0.00001584,0.00016392,-0.0000166
 5,-0.00032311,-0.00005299,0.00008236,0.00015501,0.00004275,-0.00005082
 ,-0.00004036,-0.00009802,0.00007013,-0.00002097,-0.00004323,-0.0001325
 0,0.00012488,0.00005694,0.00011977,-0.00003556,-0.00003459,-0.00002836
 ,0.00004095,0.00000112,0.00000562,-0.00001130,-0.00000352,-0.00001369,
 -0.00000047,-0.00000490,0.00000064,0.00000731,-0.00002061,0.00001148,-
 0.00001811,-0.00015144,0.00007832,0.00008845,-0.00001996,0.00000484,-0
 .00003540,-0.00005369,-0.00001263,0.00005544,-0.00001191,-0.00012768,-
 0.00008788,-0.00004910,-0.00022886,-0.00009765,0.00002087,-0.00002681,
 -0.00000056,-0.00000011,0.00004804,0.00000939,0.00007724,0.00001334,-0
 .00005697,0.00057277,-0.00052994,-0.00024033,-0.00153375,-0.00108492,-
 0.00604983,0.04591398,0.01155953,0.05732219,0.00003745,-0.00002781,0.0
 0010731,-0.00005025,0.00018539,0.00000347,-0.00071439,-0.00043884,-0.0
 0009023,0.00022450,0.00002925,0.00009657,-0.00005678,-0.00002122,0.000
 05403,-0.00587022,0.00125145,0.00270063,0.00107528,0.00012801,-0.00061
 262,0.00029306,-0.00002014,-0.00019769,0.00034619,-0.00003224,0.000130
 19,0.00000930,0.00004207,0.00000736,-0.00000006,-0.00000820,-0.0000001
 7,0.00046999,-0.00026597,0.00025193,-0.00212279,0.00706094,0.00249032,
 -0.33868466,-0.00601687,0.07779153,-0.02064013,0.00289718,-0.00462936,
 -0.00006468,-0.00072786,0.00373702,0.00004183,0.00007073,-0.00068625,0
 .00042371,-0.00087941,0.00016823,-0.00072910,0.00051597,0.00055289,0.0
 0004834,0.00007458,0.00009379,0.00003281,0.00005756,-0.00002166,0.0000
 0631,0.00001479,-0.00003838,-0.00022144,-0.00010247,0.00004294,0.00011
 395,0.00001029,-0.00000767,-0.00003381,0.00000322,-0.00000341,0.000494
 16,-0.00019475,0.00001560,-0.00000315,-0.00003849,-0.00014854,-0.00004
 544,-0.00004825,0.00002137,0.00001713,0.00000779,-0.00000374,-0.000002
 93,0.00000157,0.00000392,0.00000740,0.00000164,0.00000269,0.00001917,-
 0.00000231,-0.00002234,-0.00000025,-0.00016861,0.00010301,0.00142971,-
 0.00020573,-0.00117050,0.00013725,0.00003903,0.00024959,0.00011575,-0.
 00003392,-0.00009734,-0.00004912,0.00011750,-0.00000743,0.00000241,0.0
 0000112,0.00000216,0.00000934,-0.00014475,-0.00011635,-0.00000040,0.00
 005837,0.00002731,0.00018441,0.00042553,0.00091511,0.00003602,-0.00005
 274,-0.00011711,0.00031955,-0.00006888,0.00028529,0.00019726,-0.000104
 92,0.00069624,0.36319733,0.00004029,0.00034161,-0.00022562,-0.00039578
 ,-0.00083677,-0.00015030,-0.00127145,-0.00077043,-0.00141459,0.0004159
 7,0.00003119,0.00088036,-0.00001011,-0.00017127,0.00013762,-0.02311178
 ,0.00145970,0.00853241,0.00064963,0.00284897,-0.00061716,0.00032578,0.
 00035287,-0.00028167,0.00000119,0.00001549,-0.00035130,-0.00010597,-0.
 00012749,0.00007438,0.00000069,0.00003233,0.00000291,0.00296123,0.0014
 7327,0.00416113,0.03314506,-0.01313500,-0.01502737,-0.01143681,-0.0429
 0303,0.00379930,0.00207328,0.00304836,0.00158302,0.00050957,0.00003608
 ,0.00041093,0.00064589,0.00010000,0.00064881,-0.00079502,0.00059189,-0
 .00053399,0.00163481,-0.00083210,-0.00064061,-0.00007423,-0.00000154,0
 .00002617,0.00001683,0.00003816,-0.00010628,-0.00004335,-0.00006743,0.
 00006931,-0.00014801,0.00003888,-0.00005337,0.00004334,-0.00004457,0.0
 0001623,-0.00002521,-0.00000692,-0.00000425,-0.00000892,-0.00006070,0.
 00003143,-0.00001477,-0.00004130,-0.00000142,0.00006055,0.00008805,0.0
 0007027,-0.00000438,-0.00002650,-0.00007361,0.00000321,-0.00000171,0.0
 0000337,-0.00000551,-0.00000798,-0.00001018,-0.00000551,0.00000532,0.0
 0002387,-0.00016624,-0.00003718,-0.00010708,0.00036277,0.00024731,0.00
 029173,0.00000066,-0.00002491,-0.00000454,0.00001498,-0.00001373,-0.00
 008407,-0.00001533,-0.00000797,0.00003111,-0.00000425,-0.00000563,-0.0
 0000664,-0.00019862,0.00010400,0.00006223,-0.00012062,-0.00017096,-0.0
 0006294,-0.00108948,0.00031780,-0.00022480,-0.00005111,-0.00007109,0.0
 0007568,0.00032818,0.00000028,0.00036360,-0.00074185,-0.00304121,0.002
 49781,-0.00338958,0.05123587,-0.00002558,-0.00008349,-0.00027707,-0.00
 009449,0.00014626,-0.00016472,0.00054807,-0.00043011,0.00145816,-0.000
 29831,0.00012439,-0.00025784,-0.00002536,0.00000571,-0.00005461,0.0208
 6905,0.00209456,-0.00030621,-0.00135074,-0.00099954,0.00060064,-0.0002
 6671,-0.00012803,0.00013366,-0.00013131,-0.00008665,-0.00012095,-0.000
 05033,-0.00008520,0.00001729,0.00000150,0.00001130,-0.00000201,0.00265
 236,0.00085668,0.00291944,0.01434231,-0.00852926,-0.00425327,0.0846767
 6,0.00377913,-0.06846995,-0.03316925,0.00444232,-0.00574737,-0.0052633
 9,-0.00014009,0.00477695,-0.00016779,0.00011468,-0.00077551,0.00006913
 ,-0.00009036,0.00038765,0.00013390,0.00051930,-0.00032030,-0.00000923,
 0.00007884,0.00005470,0.00006352,0.00007154,0.00000426,0.00000650,0.00
 002134,-0.00003559,-0.00016213,0.00008345,0.00018558,0.00005609,-0.000
 07183,-0.00011679,-0.00000671,0.00002613,-0.00000088,-0.00002882,-0.00
 018479,-0.00002093,0.00015319,0.00005165,-0.00024841,-0.00009163,-0.00
 017245,0.00005248,0.00004471,0.00003662,-0.00004070,-0.00000201,-0.000
 00510,0.00001369,0.00000771,0.00001499,0.00000707,0.00003402,0.0000062
 9,-0.00003910,0.00007538,-0.00016188,0.00001462,0.00074445,-0.00056063
 ,-0.00057512,0.00025161,0.00003397,0.00003422,0.00007829,-0.00005500,-
 0.00005841,0.00006127,0.00014344,-0.00008601,-0.00002989,-0.00000196,0
 .00000758,-0.00014740,0.00011058,0.00002354,-0.00005139,-0.00005036,-0
 .00002788,-0.00085383,0.00016411,-0.00000824,-0.00011005,-0.00002733,0
 .00009937,-0.00037942,0.00011772,-0.00035045,0.00042570,0.00262097,-0.
 00225703,-0.08257972,-0.00381190,0.07382443\\0.02157107,-0.03121350,-0
 .00204179,-0.04453071,0.01527527,-0.02106878,0.05329667,0.00230718,0.0
 4679228,-0.00624346,0.00093826,0.01029900,-0.01117103,-0.00625325,-0.0
 3040855,-0.02290820,-0.02723105,0.00741359,0.00966130,-0.01413694,0.00
 118244,-0.00458091,0.03813358,-0.00497706,0.01937360,0.01408934,-0.027
 02278,-0.01564324,0.02616658,0.01342075,0.01496495,-0.02595165,-0.0145
 5611,-0.00793712,0.02003116,0.01535326,0.02991628,0.00179819,0.0644185
 4,-0.05063423,0.04703333,-0.02374964,0.00328243,-0.03852387,-0.0297677
 1,0.01796351,0.01045347,0.00079026,-0.01229065,0.00737936,0.02410960,-
 0.00864047,-0.01667623,0.00906080,0.01231357,0.01280645,-0.01850006,0.
 00956590,0.00133292,0.02837541,0.00544761,-0.00119237,0.00464521,-0.02
 135986,-0.01050495,-0.02150766,-0.01487094,-0.03372147,0.00238241,-0.0
 0979643,-0.01404181,0.00720375,-0.00037774,0.02877585,-0.01993089,0.02
 072889,-0.04839698,-0.01377203,-0.00313710,0.03433584,0.02926050,0.027
 19705,-0.01349326,-0.04703906,-0.00332407,0.01648885,0.01493495,-0.003
 04582,-0.00158838,-0.00058142,-0.01833905,0.00997421,-0.00200451,0.016
 88031,-0.01271348,-0.00435653,-0.01965261,0.01442767,-0.00125737,0.017
 10160,-0.00669782,-0.00202308,-0.01659727,0.00862097,-0.00240152,0.017
 51658,-0.00150743,-0.00138699,-0.00594513,-0.00125443,0.01636240,-0.00
 100261,-0.00304438,-0.00119123,-0.02061682,-0.00179366,-0.00276347,0.0
 0456727,0.00074859,0.01252395,0.02125963,0.00223729,-0.00194464,-0.024
 03243,0.00275938,-0.00286205,0.02738352,-0.00537132,-0.00189179,-0.020
 84175,0.00093174,-0.00564296,0.01752789,-0.00173727,-0.00387942\\\@


 DO YOU KNOW THAT THE LETTERS IN "EPISCOPAL", WHEN
 REARRANGED, SPELL "PEPSI COLA"?
 Job cpu time:  4 days  0 hours 59 minutes 35.2 seconds.
 File lengths (MBytes):  RWF=   2340 Int=      0 D2E=      0 Chk=     43 Scr=      1
 Normal termination of Gaussian 09 at Tue Feb 16 13:29:18 2016.
Gaussian '09 finished on node025 at Tue Feb 16 13:29:18 EST 2016.
