Gaussian '09 started on node021 at Fri Feb 12 11:20:38 EST 2016.
 Entering Gaussian System, Link 0=/usr/local/gaussian/g09/g09
 Initial command:
 /usr/local/gaussian/g09/l1.exe /home/srmcgrat/thesis/gaussian/cellobiose/450/8000/1/2dfp/gaussian17679/Gau-17715.inp -scrdir=/home/srmcgrat/thesis/gaussian/cellobiose/450/8000/1/2dfp/gaussian17679/
 Entering Link 1 = /usr/local/gaussian/g09/l1.exe PID=     17717.
  
 Copyright (c) 1988,1990,1992,1993,1995,1998,2003,2009,2010,
            Gaussian, Inc.  All Rights Reserved.
  
 This is part of the Gaussian(R) 09 program.  It is based on
 the Gaussian(R) 03 system (copyright 2003, Gaussian, Inc.),
 the Gaussian(R) 98 system (copyright 1998, Gaussian, Inc.),
 the Gaussian(R) 94 system (copyright 1995, Gaussian, Inc.),
 the Gaussian 92(TM) system (copyright 1992, Gaussian, Inc.),
 the Gaussian 90(TM) system (copyright 1990, Gaussian, Inc.),
 the Gaussian 88(TM) system (copyright 1988, Gaussian, Inc.),
 the Gaussian 86(TM) system (copyright 1986, Carnegie Mellon
 University), and the Gaussian 82(TM) system (copyright 1983,
 Carnegie Mellon University). Gaussian is a federally registered
 trademark of Gaussian, Inc.
  
 This software contains proprietary and confidential information,
 including trade secrets, belonging to Gaussian, Inc.
  
 This software is provided under written license and may be
 used, copied, transmitted, or stored only in accord with that
 written license.
  
 The following legend is applicable only to US Government
 contracts under FAR:
  
                    RESTRICTED RIGHTS LEGEND
  
 Use, reproduction and disclosure by the US Government is
 subject to restrictions as set forth in subparagraphs (a)
 and (c) of the Commercial Computer Software - Restricted
 Rights clause in FAR 52.227-19.
  
 Gaussian, Inc.
 340 Quinnipiac St., Bldg. 40, Wallingford CT 06492
  
  
 ---------------------------------------------------------------
 Warning -- This program may not be used in any manner that
 competes with the business of Gaussian, Inc. or will provide
 assistance to any competitor of Gaussian, Inc.  The licensee
 of this program is prohibited from giving any competitor of
 Gaussian, Inc. access to this program.  By using this program,
 the user acknowledges that Gaussian, Inc. is engaged in the
 business of creating and licensing software in the field of
 computational chemistry and represents and warrants to the
 licensee that it is not a competitor of Gaussian, Inc. and that
 it will not use this program in any manner prohibited above.
 ---------------------------------------------------------------
  

 Cite this work as:
 Gaussian 09, Revision B.01,
 M. J. Frisch, G. W. Trucks, H. B. Schlegel, G. E. Scuseria, 
 M. A. Robb, J. R. Cheeseman, G. Scalmani, V. Barone, B. Mennucci, 
 G. A. Petersson, H. Nakatsuji, M. Caricato, X. Li, H. P. Hratchian, 
 A. F. Izmaylov, J. Bloino, G. Zheng, J. L. Sonnenberg, M. Hada, 
 M. Ehara, K. Toyota, R. Fukuda, J. Hasegawa, M. Ishida, T. Nakajima, 
 Y. Honda, O. Kitao, H. Nakai, T. Vreven, J. A. Montgomery, Jr., 
 J. E. Peralta, F. Ogliaro, M. Bearpark, J. J. Heyd, E. Brothers, 
 K. N. Kudin, V. N. Staroverov, T. Keith, R. Kobayashi, J. Normand, 
 K. Raghavachari, A. Rendell, J. C. Burant, S. S. Iyengar, J. Tomasi, 
 M. Cossi, N. Rega, J. M. Millam, M. Klene, J. E. Knox, J. B. Cross, 
 V. Bakken, C. Adamo, J. Jaramillo, R. Gomperts, R. E. Stratmann, 
 O. Yazyev, A. J. Austin, R. Cammi, C. Pomelli, J. W. Ochterski, 
 R. L. Martin, K. Morokuma, V. G. Zakrzewski, G. A. Voth, 
 P. Salvador, J. J. Dannenberg, S. Dapprich, A. D. Daniels, 
 O. Farkas, J. B. Foresman, J. V. Ortiz, J. Cioslowski, 
 and D. J. Fox, Gaussian, Inc., Wallingford CT, 2010.
 
 ******************************************
 Gaussian 09:  EM64L-G09RevB.01 12-Aug-2010
                12-Feb-2016 
 ******************************************
 --------------------------------------------------
 # freq=raman b3lyp/6-31+g(2df,p) geom=connectivity
 --------------------------------------------------
 1/10=4,30=1,38=1,57=2/1,3;
 2/12=2,17=6,18=5,40=1/2;
 3/5=1,6=6,7=114,11=2,16=1,25=1,30=1,71=2,74=-5/1,2,3;
 4//1;
 5/5=2,38=5,98=1/2;
 8/6=4,10=90,11=11/1;
 10/13=10,15=4/2;
 11/6=3,8=1,9=11,15=111,16=1/1,2,10;
 10/6=1/2;
 6/7=2,8=2,9=2,10=2,18=1,28=1/1;
 7/8=1,10=1,25=1/1,2,3,16;
 1/10=4,30=1/3;
 99//99;
 ------------
 450 8000.com
 ------------
 Symbolic Z-matrix:
 Charge =  0 Multiplicity = 1
 O                     10.585    7.706     11.439 
 C                     11.468    7.566     12.561 
 C                     11.838    8.946     13.081 
 O                     12.852    9.65      12.349 
 H                     12.678    9.474     11.381 
 C                     12.034    9.193     14.568 
 O                     11.625    10.498    15.003 
 H                     11.741    11.221    14.323 
 C                     10.688    5.329     13.147 
 O                     10.304    4.305     14.076 
 H                     10.146    3.449     13.585 
 C                     10.843    6.745     13.677 
 O                     11.619    6.705     14.884 
 C                     11.588    8.028     15.437 
 O                     12.244    7.924     16.708 
 C                     11.427    7.955     17.887 
 C                     10.893    6.639     18.428 
 O                     10.059    6.003     17.449 
 H                     10.562    6.033     16.584 
 C                     10.069    6.916     19.675 
 O                     9.317     5.723     19.941 
 H                     8.592     5.529     19.281 
 C                     12.79     9.977     18.634 
 O                     11.983    11.122    18.323 
 H                     12.119    11.357    17.361 
 C                     12.276    8.589     18.978 
 O                     11.617    8.752     20.242 
 C                     11.047    7.509     20.676 
 O                     10.353    7.889     21.874 
 H                     10.99064   8.10598   22.55805 
 H                     11.82027   6.80517   20.9031 
 H                     9.36408   7.68346   19.43211 
 H                     11.71091   5.9948    18.67482 
 H                     10.59296   8.59741   17.69571 
 H                     13.12508   7.95664   19.13319 
 H                     13.44228   9.84547   17.79607 
 H                     13.40552   10.27106   19.45836 
 H                     11.10139   7.8062    10.63594 
 H                     11.62225   5.04027   12.7126 
 H                     9.95562   5.35196   12.36726 
 H                     9.87443   7.14147   13.89966 
 H                     12.35996   7.07376   12.23388 
 H                     10.95398   9.5095    12.86681 
 H                     13.09716   9.20734   14.6879 
 H                     10.5591   8.22221   15.65731 
 

 GradGradGradGradGradGradGradGradGradGradGradGradGradGradGradGradGradGrad
 Berny optimization.
 Initialization pass.
 Trust Radius=3.00D-01 FncErr=1.00D-07 GrdErr=1.00D-07
 Number of steps in this run=      2 maximum allowed number of steps=      2.
 GradGradGradGradGradGradGradGradGradGradGradGradGradGradGradGradGradGrad

                          Input orientation:                          
 ---------------------------------------------------------------------
 Center     Atomic      Atomic             Coordinates (Angstroms)
 Number     Number       Type             X           Y           Z
 ---------------------------------------------------------------------
      1          8           0       10.585000    7.706000   11.439000
      2          6           0       11.468000    7.566000   12.561000
      3          6           0       11.838000    8.946000   13.081000
      4          8           0       12.852000    9.650000   12.349000
      5          1           0       12.678000    9.474000   11.381000
      6          6           0       12.034000    9.193000   14.568000
      7          8           0       11.625000   10.498000   15.003000
      8          1           0       11.741000   11.221000   14.323000
      9          6           0       10.688000    5.329000   13.147000
     10          8           0       10.304000    4.305000   14.076000
     11          1           0       10.146000    3.449000   13.585000
     12          6           0       10.843000    6.745000   13.677000
     13          8           0       11.619000    6.705000   14.884000
     14          6           0       11.588000    8.028000   15.437000
     15          8           0       12.244000    7.924000   16.708000
     16          6           0       11.427000    7.955000   17.887000
     17          6           0       10.893000    6.639000   18.428000
     18          8           0       10.059000    6.003000   17.449000
     19          1           0       10.562000    6.033000   16.584000
     20          6           0       10.069000    6.916000   19.675000
     21          8           0        9.317000    5.723000   19.941000
     22          1           0        8.592000    5.529000   19.281000
     23          6           0       12.790000    9.977000   18.634000
     24          8           0       11.983000   11.122000   18.323000
     25          1           0       12.119000   11.357000   17.361000
     26          6           0       12.276000    8.589000   18.978000
     27          8           0       11.617000    8.752000   20.242000
     28          6           0       11.047000    7.509000   20.676000
     29          8           0       10.353000    7.889000   21.874000
     30          1           0       10.990644    8.105979   22.558055
     31          1           0       11.820274    6.805173   20.903100
     32          1           0        9.364083    7.683462   19.432113
     33          1           0       11.710915    5.994800   18.674824
     34          1           0       10.592961    8.597408   17.695711
     35          1           0       13.125076    7.956636   19.133194
     36          1           0       13.442280    9.845470   17.796068
     37          1           0       13.405517   10.271064   19.458357
     38          1           0       11.101392    7.806203   10.635944
     39          1           0       11.622252    5.040269   12.712596
     40          1           0        9.955619    5.351960   12.367262
     41          1           0        9.874428    7.141471   13.899663
     42          1           0       12.359958    7.073756   12.233881
     43          1           0       10.953981    9.509500   12.866807
     44          1           0       13.097164    9.207343   14.687904
     45          1           0       10.559096    8.222211   15.657315
 ---------------------------------------------------------------------
                    Distance matrix (angstroms):
                    1          2          3          4          5
     1  O    0.000000
     2  C    1.434633   0.000000
     3  C    2.409102   1.520428   0.000000
     4  O    3.121943   2.510668   1.435143   0.000000
     5  H    2.740408   2.548914   1.968345   0.999138   0.000000
     6  C    3.755185   2.644907   1.520064   2.408720   3.263536
     7  O    4.645316   3.818984   2.479548   3.044396   3.908487
     8  H    4.691377   4.066718   2.593761   2.756635   3.547583
     9  C    2.928823   2.440485   3.795991   4.898034   4.925432
    10  O    4.312717   3.779450   4.988192   6.167970   6.294240
    11  H    4.787493   4.443641   5.773551   6.877684   6.897048
    12  C    2.449230   1.519909   2.487899   3.773419   4.010771
    13  O    3.733521   2.482026   2.884589   4.076707   4.589101
    14  C    4.134452   2.915342   2.540858   3.710030   4.441864
    15  O    5.528306   4.234141   3.790046   4.727539   5.564871
    16  C    6.507509   5.340344   4.924291   5.964318   6.797087
    17  C    7.076685   5.967549   5.899634   7.061023   7.802798
    18  O    6.268731   5.321728   5.559273   6.863779   7.465094
    19  H    5.410220   4.399483   4.731253   6.021795   6.587044
    20  C    8.289876   7.279334   7.122577   8.300007   9.063150
    21  O    8.821798   7.904926   7.987664   9.249650   9.931763
    22  H    8.379042   7.588092   7.787965   9.120464   9.729770
    23  C    7.860502   6.666478   5.727571   6.293806   7.271283
    24  O    7.811076   6.790508   5.677549   6.213745   7.168702
    25  H    7.124117   6.151055   4.920394   5.345211   6.294328
    26  C    7.776612   6.548075   5.924011   6.738037   7.658932
    27  O    8.924794   7.773452   7.167036   8.039346   8.953453
    28  C    9.250644   8.126113   7.770114   8.785262   9.639420
    29  O   10.439183   9.385069   8.979940  10.003587  10.863742
    30  H   11.133638  10.023001   9.551870  10.491589  11.386185
    31  H    9.586792   8.384127   8.109791   9.073595   9.926164
    32  H    8.085852   7.186964   6.931876   8.136543   8.888672
    33  H    7.520175   6.317161   6.325867   7.394499   8.138793
    34  H    6.319898   5.309874   4.792411   5.899028   6.707562
    35  H    8.106505   6.789126   6.266136   6.997667   7.911939
    36  H    7.290658   6.041498   5.061089   5.482444   6.471106
    37  H    8.879468   7.657995   6.699522   7.157867   8.149128
    38  H    0.960000   1.974320   2.796431   3.065742   2.412954
    39  H    3.131144   2.534974   3.928995   4.784778   4.748234
    40  H    2.607546   2.688271   4.119454   5.182905   5.037388
    41  H    2.622684   2.124080   2.789650   4.190848   4.432197
    42  H    2.045005   1.070000   2.120224   2.625337   2.567047
    43  H    2.329676   2.033451   1.070000   1.972394   2.276208
    44  H    4.372685   3.141958   2.058138   2.393015   3.344012
    45  H    4.249862   3.293006   2.965951   4.270941   4.933923
                    6          7          8          9         10
     6  C    0.000000
     7  O    1.435107   0.000000
     8  H    2.063652   0.999292   0.000000
     9  C    4.331449   5.571469   6.099791   0.000000
    10  O    5.208407   6.399814   7.068029   1.434947   0.000000
    11  H    6.125714   7.340747   7.968228   2.004996   0.999390
    12  C    2.864449   4.056453   4.610672   1.519862   2.530479
    13  O    2.542091   3.794871   4.552347   2.403603   2.853435
    14  C    1.520297   2.508112   3.385211   3.652219   4.166738
    15  O    2.496810   3.148914   4.100176   4.672888   4.877313
    16  C    3.594003   3.850131   4.844321   5.468967   5.395123
    17  C    4.767011   5.211365   6.210061   5.444914   4.973367
    18  O    4.730421   5.351663   6.310984   4.399673   3.784225
    19  H    4.026989   4.854457   5.780788   3.510621   3.056569
    20  C    5.926838   6.089289   7.069124   6.746593   6.182342
    21  O    6.949253   7.246470   8.225917   6.942140   6.114174
    22  H    6.890909   7.224357   8.179048   6.485304   5.614370
    23  C    4.209341   3.848744   4.607891   7.491961   7.689418
    24  O    4.221808   3.397049   4.008537   7.875713   8.205336
    25  H    3.534257   2.557749   3.064445   7.492819   7.988501
    26  C    4.457744   4.457433   5.374260   6.866579   6.802282
    27  O    5.706369   5.522291   6.414507   7.932149   7.714877
    28  C    6.412308   6.438256   7.390615   7.846472   7.374121
    29  O    7.609455   7.458921   8.369371   9.100899   8.582323
    30  H    8.130878   7.950033   8.836431   9.816881   9.320095
    31  H    6.773544   6.963210   7.924868   7.976103   7.426927
    32  H    5.750370   5.714054   6.653341   6.840972   6.401984
    33  H    5.215254   5.811065   6.800915   5.660961   5.097452
    34  H    3.494839   3.453701   4.424524   5.601991   5.622328
    35  H    4.853868   5.076146   5.975760   6.976985   6.846030
    36  H    3.581814   3.395516   4.104709   7.042613   7.374586
    37  H    5.192194   4.803327   5.481322   8.464167   8.612961
    38  H    4.272473   5.156657   5.065996   3.551454   4.972750
    39  H    4.566972   5.918850   6.388188   1.070000   2.034030
    40  H    4.890450   6.017946   6.438798   1.070000   2.034030
    41  H    3.052736   3.943113   4.506203   2.124489   2.874229
    42  H    3.169472   4.464709   4.684780   2.583293   3.909779
    43  H    2.039772   2.447595   2.380994   4.198313   5.382512
    44  H    1.070000   1.983015   2.455025   4.818714   5.675311
    45  H    2.074700   2.596824   3.488556   3.832619   4.232042
                   11         12         13         14         15
    11  H    0.000000
    12  C    3.370147   0.000000
    13  O    3.802455   1.435488   0.000000
    14  C    5.145533   2.301894   1.434259   0.000000
    15  O    5.846397   3.541158   2.281132   1.434083   0.000000
    16  C    6.360204   4.419192   3.258431   2.456369   1.434744
    17  C    5.847115   4.752445   3.618200   3.370227   2.536696
    18  O    4.632600   3.923417   3.083120   3.238304   3.002257
    19  H    3.980466   3.006086   2.111595   2.519585   2.533847
    20  C    7.008147   6.050150   5.039911   4.637300   3.814417
    21  O    6.801254   6.527699   5.642409   5.545853   4.885081
    22  H    6.259851   6.160396   5.466197   5.476984   5.068871
    23  C    8.665906   6.229645   5.112702   3.932456   2.867473
    24  O    9.203159   6.484061   5.609733   4.249454   3.592151
    25  H    8.982615   6.039087   5.294019   3.881492   3.496788
    26  C    7.748609   5.792618   4.554332   3.650582   2.365618
    27  O    8.637204   6.908426   5.735711   4.859325   3.683459
    28  C    8.220565   7.043530   5.875446   5.292368   4.165340
    29  O    9.405529   8.290938   7.201716   6.555876   5.501333
    30  H   10.144781   8.985944   7.826154   7.146491   5.985579
    31  H    8.223240   7.292134   6.023298   5.606025   4.362360
    32  H    7.261597   6.015749   5.169852   4.585351   3.971470
    33  H    5.902234   5.127799   3.857872   3.825247   2.806134
    34  H    6.603319   4.432153   3.541142   2.533003   2.038377
    35  H    7.744426   6.037051   4.678729   4.003691   2.580489
    36  H    8.337469   5.773724   4.654787   3.508098   2.512333
    37  H    9.573992   7.240422   6.069036   4.950355   3.797670
    38  H    5.347422   3.231244   4.418885   4.830747   6.179748
    39  H    2.339347   2.107942   2.736117   4.043524   4.966460
    40  H    2.267242   2.107942   3.306285   4.387385   5.540224
    41  H    3.715791   1.070000   2.050112   2.466914   3.756858
    42  H    4.457128   2.119395   2.776352   3.430229   4.555667
    43  H    6.156159   2.882913   3.518030   3.033598   4.351175
    44  H    6.563862   3.488025   2.912927   2.056592   2.540797
    45  H    5.220027   2.486846   2.005827   1.070000   2.007927
                   16         17         18         19         20
    16  C    0.000000
    17  C    1.519767   0.000000
    18  O    2.423545   1.434745   0.000000
    19  H    2.477926   1.969044   1.001066   0.000000
    20  C    2.473991   1.520103   2.405981   3.252233   0.000000
    21  O    3.694975   2.368966   2.615154   3.593824   1.435099
    22  H    3.983207   2.693383   2.394366   3.377680   2.064106
    23  C    2.550345   3.844904   4.965407   4.972084   4.225783
    24  O    3.244861   4.614804   5.538033   5.562489   4.814742
    25  H    3.511288   4.990099   5.737304   5.601156   5.411061
    26  C    1.520868   2.453098   3.733675   3.898996   2.855799
    27  O    2.493458   2.877419   4.217252   4.678349   2.467527
    28  C    2.849884   2.415392   3.695634   4.377016   1.519912
    29  O    4.129649   3.705269   4.819134   5.610037   2.421360
    30  H    4.693821   4.383938   5.602938   6.338005   3.252304
    31  H    3.251712   2.648315   3.959340   4.564442   2.141839
    32  H    2.591666   2.106355   2.690650   3.502967   1.070000
    33  H    2.131586   1.070000   2.057069   2.386003   2.131864
    34  H    1.070000   2.112257   2.660250   2.795183   2.649387
    35  H    2.106292   2.686192   4.006747   4.094890   3.273542
    36  H    2.764688   4.144831   5.131434   4.929508   4.846772
    37  H    3.427513   4.535005   5.783862   5.857363   4.736638
    38  H    7.259888   7.881746   7.124314   6.230133   9.141270
    39  H    5.942074   5.979431   5.079777   4.134903   7.376044
    40  H    6.277602   6.266394   5.124315   4.314208   7.474096
    41  H    4.355590   4.668597   3.732020   2.984481   5.783010
    42  H    5.796961   6.380289   5.799861   4.820722   7.787402
    43  H    5.276605   6.258623   5.838923   5.104628   7.339000
    44  H    3.819951   5.044110   5.207870   4.483156   6.268266
    45  H    2.407520   3.208543   2.895709   2.377267   4.253020
                   21         22         23         24         25
    21  O    0.000000
    22  H    0.999430   0.000000
    23  C    5.645042   6.150327   0.000000
    24  O    6.234956   6.610469   1.434920   0.000000
    25  H    6.800703   7.077550   1.993783   0.999582   0.000000
    26  C    4.230485   4.798673   1.519564   2.632672   3.209542
    27  O    3.815159   4.523480   2.337139   3.071387   3.916400
    28  C    2.592860   3.448688   3.646757   4.412083   5.190907
    29  O    3.082425   3.923566   4.560297   5.071370   5.959274
    30  H    3.915182   4.809719   4.704956   5.293094   6.233113
    31  H    2.891905   3.831655   4.018666   5.031739   5.775365
    32  H    2.025980   2.293612   4.199310   4.462331   5.037257
    33  H    2.721747   3.211238   4.126016   5.146454   5.535870
    34  H    3.864145   3.991505   2.758739   2.949452   3.171147
    35  H    4.488109   5.144321   2.107924   3.461255   3.964257
    36  H    6.213971   6.660492   1.070000   2.009150   2.055499
    37  H    6.134640   6.759332   1.070000   2.009150   2.689478
    38  H    9.700920   9.285456   8.457698   8.417991   7.672683
    39  H    7.617751   7.250187   7.797306   8.282163   7.858467
    40  H    7.609665   7.049154   8.288348   8.536653   8.104205
    41  H    6.230613   5.762245   6.241372   6.313208   5.898274
    42  H    8.395464   8.139144   7.040972   7.321731   6.685177
    43  H    8.189108   7.909817   6.070423   5.781789   4.996829
    44  H    7.350191   7.411022   4.032170   4.256900   3.566970
    45  H    5.112614   4.924830   4.113012   4.188335   3.893937
                   26         27         28         29         30
    26  C    0.000000
    27  O    1.434763   0.000000
    28  C    2.357975   1.434679   0.000000
    29  O    3.546089   2.237384   1.435702   0.000000
    30  H    3.834350   2.484708   1.975269   0.960000   0.000000
    31  H    2.663783   2.066037   1.070000   2.066451   2.262577
    32  H    3.083095   2.621703   2.099977   2.642540   3.549047
    33  H    2.672286   3.172856   2.595822   3.958112   4.478320
    34  H    2.115882   2.748843   3.205137   4.244705   4.903268
    35  H    1.070000   2.033802   2.626600   3.898846   4.038289
    36  H    2.082280   3.241899   4.414801   5.477313   5.631418
    37  H    2.082280   2.473953   3.830699   4.563707   4.486349
    38  H    8.460636   9.666266  10.044601  11.263252  11.926393
    39  H    7.230226   8.394576   8.357114   9.677685  10.331048
    40  H    7.717801   8.736816   8.653269   9.847464  10.606986
    41  H    5.801068   6.771676   6.886853   8.023583   8.783163
    42  H    6.912753   8.215744   8.554687   9.880506  10.465613
    43  H    6.319948   7.443580   8.061895   9.171517   9.792421
    44  H    4.411529   5.765952   6.553231   7.804386   8.221296
    45  H    3.756227   4.734889   5.092536   6.229019   6.915197
                   31         32         33         34         35
    31  H    0.000000
    32  H    2.994674   0.000000
    33  H    2.373579   2.988760   0.000000
    34  H    3.873725   2.315281   2.997007   0.000000
    35  H    2.482125   3.782730   2.461454   2.981367   0.000000
    36  H    4.639824   4.897205   4.312482   3.112290   2.335855
    37  H    4.075866   4.798913   4.666051   3.717327   2.353923
    38  H   10.340858   8.966933   8.262946   7.122136   8.736199
    39  H    8.380839   7.565561   6.038804   6.208391   7.210253
    40  H    8.857161   7.463105   6.578726   6.271484   7.912498
    41  H    7.276506   5.582312   5.243062   4.128683   6.214584
    42  H    8.690153   7.820585   6.562861   5.939308   6.997528
    43  H    8.523254   6.997531   6.830748   4.927532   6.811215
    44  H    6.784507   6.226205   5.304494   3.961055   4.617971
    45  H    5.578246   3.995924   3.923443   2.072916   4.328570
                   36         37         38         39         40
    36  H    0.000000
    37  H    1.716300   0.000000
    38  H    7.804213   9.445608   0.000000
    39  H    7.228011   8.720467   3.497738   0.000000
    40  H    7.862593   9.294246   3.214586   1.730339   0.000000
    41  H    5.934909   7.291229   3.549531   2.979777   2.357370
    42  H    6.308070   7.969255   2.161913   2.215501   2.960273
    43  H    5.531919   7.073793   2.810640   4.521547   4.304812
    44  H    3.191707   4.897327   4.729130   4.841664   5.488047
    45  H    3.939795   5.171831   5.067673   4.463903   4.407604
                   41         42         43         44         45
    41  H    0.000000
    42  H    2.992871   0.000000
    43  H    2.799962   2.882744   0.000000
    44  H    3.908347   3.334351   2.828591   0.000000
    45  H    2.173962   4.035090   3.098384   2.889988   0.000000
 Stoichiometry    C12H22O11
 Framework group  C1[X(C12H22O11)]
 Deg. of freedom   129
 Full point group                 C1      NOp   1
 Largest Abelian subgroup         C1      NOp   1
 Largest concise Abelian subgroup C1      NOp   1
                         Standard orientation:                         
 ---------------------------------------------------------------------
 Center     Atomic      Atomic             Coordinates (Angstroms)
 Number     Number       Type             X           Y           Z
 ---------------------------------------------------------------------
      1          8           0        4.951323    0.358939    0.922179
      2          6           0        3.889380    0.126041   -0.013881
      3          6           0        3.347281   -1.280451    0.185142
      4          8           0        4.115051   -2.345286   -0.394764
      5          1           0        5.076177   -2.117997   -0.243597
      6          6           0        1.867344   -1.578783    0.008004
      7          8           0        1.365912   -2.594482    0.889169
      8          1           0        2.027453   -3.304014    1.128985
      9          6           0        3.331757    2.488105   -0.270157
     10          8           0        2.415677    3.583948   -0.407991
     11          1           0        2.924270    4.425860   -0.584903
     12          6           0        2.765633    1.138047    0.138292
     13          8           0        1.609194    0.858954   -0.665064
     14          6           0        1.012058   -0.329237   -0.127728
     15          8           0       -0.213303   -0.500006   -0.852932
     16          6           0       -1.439450   -0.183373   -0.178544
     17          6           0       -1.967793    1.238369   -0.274448
     18          8           0       -1.020028    2.157838    0.286632
     19          1           0       -0.127942    1.917510   -0.098803
     20          6           0       -3.270301    1.334401    0.503346
     21          8           0       -3.541379    2.733177    0.674960
     22          1           0       -2.919905    3.206892    1.298037
     23          6           0       -2.169754   -2.584610   -0.631289
     24          8           0       -1.945470   -3.293556    0.595938
     25          1           0       -0.985319   -3.568770    0.635088
     26          6           0       -2.497990   -1.106661   -0.761698
     27          8           0       -3.803833   -0.975215   -0.182007
     28          6           0       -4.229984    0.394470   -0.207762
     29          8           0       -5.479221    0.342620    0.497899
     30          1           0       -6.130677   -0.115662   -0.037996
     31          1           0       -4.387112    0.715506   -1.216298
     32          1           0       -3.095430    0.927035    1.477191
     33          1           0       -2.143891    1.486738   -1.300217
     34          1           0       -1.319662   -0.423139    0.857343
     35          1           0       -2.581198   -0.882456   -1.804631
     36          1           0       -1.290423   -2.739702   -1.220885
     37          1           0       -2.965047   -3.103137   -1.124785
     38          1           0        5.780098    0.049496    0.549382
     39          1           0        3.830549    2.361242   -1.208246
     40          1           0        4.065102    2.766830    0.457454
     41          1           0        2.472486    1.180002    1.166497
     42          1           0        4.285310    0.202463   -1.004992
     43          1           0        3.489528   -1.427808    1.235357
     44          1           0        1.810853   -2.032017   -0.959616
     45          1           0        0.724306   -0.078228    0.871818
 ---------------------------------------------------------------------
 Rotational constants (GHZ):      0.3896373      0.1524978      0.1151329
 Standard basis: 6-31+G(2df,p) (6D, 7F)
 There are   846 symmetry adapted basis functions of A   symmetry.
 Integral buffers will be    131072 words long.
 Raffenetti 2 integral format.
 Two-electron integral symmetry is turned on.
   846 basis functions,  1258 primitive gaussians,   915 cartesian basis functions
    91 alpha electrons       91 beta electrons
       nuclear repulsion energy      2283.9206678323 Hartrees.
 NAtoms=   45 NActive=   45 NUniq=   45 SFac= 1.00D+00 NAtFMM=   50 NAOKFM=F Big=F
 One-electron integrals computed using PRISM.
 NBasis=   846 RedAO= T  NBF=   846
 NBsUse=   846 1.00D-06 NBFU=   846
 Harris functional with IExCor=  402 diagonalized for initial guess.
 ExpMin= 4.38D-02 ExpMax= 5.48D+03 ExpMxC= 8.25D+02 IAcc=2 IRadAn=         0 AccDes= 0.00D+00
 HarFok:  IExCor=  402 AccDes= 0.00D+00 IRadAn=         0 IDoV= 1
 ScaDFX=  1.000000  1.000000  1.000000  1.000000
 FoFCou: FMM=F IPFlag=           0 FMFlag=      100000 FMFlg1=           0
         NFxFlg=           0 DoJE=T BraDBF=F KetDBF=T FulRan=T
         Omega=  0.000000  0.000000  1.000000  0.000000  0.000000 ICntrl=     500 IOpCl=  0
         NMat0=    1 NMatS0=    1 NMatT0=    0 NMatD0=    1 NMtDS0=    0 NMtDT0=    0
         I1Cent=           4 NGrid=           0.
 Petite list used in FoFCou.
 Initial guess orbital symmetries:
       Occupied  (A) (A) (A) (A) (A) (A) (A) (A) (A) (A) (A) (A)
                 (A) (A) (A) (A) (A) (A) (A) (A) (A) (A) (A) (A)
                 (A) (A) (A) (A) (A) (A) (A) (A) (A) (A) (A) (A)
                 (A) (A) (A) (A) (A) (A) (A) (A) (A) (A) (A) (A)
                 (A) (A) (A) (A) (A) (A) (A) (A) (A) (A) (A) (A)
                 (A) (A) (A) (A) (A) (A) (A) (A) (A) (A) (A) (A)
                 (A) (A) (A) (A) (A) (A) (A) (A) (A) (A) (A) (A)
                 (A) (A) (A) (A) (A) (A) (A)
       Virtual   (A) (A) (A) (A) (A) (A) (A) (A) (A) (A) (A) (A)
                 (A) (A) (A) (A) (A) (A) (A) (A) (A) (A) (A) (A)
                 (A) (A) (A) (A) (A) (A) (A) (A) (A) (A) (A) (A)
                 (A) (A) (A) (A) (A) (A) (A) (A) (A) (A) (A) (A)
                 (A) (A) (A) (A) (A) (A) (A) (A) (A) (A) (A) (A)
                 (A) (A) (A) (A) (A) (A) (A) (A) (A) (A) (A) (A)
                 (A) (A) (A) (A) (A) (A) (A) (A) (A) (A) (A) (A)
                 (A) (A) (A) (A) (A) (A) (A) (A) (A) (A) (A) (A)
                 (A) (A) (A) (A) (A) (A) (A) (A) (A) (A) (A) (A)
                 (A) (A) (A) (A) (A) (A) (A) (A) (A) (A) (A) (A)
                 (A) (A) (A) (A) (A) (A) (A) (A) (A) (A) (A) (A)
                 (A) (A) (A) (A) (A) (A) (A) (A) (A) (A) (A) (A)
                 (A) (A) (A) (A) (A) (A) (A) (A) (A) (A) (A) (A)
                 (A) (A) (A) (A) (A) (A) (A) (A) (A) (A) (A) (A)
                 (A) (A) (A) (A) (A) (A) (A) (A) (A) (A) (A) (A)
                 (A) (A) (A) (A) (A) (A) (A) (A) (A) (A) (A) (A)
                 (A) (A) (A) (A) (A) (A) (A) (A) (A) (A) (A) (A)
                 (A) (A) (A) (A) (A) (A) (A) (A) (A) (A) (A) (A)
                 (A) (A) (A) (A) (A) (A) (A) (A) (A) (A) (A) (A)
                 (A) (A) (A) (A) (A) (A) (A) (A) (A) (A) (A) (A)
                 (A) (A) (A) (A) (A) (A) (A) (A) (A) (A) (A) (A)
                 (A) (A) (A) (A) (A) (A) (A) (A) (A) (A) (A) (A)
                 (A) (A) (A) (A) (A) (A) (A) (A) (A) (A) (A) (A)
                 (A) (A) (A) (A) (A) (A) (A) (A) (A) (A) (A) (A)
                 (A) (A) (A) (A) (A) (A) (A) (A) (A) (A) (A) (A)
                 (A) (A) (A) (A) (A) (A) (A) (A) (A) (A) (A) (A)
                 (A) (A) (A) (A) (A) (A) (A) (A) (A) (A) (A) (A)
                 (A) (A) (A) (A) (A) (A) (A) (A) (A) (A) (A) (A)
                 (A) (A) (A) (A) (A) (A) (A) (A) (A) (A) (A) (A)
                 (A) (A) (A) (A) (A) (A) (A) (A) (A) (A) (A) (A)
                 (A) (A) (A) (A) (A) (A) (A) (A) (A) (A) (A) (A)
                 (A) (A) (A) (A) (A) (A) (A) (A) (A) (A) (A) (A)
                 (A) (A) (A) (A) (A) (A) (A) (A) (A) (A) (A) (A)
                 (A) (A) (A) (A) (A) (A) (A) (A) (A) (A) (A) (A)
                 (A) (A) (A) (A) (A) (A) (A) (A) (A) (A) (A) (A)
                 (A) (A) (A) (A) (A) (A) (A) (A) (A) (A) (A) (A)
                 (A) (A) (A) (A) (A) (A) (A) (A) (A) (A) (A) (A)
                 (A) (A) (A) (A) (A) (A) (A) (A) (A) (A) (A) (A)
                 (A) (A) (A) (A) (A) (A) (A) (A) (A) (A) (A) (A)
                 (A) (A) (A) (A) (A) (A) (A) (A) (A) (A) (A) (A)
                 (A) (A) (A) (A) (A) (A) (A) (A) (A) (A) (A) (A)
                 (A) (A) (A) (A) (A) (A) (A) (A) (A) (A) (A) (A)
                 (A) (A) (A) (A) (A) (A) (A) (A) (A) (A) (A) (A)
                 (A) (A) (A) (A) (A) (A) (A) (A) (A) (A) (A) (A)
                 (A) (A) (A) (A) (A) (A) (A) (A) (A) (A) (A) (A)
                 (A) (A) (A) (A) (A) (A) (A) (A) (A) (A) (A) (A)
                 (A) (A) (A) (A) (A) (A) (A) (A) (A) (A) (A) (A)
                 (A) (A) (A) (A) (A) (A) (A) (A) (A) (A) (A) (A)
                 (A) (A) (A) (A) (A) (A) (A) (A) (A) (A) (A) (A)
                 (A) (A) (A) (A) (A) (A) (A) (A) (A) (A) (A) (A)
                 (A) (A) (A) (A) (A) (A) (A) (A) (A) (A) (A) (A)
                 (A) (A) (A) (A) (A) (A) (A) (A) (A) (A) (A) (A)
                 (A) (A) (A) (A) (A) (A) (A) (A) (A) (A) (A) (A)
                 (A) (A) (A) (A) (A) (A) (A) (A) (A) (A) (A) (A)
                 (A) (A) (A) (A) (A) (A) (A) (A) (A) (A) (A) (A)
                 (A) (A) (A) (A) (A) (A) (A) (A) (A) (A) (A) (A)
                 (A) (A) (A) (A) (A) (A) (A) (A) (A) (A) (A) (A)
                 (A) (A) (A) (A) (A) (A) (A) (A) (A) (A) (A) (A)
                 (A) (A) (A) (A) (A) (A) (A) (A) (A) (A) (A) (A)
                 (A) (A) (A) (A) (A) (A) (A) (A) (A) (A) (A) (A)
                 (A) (A) (A) (A) (A) (A) (A) (A) (A) (A) (A) (A)
                 (A) (A) (A) (A) (A) (A) (A) (A) (A) (A) (A) (A)
                 (A) (A) (A) (A) (A) (A) (A) (A) (A) (A) (A)
 The electronic state of the initial guess is 1-A.
 Requested convergence on RMS density matrix=1.00D-08 within 128 cycles.
 Requested convergence on MAX density matrix=1.00D-06.
 Requested convergence on             energy=1.00D-06.
 No special actions if energy rises.
 SCF Done:  E(RB3LYP) =  -1297.98925901     A.U. after   14 cycles
             Convg  =    0.9844D-09             -V/T =  2.0066
 Range of M.O.s used for correlation:     1   846
 NBasis=   846 NAE=    91 NBE=    91 NFC=     0 NFV=     0
 NROrb=    846 NOA=    91 NOB=    91 NVA=   755 NVB=   755

 **** Warning!!: The largest alpha MO coefficient is  0.79702296D+02

          Differentiating once with respect to electric field.
                with respect to dipole field.
          Electric field/nuclear overlap derivatives assumed to be zero.
          There are     3 degrees of freedom in the 1st order CPHF.  IDoFFX=0.
      3 vectors produced by pass  0 Test12= 2.29D-12 3.33D-08 XBig12= 1.21D+02 1.13D+00.
 AX will form     3 AO Fock derivatives at one time.
      3 vectors produced by pass  1 Test12= 2.29D-12 3.33D-08 XBig12= 2.57D+01 4.54D-01.
      3 vectors produced by pass  2 Test12= 2.29D-12 3.33D-08 XBig12= 1.01D+01 2.41D-01.
      3 vectors produced by pass  3 Test12= 2.29D-12 3.33D-08 XBig12= 1.13D+00 6.68D-02.
      3 vectors produced by pass  4 Test12= 2.29D-12 3.33D-08 XBig12= 2.72D-01 4.34D-02.
      3 vectors produced by pass  5 Test12= 2.29D-12 3.33D-08 XBig12= 6.39D-02 1.56D-02.
      3 vectors produced by pass  6 Test12= 2.29D-12 3.33D-08 XBig12= 2.03D-02 1.07D-02.
      3 vectors produced by pass  7 Test12= 2.29D-12 3.33D-08 XBig12= 3.27D-03 7.17D-03.
      3 vectors produced by pass  8 Test12= 2.29D-12 3.33D-08 XBig12= 7.63D-04 2.39D-03.
      3 vectors produced by pass  9 Test12= 2.29D-12 3.33D-08 XBig12= 1.54D-04 1.60D-03.
      3 vectors produced by pass 10 Test12= 2.29D-12 3.33D-08 XBig12= 5.73D-05 6.14D-04.
      3 vectors produced by pass 11 Test12= 2.29D-12 3.33D-08 XBig12= 9.59D-06 3.69D-04.
      3 vectors produced by pass 12 Test12= 2.29D-12 3.33D-08 XBig12= 1.10D-06 1.20D-04.
      3 vectors produced by pass 13 Test12= 2.29D-12 3.33D-08 XBig12= 2.69D-07 3.70D-05.
      3 vectors produced by pass 14 Test12= 2.29D-12 3.33D-08 XBig12= 4.62D-08 1.96D-05.
      3 vectors produced by pass 15 Test12= 2.29D-12 3.33D-08 XBig12= 1.09D-08 6.79D-06.
      3 vectors produced by pass 16 Test12= 2.29D-12 3.33D-08 XBig12= 1.64D-09 4.45D-06.
      3 vectors produced by pass 17 Test12= 2.29D-12 3.33D-08 XBig12= 1.84D-10 1.16D-06.
      3 vectors produced by pass 18 Test12= 2.29D-12 3.33D-08 XBig12= 5.72D-11 4.30D-07.
      3 vectors produced by pass 19 Test12= 2.29D-12 3.33D-08 XBig12= 1.20D-11 2.37D-07.
      3 vectors produced by pass 20 Test12= 2.29D-12 3.33D-08 XBig12= 5.94D-12 1.78D-07.
      3 vectors produced by pass 21 Test12= 2.29D-12 3.33D-08 XBig12= 5.57D-12 1.63D-07.
      1 vectors produced by pass 22 Test12= 2.29D-12 3.33D-08 XBig12= 1.49D-12 6.45D-08.
 Inverted reduced A of dimension    67 with in-core refinement.
 End of Minotr Frequency-dependent properties file   721 does not exist.
 End of Minotr Frequency-dependent properties file   722 does not exist.
 Symmetrizing basis deriv contribution to polar:
 IMax=3 JMax=2 DiffMx= 0.00D+00
 G2DrvN: will do     8 centers at a time, making    6 passes doing MaxLOS=3.
 Calling FoFCou, ICntrl=  3107 FMM=F I1Cent=   0 AccDes= 0.00D+00.
 Calling FoFCou, ICntrl=  3107 FMM=F I1Cent=   0 AccDes= 0.00D+00.
 Calling FoFCou, ICntrl=  3107 FMM=F I1Cent=   0 AccDes= 0.00D+00.
 Calling FoFCou, ICntrl=  3107 FMM=F I1Cent=   0 AccDes= 0.00D+00.
 Calling FoFCou, ICntrl=  3107 FMM=F I1Cent=   0 AccDes= 0.00D+00.
 Calling FoFCou, ICntrl=  3107 FMM=F I1Cent=   0 AccDes= 0.00D+00.
 FoFDir/FoFCou used for L=0 through L=3.
 End of G2Drv Frequency-dependent properties file   721 does not exist.
 End of G2Drv Frequency-dependent properties file   722 does not exist.
          IDoAtm=111111111111111111111111111111111111111111111
          Differentiating once with respect to electric field.
                with respect to dipole field.
          Differentiating once with respect to nuclear coordinates.
          There are   138 degrees of freedom in the 1st order CPHF.  IDoFFX=5.
 Will reuse    3 saved solutions.
    135 vectors produced by pass  0 Test12= 6.87D-14 1.00D-09 XBig12= 1.97D-01 6.39D-02.
 AX will form    27 AO Fock derivatives at one time.
    135 vectors produced by pass  1 Test12= 6.87D-14 1.00D-09 XBig12= 2.21D-02 1.23D-02.
    132 vectors produced by pass  2 Test12= 6.87D-14 1.00D-09 XBig12= 2.38D-04 1.84D-03.
    132 vectors produced by pass  3 Test12= 6.87D-14 1.00D-09 XBig12= 1.37D-06 9.70D-05.
    132 vectors produced by pass  4 Test12= 6.87D-14 1.00D-09 XBig12= 3.15D-09 3.89D-06.
    132 vectors produced by pass  5 Test12= 6.87D-14 1.00D-09 XBig12= 8.34D-12 1.57D-07.
    104 vectors produced by pass  6 Test12= 6.87D-14 1.00D-09 XBig12= 3.50D-13 3.33D-08.
      4 vectors produced by pass  7 Test12= 6.87D-14 1.00D-09 XBig12= 2.34D-15 2.53D-09.
 Inverted reduced A of dimension   906 with in-core refinement.
 Isotropic polarizability for W=    0.000000      190.71 Bohr**3.
 End of Minotr Frequency-dependent properties file   721 does not exist.
 End of Minotr Frequency-dependent properties file   722 does not exist.

 **********************************************************************

            Population analysis using the SCF density.

 **********************************************************************

 Orbital symmetries:
       Occupied  (A) (A) (A) (A) (A) (A) (A) (A) (A) (A) (A) (A)
                 (A) (A) (A) (A) (A) (A) (A) (A) (A) (A) (A) (A)
                 (A) (A) (A) (A) (A) (A) (A) (A) (A) (A) (A) (A)
                 (A) (A) (A) (A) (A) (A) (A) (A) (A) (A) (A) (A)
                 (A) (A) (A) (A) (A) (A) (A) (A) (A) (A) (A) (A)
                 (A) (A) (A) (A) (A) (A) (A) (A) (A) (A) (A) (A)
                 (A) (A) (A) (A) (A) (A) (A) (A) (A) (A) (A) (A)
                 (A) (A) (A) (A) (A) (A) (A)
       Virtual   (A) (A) (A) (A) (A) (A) (A) (A) (A) (A) (A) (A)
                 (A) (A) (A) (A) (A) (A) (A) (A) (A) (A) (A) (A)
                 (A) (A) (A) (A) (A) (A) (A) (A) (A) (A) (A) (A)
                 (A) (A) (A) (A) (A) (A) (A) (A) (A) (A) (A) (A)
                 (A) (A) (A) (A) (A) (A) (A) (A) (A) (A) (A) (A)
                 (A) (A) (A) (A) (A) (A) (A) (A) (A) (A) (A) (A)
                 (A) (A) (A) (A) (A) (A) (A) (A) (A) (A) (A) (A)
                 (A) (A) (A) (A) (A) (A) (A) (A) (A) (A) (A) (A)
                 (A) (A) (A) (A) (A) (A) (A) (A) (A) (A) (A) (A)
                 (A) (A) (A) (A) (A) (A) (A) (A) (A) (A) (A) (A)
                 (A) (A) (A) (A) (A) (A) (A) (A) (A) (A) (A) (A)
                 (A) (A) (A) (A) (A) (A) (A) (A) (A) (A) (A) (A)
                 (A) (A) (A) (A) (A) (A) (A) (A) (A) (A) (A) (A)
                 (A) (A) (A) (A) (A) (A) (A) (A) (A) (A) (A) (A)
                 (A) (A) (A) (A) (A) (A) (A) (A) (A) (A) (A) (A)
                 (A) (A) (A) (A) (A) (A) (A) (A) (A) (A) (A) (A)
                 (A) (A) (A) (A) (A) (A) (A) (A) (A) (A) (A) (A)
                 (A) (A) (A) (A) (A) (A) (A) (A) (A) (A) (A) (A)
                 (A) (A) (A) (A) (A) (A) (A) (A) (A) (A) (A) (A)
                 (A) (A) (A) (A) (A) (A) (A) (A) (A) (A) (A) (A)
                 (A) (A) (A) (A) (A) (A) (A) (A) (A) (A) (A) (A)
                 (A) (A) (A) (A) (A) (A) (A) (A) (A) (A) (A) (A)
                 (A) (A) (A) (A) (A) (A) (A) (A) (A) (A) (A) (A)
                 (A) (A) (A) (A) (A) (A) (A) (A) (A) (A) (A) (A)
                 (A) (A) (A) (A) (A) (A) (A) (A) (A) (A) (A) (A)
                 (A) (A) (A) (A) (A) (A) (A) (A) (A) (A) (A) (A)
                 (A) (A) (A) (A) (A) (A) (A) (A) (A) (A) (A) (A)
                 (A) (A) (A) (A) (A) (A) (A) (A) (A) (A) (A) (A)
                 (A) (A) (A) (A) (A) (A) (A) (A) (A) (A) (A) (A)
                 (A) (A) (A) (A) (A) (A) (A) (A) (A) (A) (A) (A)
                 (A) (A) (A) (A) (A) (A) (A) (A) (A) (A) (A) (A)
                 (A) (A) (A) (A) (A) (A) (A) (A) (A) (A) (A) (A)
                 (A) (A) (A) (A) (A) (A) (A) (A) (A) (A) (A) (A)
                 (A) (A) (A) (A) (A) (A) (A) (A) (A) (A) (A) (A)
                 (A) (A) (A) (A) (A) (A) (A) (A) (A) (A) (A) (A)
                 (A) (A) (A) (A) (A) (A) (A) (A) (A) (A) (A) (A)
                 (A) (A) (A) (A) (A) (A) (A) (A) (A) (A) (A) (A)
                 (A) (A) (A) (A) (A) (A) (A) (A) (A) (A) (A) (A)
                 (A) (A) (A) (A) (A) (A) (A) (A) (A) (A) (A) (A)
                 (A) (A) (A) (A) (A) (A) (A) (A) (A) (A) (A) (A)
                 (A) (A) (A) (A) (A) (A) (A) (A) (A) (A) (A) (A)
                 (A) (A) (A) (A) (A) (A) (A) (A) (A) (A) (A) (A)
                 (A) (A) (A) (A) (A) (A) (A) (A) (A) (A) (A) (A)
                 (A) (A) (A) (A) (A) (A) (A) (A) (A) (A) (A) (A)
                 (A) (A) (A) (A) (A) (A) (A) (A) (A) (A) (A) (A)
                 (A) (A) (A) (A) (A) (A) (A) (A) (A) (A) (A) (A)
                 (A) (A) (A) (A) (A) (A) (A) (A) (A) (A) (A) (A)
                 (A) (A) (A) (A) (A) (A) (A) (A) (A) (A) (A) (A)
                 (A) (A) (A) (A) (A) (A) (A) (A) (A) (A) (A) (A)
                 (A) (A) (A) (A) (A) (A) (A) (A) (A) (A) (A) (A)
                 (A) (A) (A) (A) (A) (A) (A) (A) (A) (A) (A) (A)
                 (A) (A) (A) (A) (A) (A) (A) (A) (A) (A) (A) (A)
                 (A) (A) (A) (A) (A) (A) (A) (A) (A) (A) (A) (A)
                 (A) (A) (A) (A) (A) (A) (A) (A) (A) (A) (A) (A)
                 (A) (A) (A) (A) (A) (A) (A) (A) (A) (A) (A) (A)
                 (A) (A) (A) (A) (A) (A) (A) (A) (A) (A) (A) (A)
                 (A) (A) (A) (A) (A) (A) (A) (A) (A) (A) (A) (A)
                 (A) (A) (A) (A) (A) (A) (A) (A) (A) (A) (A) (A)
                 (A) (A) (A) (A) (A) (A) (A) (A) (A) (A) (A) (A)
                 (A) (A) (A) (A) (A) (A) (A) (A) (A) (A) (A) (A)
                 (A) (A) (A) (A) (A) (A) (A) (A) (A) (A) (A) (A)
                 (A) (A) (A) (A) (A) (A) (A) (A) (A) (A) (A) (A)
                 (A) (A) (A) (A) (A) (A) (A) (A) (A) (A) (A)
 The electronic state is 1-A.
 Alpha  occ. eigenvalues --  -19.20128 -19.19797 -19.19164 -19.18612 -19.17936
 Alpha  occ. eigenvalues --  -19.16633 -19.16381 -19.14872 -19.14615 -19.14329
 Alpha  occ. eigenvalues --  -19.14235 -10.31468 -10.29001 -10.27941 -10.27269
 Alpha  occ. eigenvalues --  -10.27104 -10.26650 -10.24949 -10.24423 -10.24011
 Alpha  occ. eigenvalues --  -10.23968 -10.23299 -10.21993  -1.10510  -1.07951
 Alpha  occ. eigenvalues --   -1.07263  -1.06040  -1.04659  -1.04186  -1.02862
 Alpha  occ. eigenvalues --   -1.02371  -1.00835  -0.99981  -0.99476  -0.82991
 Alpha  occ. eigenvalues --   -0.81953  -0.79248  -0.77749  -0.72700  -0.69774
 Alpha  occ. eigenvalues --   -0.68060  -0.65233  -0.63527  -0.62276  -0.60916
 Alpha  occ. eigenvalues --   -0.60090  -0.57909  -0.57156  -0.55230  -0.54334
 Alpha  occ. eigenvalues --   -0.53159  -0.53109  -0.52870  -0.52542  -0.51193
 Alpha  occ. eigenvalues --   -0.50204  -0.49881  -0.49088  -0.48196  -0.47977
 Alpha  occ. eigenvalues --   -0.46165  -0.45085  -0.44682  -0.43899  -0.43347
 Alpha  occ. eigenvalues --   -0.42711  -0.41955  -0.41195  -0.40330  -0.39728
 Alpha  occ. eigenvalues --   -0.39212  -0.38229  -0.37737  -0.36667  -0.36391
 Alpha  occ. eigenvalues --   -0.35394  -0.35134  -0.33840  -0.33364  -0.32632
 Alpha  occ. eigenvalues --   -0.32458  -0.31672  -0.31217  -0.30935  -0.29695
 Alpha  occ. eigenvalues --   -0.29538  -0.29146  -0.28552  -0.27664  -0.26624
 Alpha  occ. eigenvalues --   -0.26123
 Alpha virt. eigenvalues --   -0.04643  -0.02009  -0.01390   0.00044   0.00648
 Alpha virt. eigenvalues --    0.01071   0.01252   0.02227   0.02472   0.03190
 Alpha virt. eigenvalues --    0.03843   0.04230   0.04863   0.05196   0.05377
 Alpha virt. eigenvalues --    0.06077   0.06493   0.06563   0.07417   0.08079
 Alpha virt. eigenvalues --    0.08309   0.08571   0.09027   0.09537   0.10152
 Alpha virt. eigenvalues --    0.10627   0.10663   0.11002   0.11542   0.11861
 Alpha virt. eigenvalues --    0.12162   0.12383   0.12580   0.12915   0.13184
 Alpha virt. eigenvalues --    0.13418   0.13793   0.14587   0.14838   0.15237
 Alpha virt. eigenvalues --    0.15537   0.15799   0.15982   0.16365   0.16713
 Alpha virt. eigenvalues --    0.17202   0.17824   0.17955   0.18213   0.18417
 Alpha virt. eigenvalues --    0.18728   0.18938   0.19279   0.19435   0.19666
 Alpha virt. eigenvalues --    0.19844   0.20392   0.20801   0.21066   0.21624
 Alpha virt. eigenvalues --    0.21824   0.22092   0.22109   0.22584   0.23031
 Alpha virt. eigenvalues --    0.23386   0.23581   0.23665   0.24135   0.24312
 Alpha virt. eigenvalues --    0.24465   0.24629   0.24884   0.25548   0.25786
 Alpha virt. eigenvalues --    0.26057   0.26250   0.26696   0.26968   0.27784
 Alpha virt. eigenvalues --    0.28025   0.28174   0.28393   0.28653   0.28961
 Alpha virt. eigenvalues --    0.29273   0.29505   0.29765   0.30079   0.30550
 Alpha virt. eigenvalues --    0.31159   0.31207   0.31608   0.31890   0.32250
 Alpha virt. eigenvalues --    0.32461   0.32963   0.33071   0.33626   0.33778
 Alpha virt. eigenvalues --    0.34273   0.34770   0.35201   0.35406   0.35778
 Alpha virt. eigenvalues --    0.35858   0.36335   0.36529   0.36863   0.37277
 Alpha virt. eigenvalues --    0.37740   0.37808   0.38290   0.38486   0.39008
 Alpha virt. eigenvalues --    0.39493   0.39750   0.39857   0.40657   0.40825
 Alpha virt. eigenvalues --    0.40997   0.41818   0.42113   0.42479   0.43129
 Alpha virt. eigenvalues --    0.43353   0.44027   0.44620   0.44865   0.45374
 Alpha virt. eigenvalues --    0.46719   0.46916   0.47487   0.49420   0.50352
 Alpha virt. eigenvalues --    0.51352   0.52369   0.53614   0.56636   0.58019
 Alpha virt. eigenvalues --    0.58636   0.59147   0.59353   0.60185   0.61383
 Alpha virt. eigenvalues --    0.62505   0.62894   0.64014   0.64260   0.65723
 Alpha virt. eigenvalues --    0.66204   0.66877   0.68060   0.68232   0.68816
 Alpha virt. eigenvalues --    0.69454   0.69916   0.70998   0.71715   0.72702
 Alpha virt. eigenvalues --    0.73982   0.74649   0.74916   0.75567   0.76149
 Alpha virt. eigenvalues --    0.76343   0.77650   0.78990   0.79712   0.80181
 Alpha virt. eigenvalues --    0.80714   0.81528   0.83195   0.83533   0.84795
 Alpha virt. eigenvalues --    0.85916   0.86172   0.86585   0.87180   0.87758
 Alpha virt. eigenvalues --    0.88520   0.88956   0.89702   0.89999   0.90311
 Alpha virt. eigenvalues --    0.90459   0.91010   0.92552   0.92881   0.93568
 Alpha virt. eigenvalues --    0.93778   0.94108   0.94704   0.94815   0.95245
 Alpha virt. eigenvalues --    0.95757   0.96395   0.96874   0.97773   0.98037
 Alpha virt. eigenvalues --    0.98600   0.99503   0.99784   1.00222   1.00868
 Alpha virt. eigenvalues --    1.01209   1.02265   1.02583   1.02798   1.04071
 Alpha virt. eigenvalues --    1.04382   1.04696   1.05549   1.06441   1.07088
 Alpha virt. eigenvalues --    1.07759   1.08117   1.08906   1.09393   1.10333
 Alpha virt. eigenvalues --    1.10871   1.11508   1.11653   1.12629   1.13470
 Alpha virt. eigenvalues --    1.14354   1.14830   1.15374   1.16066   1.16970
 Alpha virt. eigenvalues --    1.17073   1.17444   1.17920   1.18089   1.18905
 Alpha virt. eigenvalues --    1.19296   1.20101   1.20739   1.20952   1.21132
 Alpha virt. eigenvalues --    1.22483   1.22927   1.23230   1.23830   1.23954
 Alpha virt. eigenvalues --    1.24099   1.25328   1.25882   1.26328   1.26531
 Alpha virt. eigenvalues --    1.27074   1.27634   1.28342   1.28770   1.29523
 Alpha virt. eigenvalues --    1.29882   1.30733   1.31256   1.31732   1.33498
 Alpha virt. eigenvalues --    1.33612   1.34931   1.35288   1.35866   1.36449
 Alpha virt. eigenvalues --    1.36895   1.37487   1.38049   1.38488   1.38809
 Alpha virt. eigenvalues --    1.40164   1.40506   1.40829   1.41602   1.42493
 Alpha virt. eigenvalues --    1.43637   1.43825   1.44848   1.46144   1.46823
 Alpha virt. eigenvalues --    1.47453   1.48003   1.48408   1.49449   1.50127
 Alpha virt. eigenvalues --    1.50369   1.51553   1.52265   1.53065   1.54260
 Alpha virt. eigenvalues --    1.55358   1.56117   1.57194   1.58491   1.58978
 Alpha virt. eigenvalues --    1.60034   1.60153   1.61499   1.62736   1.62916
 Alpha virt. eigenvalues --    1.63917   1.64834   1.66144   1.67293   1.68316
 Alpha virt. eigenvalues --    1.68640   1.68745   1.69909   1.71105   1.71834
 Alpha virt. eigenvalues --    1.72075   1.72986   1.74482   1.75438   1.76389
 Alpha virt. eigenvalues --    1.76633   1.78512   1.78932   1.79928   1.80554
 Alpha virt. eigenvalues --    1.81957   1.83147   1.84452   1.84627   1.85326
 Alpha virt. eigenvalues --    1.86089   1.87271   1.88336   1.89831   1.90963
 Alpha virt. eigenvalues --    1.91824   1.92686   1.92998   1.94321   1.95376
 Alpha virt. eigenvalues --    1.95851   1.96914   1.98195   1.98654   1.99364
 Alpha virt. eigenvalues --    2.01521   2.02626   2.03409   2.05154   2.05687
 Alpha virt. eigenvalues --    2.06406   2.06933   2.07885   2.10624   2.11331
 Alpha virt. eigenvalues --    2.13437   2.13934   2.16927   2.17429   2.18479
 Alpha virt. eigenvalues --    2.19843   2.21060   2.22761   2.23138   2.24571
 Alpha virt. eigenvalues --    2.25156   2.27498   2.28177   2.28591   2.30781
 Alpha virt. eigenvalues --    2.31272   2.33404   2.34935   2.36830   2.41076
 Alpha virt. eigenvalues --    2.43878   2.45508   2.46513   2.47540   2.49872
 Alpha virt. eigenvalues --    2.51040   2.52098   2.52883   2.53568   2.54255
 Alpha virt. eigenvalues --    2.54899   2.56096   2.58554   2.58737   2.59535
 Alpha virt. eigenvalues --    2.60770   2.61317   2.63387   2.63857   2.64653
 Alpha virt. eigenvalues --    2.64844   2.65422   2.65906   2.68399   2.68965
 Alpha virt. eigenvalues --    2.69923   2.71047   2.72405   2.72834   2.75346
 Alpha virt. eigenvalues --    2.77776   2.78308   2.79726   2.80163   2.81143
 Alpha virt. eigenvalues --    2.83191   2.83740   2.85122   2.85594   2.86242
 Alpha virt. eigenvalues --    2.86803   2.89294   2.90146   2.90854   2.91994
 Alpha virt. eigenvalues --    2.93412   2.95860   2.96426   2.96975   2.98291
 Alpha virt. eigenvalues --    2.99147   2.99815   3.00776   3.02047   3.02489
 Alpha virt. eigenvalues --    3.03262   3.04195   3.05042   3.05297   3.06561
 Alpha virt. eigenvalues --    3.06629   3.07814   3.08335   3.09426   3.11082
 Alpha virt. eigenvalues --    3.12279   3.13437   3.15564   3.15946   3.17152
 Alpha virt. eigenvalues --    3.19184   3.19853   3.20803   3.21832   3.22671
 Alpha virt. eigenvalues --    3.24114   3.24630   3.25349   3.26675   3.27397
 Alpha virt. eigenvalues --    3.28057   3.29008   3.31160   3.31833   3.32722
 Alpha virt. eigenvalues --    3.33907   3.35308   3.35775   3.37593   3.37838
 Alpha virt. eigenvalues --    3.39933   3.40797   3.41994   3.44455   3.45082
 Alpha virt. eigenvalues --    3.45683   3.48176   3.49777   3.50551   3.51590
 Alpha virt. eigenvalues --    3.55058   3.56384   3.56532   3.57928   3.58825
 Alpha virt. eigenvalues --    3.59326   3.60454   3.62747   3.64398   3.65497
 Alpha virt. eigenvalues --    3.67028   3.68660   3.71168   3.71375   3.71939
 Alpha virt. eigenvalues --    3.72357   3.73167   3.75710   3.77013   3.78065
 Alpha virt. eigenvalues --    3.79485   3.81440   3.82988   3.84300   3.84576
 Alpha virt. eigenvalues --    3.86852   3.87061   3.88794   3.91011   3.93233
 Alpha virt. eigenvalues --    3.94063   3.94499   3.97336   3.99569   4.03213
 Alpha virt. eigenvalues --    4.03570   4.06535   4.08307   4.11332   4.12048
 Alpha virt. eigenvalues --    4.12702   4.14480   4.15740   4.16708   4.17346
 Alpha virt. eigenvalues --    4.18450   4.19260   4.21113   4.22051   4.23332
 Alpha virt. eigenvalues --    4.24214   4.25918   4.28561   4.28770   4.29494
 Alpha virt. eigenvalues --    4.31680   4.31773   4.32241   4.32558   4.33022
 Alpha virt. eigenvalues --    4.33497   4.35925   4.36378   4.37206   4.37552
 Alpha virt. eigenvalues --    4.38601   4.39772   4.40576   4.41670   4.42811
 Alpha virt. eigenvalues --    4.43398   4.43763   4.44388   4.44770   4.45745
 Alpha virt. eigenvalues --    4.46152   4.48201   4.48908   4.48998   4.50590
 Alpha virt. eigenvalues --    4.51202   4.52007   4.52838   4.53922   4.54463
 Alpha virt. eigenvalues --    4.55863   4.56694   4.57693   4.58340   4.58686
 Alpha virt. eigenvalues --    4.59804   4.60205   4.60641   4.61335   4.61737
 Alpha virt. eigenvalues --    4.62361   4.62688   4.64046   4.64218   4.65308
 Alpha virt. eigenvalues --    4.65992   4.66363   4.66940   4.67649   4.68225
 Alpha virt. eigenvalues --    4.68580   4.69304   4.70547   4.71158   4.71993
 Alpha virt. eigenvalues --    4.72491   4.72890   4.73621   4.74158   4.74947
 Alpha virt. eigenvalues --    4.75247   4.75744   4.76492   4.78195   4.78875
 Alpha virt. eigenvalues --    4.79102   4.80097   4.80748   4.81275   4.81758
 Alpha virt. eigenvalues --    4.82172   4.82805   4.83525   4.83880   4.85038
 Alpha virt. eigenvalues --    4.85559   4.86212   4.87672   4.88471   4.89930
 Alpha virt. eigenvalues --    4.90557   4.92660   4.92974   4.94517   4.95162
 Alpha virt. eigenvalues --    4.95629   4.96146   4.97752   4.98318   5.00329
 Alpha virt. eigenvalues --    5.03257   5.06172   5.06670   5.09863   5.10415
 Alpha virt. eigenvalues --    5.12260   5.12338   5.14067   5.17181   5.17317
 Alpha virt. eigenvalues --    5.18333   5.19203   5.21509   5.22665   5.22960
 Alpha virt. eigenvalues --    5.23271   5.24405   5.25593   5.26531   5.27246
 Alpha virt. eigenvalues --    5.28518   5.29012   5.29987   5.32163   5.32691
 Alpha virt. eigenvalues --    5.33195   5.35865   5.36770   5.38568   5.39620
 Alpha virt. eigenvalues --    5.39841   5.40692   5.41008   5.42619   5.42865
 Alpha virt. eigenvalues --    5.43871   5.44207   5.44634   5.45271   5.46184
 Alpha virt. eigenvalues --    5.47246   5.48168   5.49212   5.49977   5.50771
 Alpha virt. eigenvalues --    5.51917   5.52457   5.53935   5.55627   5.57920
 Alpha virt. eigenvalues --    5.58197   5.59720   5.61415   5.62692   5.64745
 Alpha virt. eigenvalues --    5.66029   5.66104   5.70995   5.71644   5.74436
 Alpha virt. eigenvalues --    5.76815   5.77333   5.79886   5.81940   5.83443
 Alpha virt. eigenvalues --    5.84399   5.85581   5.87240   5.89495   5.90169
 Alpha virt. eigenvalues --    5.91334   5.91931   5.92608   5.93023   5.93692
 Alpha virt. eigenvalues --    5.94655   5.95853   5.96729   5.97949   5.98476
 Alpha virt. eigenvalues --    5.99093   6.01326   6.03888   6.04195   6.05855
 Alpha virt. eigenvalues --    6.06442   6.07688   6.08396   6.09774   6.10112
 Alpha virt. eigenvalues --    6.12731   6.13442   6.16358   6.17275   6.20154
 Alpha virt. eigenvalues --    6.22193   6.27451   6.30688   6.32221   6.36733
 Alpha virt. eigenvalues --    6.47548   6.60248   6.90693   7.00693   7.08067
 Alpha virt. eigenvalues --    7.10410   7.14039   7.17234   7.19981   7.25945
 Alpha virt. eigenvalues --    7.28982   7.34720   7.39222   7.43163   7.61314
 Alpha virt. eigenvalues --    8.03282   8.19739  11.93824  12.14001  12.17598
 Alpha virt. eigenvalues --   12.20492  12.38438  12.56017  12.83040  12.91484
 Alpha virt. eigenvalues --   12.96682  13.05216  13.16693  13.33518  13.37874
 Alpha virt. eigenvalues --   13.42184  13.47270  13.52574  13.55211  13.61813
 Alpha virt. eigenvalues --   13.66514  13.76149  13.93137  13.98079  14.17524
          Condensed to atoms (all electrons):
              1          2          3          4          5          6
     1  O    8.081035   0.152360   0.001661  -0.003534   0.008143   0.069084
     2  C    0.152360   8.492154  -1.618457   0.009291   0.009718  -0.577686
     3  C    0.001661  -1.618457   8.569645  -0.012877  -0.046563  -2.033543
     4  O   -0.003534   0.009291  -0.012877   8.150924   0.230823   0.134364
     5  H    0.008143   0.009718  -0.046563   0.230823   0.450117   0.030951
     6  C    0.069084  -0.577686  -2.033543   0.134364   0.030951  11.167040
     7  O   -0.001043   0.032806  -0.017788  -0.008320   0.000203   0.199193
     8  H   -0.000027  -0.013668   0.020044   0.004362  -0.000249  -0.076166
     9  C   -0.056030   0.359465  -0.405637   0.009483   0.001652   0.262967
    10  O   -0.000047   0.001068   0.008269   0.000006   0.000001  -0.012838
    11  H    0.000025   0.000011   0.001083   0.000000   0.000000   0.000096
    12  C   -0.014396  -1.799624   0.539595  -0.004305   0.007891   0.415629
    13  O    0.002836   0.032115  -0.046077  -0.003990   0.000261   0.091878
    14  C   -0.032890   0.411382   0.773340   0.010761  -0.015430  -3.914392
    15  O    0.000121   0.015360   0.002710   0.000300   0.000027  -0.088305
    16  C    0.000688   0.194147  -0.060172  -0.001598  -0.000101   0.169519
    17  C   -0.000054  -0.047500  -0.050045   0.000336  -0.000011   0.016964
    18  O    0.000013  -0.000441  -0.000390  -0.000010   0.000000   0.002998
    19  H   -0.000016  -0.001239   0.000452   0.000004   0.000000   0.009009
    20  C    0.000042   0.007784   0.003982  -0.000003  -0.000001  -0.010674
    21  O    0.000000   0.000071   0.000155   0.000000   0.000000  -0.000331
    22  H    0.000000   0.000001   0.000013   0.000000   0.000000  -0.000114
    23  C    0.000010   0.014159  -0.073531  -0.000079  -0.000016   0.046243
    24  O   -0.000001  -0.000140  -0.000430   0.000001   0.000000  -0.000539
    25  H    0.000000  -0.000156   0.004025   0.000019   0.000000   0.003739
    26  C    0.000018  -0.033459   0.128157   0.000568   0.000002  -0.065498
    27  O    0.000000   0.000135  -0.000587   0.000000   0.000000  -0.000794
    28  C   -0.000002  -0.000059   0.001244   0.000002   0.000000  -0.013653
    29  O    0.000000  -0.000005  -0.000010   0.000000   0.000000   0.000009
    30  H    0.000000   0.000000   0.000000   0.000000   0.000000   0.000020
    31  H    0.000000   0.000004   0.000004   0.000000   0.000000  -0.000065
    32  H    0.000000   0.000201  -0.000030   0.000000   0.000000   0.001814
    33  H    0.000000   0.000597  -0.000162   0.000000   0.000000   0.006470
    34  H   -0.000003  -0.000965  -0.002988   0.000001   0.000000   0.005982
    35  H    0.000000  -0.000046  -0.001181   0.000000   0.000000  -0.004775
    36  H    0.000000   0.000360  -0.002903  -0.000019   0.000000  -0.006505
    37  H    0.000000   0.000030  -0.000645   0.000000   0.000000  -0.004472
    38  H    0.266159   0.033634  -0.039952  -0.001253   0.000870  -0.012742
    39  H   -0.000826   0.088429  -0.025473   0.000092   0.000000   0.007412
    40  H   -0.001643  -0.004330  -0.003460  -0.000020  -0.000001  -0.006151
    41  H   -0.000829   0.173825  -0.093456   0.000056   0.000005  -0.031703
    42  H   -0.034710   0.372200  -0.073882  -0.000308   0.000186  -0.004259
    43  H   -0.011567  -0.065547   0.528242  -0.055969  -0.003004  -0.230019
    44  H   -0.000330  -0.022560   0.042942  -0.009768   0.000182   0.491903
    45  H    0.000019  -0.027167  -0.036906  -0.000363   0.000010   0.091202
              7          8          9         10         11         12
     1  O   -0.001043  -0.000027  -0.056030  -0.000047   0.000025  -0.014396
     2  C    0.032806  -0.013668   0.359465   0.001068   0.000011  -1.799624
     3  C   -0.017788   0.020044  -0.405637   0.008269   0.001083   0.539595
     4  O   -0.008320   0.004362   0.009483   0.000006   0.000000  -0.004305
     5  H    0.000203  -0.000249   0.001652   0.000001   0.000000   0.007891
     6  C    0.199193  -0.076166   0.262967  -0.012838   0.000096   0.415629
     7  O    8.156839   0.250921  -0.000482   0.000014   0.000000  -0.023299
     8  H    0.250921   0.386094   0.000166   0.000000   0.000000   0.008375
     9  C   -0.000482   0.000166   6.529994   0.246749  -0.053170  -1.172518
    10  O    0.000014   0.000000   0.246749   8.102669   0.245574  -0.078888
    11  H    0.000000   0.000000  -0.053170   0.245574   0.425915   0.039715
    12  C   -0.023299   0.008375  -1.172518  -0.078888   0.039715   9.415198
    13  O    0.001645  -0.000097  -0.023132   0.007516   0.000678   0.075053
    14  C   -0.074962   0.047746  -0.430552  -0.010906   0.001295  -0.922511
    15  O    0.008275   0.000007   0.010134  -0.000400   0.000012  -0.040734
    16  C    0.078411  -0.006911  -0.013247   0.018158  -0.000652  -0.218415
    17  C    0.004553  -0.000008   0.015942  -0.009290   0.000507  -0.144341
    18  O   -0.000059  -0.000002  -0.002820  -0.000056   0.000166   0.004461
    19  H   -0.000079   0.000000  -0.000344   0.002495  -0.000066   0.001790
    20  C    0.000852  -0.000095  -0.001251   0.000534  -0.000048  -0.025052
    21  O   -0.000007   0.000000  -0.000350  -0.000012   0.000000   0.001258
    22  H   -0.000001   0.000000  -0.000143  -0.000001   0.000000  -0.000004
    23  C    0.009138  -0.000062   0.001311  -0.000019  -0.000001  -0.002375
    24  O   -0.005416   0.000871   0.000033  -0.000001   0.000000   0.002421
    25  H    0.007045  -0.000217  -0.000008   0.000000   0.000000  -0.000377
    26  C   -0.040844   0.001215   0.020952  -0.000217   0.000026   0.036852
    27  O   -0.000003   0.000003   0.000016   0.000002   0.000000   0.000091
    28  C   -0.000111   0.000001  -0.001694   0.000240  -0.000003   0.007892
    29  O    0.000002   0.000000   0.000010   0.000000   0.000000   0.000048
    30  H    0.000000   0.000000   0.000000   0.000000   0.000000  -0.000002
    31  H    0.000001   0.000000   0.000003   0.000000   0.000000   0.000145
    32  H    0.000015   0.000000   0.000061   0.000000   0.000000   0.000756
    33  H   -0.000015   0.000000   0.000703  -0.000023   0.000000  -0.000946
    34  H   -0.000768  -0.000005   0.001249   0.000003   0.000000   0.010725
    35  H    0.000121   0.000000   0.000076   0.000000   0.000000   0.001983
    36  H   -0.000065   0.000000  -0.000008   0.000000   0.000000   0.000371
    37  H    0.000416   0.000000  -0.000002   0.000000   0.000000  -0.000021
    38  H    0.000021  -0.000001   0.002191   0.000008  -0.000001   0.006910
    39  H    0.000012   0.000000   0.600098  -0.042774  -0.002441  -0.359011
    40  H   -0.000002   0.000000   0.400128  -0.030797  -0.006008  -0.025171
    41  H    0.000426  -0.000002   0.082854   0.001449  -0.000078  -0.019282
    42  H   -0.000066   0.000002  -0.009528   0.000709  -0.000008  -0.034126
    43  H   -0.001616   0.000494   0.000519   0.000068   0.000000   0.040595
    44  H   -0.057786   0.000146   0.008239   0.000002   0.000000   0.035053
    45  H   -0.001681  -0.000281   0.033768   0.000078  -0.000001   0.062931
             13         14         15         16         17         18
     1  O    0.002836  -0.032890   0.000121   0.000688  -0.000054   0.000013
     2  C    0.032115   0.411382   0.015360   0.194147  -0.047500  -0.000441
     3  C   -0.046077   0.773340   0.002710  -0.060172  -0.050045  -0.000390
     4  O   -0.003990   0.010761   0.000300  -0.001598   0.000336  -0.000010
     5  H    0.000261  -0.015430   0.000027  -0.000101  -0.000011   0.000000
     6  C    0.091878  -3.914392  -0.088305   0.169519   0.016964   0.002998
     7  O    0.001645  -0.074962   0.008275   0.078411   0.004553  -0.000059
     8  H   -0.000097   0.047746   0.000007  -0.006911  -0.000008  -0.000002
     9  C   -0.023132  -0.430552   0.010134  -0.013247   0.015942  -0.002820
    10  O    0.007516  -0.010906  -0.000400   0.018158  -0.009290  -0.000056
    11  H    0.000678   0.001295   0.000012  -0.000652   0.000507   0.000166
    12  C    0.075053  -0.922511  -0.040734  -0.218415  -0.144341   0.004461
    13  O    7.789683   0.143006   0.014846  -0.003398   0.001138  -0.014937
    14  C    0.143006  11.484748   0.276700  -1.322019  -0.128109   0.069755
    15  O    0.014846   0.276700   7.846532   0.199228  -0.040184  -0.014210
    16  C   -0.003398  -1.322019   0.199228  12.851595  -2.417375  -0.113073
    17  C    0.001138  -0.128109  -0.040184  -2.417375   8.370157   0.227692
    18  O   -0.014937   0.069755  -0.014210  -0.113073   0.227692   8.140254
    19  H    0.020345   0.000810   0.010693  -0.057994   0.044025   0.234821
    20  C   -0.010438  -0.263425  -0.017096  -1.623505   0.737369  -0.066672
    21  O    0.000067  -0.002944   0.000267   0.049041  -0.169858  -0.008227
    22  H   -0.000016   0.002821   0.000045  -0.015813  -0.022720   0.006226
    23  C   -0.001537   0.021052  -0.105471   0.372515   0.006675   0.013404
    24  O    0.000093   0.004501   0.003747  -0.007850   0.020335   0.000089
    25  H   -0.000059   0.004282   0.000730   0.007810  -0.004771  -0.000013
    26  C    0.002849  -0.625005   0.059990  -3.596234   0.216144   0.025412
    27  O    0.000082  -0.005391   0.000234   0.030590  -0.008882  -0.000856
    28  C    0.001192   0.104774   0.017130   0.991782  -0.523854  -0.009132
    29  O    0.000006   0.001019   0.000011  -0.014248   0.006101   0.000377
    30  H    0.000000   0.000143   0.000007   0.010624   0.002373  -0.000003
    31  H    0.000020   0.003117   0.000527   0.066993  -0.054613   0.001346
    32  H    0.000025  -0.014268   0.000814   0.116217  -0.214600   0.007279
    33  H   -0.001073   0.005238  -0.003163  -0.089676   0.264962  -0.014342
    34  H    0.000132   0.024371  -0.025751   0.182197  -0.054027  -0.000277
    35  H    0.000062   0.067045   0.000208   0.088668  -0.063714   0.000162
    36  H    0.000138   0.017861   0.000855  -0.025363  -0.003744  -0.000026
    37  H   -0.000002   0.004149  -0.002499   0.090043   0.006869   0.000024
    38  H   -0.000594   0.003356   0.000009   0.000063   0.000003  -0.000001
    39  H    0.004404   0.021591   0.000508   0.002556   0.000370  -0.000021
    40  H    0.002279   0.005794  -0.000087   0.000678  -0.000353  -0.000018
    41  H   -0.027972   0.135914   0.003815   0.019960   0.004903  -0.000099
    42  H   -0.001639   0.042196  -0.000360  -0.002489   0.000559   0.000011
    43  H   -0.001956   0.027572  -0.000308  -0.005330   0.000879   0.000008
    44  H    0.003451  -0.236335  -0.009451  -0.007621  -0.001175  -0.000020
    45  H   -0.035152   0.150492  -0.029379   0.004291  -0.008423  -0.000507
             19         20         21         22         23         24
     1  O   -0.000016   0.000042   0.000000   0.000000   0.000010  -0.000001
     2  C   -0.001239   0.007784   0.000071   0.000001   0.014159  -0.000140
     3  C    0.000452   0.003982   0.000155   0.000013  -0.073531  -0.000430
     4  O    0.000004  -0.000003   0.000000   0.000000  -0.000079   0.000001
     5  H    0.000000  -0.000001   0.000000   0.000000  -0.000016   0.000000
     6  C    0.009009  -0.010674  -0.000331  -0.000114   0.046243  -0.000539
     7  O   -0.000079   0.000852  -0.000007  -0.000001   0.009138  -0.005416
     8  H    0.000000  -0.000095   0.000000   0.000000  -0.000062   0.000871
     9  C   -0.000344  -0.001251  -0.000350  -0.000143   0.001311   0.000033
    10  O    0.002495   0.000534  -0.000012  -0.000001  -0.000019  -0.000001
    11  H   -0.000066  -0.000048   0.000000   0.000000  -0.000001   0.000000
    12  C    0.001790  -0.025052   0.001258  -0.000004  -0.002375   0.002421
    13  O    0.020345  -0.010438   0.000067  -0.000016  -0.001537   0.000093
    14  C    0.000810  -0.263425  -0.002944   0.002821   0.021052   0.004501
    15  O    0.010693  -0.017096   0.000267   0.000045  -0.105471   0.003747
    16  C   -0.057994  -1.623505   0.049041  -0.015813   0.372515  -0.007850
    17  C    0.044025   0.737369  -0.169858  -0.022720   0.006675   0.020335
    18  O    0.234821  -0.066672  -0.008227   0.006226   0.013404   0.000089
    19  H    0.364061  -0.006136   0.001241  -0.000066  -0.002628  -0.000016
    20  C   -0.006136   6.580410   0.331087   0.005553  -0.015443   0.001092
    21  O    0.001241   0.331087   8.060777   0.258870  -0.002410  -0.000065
    22  H   -0.000066   0.005553   0.258870   0.386472   0.000332   0.000000
    23  C   -0.002628  -0.015443  -0.002410   0.000332   6.355730   0.335583
    24  O   -0.000016   0.001092  -0.000065   0.000000   0.335583   7.995261
    25  H    0.000000  -0.001106   0.000001   0.000000  -0.043691   0.272649
    26  C   -0.008136   0.928866   0.012932  -0.005132  -1.422166  -0.150532
    27  O   -0.000041  -0.026274   0.000539  -0.000070  -0.080741   0.008876
    28  C    0.003084  -0.453964  -0.074303   0.021659  -0.100462   0.000151
    29  O    0.000000  -0.084122   0.002973  -0.000176   0.004378   0.000149
    30  H    0.000000   0.012273  -0.000684   0.000013  -0.001345   0.000030
    31  H    0.000001  -0.114186   0.004755  -0.000195   0.009490  -0.000049
    32  H   -0.000035   0.313706  -0.020397  -0.006040   0.009999  -0.000061
    33  H   -0.002853  -0.003255   0.002289   0.000147   0.016473  -0.000039
    34  H   -0.000267   0.026554   0.000471   0.000022   0.003636   0.003917
    35  H    0.000016  -0.056840   0.000177   0.000000   0.029608   0.005198
    36  H    0.000000   0.000860  -0.000001   0.000000   0.482683  -0.022322
    37  H    0.000000   0.000228  -0.000007   0.000000   0.549630  -0.056152
    38  H    0.000000   0.000000   0.000000   0.000000  -0.000001   0.000000
    39  H    0.000000  -0.000010   0.000000   0.000000   0.000011   0.000000
    40  H   -0.000002   0.000024   0.000000   0.000000   0.000001   0.000000
    41  H   -0.000520   0.000671  -0.000002   0.000000   0.000063  -0.000007
    42  H   -0.000006  -0.000010   0.000000   0.000000   0.000054   0.000000
    43  H    0.000000  -0.000037   0.000000   0.000000   0.000039   0.000003
    44  H   -0.000001  -0.000263   0.000000   0.000000   0.000413   0.000009
    45  H   -0.001933   0.005332   0.000076  -0.000001  -0.005115  -0.000178
             25         26         27         28         29         30
     1  O    0.000000   0.000018   0.000000  -0.000002   0.000000   0.000000
     2  C   -0.000156  -0.033459   0.000135  -0.000059  -0.000005   0.000000
     3  C    0.004025   0.128157  -0.000587   0.001244  -0.000010   0.000000
     4  O    0.000019   0.000568   0.000000   0.000002   0.000000   0.000000
     5  H    0.000000   0.000002   0.000000   0.000000   0.000000   0.000000
     6  C    0.003739  -0.065498  -0.000794  -0.013653   0.000009   0.000020
     7  O    0.007045  -0.040844  -0.000003  -0.000111   0.000002   0.000000
     8  H   -0.000217   0.001215   0.000003   0.000001   0.000000   0.000000
     9  C   -0.000008   0.020952   0.000016  -0.001694   0.000010   0.000000
    10  O    0.000000  -0.000217   0.000002   0.000240   0.000000   0.000000
    11  H    0.000000   0.000026   0.000000  -0.000003   0.000000   0.000000
    12  C   -0.000377   0.036852   0.000091   0.007892   0.000048  -0.000002
    13  O   -0.000059   0.002849   0.000082   0.001192   0.000006   0.000000
    14  C    0.004282  -0.625005  -0.005391   0.104774   0.001019   0.000143
    15  O    0.000730   0.059990   0.000234   0.017130   0.000011   0.000007
    16  C    0.007810  -3.596234   0.030590   0.991782  -0.014248   0.010624
    17  C   -0.004771   0.216144  -0.008882  -0.523854   0.006101   0.002373
    18  O   -0.000013   0.025412  -0.000856  -0.009132   0.000377  -0.000003
    19  H    0.000000  -0.008136  -0.000041   0.003084   0.000000   0.000000
    20  C   -0.001106   0.928866  -0.026274  -0.453964  -0.084122   0.012273
    21  O    0.000001   0.012932   0.000539  -0.074303   0.002973  -0.000684
    22  H    0.000000  -0.005132  -0.000070   0.021659  -0.000176   0.000013
    23  C   -0.043691  -1.422166  -0.080741  -0.100462   0.004378  -0.001345
    24  O    0.272649  -0.150532   0.008876   0.000151   0.000149   0.000030
    25  H    0.400735   0.006360   0.000408   0.000222   0.000007   0.000000
    26  C    0.006360  11.247968   0.203116  -0.750257   0.003585  -0.019054
    27  O    0.000408   0.203116   7.925676   0.146954  -0.039302   0.003025
    28  C    0.000222  -0.750257   0.146954   5.732061   0.306072  -0.013368
    29  O    0.000007   0.003585  -0.039302   0.306072   8.008665   0.257141
    30  H    0.000000  -0.019054   0.003025  -0.013368   0.257141   0.423410
    31  H    0.000000   0.020990  -0.057971   0.393112  -0.016037  -0.007320
    32  H   -0.000001   0.055636  -0.004273  -0.005184   0.001398  -0.000130
    33  H    0.000000   0.083759   0.002929  -0.028625   0.000696   0.000008
    34  H   -0.000140   0.065426   0.004324   0.004733  -0.000388   0.000003
    35  H   -0.000100   0.141159  -0.031203   0.067860  -0.000529   0.000000
    36  H   -0.015153  -0.119687   0.002067   0.003319  -0.000019   0.000000
    37  H    0.004710  -0.272897  -0.000025  -0.007546   0.000124  -0.000001
    38  H    0.000000  -0.000005   0.000000   0.000000   0.000000   0.000000
    39  H    0.000000   0.000041   0.000000  -0.000003   0.000000   0.000000
    40  H    0.000000  -0.000004   0.000000   0.000001   0.000000   0.000000
    41  H    0.000000   0.000164   0.000001  -0.000027   0.000000   0.000000
    42  H    0.000000  -0.000323   0.000000  -0.000001   0.000000   0.000000
    43  H    0.000002  -0.000698   0.000000   0.000002   0.000000   0.000000
    44  H   -0.000020  -0.000628   0.000009  -0.000077   0.000000   0.000000
    45  H    0.000015   0.036109   0.000254   0.000042   0.000001   0.000000
             31         32         33         34         35         36
     1  O    0.000000   0.000000   0.000000  -0.000003   0.000000   0.000000
     2  C    0.000004   0.000201   0.000597  -0.000965  -0.000046   0.000360
     3  C    0.000004  -0.000030  -0.000162  -0.002988  -0.001181  -0.002903
     4  O    0.000000   0.000000   0.000000   0.000001   0.000000  -0.000019
     5  H    0.000000   0.000000   0.000000   0.000000   0.000000   0.000000
     6  C   -0.000065   0.001814   0.006470   0.005982  -0.004775  -0.006505
     7  O    0.000001   0.000015  -0.000015  -0.000768   0.000121  -0.000065
     8  H    0.000000   0.000000   0.000000  -0.000005   0.000000   0.000000
     9  C    0.000003   0.000061   0.000703   0.001249   0.000076  -0.000008
    10  O    0.000000   0.000000  -0.000023   0.000003   0.000000   0.000000
    11  H    0.000000   0.000000   0.000000   0.000000   0.000000   0.000000
    12  C    0.000145   0.000756  -0.000946   0.010725   0.001983   0.000371
    13  O    0.000020   0.000025  -0.001073   0.000132   0.000062   0.000138
    14  C    0.003117  -0.014268   0.005238   0.024371   0.067045   0.017861
    15  O    0.000527   0.000814  -0.003163  -0.025751   0.000208   0.000855
    16  C    0.066993   0.116217  -0.089676   0.182197   0.088668  -0.025363
    17  C   -0.054613  -0.214600   0.264962  -0.054027  -0.063714  -0.003744
    18  O    0.001346   0.007279  -0.014342  -0.000277   0.000162  -0.000026
    19  H    0.000001  -0.000035  -0.002853  -0.000267   0.000016   0.000000
    20  C   -0.114186   0.313706  -0.003255   0.026554  -0.056840   0.000860
    21  O    0.004755  -0.020397   0.002289   0.000471   0.000177  -0.000001
    22  H   -0.000195  -0.006040   0.000147   0.000022   0.000000   0.000000
    23  C    0.009490   0.009999   0.016473   0.003636   0.029608   0.482683
    24  O   -0.000049  -0.000061  -0.000039   0.003917   0.005198  -0.022322
    25  H    0.000000  -0.000001   0.000000  -0.000140  -0.000100  -0.015153
    26  C    0.020990   0.055636   0.083759   0.065426   0.141159  -0.119687
    27  O   -0.057971  -0.004273   0.002929   0.004324  -0.031203   0.002067
    28  C    0.393112  -0.005184  -0.028625   0.004733   0.067860   0.003319
    29  O   -0.016037   0.001398   0.000696  -0.000388  -0.000529  -0.000019
    30  H   -0.007320  -0.000130   0.000008   0.000003   0.000000   0.000000
    31  H    0.612964   0.005802   0.002813  -0.000055   0.003152   0.000005
    32  H    0.005802   0.607388   0.006204   0.002177  -0.000086   0.000001
    33  H    0.002813   0.006204   0.616535   0.005945   0.002225  -0.000019
    34  H   -0.000055   0.002177   0.005945   0.591336   0.006265   0.000006
    35  H    0.003152  -0.000086   0.002225   0.006265   0.622323  -0.000981
    36  H    0.000005   0.000001  -0.000019   0.000006  -0.000981   0.576017
    37  H   -0.000039  -0.000003  -0.000004   0.000069  -0.001416  -0.035881
    38  H    0.000000   0.000000   0.000000   0.000000   0.000000   0.000000
    39  H    0.000000   0.000000   0.000000   0.000000   0.000000   0.000000
    40  H    0.000000   0.000000   0.000000   0.000000   0.000000   0.000000
    41  H    0.000000   0.000000  -0.000002  -0.000030   0.000000   0.000000
    42  H    0.000000   0.000000   0.000000   0.000000   0.000000   0.000000
    43  H    0.000000   0.000000   0.000000  -0.000001   0.000000   0.000000
    44  H    0.000000   0.000000   0.000000  -0.000005  -0.000005   0.000162
    45  H    0.000000   0.000002   0.000005   0.007245   0.000003   0.000023
             37         38         39         40         41         42
[...]
 08430,-0.00000666,-0.01447429,0.00610829,0.00697045,0.00173500,0.00000
 626,0.00028543,-0.00019133,-0.00050762,-0.00010487,0.00013472,0.000037
 08,0.00006654,-0.00000772,0.00001940,-0.00002847,-0.00001267,-0.000005
 94,-0.00001838,0.00003266,-0.00003358,0.00002661,-0.00003647,0.0000527
 5,-0.00001199,-0.00000037,0.00000492,-0.00000183,0.00000354,-0.0000082
 1,0.00000303,-0.00000348,0.00000743,-0.00000373,-0.00000388,0.00000084
 ,0.00000386,0.00000887,-0.00000025,-0.00000335,-0.00000536,0.00000167,
 0.00000751,-0.00000867,-0.00000175,-0.00000712,0.00000780,-0.00000024,
 0.00000343,-0.00000754,0.00000098,-0.00000629,0.00000254,-0.00000149,0
 .00000400,-0.00000075,0.00000149,-0.00000064,0.00000252,-0.00000059,0.
 00000139,0.00000205,-0.00000349,-0.00000171,0.00000868,0.00000037,0.00
 000891,0.00000069,-0.00000638,-0.00000101,0.00000347,-0.00000075,0.000
 00318,0.00000024,-0.00000156,-0.00000106,0.00000072,0.00000155,0.00000
 163,0.00074293,-0.00050926,0.00012664,0.00083893,-0.00122823,-0.000530
 37,0.00020705,0.00007197,0.00002220,-0.00033930,-0.00152060,0.00176248
 ,0.27682200,0.00322288,0.00076952,0.00240149,0.11998139,-0.10940780,-0
 .04658875,0.02561570,-0.01903536,-0.01401986,-0.00057718,0.00558771,0.
 00097053,0.00034905,-0.00125325,0.00078585,0.00077731,-0.00108630,0.00
 146890,-0.00057698,-0.00078316,-0.00137254,0.00023991,0.00029932,0.000
 03730,-0.00236781,0.00043242,0.00162250,0.00029312,0.00012639,-0.00037
 019,-0.00008542,0.00000961,-0.00002638,-0.01672764,0.00783840,0.007597
 65,0.00044910,0.00048250,-0.00130195,0.00009544,-0.00074744,0.00001237
 ,0.00004786,0.00011899,-0.00012162,-0.00004228,0.00002667,0.00003004,-
 0.00000641,-0.00003589,-0.00003084,0.00003721,0.00001335,0.00001695,-0
 .00005273,0.00000811,-0.00001544,-0.00000519,-0.00000159,0.00000821,0.
 00001342,0.00001407,-0.00000514,-0.00000252,-0.00000081,-0.00000287,0.
 00003701,-0.00005361,0.00002450,-0.00004539,0.00002549,-0.00006445,0.0
 0003361,0.00003327,0.00008337,0.00000626,-0.00000250,0.00001260,0.0000
 0548,0.00001627,-0.00002119,-0.00000928,-0.00001983,0.00002002,0.00000
 543,0.00000399,-0.00001326,0.00000012,-0.00000235,0.00000401,-0.000000
 41,0.00000318,-0.00000123,-0.00000264,0.00000025,-0.00000060,0.0000042
 8,0.00000611,0.00000263,-0.00000928,-0.00000511,0.00000543,-0.00000141
 ,0.00000633,-0.00000571,0.00000836,0.00000147,0.00001016,-0.00000556,0
 .00000562,-0.00001149,0.00065170,0.00063661,0.00039032,-0.00015794,-0.
 00064737,0.00044141,-0.00009261,-0.00010853,-0.00017130,-0.00177722,-0
 .00200183,0.00249441,-0.12801305,0.12318119,-0.03735379,0.01610338,-0.
 00465972,0.08872449,-0.04954614,-0.07762270,0.01348747,-0.00581582,-0.
 00168553,-0.00173356,0.00165610,0.00103905,-0.00021707,-0.00003519,0.0
 0011136,0.00034973,0.00005605,0.00051752,-0.00030212,-0.00025210,-0.00
 042791,0.00009900,0.00014291,0.00004072,0.00009985,-0.00227484,-0.0001
 5412,-0.00044716,0.00002289,0.00017723,-0.00000440,0.00001717,0.000027
 95,0.02322986,-0.00912278,-0.00858155,-0.00125484,0.00012825,0.0019832
 2,0.00034147,-0.00047152,0.00003022,-0.00006794,0.00008389,-0.00024826
 ,-0.00005736,-0.00000938,0.00006632,0.00004404,0.00000409,0.00003191,-
 0.00007224,0.00002757,-0.00006219,0.00009670,-0.00004857,0.00002365,-0
 .00001929,-0.00000495,0.00001312,0.00001811,0.00002006,-0.00002169,-0.
 00000841,-0.00000838,0.00001217,0.00002092,-0.00001623,0.00000554,-0.0
 0003001,-0.00000079,-0.00003216,0.00001940,0.00002262,0.00003913,0.000
 02619,0.00000536,0.00003031,-0.00000571,0.00000725,-0.00003615,0.00000
 405,-0.00001090,0.00004055,0.00000465,-0.00000196,-0.00003183,0.000000
 66,-0.00000305,0.00000610,-0.00000255,0.00000204,-0.00000349,-0.000004
 16,0.00000478,0.00000331,-0.00001522,0.00000179,-0.00001635,-0.0000072
 7,0.00001044,0.00000875,-0.00000688,0.00000284,-0.00000833,0.00000811,
 0.00000245,0.00000689,-0.00000492,-0.00000303,-0.00000935,-0.00129413,
 0.00008290,0.00352153,-0.00052759,0.00071810,0.00063239,-0.00001931,0.
 00025438,0.00002055,0.00119992,0.00285280,-0.00319450,-0.08292548,0.04
 771860,0.08930639,0.00138278,-0.00328301,-0.00087275,0.00295964,-0.000
 75288,-0.00231434,-0.23258801,0.13717606,-0.05440901,-0.04280532,-0.00
 223323,0.01198141,-0.00032262,-0.00001806,-0.00048914,-0.00544659,0.00
 668779,-0.00698100,0.00233066,-0.00043937,0.00243213,-0.00065825,-0.00
 086095,-0.00075729,0.00027858,0.00003443,-0.00047304,-0.00001382,0.000
 11542,0.00016708,0.00001064,0.00004068,-0.00003187,0.00029251,0.001362
 52,0.00050838,0.00014252,-0.00043238,0.00046725,-0.00091639,-0.0009872
 0,-0.00046578,0.00021620,0.00019569,-0.00052800,-0.00014623,0.00012521
 ,0.00007593,0.00001358,-0.00003679,-0.00006922,0.00001957,-0.00000166,
 0.00002825,-0.00001022,0.00000244,-0.00001887,-0.00001032,0.00002191,0
 .00001332,0.00001784,0.00000351,-0.00000731,-0.00000468,0.00000347,-0.
 00000342,-0.00007042,0.00009592,-0.00002248,0.00007549,-0.00005581,0.0
 0008971,-0.00004808,-0.00003510,-0.00010361,0.00001827,0.00001548,0.00
 000269,0.00000532,-0.00001582,-0.00001597,-0.00000567,0.00000346,0.000
 00265,0.00000342,-0.00000439,-0.00000013,-0.00000095,0.00000210,-0.000
 00106,0.00000237,-0.00000190,0.00000123,0.00000306,-0.00000269,-0.0000
 0135,0.00000257,-0.00000582,0.00000680,0.00002630,-0.00000519,-0.00000
 886,0.00000240,-0.00000974,0.00000934,0.00000211,0.00000324,-0.0000144
 5,0.00000993,-0.00001261,0.00000968,0.00002218,-0.00011099,-0.00029683
 ,-0.00012648,-0.00011823,0.00002227,0.00003714,0.00000550,0.00000542,0
 .00018550,0.00001445,-0.00010225,0.00000943,-0.00099523,-0.00107504,0.
 27447116,0.00044289,0.00435922,0.00225905,0.02745979,-0.02920705,0.002
 15901,0.13970013,-0.13118999,0.03709023,-0.02669545,0.00826547,0.00314
 846,0.00029713,0.00041382,-0.00088449,0.00024998,0.00126868,-0.0026932
 8,-0.00213800,0.00139439,-0.00156085,-0.00038467,-0.00025594,-0.000284
 62,0.00009974,-0.00021134,0.00007238,-0.00030687,-0.00023353,0.0000790
 4,0.00001331,-0.00002270,0.00002310,0.00150753,0.00096813,-0.00073337,
 -0.00064757,-0.00014244,0.00010766,0.00052441,-0.00031437,-0.00059298,
 -0.00008867,0.00012561,0.00004620,0.00006107,-0.00000760,-0.00005418,-
 0.00001768,-0.00001179,-0.00001270,-0.00002728,0.00002263,0.00004504,0
 .00005318,-0.00000499,-0.00007620,0.00001881,-0.00000336,-0.00000447,-
 0.00001644,-0.00000026,0.00001143,0.00001247,-0.00000348,-0.00000439,0
 .00001071,-0.00001853,0.00000392,-0.00001058,0.00001203,-0.00000658,-0
 .00000313,0.00000764,-0.00000300,-0.00000470,-0.00000210,-0.00001003,-
 0.00000600,0.00000292,0.00001799,0.00000408,-0.00000049,-0.00001549,-0
 .00000533,0.00000504,0.00001499,0.00000036,-0.00000028,-0.00000225,-0.
 00000225,0.00000035,-0.00000028,-0.00000158,0.00000220,0.00000107,-0.0
 0000035,0.00000175,-0.00000274,-0.00000571,0.00000073,0.00001083,-0.00
 000245,0.00000166,-0.00000357,-0.00000259,-0.00000400,0.00000338,-0.00
 000074,0.00000323,0.00000122,-0.00008250,-0.00009861,-0.00004072,-0.00
 026285,0.00017086,0.00022711,-0.00006399,-0.00001667,-0.00005370,-0.00
 073329,-0.00022202,0.00048121,-0.00205184,-0.00441251,-0.00224144,-0.1
 3590508,0.14953862,0.00130911,-0.00106758,0.00010118,0.00590565,-0.012
 10695,0.00217139,-0.06024076,0.03845379,-0.05265442,0.03101966,-0.0014
 0041,-0.00046962,0.00101604,-0.00064803,0.00049943,-0.03323436,0.01654
 749,-0.01801196,0.00219039,0.00182570,0.00436624,-0.00069387,-0.001432
 51,-0.00029205,0.00011847,-0.00012420,0.00015306,-0.00008581,-0.000123
 77,0.00003634,-0.00000048,-0.00001503,0.00002267,-0.00068572,-0.000201
 48,-0.00083636,0.00037369,0.00046209,-0.00021258,-0.00149659,-0.001596
 80,0.00124022,0.00052988,0.00038115,-0.00118974,-0.00023383,0.00022888
 ,0.00020352,0.00005650,-0.00008375,-0.00012933,0.00004448,0.00002511,0
 .00001186,-0.00005340,-0.00002941,0.00001272,-0.00003900,0.00003252,0.
 00003145,0.00005476,0.00003210,-0.00003156,-0.00001610,-0.00000098,-0.
 00000101,-0.00011815,0.00013694,0.00000774,0.00009491,-0.00009855,0.00
 009512,-0.00007396,0.00000273,-0.00012361,0.00003530,0.00000753,0.0000
 5390,0.00001901,0.00000101,-0.00008009,-0.00001488,-0.00002000,0.00005
 057,0.00001473,-0.00000583,-0.00003725,-0.00000080,-0.00000037,0.00000
 636,0.00000235,0.00000128,-0.00000101,0.00000158,-0.00000060,-0.000000
 77,-0.00000114,-0.00000559,0.00000769,0.00004232,-0.00001106,-0.000034
 11,0.00000013,-0.00001144,0.00000917,0.00003917,0.00001749,0.00000462,
 0.00001798,-0.00002326,-0.00000866,0.00028075,-0.00044734,-0.00021568,
 -0.00006674,0.00000533,0.00003681,-0.00000470,0.00003325,-0.00000509,0
 .00014353,0.00015996,0.00003442,-0.00017812,-0.00158172,-0.00083674,0.
 05373479,-0.03644923,0.07179018,-0.00004323,-0.00035173,-0.00046863,-0
 .00034650,0.00120056,-0.00050876,-0.00912286,-0.00271236,-0.00491258,0
 .00172931,-0.00004392,0.00183248,0.00041025,-0.00015571,0.00078800,-0.
 34073944,-0.01580753,-0.03847811,-0.01052634,0.01712889,0.00365798,-0.
 00087225,0.00002019,0.00064968,0.00002220,0.00006488,0.00003976,0.0000
 1709,-0.00005219,0.00000187,-0.00001468,0.00000549,-0.00000519,0.00002
 317,0.00022501,0.00034281,0.00061880,-0.00180739,-0.00013146,-0.018368
 78,-0.00503928,0.00081927,0.00231594,0.00076037,-0.00154824,-0.0000701
 1,0.00045291,0.00024637,0.00011062,-0.00012533,-0.00030077,0.00007808,
 -0.00005458,0.00008872,-0.00005136,0.00004459,-0.00006477,-0.00003037,
 0.00008213,0.00004407,0.00007166,0.00003539,-0.00003845,-0.00001163,0.
 00000441,-0.00001320,-0.00033257,0.00027281,0.00006730,0.00023400,-0.0
 0019378,0.00018518,-0.00018353,0.00001468,-0.00025345,-0.00002324,-0.0
 0006089,0.00009060,0.00005713,0.00002885,-0.00008269,-0.00003178,-0.00
 002555,0.00003784,0.00002103,-0.00000542,-0.00002712,-0.00000286,0.000
 00180,0.00000529,0.00000543,0.00000089,0.00000153,0.00000713,-0.000005
 97,-0.00000176,0.00000478,-0.00002069,0.00002767,0.00009390,-0.0000319
 9,-0.00020478,0.00000861,-0.00002098,0.00002397,0.00012354,0.00003986,
 -0.00002740,0.00005751,-0.00003526,-0.00002340,-0.00008634,-0.00006362
 ,0.00000175,0.00001253,-0.00003515,-0.00001970,0.00000706,0.00000220,0
 .00000529,0.00009370,0.00004476,0.00002069,0.00010058,-0.00027956,-0.0
 0014100,0.00040835,-0.00079838,-0.00023760,0.37395702,0.00017062,-0.00
 001557,0.00000251,-0.00014447,-0.00021900,0.00053509,-0.00593808,0.003
 84672,0.00003581,0.00104900,-0.00006638,0.00060637,-0.00009586,-0.0000
 8548,0.00006910,-0.02137438,-0.03550887,0.00058748,0.04361865,-0.02638
 955,-0.00670033,0.00234239,0.00017230,-0.00007156,0.00001447,0.0001098
 0,0.00010193,-0.00000248,-0.00009330,-0.00000868,-0.00000757,-0.000000
 84,0.00000486,-0.00015752,0.00002702,-0.00009897,0.00198848,0.00092504
 ,-0.00044812,-0.03168564,-0.00249311,0.00142641,0.00182933,0.00106444,
 -0.00208150,-0.00002691,0.00045147,0.00005616,-0.00004713,-0.00013584,
 -0.00035156,0.00011660,-0.00016583,0.00022990,-0.00013636,0.00022273,0
 .00000904,0.00001226,0.00003276,0.00002100,0.00002344,0.00002716,0.000
 00949,0.00001353,0.00000317,-0.00002416,0.00014263,-0.00015988,0.00000
 902,-0.00018901,0.00007544,-0.00014368,0.00028676,0.00003276,0.0001675
 5,0.00002837,-0.00000426,0.00003416,0.00000149,-0.00000044,-0.00002126
 ,-0.00002607,-0.00002805,-0.00000269,0.00000421,0.00001107,0.00001457,
 -0.00000100,-0.00000168,0.00000135,0.00000134,0.00000360,0.00000176,0.
 00000466,-0.00000476,-0.00000814,0.00002308,-0.00000909,0.00003611,0.0
 0014105,-0.00015387,-0.00006767,0.00001891,0.00001948,0.00003463,-0.00
 002399,0.00007974,0.00001129,-0.00002669,0.00002483,-0.00000466,0.0000
 1560,0.00001829,-0.00000167,0.00001430,-0.00004967,-0.00003000,-0.0000
 0181,-0.00000295,-0.00000891,0.00016531,0.00006036,0.00010461,-0.00005
 060,-0.00002576,-0.00020352,0.00029823,-0.00010416,-0.00116825,0.00861
 958,0.06203104,-0.00034074,-0.00124574,-0.00111314,-0.00024921,0.00154
 228,-0.00043294,-0.03796909,-0.00270410,-0.01289633,0.00086044,-0.0004
 6567,0.00358092,0.00003199,-0.00016664,0.00082133,-0.03956418,0.001453
 38,-0.04397963,0.01398748,-0.00934164,0.00310836,0.00036497,0.00034433
 ,-0.00005653,-0.00006757,0.00005745,0.00008380,-0.00000606,-0.00008717
 ,0.00002388,-0.00000195,-0.00000209,0.00001519,-0.00034807,-0.00005333
 ,-0.00082252,-0.00072833,0.00052886,0.00045099,0.02592005,0.00607919,0
 .00065198,-0.00076116,-0.00157768,0.00238674,0.00037320,-0.00038536,-0
 .00028655,0.00002130,0.00015081,0.00030862,-0.00011620,0.00007634,-0.0
 0020186,0.00009499,-0.00013898,0.00004098,0.00002450,-0.00003277,-0.00
 002992,-0.00006484,-0.00005111,0.00000937,0.00000189,-0.00000333,0.000
 01666,0.00023639,-0.00013664,-0.00018309,-0.00015724,0.00010094,0.0000
 0859,0.00017619,-0.00009658,0.00000268,-0.00007377,0.00012156,-0.00004
 804,-0.00008275,-0.00009047,0.00014981,0.00007439,0.00010246,-0.000063
 65,-0.00004062,-0.00001615,0.00005387,0.00000261,0.00000450,-0.0000159
 1,-0.00000550,-0.00001133,0.00000085,-0.00000475,0.00000230,0.00000647
 ,-0.00001929,0.00001231,-0.00002626,-0.00017761,0.00012134,0.00005287,
 -0.00003011,-0.00000491,-0.00003846,-0.00012837,-0.00005052,-0.0001196
 5,-0.00004045,0.00001704,0.00005708,-0.00007826,-0.00007195,-0.0000471
 5,-0.00000111,-0.00001050,-0.00000770,0.00002478,0.00003115,0.00000135
 ,0.00006396,0.00000707,-0.00011809,0.00003276,-0.00036874,-0.00018442,
 -0.00033620,-0.00031257,-0.00535055,0.03747465,0.00396447,0.05681605,0
 .00016982,0.00005909,0.00016573,-0.00033216,0.00000898,0.00010447,-0.0
 0092641,-0.00042356,-0.00059271,0.00016210,-0.00010647,0.00050684,-0.0
 0005042,-0.00005172,0.00014788,-0.01496094,-0.00044380,0.00776682,0.00
 176487,-0.00028983,-0.00094373,0.00022806,0.00004166,-0.00017121,0.000
 93460,-0.00020004,-0.00009837,0.00003686,-0.00002362,0.00004324,-0.000
 00223,0.00000067,0.00001766,0.00137061,-0.00191636,-0.00101628,0.00171
 169,0.00777852,0.00182658,-0.32316093,0.04262074,0.06339987,-0.0236024
 7,0.00516270,-0.01273666,-0.00021897,0.00005290,0.00496736,0.00028854,
 -0.00011912,-0.00075607,0.00033731,-0.00092095,0.00041459,-0.00057856,
 0.00052160,0.00054034,-0.00000353,0.00017391,0.00009657,0.00012036,0.0
 0006022,-0.00006081,-0.00000237,0.00001418,-0.00003868,-0.00028020,0.0
 0019751,-0.00000798,0.00029591,-0.00008147,0.00012440,-0.00015296,-0.0
 0005735,-0.00004312,0.00041707,-0.00049639,0.00013988,0.00003493,-0.00
 002909,-0.00022698,-0.00008409,-0.00007327,0.00003749,0.00003808,0.000
 00971,-0.00002278,-0.00000492,0.00000128,0.00000777,0.00001493,0.00000
 527,0.00000352,0.00003183,-0.00001873,-0.00001918,-0.00002706,-0.00016
 871,0.00017665,0.00157818,-0.00081582,-0.00091033,0.00022059,0.0000789
 1,0.00033711,0.00009679,0.00007918,-0.00004911,0.00003082,-0.00002179,
 -0.00000778,0.00001561,-0.00002382,-0.00001451,-0.00010072,-0.00028773
 ,-0.00022287,-0.00002016,0.00014404,0.00007534,0.00077989,0.00014581,0
 .00108973,0.00001605,-0.00004093,-0.00017718,0.00022451,-0.00018964,0.
 00043080,0.00026846,-0.00100872,0.00162687,0.35332063,0.00015621,0.000
 31983,-0.00020908,-0.00068824,-0.00039901,-0.00007019,-0.00067129,-0.0
 0030553,-0.00112974,0.00007058,-0.00008242,0.00072879,0.00005112,-0.00
 009355,0.00025949,-0.02694134,0.00297382,0.01013770,0.00161872,0.00283
 737,-0.00123134,0.00027746,0.00026666,-0.00009660,-0.00011757,0.000086
 63,-0.00006128,-0.00009346,-0.00005806,0.00005001,-0.00000131,0.000029
 40,-0.00000752,0.00473582,-0.00046568,0.00401385,0.03322792,-0.0306581
 7,-0.02294938,0.03539874,-0.04543139,-0.00434186,0.00525165,0.00404577
 ,0.00182282,-0.00068481,0.00054030,-0.00070694,0.00055154,0.00021627,0
 .00071735,-0.00049274,0.00043693,-0.00075066,0.00078050,-0.00161727,-0
 .00001443,-0.00005661,0.00002729,-0.00001379,0.00002716,-0.00003506,-0
 .00010190,-0.00006416,-0.00002037,0.00006624,-0.00007740,0.00011096,-0
 .00009418,0.00010376,-0.00002215,0.00007804,-0.00007984,-0.00002946,-0
 .00001057,-0.00008969,0.00002428,-0.00006637,-0.00001334,-0.00003202,0
 .00000446,0.00007041,0.00007914,0.00003718,-0.00001162,-0.00003656,-0.
 00005588,0.00000329,-0.00000021,0.00000047,-0.00000300,-0.00000840,-0.
 00000426,0.00000405,0.00000925,0.00000770,-0.00011591,-0.00005397,-0.0
 0011011,0.00003875,0.00004329,-0.00005387,-0.00002245,-0.00003256,-0.0
 0004576,-0.00002003,-0.00003062,0.00001381,-0.00000536,-0.00002331,0.0
 0002050,-0.00004709,-0.00001443,-0.00004956,-0.00010748,0.00014342,0.0
 0012714,-0.00014103,-0.00012162,-0.00000699,-0.00120255,0.00065363,-0.
 00040195,-0.00006504,-0.00001585,0.00012187,0.00011663,-0.00007682,0.0
 0029978,-0.00132299,-0.00352089,0.00270817,-0.04934796,0.07034114,-0.0
 0015347,-0.00005673,-0.00023842,0.00000695,0.00036680,-0.00028746,-0.0
 0014453,-0.00064255,0.00119098,-0.00015139,0.00007827,-0.00013853,-0.0
 0009526,-0.00000721,-0.00012148,0.02700184,0.00234416,-0.00248350,-0.0
 0220588,-0.00095745,0.00097411,-0.00010433,-0.00017620,-0.00000413,-0.
 00013620,-0.00003404,-0.00000135,-0.00002468,0.00003344,-0.00001496,-0
 .00000047,0.00000534,-0.00001032,0.00421800,-0.00222776,0.00195157,0.0
 1145308,-0.01460922,-0.00575292,0.07185195,-0.00716129,-0.05703978,-0.
 03957721,0.00678542,-0.01608022,-0.00681782,0.00188307,0.00228581,-0.0
 0010178,0.00007809,-0.00063549,0.00009268,-0.00002710,0.00023980,0.000
 04138,0.00044334,-0.00013572,0.00001618,0.00005764,-0.00001216,0.00003
 428,0.00000663,0.00003746,0.00002687,0.00001534,-0.00002228,-0.0001681
 1,0.00009726,0.00003663,0.00011168,-0.00006985,0.00002940,-0.00000575,
 0.00001229,-0.00002569,-0.00022180,-0.00013789,0.00001456,0.00020297,-
 0.00001898,-0.00021262,-0.00011765,-0.00012321,0.00002811,0.00004228,0
 .00002389,-0.00001784,-0.00000337,-0.00000210,0.00001304,0.00000915,0.
 00001254,0.00000970,0.00004936,-0.00002105,-0.00004208,0.00006194,-0.0
 0015440,0.00006197,0.00073999,-0.00080129,-0.00081834,0.00026473,-0.00
 010690,0.00003335,0.00010140,0.00008880,-0.00008538,0.00004180,-0.0000
 1488,-0.00003933,-0.00001757,0.00003078,0.00001381,-0.00012371,0.00014
 293,0.00002630,-0.00005072,-0.00006226,-0.00003151,-0.00097882,-0.0000
 0901,-0.00027529,-0.00011400,-0.00006396,0.00012110,-0.00015905,0.0002
 3981,-0.00042446,0.00103625,0.00337065,-0.00262607,-0.06593122,0.01136
 884,0.08050963\\0.00370410,0.00364879,-0.00880193,-0.01532313,-0.01313
 707,-0.00434440,0.02369917,-0.02695988,0.00487542,-0.00345146,0.018185
 10,0.02673429,-0.00700352,-0.01014457,-0.02954823,-0.05507449,0.003873
 30,0.01458316,0.01670534,-0.00733762,0.00470823,-0.00105076,0.03245174
 ,-0.01471292,0.00511247,0.02195827,-0.00439242,0.00534323,0.01107452,0
 .00344428,-0.00585287,-0.03126528,-0.01358530,0.00504515,0.03622836,-0
 .00224339,-0.00767572,-0.03171780,0.02548143,0.02327396,0.00592667,-0.
 05046534,-0.00372519,-0.00063923,0.02124082,-0.00201138,-0.00636845,-0
 .00910055,0.00976870,-0.00440330,0.03541097,-0.01631553,-0.00555935,0.
 01981397,0.01512749,0.00745648,-0.02354354,0.01785909,0.01182367,0.036
 39544,0.00353965,0.00539732,-0.01860756,-0.03141086,-0.01809365,-0.014
 32045,-0.02069142,-0.01325320,0.01506818,0.01013596,0.00650971,0.02316
 217,0.00764028,0.01309879,-0.03013241,0.01665248,-0.03842764,-0.002999
 49,0.01415502,0.03433335,0.02243344,0.02873982,-0.02511638,-0.05346344
 ,0.00121983,0.01768659,0.01636075,-0.00416929,-0.00102931,0.00034458,-
 0.01736402,0.01228198,-0.00435043,0.01151021,-0.01698130,0.00109416,-0
 .01483459,0.01479233,-0.00433682,0.01500685,-0.01062643,0.00372406,-0.
 02117747,0.00839182,-0.00005167,-0.01444474,0.00524756,0.01107172,-0.0
 0932394,-0.00462956,-0.01595768,-0.00044328,0.00260096,0.00164567,-0.0
 1874427,0.00424945,0.00822115,0.01027672,-0.00535381,0.01524843,0.0186
 6938,-0.00866710,-0.00616189,-0.01631785,0.01102853,0.00413992,0.02410
 073,-0.00756494,0.00274554,-0.02390904,0.00298285,-0.00200393,0.023029
 19,-0.00395227,-0.00482401\\\@


 Everywhere is walking distance if you have the time.
                                    -- Steven Wright
 Job cpu time:  4 days  1 hours 54 minutes 36.6 seconds.
 File lengths (MBytes):  RWF=   2340 Int=      0 D2E=      0 Chk=     43 Scr=      1
 Normal termination of Gaussian 09 at Tue Feb 16 13:16:52 2016.
Gaussian '09 finished on node021 at Tue Feb 16 13:16:52 EST 2016.
