Gaussian '09 started on node001 at Wed Jan 20 15:58:15 EST 2016.
 Entering Gaussian System, Link 0=/usr/local/gaussian/g09/g09
 Initial command:
 /usr/local/gaussian/g09/l1.exe /home/srmcgrat/thesis/gaussian/cellobiose/350/10000/gaussian5802/Gau-5838.inp -scrdir=/home/srmcgrat/thesis/gaussian/cellobiose/350/10000/gaussian5802/
 Entering Link 1 = /usr/local/gaussian/g09/l1.exe PID=      5840.
  
 Copyright (c) 1988,1990,1992,1993,1995,1998,2003,2009,2010,
            Gaussian, Inc.  All Rights Reserved.
  
 This is part of the Gaussian(R) 09 program.  It is based on
 the Gaussian(R) 03 system (copyright 2003, Gaussian, Inc.),
 the Gaussian(R) 98 system (copyright 1998, Gaussian, Inc.),
 the Gaussian(R) 94 system (copyright 1995, Gaussian, Inc.),
 the Gaussian 92(TM) system (copyright 1992, Gaussian, Inc.),
 the Gaussian 90(TM) system (copyright 1990, Gaussian, Inc.),
 the Gaussian 88(TM) system (copyright 1988, Gaussian, Inc.),
 the Gaussian 86(TM) system (copyright 1986, Carnegie Mellon
 University), and the Gaussian 82(TM) system (copyright 1983,
 Carnegie Mellon University). Gaussian is a federally registered
 trademark of Gaussian, Inc.
  
 This software contains proprietary and confidential information,
 including trade secrets, belonging to Gaussian, Inc.
  
 This software is provided under written license and may be
 used, copied, transmitted, or stored only in accord with that
 written license.
  
 The following legend is applicable only to US Government
 contracts under FAR:
  
                    RESTRICTED RIGHTS LEGEND
  
 Use, reproduction and disclosure by the US Government is
 subject to restrictions as set forth in subparagraphs (a)
 and (c) of the Commercial Computer Software - Restricted
 Rights clause in FAR 52.227-19.
  
 Gaussian, Inc.
 340 Quinnipiac St., Bldg. 40, Wallingford CT 06492
  
  
 ---------------------------------------------------------------
 Warning -- This program may not be used in any manner that
 competes with the business of Gaussian, Inc. or will provide
 assistance to any competitor of Gaussian, Inc.  The licensee
 of this program is prohibited from giving any competitor of
 Gaussian, Inc. access to this program.  By using this program,
 the user acknowledges that Gaussian, Inc. is engaged in the
 business of creating and licensing software in the field of
 computational chemistry and represents and warrants to the
 licensee that it is not a competitor of Gaussian, Inc. and that
 it will not use this program in any manner prohibited above.
 ---------------------------------------------------------------
  

 Cite this work as:
 Gaussian 09, Revision B.01,
 M. J. Frisch, G. W. Trucks, H. B. Schlegel, G. E. Scuseria, 
 M. A. Robb, J. R. Cheeseman, G. Scalmani, V. Barone, B. Mennucci, 
 G. A. Petersson, H. Nakatsuji, M. Caricato, X. Li, H. P. Hratchian, 
 A. F. Izmaylov, J. Bloino, G. Zheng, J. L. Sonnenberg, M. Hada, 
 M. Ehara, K. Toyota, R. Fukuda, J. Hasegawa, M. Ishida, T. Nakajima, 
 Y. Honda, O. Kitao, H. Nakai, T. Vreven, J. A. Montgomery, Jr., 
 J. E. Peralta, F. Ogliaro, M. Bearpark, J. J. Heyd, E. Brothers, 
 K. N. Kudin, V. N. Staroverov, T. Keith, R. Kobayashi, J. Normand, 
 K. Raghavachari, A. Rendell, J. C. Burant, S. S. Iyengar, J. Tomasi, 
 M. Cossi, N. Rega, J. M. Millam, M. Klene, J. E. Knox, J. B. Cross, 
 V. Bakken, C. Adamo, J. Jaramillo, R. Gomperts, R. E. Stratmann, 
 O. Yazyev, A. J. Austin, R. Cammi, C. Pomelli, J. W. Ochterski, 
 R. L. Martin, K. Morokuma, V. G. Zakrzewski, G. A. Voth, 
 P. Salvador, J. J. Dannenberg, S. Dapprich, A. D. Daniels, 
 O. Farkas, J. B. Foresman, J. V. Ortiz, J. Cioslowski, 
 and D. J. Fox, Gaussian, Inc., Wallingford CT, 2010.
 
 ******************************************
 Gaussian 09:  EM64L-G09RevB.01 12-Aug-2010
                20-Jan-2016 
 ******************************************
 ------------------------------------------------
 # freq=raman b3lyp/6-31+g(d,p) geom=connectivity
 ------------------------------------------------
 1/10=4,30=1,38=1,57=2/1,3;
 2/12=2,17=6,18=5,40=1/2;
 3/5=1,6=6,7=111,11=2,16=1,25=1,30=1,71=2,74=-5/1,2,3;
 4//1;
 5/5=2,38=5,98=1/2;
 8/6=4,10=90,11=11/1;
 10/13=10,15=4/2;
 11/6=3,8=1,9=11,15=111,16=1/1,2,10;
 10/6=1/2;
 6/7=2,8=2,9=2,10=2,18=1,28=1/1;
 7/8=1,10=1,25=1/1,2,3,16;
 1/10=4,30=1/3;
 99//99;
 -------------
 350 10000.com
 -------------
 Symbolic Z-matrix:
 Charge =  0 Multiplicity = 1
 O                     7.575     7.504     12.301 
 C                     8.142     7.929     13.548 
 C                     7.729     9.317     14.011 
 O                     8.213     10.245    13.029 
 H                     7.748     9.982     12.183 
 C                     8.138     9.62      15.443 
 O                     7.456     10.781    15.94 
 H                     7.754     10.898    16.888 
 C                     7.88      5.478     14.287 
 O                     9.01      5.098     13.489 
 H                     9.196     4.152     13.752 
 C                     7.712     6.95      14.628 
 O                     8.464     7.269     15.808 
 C                     7.85      8.443     16.36 
 O                     8.616     8.68      17.55 
 C                     8.106     8.315     18.841 
 C                     8.648     6.985     19.339 
 O                     8.384     5.906     18.43 
 H                     8.234     6.217     17.491 
 C                     8.221     6.732     20.775 
 O                     8.57      5.457     21.334 
 H                     8.428     5.439     22.324 
 C                     8.284     10.75     19.688 
 O                     8.418     11.313    18.375 
 H                     8.33      12.309    18.386 
 C                     8.682     9.292     19.853 
 O                     8.255     9.01      21.193 
 C                     8.749     7.78      21.742 
 O                     7.907     7.727     22.904 
 H                     8.45254   7.69101   23.69311 
 H                     9.80167   7.75525   21.93218 
 H                     7.15321   6.79799   20.7944 
 H                     9.7124    7.09135   19.36425 
 H                     7.0362    8.32899   18.85653 
 H                     9.74929   9.22578   19.81539 
 H                     8.88133   11.33212   20.35826 
 H                     7.2607    10.84749   19.98506 
 H                     8.27987   7.29375   11.6841 
 H                     6.99736   5.16127   13.77171 
 H                     7.93559   4.93569   15.20771 
 H                     6.67704   7.12324   14.83717 
 H                     9.20838   7.90047   13.46487 
 H                     6.66016   9.3547    13.9785 
 H                     9.19038   9.8126    15.4602 
 H                     6.80666   8.31293   16.55854 
 

 GradGradGradGradGradGradGradGradGradGradGradGradGradGradGradGradGradGrad
 Berny optimization.
 Initialization pass.
 Trust Radius=3.00D-01 FncErr=1.00D-07 GrdErr=1.00D-07
 Number of steps in this run=      2 maximum allowed number of steps=      2.
 GradGradGradGradGradGradGradGradGradGradGradGradGradGradGradGradGradGrad

                          Input orientation:                          
 ---------------------------------------------------------------------
 Center     Atomic      Atomic             Coordinates (Angstroms)
 Number     Number       Type             X           Y           Z
 ---------------------------------------------------------------------
      1          8           0        7.575000    7.504000   12.301000
      2          6           0        8.142000    7.929000   13.548000
      3          6           0        7.729000    9.317000   14.011000
      4          8           0        8.213000   10.245000   13.029000
      5          1           0        7.748000    9.982000   12.183000
      6          6           0        8.138000    9.620000   15.443000
      7          8           0        7.456000   10.781000   15.940000
      8          1           0        7.754000   10.898000   16.888000
      9          6           0        7.880000    5.478000   14.287000
     10          8           0        9.010000    5.098000   13.489000
     11          1           0        9.196000    4.152000   13.752000
     12          6           0        7.712000    6.950000   14.628000
     13          8           0        8.464000    7.269000   15.808000
     14          6           0        7.850000    8.443000   16.360000
     15          8           0        8.616000    8.680000   17.550000
     16          6           0        8.106000    8.315000   18.841000
     17          6           0        8.648000    6.985000   19.339000
     18          8           0        8.384000    5.906000   18.430000
     19          1           0        8.234000    6.217000   17.491000
     20          6           0        8.221000    6.732000   20.775000
     21          8           0        8.570000    5.457000   21.334000
     22          1           0        8.428000    5.439000   22.324000
     23          6           0        8.284000   10.750000   19.688000
     24          8           0        8.418000   11.313000   18.375000
     25          1           0        8.330000   12.309000   18.386000
     26          6           0        8.682000    9.292000   19.853000
     27          8           0        8.255000    9.010000   21.193000
     28          6           0        8.749000    7.780000   21.742000
     29          8           0        7.907000    7.727000   22.904000
     30          1           0        8.452537    7.691008   23.693110
     31          1           0        9.801672    7.755246   21.932181
     32          1           0        7.153213    6.797987   20.794403
     33          1           0        9.712402    7.091348   19.364247
     34          1           0        7.036204    8.328994   18.856527
     35          1           0        9.749286    9.225779   19.815390
     36          1           0        8.881325   11.332116   20.358257
     37          1           0        7.260695   10.847487   19.985058
     38          1           0        8.279866    7.293751   11.684105
     39          1           0        6.997355    5.161271   13.771713
     40          1           0        7.935592    4.935692   15.207712
     41          1           0        6.677044    7.123243   14.837172
     42          1           0        9.208384    7.900472   13.464871
     43          1           0        6.660158    9.354699   13.978498
     44          1           0        9.190382    9.812604   15.460200
     45          1           0        6.806658    8.312929   16.558542
 ---------------------------------------------------------------------
                    Distance matrix (angstroms):
                    1          2          3          4          5
     1  O    0.000000
     2  C    1.434267   0.000000
     3  C    2.496955   1.520356   0.000000
     4  O    2.906907   2.374502   1.435188   0.000000
     5  H    2.486833   2.496652   1.945294   1.000555   0.000000
     6  C    3.829698   2.539788   1.519774   2.494724   3.303142
     7  O    4.898491   3.784992   2.436979   3.055203   3.852105
     8  H    5.708927   4.485655   3.282882   3.940682   4.793341
     9  C    2.853401   2.573357   3.851869   4.941431   4.972952
    10  O    3.042927   2.961666   4.439978   5.228615   5.210733
    11  H    3.996116   3.926609   5.375537   6.213990   6.208652
    12  C    2.395958   1.519783   2.446154   3.696597   3.895169
    13  O    3.625548   2.376317   2.822010   4.079512   4.584065
    14  C    4.175264   2.873466   2.509247   3.804541   4.452668
    15  O    5.478929   4.099351   3.703655   4.801154   5.590467
    16  C    6.611451   5.307178   4.947225   6.125006   6.872846
    17  C    7.138216   5.889215   5.888155   7.115682   7.810272
    18  O    6.385352   5.290087   5.620632   6.930149   7.486206
    19  H    5.387648   4.299611   4.687795   6.011212   6.525817
    20  C    8.533579   7.325884   7.257822   8.505395   9.198298
    21  O    9.315327   8.180206   8.320650   9.592988  10.241685
    22  H   10.269000   9.126887   9.199644  10.466178  11.132885
    23  C    8.099813   6.758536   5.881313   6.678499   7.563210
    24  O    7.218906   5.901488   4.848013   5.455489   6.368777
    25  H    7.790075   6.528858   5.334219   5.742058   6.650629
    26  C    7.839330   6.473206   5.919273   6.906167   7.757407
    27  O    9.044230   7.721875   7.207777   8.256990   9.076449
    28  C    9.517717   8.217803   7.948027   9.070826   9.860288
    29  O   10.610540   9.361131   9.035775  10.195567  10.956740
    30  H   11.427388  10.152651   9.844318  10.968295  11.757025
    31  H    9.888420   8.548637   8.335476   9.380266  10.208944
    32  H    8.533127   7.400490   7.258892   8.561924   9.200434
    33  H    7.391091   6.082479   6.127370   7.233885   7.986555
    34  H    6.629167   5.437209   4.993521   6.246279   6.911950
    35  H    8.009875   6.598877   6.146611   7.032359   7.926563
    36  H    9.015561   7.649013   6.758418   7.439522   8.363137
    37  H    8.385847   7.122498   6.184744   7.046745   7.865026
    38  H    0.960000   1.973994   3.132320   3.243931   2.785401
    39  H    2.825783   3.003429   4.226423   5.279557   5.130975
    40  H    3.895537   3.428869   4.546500   5.745650   5.886366
    41  H    2.717254   2.111233   2.569386   3.920971   4.045253
    42  H    2.044439   1.070000   2.119761   2.584103   2.847573
    43  H    2.660079   2.100905   1.070000   2.026203   2.191054
    44  H    4.233161   2.881593   2.116941   2.655744   3.584578
    45  H    4.401293   3.315706   2.889437   4.262437   4.776745
                    6          7          8          9         10
     6  C    0.000000
     7  O    1.435289   0.000000
     8  H    1.966918   1.000598   0.000000
     9  C    4.308023   5.570816   6.013109   0.000000
    10  O    5.002698   6.381129   6.838913   1.434609   0.000000
    11  H    5.820470   7.194344   7.577755   1.943285   0.999340
    12  C    2.823934   4.057517   4.549293   1.520292   2.532198
    13  O    2.401396   3.656177   3.852290   2.421194   3.223215
    14  C    1.519593   2.407879   2.512971   3.617935   4.558209
    15  O    2.356169   2.889966   2.469982   4.630515   5.429335
    16  C    3.640117   3.862571   3.257300   5.370155   6.309533
    17  C    4.730977   5.232942   4.703000   5.327624   6.157460
    18  O    4.772471   5.552199   5.262578   4.195432   5.045614
    19  H    3.972899   4.882723   4.744025   3.307122   4.227333
    20  C    6.064459   6.352704   5.716854   6.616868   7.508547
    21  O    7.226415   7.660366   7.073702   7.080731   7.865526
    22  H    8.056862   8.380764   7.733373   8.055755   8.860713
    23  C    4.395252   3.838496   2.853560   7.558307   8.420201
    24  O    3.397245   2.671646   1.680562   7.144817   7.927779
    25  H    3.991094   3.013565   2.136984   7.979152   8.743085
    26  C    4.455516   4.362541   3.497377   6.794862   7.628743
    27  O    5.783450   5.600790   4.727427   7.765854   8.673257
    28  C    6.590624   6.658908   5.854337   7.850566   8.681777
    29  O    7.700866   7.617586   6.802272   8.905696   9.837199
    30  H    8.478458   8.405465   7.555281   9.679881  10.543164
    31  H    6.953746   7.110809   6.285987   8.205332   8.886789
    32  H    6.129525   6.286597   5.694826   6.679587   7.727000
    33  H    4.924328   5.516371   4.945477   5.633740   6.243824
    34  H    3.812193   3.833366   3.315135   5.451673   6.568526
    35  H    4.676478   4.764087   3.917538   6.935645   7.590014
    36  H    5.257720   4.675069   3.674507   8.493143   9.277254
    37  H    4.786092   4.050316   3.136506   7.853839   8.849601
    38  H    4.422766   5.563480   6.351982   3.198735   2.934632
    39  H    4.896380   6.040959   6.572201   1.070000   2.033388
    40  H    4.694579   5.910489   6.197214   1.070000   2.033388
    41  H    2.955540   3.898999   4.428829   2.111070   3.370736
    42  H    2.831165   4.182650   4.776843   2.882511   2.809588
    43  H    2.097419   2.552487   3.470370   4.075780   4.886804
    44  H    1.070000   2.043546   2.297802   4.677851   5.113282
    45  H    2.173785   2.625950   2.772831   3.787980   4.961106
                   11         12         13         14         15
    11  H    0.000000
    12  C    3.286097   0.000000
    13  O    3.805082   1.435153   0.000000
    14  C    5.198660   2.290833   1.435262   0.000000
    15  O    5.938349   3.514001   2.246907   1.434930   0.000000
    16  C    6.664577   4.446103   3.228215   2.497455   1.435272
    17  C    6.288145   4.803212   3.547178   3.411306   2.464664
    18  O    5.061575   3.999590   2.956189   3.317593   2.919469
    19  H    4.378332   3.001090   1.998022   2.526201   2.493145
    20  C    7.545168   6.171889   5.001850   4.749462   3.788318
    21  O    7.718913   6.923558   5.816464   5.845962   4.970765
    22  H    8.702033   7.875544   6.768194   6.702790   5.773257
    23  C    8.921964   6.353801   5.215761   4.072615   2.994356
    24  O    8.559050   5.794326   4.790150   3.552429   2.766318
    25  H    9.421282   6.574448   5.662653   4.391017   3.735014
    26  C    7.994123   5.807451   4.527922   3.689725   2.383843
    27  O    8.936114   6.902005   5.663302   4.882971   3.675686
    28  C    8.786484   7.236938   5.962776   5.496698   4.289587
    29  O    9.909654   8.314682   7.132547   6.583300   5.484178
    30  H   10.578420   9.125443   7.896403   7.396150   6.224357
    31  H    8.959106   7.639779   6.287400   5.944008   4.632980
    32  H    7.795490   6.193535   5.177281   4.780744   4.025900
    33  H    6.356395   5.143309   3.773190   3.784311   2.649039
    34  H    6.940331   4.498752   3.529264   2.628290   2.079897
    35  H    7.925532   6.019861   4.641133   4.019919   2.591178
    36  H    9.761952   7.307948   6.114565   5.039512   3.871746
    37  H    9.350185   6.640192   5.630393   4.389747   3.530490
    38  H    3.871188   3.017806   4.128078   4.834207   6.036837
    39  H    2.419309   2.107961   3.277199   4.265675   5.410815
    40  H    2.078918   2.107961   2.466554   3.692737   4.468681
    41  H    4.043639   1.070000   2.038864   2.331650   3.680011
    42  H    3.759473   2.120244   2.538330   3.243658   4.200817
    43  H    5.792225   2.703850   3.309239   2.813978   4.127489
    44  H    5.912733   3.327562   2.668055   2.117092   2.445398
    45  H    5.558684   2.530655   2.097590   1.070000   2.095578
                   16         17         18         19         20
    16  C    0.000000
    17  C    1.520088   0.000000
    18  O    2.459570   1.435346   0.000000
    19  H    2.498097   2.043606   1.000471   0.000000
    20  C    2.501893   1.519353   2.491560   3.324162   0.000000
    21  O    3.820800   2.514139   2.944387   3.931812   1.435238
    22  H    4.528394   3.368789   3.922150   4.899062   2.028324
    23  C    2.584244   3.798621   5.005687   5.037598   4.162915
    24  O    3.050001   4.440020   5.407387   5.175377   5.175362
    25  H    4.026070   5.417962   6.403379   6.158141   6.068124
    26  C    1.520016   2.363811   3.684933   3.903252   2.759747
    27  O    2.457057   2.773516   4.157599   4.637466   2.316282
    28  C    3.019184   2.533108   3.822884   4.558420   1.520584
    29  O    4.110148   3.716029   4.853890   5.629174   2.370920
    30  H    4.904327   4.415306   5.557992   6.378607   3.080368
    31  H    3.569878   2.940889   4.206516   4.954583   2.210119
    32  H    2.650456   2.094651   2.810850   3.523935   1.070000
    33  H    2.086059   1.070000   2.010602   2.541498   2.084139
    34  H    1.070000   2.153366   2.805241   2.785659   2.763090
    35  H    2.116446   2.541824   3.847628   4.092876   3.078221
    36  H    3.464994   4.471100   5.779986   5.899542   4.665915
    37  H    2.904634   4.154613   5.300784   5.348743   4.299236
    38  H    7.231482   7.669959   6.887946   5.906059   9.108425
    39  H    6.072296   6.086485   4.917016   4.059181   7.280833
    40  H    4.964831   4.666340   3.394953   2.635185   5.856865
    41  H    4.415070   4.916324   4.159783   3.207521   6.147738
    42  H    5.503622   5.971391   5.413874   4.471378   7.468484
    43  H    5.178355   6.188859   5.889060   4.965864   7.450317
    44  H    3.853377   4.830591   4.973079   4.238771   6.219077
    45  H    2.626387   3.589552   3.432735   2.701796   4.719980
                   21         22         23         24         25
    21  O    0.000000
    22  H    1.000294   0.000000
    23  C    5.550402   5.930932   0.000000
    24  O    6.562890   7.078035   1.434885   0.000000
    25  H    7.463123   7.919239   2.031699   0.999940   0.000000
    26  C    4.112558   4.584317   1.520327   2.517662   3.373171
    27  O    3.569722   3.749817   2.300753   3.643007   4.332237
    28  C    2.365340   2.433525   3.640885   4.891660   5.652445
    29  O    2.838551   2.417185   4.429821   5.799341   6.448719
    30  H    3.251152   2.635641   5.042494   6.434463   7.036070
    31  H    2.675214   2.721303   4.038345   5.217825   5.956332
    32  H    2.024029   2.410725   4.256902   5.276225   6.128336
    33  H    2.802874   3.624925   3.940924   4.525089   5.485608
    34  H    4.091302   4.723614   2.847738   3.323480   4.211384
    35  H    4.230909   4.730604   2.118146   2.864182   3.682904
    36  H    5.963722   6.228841   1.070000   2.036748   2.268934
    37  H    5.708877   6.007078   1.070000   2.036748   2.415868
    38  H    9.827427  10.801362   8.718258   7.806505   8.370821
    39  H    7.729738   8.675569   8.239648   7.813594   8.611482
    40  H    6.181071   7.151037   7.348506   7.136840   8.038827
    41  H    6.969105   7.871158   6.266276   5.753367   6.497579
    42  H    8.264459   9.227785   6.906637   6.031536   6.665148
    43  H    8.540666   9.386446   6.097716   5.123884   5.562584
    44  H    7.338780   8.174435   4.424312   3.368059   3.941137
    45  H    5.837011   6.642945   4.232654   3.859581   4.650673
                   26         27         28         29         30
    26  C    0.000000
    27  O    1.434382   0.000000
    28  C    2.420528   1.434691   0.000000
    29  O    3.515459   2.166729   1.435972   0.000000
    30  H    4.166806   2.833604   1.975510   0.960000   0.000000
    31  H    2.817494   2.124380   1.070000   2.129557   2.219270
    32  H    3.073033   2.503162   2.099721   2.425213   3.299732
    33  H    2.478604   3.024828   2.656331   4.024100   4.548176
    34  H    2.151507   2.721826   3.400150   4.183625   5.079917
    35  H    1.070000   2.043835   2.608194   3.896135   4.367355
    36  H    2.111181   2.545840   3.814417   4.519621   4.956084
    37  H    2.111181   2.413322   3.835541   4.321501   5.013332
    38  H    8.419356   9.662568  10.080565  11.234446  12.016815
    39  H    7.542082   8.453987   8.570384   9.529380  10.341723
    40  H    6.411961   7.247460   7.172771   8.186884   8.936496
    41  H    5.820816   6.815156   7.238853   8.182361   9.049993
    42  H    6.559087   7.865366   8.290743   9.529998  10.258268
    43  H    6.213015   7.396714   8.192369   9.157981  10.017693
    44  H    4.452659   5.863797   6.617198   7.836260   8.533838
    45  H    3.915219   4.905283   5.561020   6.466753   7.348316
                   31         32         33         34         35
    31  H    0.000000
    32  H    3.037305   0.000000
    33  H    2.653868   2.946330   0.000000
    34  H    4.175721   2.472456   2.991920   0.000000
    35  H    2.577987   3.686766   2.181900   3.014043   0.000000
    36  H    4.014757   4.871850   4.434282   3.831240   2.341947
    37  H    4.450821   4.130986   4.528228   2.768896   2.975199
    38  H   10.370726   9.193077   7.815224   7.352691   8.485855
    39  H    9.010336   7.212580   6.509464   5.990936   7.785845
    40  H    7.526661   5.940654   5.008063   5.063324   6.551720
    41  H    7.778296   5.985076   5.450581   4.211657   6.216268
    42  H    8.489313   7.691635   5.975898   5.828547   6.509847
    43  H    8.699911   7.296331   6.591301   4.998865   6.605198
    44  H    6.818573   6.456911   4.787413   4.286796   4.429946
    45  H    6.177145   4.511947   4.219904   2.309477   4.483237
                   36         37         38         39         40
    36  H    0.000000
    37  H    1.732220   0.000000
    38  H    9.587025   9.087000   0.000000
    39  H    9.220153   8.426628   3.248140   0.000000
    40  H    8.266605   7.630717   4.253796   1.730107   0.000000
    41  H    7.283945   6.380547   3.541178   2.255468   2.550808
    42  H    7.707264   7.415607   2.097948   3.533557   3.667072
    43  H    7.038827   6.218346   3.483561   4.212043   4.760812
    44  H    5.137645   5.026829   4.629531   5.412509   5.042075
    45  H    5.278026   4.286157   5.193189   4.211382   3.808539
                   41         42         43         44         45
    41  H    0.000000
    42  H    2.982445   0.000000
    43  H    2.391026   2.978598   0.000000
    44  H    3.733322   2.763677   2.967684   0.000000
    45  H    2.096490   3.938174   2.786284   3.022833   0.000000
 Stoichiometry    C12H22O11
 Framework group  C1[X(C12H22O11)]
 Deg. of freedom   129
 Full point group                 C1      NOp   1
 Largest Abelian subgroup         C1      NOp   1
 Largest concise Abelian subgroup C1      NOp   1
                         Standard orientation:                         
 ---------------------------------------------------------------------
 Center     Atomic      Atomic             Coordinates (Angstroms)
 Number     Number       Type             X           Y           Z
 ---------------------------------------------------------------------
      1          8           0       -5.062222   -0.529919    0.439654
      2          6           0       -3.786393   -0.147736   -0.092626
      3          6           0       -3.329891    1.259244    0.258791
      4          8           0       -4.279669    2.163358   -0.324531
      5          1           0       -5.148700    1.934139    0.115188
      6          6           0       -1.877722    1.527806   -0.100089
      7          8           0       -1.401833    2.723965    0.534567
      8          1           0       -0.440012    2.816696    0.274764
      9          6           0       -3.083465   -2.583699    0.347988
     10          8           0       -3.831941   -3.024891   -0.793606
     11          1           0       -3.569569   -3.982015   -0.910889
     12          6           0       -2.736711   -1.106625    0.444440
     13          8           0       -1.520259   -0.840807   -0.269178
     14          6           0       -0.986165    0.363916    0.299471
     15          8           0        0.240148    0.546981   -0.422794
     16          6           0        1.502696    0.204339    0.167610
     17          6           0        2.012633   -1.158840   -0.270996
     18          8           0        1.082257   -2.214129    0.013578
     19          1           0        0.140306   -1.888490    0.100927
     20          6           0        3.424912   -1.395588    0.236796
     21          8           0        3.987381   -2.692795   -0.009760
     22          1           0        4.969547   -2.708933    0.179127
     23          6           0        2.379968    2.618728   -0.114241
     24          8           0        1.079938    3.181524   -0.342442
     25          1           0        1.096262    4.180899   -0.313041
     26          6           0        2.549413    1.138568   -0.417240
     27          8           0        3.865525    0.873513    0.087783
     28          6           0        4.425132   -0.387331   -0.306487
     29          8           0        5.546425   -0.397925    0.590511
     30          1           0        6.359528   -0.471571    0.085498
     31          1           0        4.663517   -0.475918   -1.345826
     32          1           0        3.395569   -1.266344    1.298556
     33          1           0        2.088048   -1.116155   -1.337481
     34          1           0        1.468897    0.281829    1.234265
     35          1           0        2.560544    1.009241   -1.479337
     36          1           0        3.082580    3.159795   -0.712975
     37          1           0        2.630324    2.774915    0.914267
     38          1           0       -5.647840   -0.777589   -0.279589
     39          1           0       -3.641960   -2.843923    1.222784
     40          1           0       -2.166328   -3.134495    0.367596
     41          1           0       -2.573967   -0.873538    1.475985
     42          1           0       -3.820417   -0.239080   -1.158176
     43          1           0       -3.411398    1.360662    1.320851
     44          1           0       -1.810088    1.657360   -1.160061
     45          1           0       -0.837290    0.294803    1.356807
 ---------------------------------------------------------------------
 Rotational constants (GHZ):      0.4277707      0.1439176      0.1107027
 Standard basis: 6-31+G(d,p) (6D, 7F)
 There are   547 symmetry adapted basis functions of A   symmetry.
 Integral buffers will be    131072 words long.
 Raffenetti 2 integral format.
 Two-electron integral symmetry is turned on.
   547 basis functions,   890 primitive gaussians,   547 cartesian basis functions
    91 alpha electrons       91 beta electrons
       nuclear repulsion energy      2292.9634243159 Hartrees.
 NAtoms=   45 NActive=   45 NUniq=   45 SFac= 1.00D+00 NAtFMM=   50 NAOKFM=F Big=F
 One-electron integrals computed using PRISM.
 NBasis=   547 RedAO= T  NBF=   547
 NBsUse=   547 1.00D-06 NBFU=   547
 Harris functional with IExCor=  402 diagonalized for initial guess.
 ExpMin= 4.38D-02 ExpMax= 5.48D+03 ExpMxC= 8.25D+02 IAcc=2 IRadAn=         0 AccDes= 0.00D+00
 HarFok:  IExCor=  402 AccDes= 0.00D+00 IRadAn=         0 IDoV= 1
 ScaDFX=  1.000000  1.000000  1.000000  1.000000
 FoFCou: FMM=F IPFlag=           0 FMFlag=      100000 FMFlg1=           0
         NFxFlg=           0 DoJE=T BraDBF=F KetDBF=T FulRan=T
         Omega=  0.000000  0.000000  1.000000  0.000000  0.000000 ICntrl=     500 IOpCl=  0
         NMat0=    1 NMatS0=    1 NMatT0=    0 NMatD0=    1 NMtDS0=    0 NMtDT0=    0
         I1Cent=           4 NGrid=           0.
 Petite list used in FoFCou.
 Initial guess orbital symmetries:
       Occupied  (A) (A) (A) (A) (A) (A) (A) (A) (A) (A) (A) (A)
                 (A) (A) (A) (A) (A) (A) (A) (A) (A) (A) (A) (A)
                 (A) (A) (A) (A) (A) (A) (A) (A) (A) (A) (A) (A)
                 (A) (A) (A) (A) (A) (A) (A) (A) (A) (A) (A) (A)
                 (A) (A) (A) (A) (A) (A) (A) (A) (A) (A) (A) (A)
                 (A) (A) (A) (A) (A) (A) (A) (A) (A) (A) (A) (A)
                 (A) (A) (A) (A) (A) (A) (A) (A) (A) (A) (A) (A)
                 (A) (A) (A) (A) (A) (A) (A)
       Virtual   (A) (A) (A) (A) (A) (A) (A) (A) (A) (A) (A) (A)
                 (A) (A) (A) (A) (A) (A) (A) (A) (A) (A) (A) (A)
                 (A) (A) (A) (A) (A) (A) (A) (A) (A) (A) (A) (A)
                 (A) (A) (A) (A) (A) (A) (A) (A) (A) (A) (A) (A)
                 (A) (A) (A) (A) (A) (A) (A) (A) (A) (A) (A) (A)
                 (A) (A) (A) (A) (A) (A) (A) (A) (A) (A) (A) (A)
                 (A) (A) (A) (A) (A) (A) (A) (A) (A) (A) (A) (A)
                 (A) (A) (A) (A) (A) (A) (A) (A) (A) (A) (A) (A)
                 (A) (A) (A) (A) (A) (A) (A) (A) (A) (A) (A) (A)
                 (A) (A) (A) (A) (A) (A) (A) (A) (A) (A) (A) (A)
                 (A) (A) (A) (A) (A) (A) (A) (A) (A) (A) (A) (A)
                 (A) (A) (A) (A) (A) (A) (A) (A) (A) (A) (A) (A)
                 (A) (A) (A) (A) (A) (A) (A) (A) (A) (A) (A) (A)
                 (A) (A) (A) (A) (A) (A) (A) (A) (A) (A) (A) (A)
                 (A) (A) (A) (A) (A) (A) (A) (A) (A) (A) (A) (A)
                 (A) (A) (A) (A) (A) (A) (A) (A) (A) (A) (A) (A)
                 (A) (A) (A) (A) (A) (A) (A) (A) (A) (A) (A) (A)
                 (A) (A) (A) (A) (A) (A) (A) (A) (A) (A) (A) (A)
                 (A) (A) (A) (A) (A) (A) (A) (A) (A) (A) (A) (A)
                 (A) (A) (A) (A) (A) (A) (A) (A) (A) (A) (A) (A)
                 (A) (A) (A) (A) (A) (A) (A) (A) (A) (A) (A) (A)
                 (A) (A) (A) (A) (A) (A) (A) (A) (A) (A) (A) (A)
                 (A) (A) (A) (A) (A) (A) (A) (A) (A) (A) (A) (A)
                 (A) (A) (A) (A) (A) (A) (A) (A) (A) (A) (A) (A)
                 (A) (A) (A) (A) (A) (A) (A) (A) (A) (A) (A) (A)
                 (A) (A) (A) (A) (A) (A) (A) (A) (A) (A) (A) (A)
                 (A) (A) (A) (A) (A) (A) (A) (A) (A) (A) (A) (A)
                 (A) (A) (A) (A) (A) (A) (A) (A) (A) (A) (A) (A)
                 (A) (A) (A) (A) (A) (A) (A) (A) (A) (A) (A) (A)
                 (A) (A) (A) (A) (A) (A) (A) (A) (A) (A) (A) (A)
                 (A) (A) (A) (A) (A) (A) (A) (A) (A) (A) (A) (A)
                 (A) (A) (A) (A) (A) (A) (A) (A) (A) (A) (A) (A)
                 (A) (A) (A) (A) (A) (A) (A) (A) (A) (A) (A) (A)
                 (A) (A) (A) (A) (A) (A) (A) (A) (A) (A) (A) (A)
                 (A) (A) (A) (A) (A) (A) (A) (A) (A) (A) (A) (A)
                 (A) (A) (A) (A) (A) (A) (A) (A) (A) (A) (A) (A)
                 (A) (A) (A) (A) (A) (A) (A) (A) (A) (A) (A) (A)
                 (A) (A) (A) (A) (A) (A) (A) (A) (A) (A) (A) (A)
 The electronic state of the initial guess is 1-A.
 Requested convergence on RMS density matrix=1.00D-08 within 128 cycles.
 Requested convergence on MAX density matrix=1.00D-06.
 Requested convergence on             energy=1.00D-06.
 No special actions if energy rises.
 SCF Done:  E(RB3LYP) =  -1297.93984516     A.U. after   13 cycles
             Convg  =    0.7391D-08             -V/T =  2.0086
 Range of M.O.s used for correlation:     1   547
 NBasis=   547 NAE=    91 NBE=    91 NFC=     0 NFV=     0
 NROrb=    547 NOA=    91 NOB=    91 NVA=   456 NVB=   456

 **** Warning!!: The largest alpha MO coefficient is  0.73372217D+02

          Differentiating once with respect to electric field.
                with respect to dipole field.
          Electric field/nuclear overlap derivatives assumed to be zero.
          There are     3 degrees of freedom in the 1st order CPHF.  IDoFFX=0.
      3 vectors produced by pass  0 Test12= 1.38D-12 3.33D-08 XBig12= 1.21D+02 1.06D+00.
 AX will form     3 AO Fock derivatives at one time.
      3 vectors produced by pass  1 Test12= 1.38D-12 3.33D-08 XBig12= 2.27D+01 3.33D-01.
      3 vectors produced by pass  2 Test12= 1.38D-12 3.33D-08 XBig12= 9.29D+00 2.10D-01.
      3 vectors produced by pass  3 Test12= 1.38D-12 3.33D-08 XBig12= 8.90D-01 8.62D-02.
      3 vectors produced by pass  4 Test12= 1.38D-12 3.33D-08 XBig12= 2.95D-01 3.49D-02.
      3 vectors produced by pass  5 Test12= 1.38D-12 3.33D-08 XBig12= 5.07D-02 1.52D-02.
      3 vectors produced by pass  6 Test12= 1.38D-12 3.33D-08 XBig12= 1.73D-02 1.36D-02.
      3 vectors produced by pass  7 Test12= 1.38D-12 3.33D-08 XBig12= 1.85D-03 4.53D-03.
      3 vectors produced by pass  8 Test12= 1.38D-12 3.33D-08 XBig12= 4.73D-04 2.10D-03.
      3 vectors produced by pass  9 Test12= 1.38D-12 3.33D-08 XBig12= 9.14D-05 1.01D-03.
      3 vectors produced by pass 10 Test12= 1.38D-12 3.33D-08 XBig12= 3.20D-05 4.83D-04.
      3 vectors produced by pass 11 Test12= 1.38D-12 3.33D-08 XBig12= 6.43D-06 3.54D-04.
      3 vectors produced by pass 12 Test12= 1.38D-12 3.33D-08 XBig12= 8.52D-07 1.05D-04.
      3 vectors produced by pass 13 Test12= 1.38D-12 3.33D-08 XBig12= 2.40D-07 3.50D-05.
      3 vectors produced by pass 14 Test12= 1.38D-12 3.33D-08 XBig12= 3.21D-08 1.61D-05.
      3 vectors produced by pass 15 Test12= 1.38D-12 3.33D-08 XBig12= 8.90D-09 6.96D-06.
      3 vectors produced by pass 16 Test12= 1.38D-12 3.33D-08 XBig12= 7.92D-10 3.60D-06.
      3 vectors produced by pass 17 Test12= 1.38D-12 3.33D-08 XBig12= 5.44D-11 7.03D-07.
      3 vectors produced by pass 18 Test12= 1.38D-12 3.33D-08 XBig12= 1.59D-11 2.59D-07.
      3 vectors produced by pass 19 Test12= 1.38D-12 3.33D-08 XBig12= 1.18D-11 2.48D-07.
      2 vectors produced by pass 20 Test12= 1.38D-12 3.33D-08 XBig12= 6.40D-12 2.65D-07.
      2 vectors produced by pass 21 Test12= 1.38D-12 3.33D-08 XBig12= 1.47D-12 8.04D-08.
      1 vectors produced by pass 22 Test12= 1.38D-12 3.33D-08 XBig12= 4.63D-13 4.78D-08.
 Inverted reduced A of dimension    65 with in-core refinement.
 End of Minotr Frequency-dependent properties file   721 does not exist.
 End of Minotr Frequency-dependent properties file   722 does not exist.
 Symmetrizing basis deriv contribution to polar:
 IMax=3 JMax=2 DiffMx= 0.00D+00
 G2DrvN: will do    23 centers at a time, making    2 passes doing MaxLOS=2.
 Calling FoFCou, ICntrl=  3107 FMM=F I1Cent=   0 AccDes= 0.00D+00.
 Calling FoFCou, ICntrl=  3107 FMM=F I1Cent=   0 AccDes= 0.00D+00.
 FoFDir/FoFCou used for L=0 through L=2.
 End of G2Drv Frequency-dependent properties file   721 does not exist.
 End of G2Drv Frequency-dependent properties file   722 does not exist.
          IDoAtm=111111111111111111111111111111111111111111111
          Differentiating once with respect to electric field.
                with respect to dipole field.
          Differentiating once with respect to nuclear coordinates.
          There are   138 degrees of freedom in the 1st order CPHF.  IDoFFX=5.
 Will reuse    3 saved solutions.
    135 vectors produced by pass  0 Test12= 4.15D-14 1.00D-09 XBig12= 2.19D-01 6.68D-02.
 AX will form    68 AO Fock derivatives at one time.
    135 vectors produced by pass  1 Test12= 4.15D-14 1.00D-09 XBig12= 2.95D-02 1.23D-02.
    132 vectors produced by pass  2 Test12= 4.15D-14 1.00D-09 XBig12= 2.98D-04 1.91D-03.
    132 vectors produced by pass  3 Test12= 4.15D-14 1.00D-09 XBig12= 9.49D-07 1.07D-04.
    132 vectors produced by pass  4 Test12= 4.15D-14 1.00D-09 XBig12= 1.38D-09 3.01D-06.
    132 vectors produced by pass  5 Test12= 4.15D-14 1.00D-09 XBig12= 3.44D-12 1.23D-07.
     76 vectors produced by pass  6 Test12= 4.15D-14 1.00D-09 XBig12= 1.06D-13 1.87D-08.
      1 vectors produced by pass  7 Test12= 4.15D-14 1.00D-09 XBig12= 1.51D-16 1.04D-09.
 Inverted reduced A of dimension   875 with in-core refinement.
 Isotropic polarizability for W=    0.000000      187.49 Bohr**3.
 End of Minotr Frequency-dependent properties file   721 does not exist.
 End of Minotr Frequency-dependent properties file   722 does not exist.

 **********************************************************************

            Population analysis using the SCF density.

 **********************************************************************

 Orbital symmetries:
       Occupied  (A) (A) (A) (A) (A) (A) (A) (A) (A) (A) (A) (A)
                 (A) (A) (A) (A) (A) (A) (A) (A) (A) (A) (A) (A)
                 (A) (A) (A) (A) (A) (A) (A) (A) (A) (A) (A) (A)
                 (A) (A) (A) (A) (A) (A) (A) (A) (A) (A) (A) (A)
                 (A) (A) (A) (A) (A) (A) (A) (A) (A) (A) (A) (A)
                 (A) (A) (A) (A) (A) (A) (A) (A) (A) (A) (A) (A)
                 (A) (A) (A) (A) (A) (A) (A) (A) (A) (A) (A) (A)
                 (A) (A) (A) (A) (A) (A) (A)
       Virtual   (A) (A) (A) (A) (A) (A) (A) (A) (A) (A) (A) (A)
                 (A) (A) (A) (A) (A) (A) (A) (A) (A) (A) (A) (A)
                 (A) (A) (A) (A) (A) (A) (A) (A) (A) (A) (A) (A)
                 (A) (A) (A) (A) (A) (A) (A) (A) (A) (A) (A) (A)
                 (A) (A) (A) (A) (A) (A) (A) (A) (A) (A) (A) (A)
                 (A) (A) (A) (A) (A) (A) (A) (A) (A) (A) (A) (A)
                 (A) (A) (A) (A) (A) (A) (A) (A) (A) (A) (A) (A)
                 (A) (A) (A) (A) (A) (A) (A) (A) (A) (A) (A) (A)
                 (A) (A) (A) (A) (A) (A) (A) (A) (A) (A) (A) (A)
                 (A) (A) (A) (A) (A) (A) (A) (A) (A) (A) (A) (A)
                 (A) (A) (A) (A) (A) (A) (A) (A) (A) (A) (A) (A)
                 (A) (A) (A) (A) (A) (A) (A) (A) (A) (A) (A) (A)
                 (A) (A) (A) (A) (A) (A) (A) (A) (A) (A) (A) (A)
                 (A) (A) (A) (A) (A) (A) (A) (A) (A) (A) (A) (A)
                 (A) (A) (A) (A) (A) (A) (A) (A) (A) (A) (A) (A)
                 (A) (A) (A) (A) (A) (A) (A) (A) (A) (A) (A) (A)
                 (A) (A) (A) (A) (A) (A) (A) (A) (A) (A) (A) (A)
                 (A) (A) (A) (A) (A) (A) (A) (A) (A) (A) (A) (A)
                 (A) (A) (A) (A) (A) (A) (A) (A) (A) (A) (A) (A)
                 (A) (A) (A) (A) (A) (A) (A) (A) (A) (A) (A) (A)
                 (A) (A) (A) (A) (A) (A) (A) (A) (A) (A) (A) (A)
                 (A) (A) (A) (A) (A) (A) (A) (A) (A) (A) (A) (A)
                 (A) (A) (A) (A) (A) (A) (A) (A) (A) (A) (A) (A)
                 (A) (A) (A) (A) (A) (A) (A) (A) (A) (A) (A) (A)
                 (A) (A) (A) (A) (A) (A) (A) (A) (A) (A) (A) (A)
                 (A) (A) (A) (A) (A) (A) (A) (A) (A) (A) (A) (A)
                 (A) (A) (A) (A) (A) (A) (A) (A) (A) (A) (A) (A)
                 (A) (A) (A) (A) (A) (A) (A) (A) (A) (A) (A) (A)
                 (A) (A) (A) (A) (A) (A) (A) (A) (A) (A) (A) (A)
                 (A) (A) (A) (A) (A) (A) (A) (A) (A) (A) (A) (A)
                 (A) (A) (A) (A) (A) (A) (A) (A) (A) (A) (A) (A)
                 (A) (A) (A) (A) (A) (A) (A) (A) (A) (A) (A) (A)
                 (A) (A) (A) (A) (A) (A) (A) (A) (A) (A) (A) (A)
                 (A) (A) (A) (A) (A) (A) (A) (A) (A) (A) (A) (A)
                 (A) (A) (A) (A) (A) (A) (A) (A) (A) (A) (A) (A)
                 (A) (A) (A) (A) (A) (A) (A) (A) (A) (A) (A) (A)
                 (A) (A) (A) (A) (A) (A) (A) (A) (A) (A) (A) (A)
                 (A) (A) (A) (A) (A) (A) (A) (A) (A) (A) (A) (A)
 The electronic state is 1-A.
 Alpha  occ. eigenvalues --  -19.19491 -19.19450 -19.18826 -19.18649 -19.18440
 Alpha  occ. eigenvalues --  -19.17441 -19.17113 -19.16342 -19.15796 -19.14966
 Alpha  occ. eigenvalues --  -19.13875 -10.31656 -10.30998 -10.26382 -10.26354
 Alpha  occ. eigenvalues --  -10.25532 -10.25423 -10.25127 -10.24997 -10.24689
 Alpha  occ. eigenvalues --  -10.24365 -10.24327 -10.24223  -1.10209  -1.09756
 Alpha  occ. eigenvalues --   -1.05508  -1.04954  -1.03880  -1.03352  -1.02784
 Alpha  occ. eigenvalues --   -1.02353  -1.01856  -1.00573  -0.99993  -0.82572
 Alpha  occ. eigenvalues --   -0.80043  -0.79687  -0.77888  -0.72093  -0.70265
 Alpha  occ. eigenvalues --   -0.67540  -0.64865  -0.63158  -0.62111  -0.61855
 Alpha  occ. eigenvalues --   -0.60481  -0.57173  -0.55599  -0.55249  -0.54480
 Alpha  occ. eigenvalues --   -0.53962  -0.53112  -0.52958  -0.52545  -0.51567
 Alpha  occ. eigenvalues --   -0.50454  -0.50022  -0.49070  -0.46881  -0.46665
 Alpha  occ. eigenvalues --   -0.46023  -0.45099  -0.45081  -0.44440  -0.43096
 Alpha  occ. eigenvalues --   -0.42312  -0.41760  -0.41191  -0.40812  -0.39379
 Alpha  occ. eigenvalues --   -0.39173  -0.38327  -0.37504  -0.36134  -0.35634
 Alpha  occ. eigenvalues --   -0.34716  -0.34446  -0.34328  -0.34032  -0.33754
 Alpha  occ. eigenvalues --   -0.33489  -0.31638  -0.30887  -0.30070  -0.29955
 Alpha  occ. eigenvalues --   -0.29350  -0.28562  -0.27558  -0.27416  -0.26735
 Alpha  occ. eigenvalues --   -0.26018
 Alpha virt. eigenvalues --   -0.02273  -0.01852  -0.01197  -0.00472   0.00122
 Alpha virt. eigenvalues --    0.00816   0.01676   0.02672   0.03144   0.03455
 Alpha virt. eigenvalues --    0.03831   0.04154   0.04429   0.05102   0.05468
 Alpha virt. eigenvalues --    0.06239   0.06354   0.07650   0.07882   0.08051
 Alpha virt. eigenvalues --    0.08443   0.09029   0.09053   0.09691   0.09986
 Alpha virt. eigenvalues --    0.10669   0.11136   0.11331   0.11863   0.12161
 Alpha virt. eigenvalues --    0.12628   0.12710   0.13282   0.13476   0.13731
 Alpha virt. eigenvalues --    0.14203   0.14314   0.14786   0.15134   0.15328
 Alpha virt. eigenvalues --    0.15854   0.16357   0.16804   0.17033   0.17620
 Alpha virt. eigenvalues --    0.17827   0.17882   0.18056   0.18266   0.18811
 Alpha virt. eigenvalues --    0.18953   0.19125   0.19367   0.19729   0.19867
 Alpha virt. eigenvalues --    0.20267   0.20494   0.20664   0.21244   0.21831
 Alpha virt. eigenvalues --    0.22074   0.22663   0.22733   0.22944   0.23177
 Alpha virt. eigenvalues --    0.23511   0.23872   0.24201   0.24487   0.24920
 Alpha virt. eigenvalues --    0.25214   0.25266   0.25485   0.25582   0.25941
 Alpha virt. eigenvalues --    0.26495   0.26678   0.26996   0.27229   0.27628
 Alpha virt. eigenvalues --    0.27719   0.28125   0.28480   0.28970   0.29224
 Alpha virt. eigenvalues --    0.29459   0.29761   0.30110   0.30592   0.30838
 Alpha virt. eigenvalues --    0.31109   0.31559   0.31793   0.32100   0.32375
 Alpha virt. eigenvalues --    0.32668   0.33310   0.33403   0.33653   0.33741
 Alpha virt. eigenvalues --    0.34442   0.34633   0.34880   0.35404   0.36010
 Alpha virt. eigenvalues --    0.36200   0.36509   0.36974   0.37401   0.37596
 Alpha virt. eigenvalues --    0.38029   0.38569   0.38738   0.39112   0.40147
 Alpha virt. eigenvalues --    0.40541   0.40755   0.40944   0.41217   0.42005
 Alpha virt. eigenvalues --    0.42317   0.43190   0.43612   0.44190   0.44766
 Alpha virt. eigenvalues --    0.45373   0.45814   0.46066   0.46569   0.47001
 Alpha virt. eigenvalues --    0.47633   0.48813   0.48871   0.50320   0.50655
 Alpha virt. eigenvalues --    0.51329   0.52368   0.55285   0.62595   0.64085
 Alpha virt. eigenvalues --    0.65420   0.67255   0.68601   0.69283   0.69833
 Alpha virt. eigenvalues --    0.70374   0.71701   0.73518   0.73823   0.74303
 Alpha virt. eigenvalues --    0.75473   0.75932   0.77115   0.77566   0.78684
 Alpha virt. eigenvalues --    0.79432   0.80856   0.81407   0.81655   0.83959
 Alpha virt. eigenvalues --    0.84438   0.86630   0.87918   0.89035   0.90499
 Alpha virt. eigenvalues --    0.92040   0.92138   0.93007   0.94162   0.95324
 Alpha virt. eigenvalues --    0.95986   0.97402   0.97799   0.98370   0.99702
 Alpha virt. eigenvalues --    1.00781   1.01384   1.02003   1.03163   1.05058
 Alpha virt. eigenvalues --    1.05190   1.05620   1.06268   1.06677   1.06885
 Alpha virt. eigenvalues --    1.08402   1.08693   1.08993   1.09434   1.10610
 Alpha virt. eigenvalues --    1.11051   1.11931   1.12628   1.14379   1.15077
 Alpha virt. eigenvalues --    1.15807   1.18234   1.20393   1.21137   1.21590
 Alpha virt. eigenvalues --    1.22412   1.23367   1.24048   1.24763   1.25102
 Alpha virt. eigenvalues --    1.26279   1.26976   1.27540   1.27578   1.29007
 Alpha virt. eigenvalues --    1.29499   1.29818   1.30389   1.31590   1.31819
 Alpha virt. eigenvalues --    1.32317   1.32912   1.33999   1.34315   1.34863
 Alpha virt. eigenvalues --    1.35456   1.35764   1.36591   1.37270   1.38095
 Alpha virt. eigenvalues --    1.39640   1.41146   1.41359   1.42517   1.43278
 Alpha virt. eigenvalues --    1.43638   1.45717   1.46177   1.47126   1.47731
 Alpha virt. eigenvalues --    1.49154   1.50347   1.51517   1.52765   1.53727
 Alpha virt. eigenvalues --    1.55408   1.55911   1.56887   1.57639   1.58357
 Alpha virt. eigenvalues --    1.59073   1.59334   1.60110   1.60865   1.62172
 Alpha virt. eigenvalues --    1.62672   1.63124   1.64301   1.64527   1.65460
 Alpha virt. eigenvalues --    1.66946   1.67612   1.68061   1.68259   1.70061
 Alpha virt. eigenvalues --    1.70248   1.71043   1.71611   1.73004   1.73394
 Alpha virt. eigenvalues --    1.75250   1.75851   1.76153   1.77189   1.78374
 Alpha virt. eigenvalues --    1.79023   1.79848   1.81246   1.82077   1.82666
 Alpha virt. eigenvalues --    1.83051   1.83907   1.84969   1.86173   1.86618
 Alpha virt. eigenvalues --    1.87681   1.88456   1.89124   1.89859   1.90846
 Alpha virt. eigenvalues --    1.91641   1.92553   1.92853   1.93908   1.94186
 Alpha virt. eigenvalues --    1.95353   1.96053   1.96585   1.97187   1.97960
 Alpha virt. eigenvalues --    2.00048   2.01707   2.02512   2.03337   2.03939
 Alpha virt. eigenvalues --    2.04225   2.05332   2.05713   2.06812   2.07459
 Alpha virt. eigenvalues --    2.08721   2.10004   2.10873   2.11563   2.12815
 Alpha virt. eigenvalues --    2.13271   2.13466   2.13963   2.14797   2.15727
 Alpha virt. eigenvalues --    2.16984   2.18068   2.19199   2.20841   2.21257
 Alpha virt. eigenvalues --    2.23520   2.24387   2.25223   2.26191   2.27521
 Alpha virt. eigenvalues --    2.29592   2.30292   2.33040   2.34424   2.35149
 Alpha virt. eigenvalues --    2.36295   2.37192   2.38308   2.38912   2.40580
 Alpha virt. eigenvalues --    2.40969   2.42137   2.43664   2.43978   2.45097
 Alpha virt. eigenvalues --    2.45812   2.46662   2.47891   2.48485   2.49477
 Alpha virt. eigenvalues --    2.50104   2.52442   2.53429   2.54622   2.54845
 Alpha virt. eigenvalues --    2.55410   2.58995   2.59446   2.59515   2.60382
 Alpha virt. eigenvalues --    2.61637   2.63053   2.63657   2.64474   2.65228
 Alpha virt. eigenvalues --    2.65745   2.66882   2.68132   2.68880   2.70157
 Alpha virt. eigenvalues --    2.70997   2.71513   2.73417   2.73733   2.75344
 Alpha virt. eigenvalues --    2.76063   2.77410   2.78567   2.78707   2.79501
 Alpha virt. eigenvalues --    2.80011   2.81025   2.81795   2.82602   2.84343
 Alpha virt. eigenvalues --    2.86197   2.87005   2.88897   2.89095   2.90604
 Alpha virt. eigenvalues --    2.90872   2.91604   2.92963   2.93092   2.94289
 Alpha virt. eigenvalues --    2.95816   2.96583   2.97628   2.99094   3.00141
 Alpha virt. eigenvalues --    3.01241   3.01833   3.03247   3.04410   3.04904
 Alpha virt. eigenvalues --    3.07207   3.09007   3.09807   3.11758   3.13029
 Alpha virt. eigenvalues --    3.14771   3.18222   3.22619   3.24925   3.30911
 Alpha virt. eigenvalues --    3.33829   3.36761   3.37756   3.39882   3.41960
 Alpha virt. eigenvalues --    3.42982   3.44893   3.45878   3.47763   3.49189
 Alpha virt. eigenvalues --    3.49778   3.51122   3.51459   3.53752   3.55519
 Alpha virt. eigenvalues --    3.55652   3.56775   3.60312   3.61042   3.64040
 Alpha virt. eigenvalues --    3.65943   3.70721   3.73696   4.28716   4.33759
 Alpha virt. eigenvalues --    4.34083   4.38283   4.39727   4.43862   4.47039
 Alpha virt. eigenvalues --    4.48460   4.50185   4.53009   4.53310   4.56408
 Alpha virt. eigenvalues --    4.57814   4.60160   4.62341   4.66747   4.72088
 Alpha virt. eigenvalues --    4.83252   4.84591   4.87542   4.87878   4.90293
 Alpha virt. eigenvalues --    4.92939
          Condensed to atoms (all electrons):
              1          2          3          4          5          6
     1  O    8.286579   0.389074  -0.180686  -0.005720   0.024639   0.044992
     2  C    0.389074   8.623498  -1.299334  -0.133028  -0.100847  -1.726815
     3  C   -0.180686  -1.299334   8.721329   0.297655   0.044652  -0.602469
     4  O   -0.005720  -0.133028   0.297655   8.211580   0.204278  -0.094738
     5  H    0.024639  -0.100847   0.044652   0.204278   0.424696   0.048117
     6  C    0.044992  -1.726815  -0.602469  -0.094738   0.048117  10.932477
     7  O   -0.000242   0.048604  -0.154770   0.001825  -0.000508   0.312518
     8  H    0.000027  -0.013204   0.010239  -0.000342   0.000015   0.039112
     9  C    0.005592  -0.468333  -0.210421   0.003104  -0.002751   0.554491
    10  O    0.007612   0.050916   0.016757   0.000558  -0.000101   0.015685
    11  H    0.000761   0.006769  -0.001105  -0.000003   0.000000  -0.002369
    12  C   -0.244480  -1.647143  -0.002671   0.014775   0.024650   1.064217
    13  O    0.007030   0.005599  -0.004763  -0.000465   0.000038  -0.179930
    14  C    0.020444   1.275490  -0.206224   0.034832  -0.011369  -4.001067
    15  O    0.000326  -0.012281  -0.038204  -0.000589   0.000076   0.225960
    16  C    0.001698   0.263642  -0.184759  -0.002895   0.000691  -0.219180
    17  C   -0.000111  -0.017957  -0.027696   0.000780   0.000028  -0.078325
    18  O    0.000058   0.005393  -0.001059  -0.000002   0.000000  -0.000540
    19  H   -0.000068  -0.005351   0.007074  -0.000003   0.000000   0.007641
    20  C    0.000060   0.025839  -0.028849   0.000001   0.000002   0.077421
    21  O    0.000000   0.000055  -0.000019   0.000000   0.000000  -0.000565
    22  H    0.000000   0.000001   0.000001   0.000000   0.000000  -0.000058
    23  C    0.000038   0.002362   0.005087   0.000320  -0.000013  -0.135701
    24  O    0.000006   0.002277  -0.010895  -0.000029  -0.000007  -0.035904
    25  H    0.000000   0.000009   0.002470   0.000005   0.000000  -0.000435
    26  C   -0.000027   0.039985  -0.077417   0.000048  -0.000011  -0.210508
    27  O    0.000000  -0.000009   0.000593   0.000000   0.000000   0.005395
    28  C   -0.000001   0.000124   0.001843  -0.000006   0.000000   0.010919
    29  O    0.000000  -0.000026   0.000050   0.000000   0.000000  -0.000301
    30  H    0.000000   0.000000   0.000000   0.000000   0.000000   0.000002
    31  H    0.000000  -0.000008   0.000006   0.000000   0.000000   0.000208
    32  H    0.000000   0.000017   0.000056   0.000000   0.000000   0.000998
    33  H    0.000000  -0.001343   0.001133   0.000000   0.000000   0.001893
    34  H   -0.000001  -0.001001   0.003321   0.000002   0.000000  -0.006135
    35  H    0.000000  -0.000284   0.000743   0.000000   0.000000   0.005834
    36  H    0.000000  -0.000003  -0.000095   0.000000   0.000000  -0.001038
    37  H    0.000000   0.000017   0.000172   0.000000   0.000000   0.000778
    38  H    0.236074   0.013623   0.022043  -0.000694  -0.002061  -0.001727
    39  H    0.003439  -0.040580  -0.002820  -0.000020   0.000000   0.005351
    40  H   -0.000193  -0.016537   0.003012   0.000044   0.000000   0.005356
    41  H    0.010243   0.053954  -0.025130   0.000115  -0.000014  -0.073891
    42  H   -0.043151   0.522886  -0.098333  -0.000441  -0.000740  -0.060398
    43  H   -0.002303   0.113395   0.196543  -0.041427  -0.008566  -0.180225
    44  H   -0.000622   0.091508  -0.183582   0.003364  -0.000075   0.277775
    45  H    0.000189   0.061307  -0.058924  -0.000435   0.000007  -0.104886
              7          8          9         10         11         12
     1  O   -0.000242   0.000027   0.005592   0.007612   0.000761  -0.244480
     2  C    0.048604  -0.013204  -0.468333   0.050916   0.006769  -1.647143
     3  C   -0.154770   0.010239  -0.210421   0.016757  -0.001105  -0.002671
     4  O    0.001825  -0.000342   0.003104   0.000558  -0.000003   0.014775
     5  H   -0.000508   0.000015  -0.002751  -0.000101   0.000000   0.024650
     6  C    0.312518   0.039112   0.554491   0.015685  -0.002369   1.064217
     7  O    8.290849   0.201888  -0.000419  -0.000021   0.000000  -0.017015
     8  H    0.201888   0.341357   0.000769   0.000000   0.000000   0.008741
     9  C   -0.000419   0.000769   8.443978   0.424448  -0.100433  -2.218997
    10  O   -0.000021   0.000000   0.424448   8.371951   0.208313  -0.466266
    11  H    0.000000   0.000000  -0.100433   0.208313   0.430349   0.111050
    12  C   -0.017015   0.008741  -2.218997  -0.466266   0.111050  11.202965
    13  O    0.006556   0.001251   0.017354   0.023816  -0.001637  -0.177471
    14  C   -0.061030  -0.035251  -0.924002   0.007423   0.004765  -1.589762
    15  O   -0.008365   0.018011  -0.009695  -0.001401  -0.000029   0.054468
    16  C    0.015268  -0.003202  -0.240505  -0.006868   0.000708  -0.158252
    17  C   -0.005461   0.002541  -0.009853   0.000535  -0.000305  -0.046638
    18  O    0.000195  -0.000008  -0.001917  -0.000054   0.000041  -0.012454
    19  H   -0.000043  -0.000010   0.001026  -0.000182  -0.000013  -0.003397
    20  C    0.003045   0.000569  -0.005278  -0.000016   0.000004  -0.052868
    21  O   -0.000006   0.000000  -0.000049  -0.000001   0.000000   0.000226
    22  H    0.000000   0.000000  -0.000005   0.000000   0.000000   0.000051
    23  C    0.007573   0.012049  -0.004422   0.000059   0.000000  -0.021513
    24  O   -0.027448   0.001770  -0.000012  -0.000002   0.000000   0.002196
    25  H    0.003302  -0.002670  -0.000024   0.000000   0.000000  -0.000481
    26  C   -0.008204  -0.027388  -0.012120  -0.000477   0.000009   0.013899
    27  O    0.000110  -0.000008  -0.000114   0.000000   0.000000  -0.001099
    28  C   -0.000082  -0.000097   0.000346   0.000023   0.000002   0.003313
    29  O   -0.000003  -0.000001   0.000006   0.000000   0.000000   0.000070
    30  H    0.000000   0.000000   0.000000   0.000000   0.000000  -0.000003
    31  H    0.000000   0.000000   0.000008   0.000000   0.000000   0.000030
    32  H    0.000002   0.000000  -0.000060   0.000000   0.000000   0.000238
    33  H    0.000024   0.000002  -0.000224   0.000001   0.000000   0.000645
    34  H   -0.000381  -0.000056  -0.000353   0.000002   0.000000  -0.000927
    35  H   -0.000023   0.000000   0.000203   0.000000   0.000000   0.000874
    36  H   -0.000556   0.000190  -0.000003   0.000000   0.000000   0.000054
    37  H    0.000390   0.000385   0.000006   0.000000   0.000000   0.000065
    38  H   -0.000020   0.000000   0.006747  -0.000354  -0.000059  -0.015531
    39  H    0.000003   0.000000   0.591617  -0.064660   0.000313  -0.172568
    40  H   -0.000002   0.000000   0.525662  -0.042272  -0.012465  -0.107211
    41  H   -0.000538   0.000007  -0.074440   0.009096  -0.000249   0.149080
    42  H   -0.000224   0.000002  -0.023696   0.007149  -0.000118  -0.178048
    43  H    0.001340  -0.000010   0.021815   0.000100   0.000000  -0.050189
    44  H   -0.044127  -0.005467   0.010988   0.000050   0.000000  -0.007224
    45  H    0.002778  -0.000904   0.003415  -0.000010   0.000000  -0.047251
             13         14         15         16         17         18
     1  O    0.007030   0.020444   0.000326   0.001698  -0.000111   0.000058
     2  C    0.005599   1.275490  -0.012281   0.263642  -0.017957   0.005393
     3  C   -0.004763  -0.206224  -0.038204  -0.184759  -0.027696  -0.001059
     4  O   -0.000465   0.034832  -0.000589  -0.002895   0.000780  -0.000002
     5  H    0.000038  -0.011369   0.000076   0.000691   0.000028   0.000000
     6  C   -0.179930  -4.001067   0.225960  -0.219180  -0.078325  -0.000540
     7  O    0.006556  -0.061030  -0.008365   0.015268  -0.005461   0.000195
     8  H    0.001251  -0.035251   0.018011  -0.003202   0.002541  -0.000008
     9  C    0.017354  -0.924002  -0.009695  -0.240505  -0.009853  -0.001917
    10  O    0.023816   0.007423  -0.001401  -0.006868   0.000535  -0.000054
    11  H   -0.001637   0.004765  -0.000029   0.000708  -0.000305   0.000041
    12  C   -0.177471  -1.589762   0.054468  -0.158252  -0.046638  -0.012454
    13  O    8.460141   0.354434  -0.026657  -0.027510   0.016430   0.000403
    14  C    0.354434  11.925718  -0.035246  -0.935832   0.444082   0.019017
    15  O   -0.026657  -0.035246   8.353840  -0.060020   0.037499  -0.007288
    16  C   -0.027510  -0.935832  -0.060020  14.534394  -3.312515  -0.058967
    17  C    0.016430   0.444082   0.037499  -3.312515  10.262714   0.381461
    18  O    0.000403   0.019017  -0.007288  -0.058967   0.381461   8.237354
    19  H    0.024694  -0.003765   0.015432  -0.075397   0.016616   0.190751
    20  C    0.003332  -0.735420   0.064434  -2.247073  -1.580716  -0.183910
    21  O    0.000258   0.003984  -0.000411   0.063171  -0.213015   0.018481
    22  H    0.000000  -0.000202   0.000043  -0.011496   0.035580  -0.000972
    23  C    0.009185   0.074330  -0.071760   0.573360  -0.400316   0.011777
    24  O   -0.001999   0.054092  -0.047115   0.043728  -0.002532   0.000265
    25  H    0.000059  -0.004718   0.003665  -0.007389  -0.001338   0.000000
    26  C   -0.047135  -0.571774   0.003530  -4.202886   0.756720  -0.007511
    27  O   -0.000034   0.000560   0.005197   0.022910  -0.046175   0.001613
    28  C    0.002559   0.042434  -0.005098   1.457248  -0.438585  -0.000033
    29  O   -0.000003   0.006163   0.000386  -0.005197   0.047549  -0.001212
    30  H    0.000000   0.000034  -0.000005  -0.005267   0.011215  -0.000003
    31  H    0.000003   0.004390   0.000169   0.082164   0.020525  -0.000708
    32  H    0.000132   0.001286  -0.000914   0.189699  -0.245114   0.006123
    33  H   -0.001309   0.040705  -0.014829   0.098031   0.331837  -0.056235
    34  H   -0.000548   0.007546  -0.058946   0.375825  -0.027290  -0.000805
    35  H   -0.000357   0.041905   0.003228   0.049327   0.013093  -0.000103
    36  H    0.000002   0.004087  -0.000565  -0.006231  -0.008819   0.000035
    37  H    0.000016  -0.001271   0.002669   0.048489   0.007266  -0.000005
    38  H   -0.000767  -0.008098  -0.000013   0.000074  -0.000037   0.000000
    39  H    0.007169  -0.016891  -0.000082  -0.002817  -0.000091  -0.000084
    40  H   -0.014555  -0.032057  -0.000354  -0.001108   0.001881  -0.000866
    41  H   -0.051647   0.211784   0.002246   0.010678   0.006857  -0.000043
    42  H    0.009189   0.126586  -0.000927   0.000964   0.001216   0.000017
    43  H    0.006619   0.149792  -0.001003   0.008659   0.000956   0.000016
    44  H    0.014009   0.063035  -0.017113   0.028842   0.000499   0.000087
    45  H   -0.064112   0.359300  -0.055681   0.082509   0.003802   0.000205
             19         20         21         22         23         24
     1  O   -0.000068   0.000060   0.000000   0.000000   0.000038   0.000006
     2  C   -0.005351   0.025839   0.000055   0.000001   0.002362   0.002277
     3  C    0.007074  -0.028849  -0.000019   0.000001   0.005087  -0.010895
     4  O   -0.000003   0.000001   0.000000   0.000000   0.000320  -0.000029
     5  H    0.000000   0.000002   0.000000   0.000000  -0.000013  -0.000007
     6  C    0.007641   0.077421  -0.000565  -0.000058  -0.135701  -0.035904
     7  O   -0.000043   0.003045  -0.000006   0.000000   0.007573  -0.027448
     8  H   -0.000010   0.000569   0.000000   0.000000   0.012049   0.001770
     9  C    0.001026  -0.005278  -0.000049  -0.000005  -0.004422  -0.000012
    10  O   -0.000182  -0.000016  -0.000001   0.000000   0.000059  -0.000002
    11  H   -0.000013   0.000004   0.000000   0.000000   0.000000   0.000000
    12  C   -0.003397  -0.052868   0.000226   0.000051  -0.021513   0.002196
    13  O    0.024694   0.003332   0.000258   0.000000   0.009185  -0.001999
    14  C   -0.003765  -0.735420   0.003984  -0.000202   0.074330   0.054092
    15  O    0.015432   0.064434  -0.000411   0.000043  -0.071760  -0.047115
    16  C   -0.075397  -2.247073   0.063171  -0.011496   0.573360   0.043728
    17  C    0.016616  -1.580716  -0.213015   0.035580  -0.400316  -0.002532
    18  O    0.190751  -0.183910   0.018481  -0.000972   0.011777   0.000265
    19  H    0.375335   0.021278  -0.001302   0.000004  -0.002652   0.000039
    20  C    0.021278  11.025318   0.253073  -0.012590   0.042252  -0.004779
    21  O   -0.001302   0.253073   8.258103   0.194258  -0.002057   0.000036
    22  H    0.000004  -0.012590   0.194258   0.437290  -0.000881   0.000000
    23  C   -0.002652   0.042252  -0.002057  -0.000881   6.624579  -0.055448
    24  O    0.000039  -0.004779   0.000036   0.000000  -0.055448   8.557192
    25  H    0.000000   0.000227   0.000000   0.000000  -0.015347   0.203377
    26  C    0.034948   1.546639  -0.034971   0.002866  -1.621296   0.063605
    27  O    0.000041  -0.319677   0.006463   0.001375  -0.118649   0.000885
    28  C   -0.004532  -1.813356   0.010331  -0.010215  -0.040127   0.004141
    29  O    0.000030  -0.063147  -0.016967   0.025637   0.008755  -0.000005
    30  H    0.000000  -0.019094  -0.000152  -0.003468   0.002112   0.000000
    31  H   -0.000001  -0.176198   0.006188  -0.001339  -0.003062  -0.000007
    32  H   -0.000030   0.290423  -0.044199  -0.004685   0.022394  -0.000034
    33  H    0.000259  -0.205571   0.004216  -0.000253   0.043522  -0.000104
    34  H   -0.000328  -0.010943  -0.000574   0.000004   0.026889   0.000841
    35  H   -0.000008  -0.083586   0.000048   0.000003   0.000041   0.005635
    36  H    0.000000   0.005174  -0.000001   0.000000   0.440745  -0.047292
    37  H    0.000000  -0.007208  -0.000015   0.000000   0.576581  -0.067351
    38  H    0.000000   0.000001   0.000000   0.000000   0.000001   0.000000
    39  H    0.000047   0.000031   0.000000   0.000000  -0.000002   0.000000
    40  H    0.001096  -0.000195   0.000001   0.000000  -0.000004   0.000000
    41  H    0.000162   0.001105   0.000000   0.000000   0.000223   0.000020
    42  H    0.000000   0.000027   0.000000   0.000000   0.000090   0.000008
    43  H   -0.000003   0.000026   0.000000   0.000000   0.000309   0.000112
    44  H   -0.000014   0.000904   0.000000   0.000000   0.004544   0.001582
    45  H   -0.001439   0.011976   0.000007   0.000000   0.003185   0.000760
             25         26         27         28         29         30
     1  O    0.000000  -0.000027   0.000000  -0.000001   0.000000   0.000000
     2  C    0.000009   0.039985  -0.000009   0.000124  -0.000026   0.000000
     3  C    0.002470  -0.077417   0.000593   0.001843   0.000050   0.000000
     4  O    0.000005   0.000048   0.000000  -0.000006   0.000000   0.000000
     5  H    0.000000  -0.000011   0.000000   0.000000   0.000000   0.000000
     6  C   -0.000435  -0.210508   0.005395   0.010919  -0.000301   0.000002
     7  O    0.003302  -0.008204   0.000110  -0.000082  -0.000003   0.000000
     8  H   -0.002670  -0.027388  -0.000008  -0.000097  -0.000001   0.000000
     9  C   -0.000024  -0.012120  -0.000114   0.000346   0.000006   0.000000
    10  O    0.000000  -0.000477   0.000000   0.000023   0.000000   0.000000
    11  H    0.000000   0.000009   0.000000   0.000002   0.000000   0.000000
    12  C   -0.000481   0.013899  -0.001099   0.003313   0.000070  -0.000003
    13  O    0.000059  -0.047135  -0.000034   0.002559  -0.000003   0.000000
    14  C   -0.004718  -0.571774   0.000560   0.042434   0.006163   0.000034
    15  O    0.003665   0.003530   0.005197  -0.005098   0.000386  -0.000005
    16  C   -0.007389  -4.202886   0.022910   1.457248  -0.005197  -0.005267
    17  C   -0.001338   0.756720  -0.046175  -0.438585   0.047549   0.011215
    18  O    0.000000  -0.007511   0.001613  -0.000033  -0.001212  -0.000003
    19  H    0.000000   0.034948   0.000041  -0.004532   0.000030   0.000000
    20  C    0.000227   1.546639  -0.319677  -1.813356  -0.063147  -0.019094
    21  O    0.000000  -0.034971   0.006463   0.010331  -0.016967  -0.000152
    22  H    0.000000   0.002866   0.001375  -0.010215   0.025637  -0.003468
    23  C   -0.015347  -1.621296  -0.118649  -0.040127   0.008755   0.002112
    24  O    0.203377   0.063605   0.000885   0.004141  -0.000005   0.000000
    25  H    0.396828   0.035250  -0.000078  -0.000822   0.000001   0.000000
    26  C    0.035250  11.885032   0.199341  -1.224331  -0.051565   0.002371
    27  O   -0.000078   0.199341   8.481535   0.253121  -0.117062  -0.003121
    28  C   -0.000822  -1.224331   0.253121   6.578179   0.278016   0.022671
    29  O    0.000001  -0.051565  -0.117062   0.278016   8.275630   0.227580
    30  H    0.000000   0.002371  -0.003121   0.022671   0.227580   0.413940
    31  H    0.000000  -0.061414  -0.051744   0.469826  -0.045974  -0.006434
    32  H    0.000000  -0.082990   0.010368   0.095209  -0.014202   0.000559
    33  H    0.000001  -0.080304   0.006453   0.034112  -0.000320   0.000008
    34  H   -0.000005  -0.095849   0.008330   0.018891  -0.000534   0.000002
    35  H   -0.000218   0.163809  -0.037639   0.071723  -0.001181   0.000023
    36  H   -0.008052  -0.039563  -0.003424  -0.005365  -0.000176  -0.000002
    37  H   -0.002962  -0.277778   0.006350   0.013036  -0.000290   0.000000
    38  H    0.000000  -0.000005   0.000000   0.000000   0.000000   0.000000
    39  H    0.000000  -0.000063   0.000000   0.000003   0.000000   0.000000
    40  H    0.000000   0.000349   0.000000  -0.000034   0.000000   0.000000
    41  H    0.000000   0.000958   0.000000  -0.000082   0.000000   0.000000
    42  H    0.000000   0.000184   0.000000  -0.000006   0.000000   0.000000
    43  H    0.000000   0.001095   0.000000  -0.000008   0.000000   0.000000
    44  H   -0.000005   0.002942   0.000001  -0.000122   0.000000   0.000000
    45  H    0.000012   0.016445   0.000160  -0.000726  -0.000005   0.000000
             31         32         33         34         35         36
     1  O    0.000000   0.000000   0.000000  -0.000001   0.000000   0.000000
     2  C   -0.000008   0.000017  -0.001343  -0.001001  -0.000284  -0.000003
     3  C    0.000006   0.000056   0.001133   0.003321   0.000743  -0.000095
     4  O    0.000000   0.000000   0.000000   0.000002   0.000000   0.000000
     5  H    0.000000   0.000000   0.000000   0.000000   0.000000   0.000000
     6  C    0.000208   0.000998   0.001893  -0.006135   0.005834  -0.001038
     7  O    0.000000   0.000002   0.000024  -0.000381  -0.000023  -0.000556
     8  H    0.000000   0.000000   0.000002  -0.000056   0.000000   0.000190
     9  C    0.000008  -0.000060  -0.000224  -0.000353   0.000203  -0.000003
    10  O    0.000000   0.000000   0.000001   0.000002   0.000000   0.000000
    11  H    0.000000   0.000000   0.000000   0.000000   0.000000   0.000000
    12  C    0.000030   0.000238   0.000645  -0.000927   0.000874   0.000054
    13  O    0.000003   0.000132  -0.001309  -0.000548  -0.000357   0.000002
    14  C    0.004390   0.001286   0.040705   0.007546   0.041905   0.004087
    15  O    0.000169  -0.000914  -0.014829  -0.058946   0.003228  -0.000565
    16  C    0.082164   0.189699   0.098031   0.375825   0.049327  -0.006231
    17  C    0.020525  -0.245114   0.331837  -0.027290   0.013093  -0.008819
    18  O   -0.000708   0.006123  -0.056235  -0.000805  -0.000103   0.000035
    19  H   -0.000001  -0.000030   0.000259  -0.000328  -0.000008   0.000000
    20  C   -0.176198   0.290423  -0.205571  -0.010943  -0.083586   0.005174
    21  O    0.006188  -0.044199   0.004216  -0.000574   0.000048  -0.000001
    22  H   -0.001339  -0.004685  -0.000253   0.000004   0.000003   0.000000
    23  C   -0.003062   0.022394   0.043522   0.026889   0.000041   0.440745
    24  O   -0.000007  -0.000034  -0.000104   0.000841   0.005635  -0.047292
    25  H    0.000000   0.000000   0.000001  -0.000005  -0.000218  -0.008052
    26  C   -0.061414  -0.082990  -0.080304  -0.095849   0.163809  -0.039563
    27  O   -0.051744   0.010368   0.006453   0.008330  -0.037639  -0.003424
    28  C    0.469826   0.095209   0.034112   0.018891   0.071723  -0.005365
    29  O   -0.045974  -0.014202  -0.000320  -0.000534  -0.001181  -0.000176
    30  H   -0.006434   0.000559   0.000008   0.000002   0.000023  -0.000002
    31  H    0.605542   0.004311   0.003117  -0.000028   0.005108   0.000019
    32  H    0.004311   0.612353   0.008298   0.003932   0.000141   0.000004
    33  H    0.003117   0.008298   0.650905   0.006383   0.005093   0.000008
    34  H   -0.000028   0.003932   0.006383   0.601740   0.005747  -0.000013
    35  H    0.005108   0.000141   0.005093   0.005747   0.617672  -0.009729
    36  H    0.000019   0.000004   0.000008  -0.000013  -0.009729   0.587934
    37  H   -0.000006  -0.000016  -0.000015   0.002458   0.006316  -0.045008
    38  H    0.000000   0.000000   0.000000   0.000000   0.000000   0.000000
    39  H    0.000000   0.000000   0.000000   0.000000   0.000000   0.000000
    40  H    0.000000   0.000000   0.000000   0.000000   0.000000   0.000000
    41  H    0.000000   0.000000  -0.000001  -0.000014   0.000000   0.000000
    42  H    0.000000   0.000000   0.000000   0.000000   0.000000   0.000000
    43  H    0.000000   0.000000   0.000000  -0.000002   0.000000   0.000000
    44  H    0.000000   0.000000  -0.000005   0.000003  -0.000017   0.000002
    45  H    0.000000  -0.000012  -0.000022   0.008023  -0.000010   0.000000
             37         38         39         40         41         42
     1  O    0.000000   0.236074   0.003439  -0.000193   0.010243  -0.043151
     2  C    0.000017   0.013623  -0.040580  -0.016537   0.053954   0.522886
     3  C    0.000172   0.022043  -0.002820   0.003012  -0.025130  -0.098333
     4  O    0.000000  -0.000694  -0.000020   0.000044   0.000115  -0.000441
     5  H    0.000000  -0.002061   0.000000   0.000000  -0.000014  -0.000740
     6  C    0.000778  -0.001727   0.005351   0.005356  -0.073891  -0.060398
     7  O    0.000390  -0.000020   0.000003  -0.000002  -0.000538  -0.000224
     8  H    0.000385   0.000000   0.000000   0.000000   0.000007   0.000002
     9  C    0.000006   0.006747   0.591617   0.525662  -0.074440  -0.023696
    10  O    0.000000  -0.000354  -0.064660  -0.042272   0.009096   0.007149
    11  H    0.000000  -0.000059   0.000313  -0.012465  -0.000249  -0.000118
    12  C    0.000065  -0.015531  -0.172568  -0.107211   0.149080  -0.178048
    13  O    0.000016  -0.000767   0.007169  -0.014555  -0.051647   0.009189
    14  C   -0.001271  -0.008098  -0.016891  -0.032057   0.211784   0.126586
    15  O    0.002669  -0.000013  -0.000082  -0.000354   0.002246  -0.000927
    16  C    0.048489   0.000074  -0.002817  -0.001108   0.010678   0.000964
    17  C    0.007266  -0.000037  -0.000091   0.001881   0.006857   0.001216
    18  O   -0.000005   0.000000  -0.000084  -0.000866  -0.000043   0.000017
    19  H    0.000000   0.000000   0.000047   0.001096   0.000162   0.000000
    20  C   -0.007208   0.000001   0.000031  -0.000195   0.001105   0.000027
    21  O   -0.000015   0.000000   0.000000   0.000001   0.000000   0.000000
    22  H    0.000000   0.000000   0.000000   0.000000   0.000000   0.000000
    23  C    0.576581   0.000001  -0.000002  -0.000004   0.000223   0.000090
    24  O   -0.067351   0.000000   0.000000   0.000000   0.000020   0.000008
    25  H   -0.002962   0.000000   0.000000   0.000000   0.000000   0.000000
    26  C   -0.277778  -0.000005  -0.000063   0.000349   0.000958   0.000184
    27  O    0.006350   0.000000   0.000000   0.000000   0.000000   0.000000
    28  C    0.013036   0.000000   0.000003  -0.000034  -0.000082  -0.000006
    29  O   -0.000290   0.000000   0.000000   0.000000   0.000000   0.000000
    30  H    0.000000   0.000000   0.000000   0.000000   0.000000   0.000000
    31  H   -0.000006   0.000000   0.000000   0.000000   0.000000   0.000000
    32  H   -0.000016   0.000000   0.000000   0.000000   0.000000   0.000000
    33  H   -0.000015   0.000000   0.000000   0.000000  -0.000001   0.000000
    34  H    0.002458   0.000000   0.000000   0.000000  -0.000014   0.000000
    35  H    0.006316   0.000000   0.000000   0.000000   0.000000   0.000000
    36  H   -0.045008   0.000000   0.000000   0.000000   0.000000   0.000000
    37  H    0.587199   0.000000   0.000000   0.000000   0.000000   0.000000
    38  H    0.000000   0.383163   0.000091   0.000004  -0.000141  -0.010792
    39  H    0.000000   0.000091   0.601351  -0.049421  -0.003395   0.000094
    40  H    0.000000   0.000004  -0.049421   0.607066  -0.000208   0.000084
    41  H    0.000000  -0.000141  -0.003395  -0.000208   0.638156   0.006051
    42  H    0.000000  -0.010792   0.000094   0.000084   0.006051   0.574656
    43  H    0.000000  -0.000048   0.000002  -0.000001   0.004827   0.006186
    44  H   -0.000002   0.000012   0.000001   0.000002   0.000085   0.002243
    45  H   -0.000001   0.000002  -0.000024   0.000037   0.009128  -0.000042
             43         44         45
     1  O   -0.002303  -0.000622   0.000189
     2  C    0.113395   0.091508   0.061307
     3  C    0.196543  -0.183582  -0.058924
     4  O   -0.041427   0.003364  -0.000435
     5  H   -0.008566  -0.000075   0.000007
     6  C   -0.180225   0.277775  -0.104886
     7  O    0.001340  -0.044127   0.002778
     8  H   -0.000010  -0.005467  -0.000904
     9  C    0.021815   0.010988   0.003415
    10  O    0.000100   0.000050  -0.000010
    11  H    0.000000   0.000000   0.000000
    12  C   -0.050189  -0.007224  -0.047251
    13  O    0.006619   0.014009  -0.064112
    14  C    0.149792   0.063035   0.359300
    15  O   -0.001003  -0.017113  -0.055681
    16  C    0.008659   0.028842   0.082509
    17  C    0.000956   0.000499   0.003802
    18  O    0.000016   0.000087   0.000205
    19  H   -0.000003  -0.000014  -0.001439
    20  C    0.000026   0.000904   0.011976
    21  O    0.000000   0.000000   0.000007
    22  H    0.000000   0.000000   0.000000
    23  C    0.000309   0.004544   0.003185
    24  O    0.000112   0.001582   0.000760
    25  H    0.000000  -0.000005   0.000012
    26  C    0.001095   0.002942   0.016445
    27  O    0.000000   0.000001   0.000160
    28  C   -0.000008  -0.000122  -0.000726
    29  O    0.000000   0.000000  -0.000005
    30  H    0.000000   0.000000   0.000000
    31  H    0.000000   0.000000   0.000000
    32  H    0.000000   0.000000  -0.000012
    33  H    0.000000  -0.000005  -0.000022
    34  H   -0.000002   0.000003   0.008023
    35  H    0.000000  -0.000017  -0.000010
    36  H    0.000000   0.000002   0.000000
    37  H    0.000000  -0.000002  -0.000001
    38  H   -0.000048   0.000012   0.000002
    39  H    0.000002   0.000001  -0.000024
    40  H   -0.000001   0.000002   0.000037
    41  H    0.004827   0.000085   0.009128
    42  H    0.006186   0.002243  -0.000042
    43  H    0.624834   0.006931   0.002117
    44  H    0.006931   0.590270   0.004854
    45  H    0.002117   0.004854   0.628256
 Mulliken atomic charges:
              1
     1  O   -0.561279
     2  C   -0.112261
     3  C    0.065447
     4  O   -0.492450
     5  H    0.355171
     6  C    0.080065
     7  O   -0.566784
     8  H    0.449693
     9  C   -0.303443
    10  O   -0.561811
    11  H    0.355702
    12  C    0.587853
    13  O   -0.369379
    14  C   -0.104239
    15  O   -0.316589
    16  C   -0.176713
    17  C    0.061209
    18  O   -0.538513
    19  H    0.402066
    20  C    0.177314
    21  O   -0.504597
    22  H    0.349053
    23  C    0.000887
    24  O   -0.641602
    25  H    0.399339
    26  C   -0.034437
    27  O   -0.311968
    28  C    0.175556
    29  O   -0.551703
    30  H    0.357033
    31  H    0.145309
    32  H    0.145712
    33  H    0.123891
    34  H    0.134793
    35  H    0.136587
    36  H    0.137682
    37  H    0.149733
    38  H    0.378510
    39  H    0.144006
    40  H    0.132890
    41  H    0.115019
    42  H    0.159284
    43  H    0.138112
    44  H    0.153840
    45  H    0.136011
 Sum of Mulliken atomic charges =   0.00000
 Mulliken charges with hydrogens summed into heavy atoms:
              1
     1  O   -0.182769
     2  C    0.047024
     3  C    0.203558
     4  O   -0.137279
     6  C    0.233905
     7  O   -0.117090
     9  C   -0.026547
    10  O   -0.206109
    12  C    0.702873
    13  O   -0.369379
    14  C    0.031772
    15  O   -0.316589
    16  C   -0.041920
    17  C    0.185099
    18  O   -0.136447
    20  C    0.323027
    21  O   -0.155545
    23  C    0.288302
    24  O   -0.242263
    26  C    0.102151
    27  O   -0.311968
    28  C    0.320865
    29  O   -0.194670
 Sum of Mulliken charges with hydrogens summed into heavy atoms =   0.00000
 APT atomic charges:
              1
     1  O   -0.656258
     2  C    0.413166
     3  C    0.429197
     4  O   -0.642858
     5  H    0.261438
     6  C    0.371151
     7  O   -0.756750
     8  H    0.479537
     9  C    0.452968
    10  O   -0.604745
    11  H    0.253999
    12  C    0.423784
    13  O   -0.853891
    14  C    0.919517
    15  O   -0.861496
    16  C    0.436232
    17  C    0.394565
    18  O   -0.700084
    19  H    0.366073
    20  C    0.401388
    21  O   -0.642012
    22  H    0.263878
    23  C    0.480489
    24  O   -0.683538
    25  H    0.258477
    26  C    0.448213
    27  O   -0.768401
    28  C    0.872834
    29  O   -0.644707
    30  H    0.258984
    31  H   -0.063130
    32  H   -0.044907
    33  H   -0.062902
    34  H   -0.038825
    35  H   -0.048813
    36  H   -0.053256
    37  H   -0.036648
    38  H    0.272494
    39  H   -0.051909
    40  H   -0.040472
    41  H   -0.044404
    42  H   -0.021747
    43  H   -0.057251
    44  H   -0.023329
    45  H   -0.056049
 Sum of APT charges=   0.00000
[...]
 9713,-0.00016668,0.00025154,0.00007726,-0.00016133,-0.00960332,-0.0004
 4043,0.00183023,0.00227621,0.00069554,-0.00082718,-0.00006950,0.000144
 20,0.00007685,0.00007556,-0.00001813,0.00003006,-0.00001710,-0.0000066
 4,0.00001925,-0.00000409,0.00002625,0.00001676,0.00001509,-0.00000220,
 -0.00006752,-0.00001200,-0.00003741,0.00008883,-0.00000782,-0.00000844
 ,0.00000709,0.00000466,0.00000512,-0.00000692,-0.00000169,-0.00000120,
 0.00000027,-0.00000423,0.00000786,0.00000197,0.00002744,-0.00000119,0.
 00002766,-0.00000998,-0.00000099,0.00000022,-0.00000617,0.00000097,0.0
 0000691,0.00000567,0.00000005,-0.00001077,-0.00000435,0.00000251,0.000
 01037,0.00000652,-0.00000120,-0.00001198,-0.00000083,0.,0.00000177,0.0
 0000115,0.00000007,-0.00000023,0.00000288,-0.00000005,-0.00000208,0.00
 000281,-0.00000163,0.00000388,0.00000743,0.00000080,-0.00000591,0.0000
 0437,-0.00000084,0.00000262,-0.00000044,-0.00000247,0.00000311,0.00000
 233,-0.00000053,-0.00000167,0.00125677,-0.00009341,-0.00052499,0.00009
 142,0.00008493,0.00000626,0.00007985,-0.00010957,-0.00001624,0.0002637
 6,-0.00094907,0.00063001,0.38502466,-0.01126987,-0.00023688,-0.0061137
 4,0.01368008,-0.04515901,0.00079980,0.03468996,-0.00423619,-0.00462384
 ,-0.00172566,0.00408683,-0.00067978,0.00038266,-0.00019210,0.00008782,
 0.00064649,0.00112884,0.00101649,-0.00045302,-0.00027117,-0.00016348,-
 0.00008382,-0.00000307,0.00006999,-0.00106698,0.00122973,0.00023125,0.
 00066714,-0.00031253,-0.00048092,0.00019646,0.00019488,-0.00007375,-0.
 02586702,0.00067608,0.00529620,0.00099093,0.00100630,-0.00257025,0.000
 06966,-0.00039438,-0.00010102,0.00006971,0.00007225,-0.00003307,-0.000
 04444,0.00002895,-0.00002822,0.00000740,0.00001651,0.00000063,0.000036
 23,-0.00000025,-0.00007180,-0.00006011,-0.00003239,0.00006698,-0.00000
 827,0.00000106,-0.00000017,0.00000450,-0.00000210,-0.00000090,-0.00000
 135,0.00000041,0.00000012,-0.00000356,-0.00001397,0.00000637,-0.000037
 81,-0.00000148,-0.00006806,0.00001268,0.00000342,0.,0.00000779,-0.0000
 0403,0.00000092,-0.00000305,0.00000013,-0.00000136,0.00000060,0.000002
 70,0.00000244,0.00000171,-0.00000161,-0.00000413,-0.00000007,0.0000005
 4,0.00000064,0.00000039,0.00000049,0.00000017,0.00000203,-0.00000100,-
 0.00000084,0.00000067,0.00000239,0.00000274,0.00000222,-0.00000613,0.0
 0000485,-0.00000075,0.00000259,-0.00000048,0.00000004,0.00000243,-0.00
 000862,0.00000029,-0.00000027,0.00000051,-0.00116849,0.00142292,-0.000
 04469,0.00018811,0.00013882,-0.00000645,0.00019715,0.00008778,-0.00013
 959,-0.00114461,-0.00262122,0.00331433,-0.00982188,0.04903529,-0.04141
 012,-0.00668131,-0.01558008,0.03759126,-0.00096800,-0.04597600,0.01112
 224,0.00008466,0.00015896,-0.00151879,0.00060749,0.00054626,-0.0001862
 3,-0.00032233,-0.00013673,0.00057318,0.00035480,0.00038086,-0.00024632
 ,-0.00003109,-0.00006876,0.00001023,0.00004493,0.00003654,0.00013050,-
 0.00106517,0.00000353,-0.00056592,0.00032901,0.00031142,-0.00005374,-0
 .00002421,0.00005560,0.02383639,0.00014020,-0.00370226,-0.00014385,0.0
 0009271,0.00239480,0.00058708,-0.00049123,-0.00025526,-0.00010306,0.00
 005617,-0.00015809,0.00000831,-0.00004209,-0.00000058,0.00002750,0.000
 00201,0.00001307,-0.00005562,-0.00001901,0.00003781,0.00007506,0.00004
 721,-0.00004352,0.00000103,-0.00000675,0.00000662,-0.00000831,0.000008
 84,-0.00001005,0.00000247,-0.00000109,0.00000142,0.00000443,-0.0000022
 8,0.00000555,-0.00002757,-0.00000693,-0.00002646,0.00000932,0.00000232
 ,0.00000174,0.00001751,0.00001063,0.00000730,-0.00001274,0.00000399,-0
 .00001877,0.00000967,-0.00000801,0.00001484,-0.00000031,0.00000112,-0.
 00000888,0.00000094,0.00000005,0.00000113,-0.00000221,-0.00000003,-0.0
 0000238,-0.00000477,0.00000074,0.00000380,-0.00001111,-0.00000477,-0.0
 0001522,-0.00000935,0.00000139,0.00001116,-0.00000708,-0.00000119,-0.0
 0000612,-0.00000122,-0.00000176,-0.00000452,-0.00000105,0.00000166,0.0
 0000232,-0.00327286,0.00093810,0.00283038,0.00004449,0.00000465,-0.000
 05410,-0.00001831,-0.00004009,0.00003303,0.00087450,0.00287676,-0.0032
 9160,-0.02702048,0.00639156,0.06289564,0.00177039,-0.00007447,0.000214
 29,-0.01287800,0.00238676,-0.00118999,-0.35176557,0.01847876,-0.018533
 73,-0.01138776,-0.00855834,0.01114185,0.00045528,-0.00095643,0.0000878
 1,-0.01262044,0.00193799,-0.00251872,0.00209442,0.00016935,0.00113686,
 0.00025649,0.00006588,0.00000323,0.00018609,0.00041671,-0.00013798,0.0
 0023111,-0.00023327,-0.00004638,0.00003580,-0.00003533,-0.00006383,-0.
 00051283,-0.00067632,0.00056732,0.00063827,0.00025607,0.00020420,-0.00
 090311,-0.00119996,0.00036537,0.00041138,0.00016267,-0.00043811,-0.000
 11382,0.00006716,-0.00000760,0.00001088,-0.00002222,-0.00006515,0.0000
 4305,0.00001986,0.00001460,-0.00003876,-0.00001431,0.00001053,-0.00002
 160,0.00001304,0.00001251,0.00001237,0.00000751,-0.00001001,-0.0000055
 9,0.00000086,-0.00000132,-0.00001449,0.00001404,0.00003006,0.00007986,
 0.00001131,0.00010291,-0.00003099,-0.00000204,0.00000684,-0.00000859,0
 .00001569,0.00001191,0.00001019,0.00000227,-0.00002450,-0.00000653,-0.
 00001214,0.00001126,0.00000887,0.00000309,-0.00001024,-0.00000147,-0.0
 0000036,0.00000146,0.00000203,0.00000100,0.00000071,0.00000509,-0.0000
 0028,-0.00000201,0.00001151,-0.00000100,0.00000913,0.00001788,0.000005
 74,-0.00003865,0.00000984,-0.00000388,0.00000819,0.00000150,-0.0000046
 4,0.00000877,0.00000726,-0.00000053,-0.00001136,0.00024640,-0.00037728
 ,-0.00015788,0.00003423,0.00005309,0.00000347,-0.00000755,0.00006111,0
 .00001696,0.00091477,0.00045812,-0.00070785,0.00045719,0.00132771,0.00
 023084,0.38163017,-0.00231313,0.00253862,0.00135019,0.03578690,-0.0064
 7618,0.00140627,0.02095666,-0.04124992,-0.00158767,-0.03279681,-0.0073
 4078,0.01281162,-0.00011793,0.00058488,-0.00130773,-0.00848439,0.00196
 948,-0.00270495,-0.00035202,0.00072282,0.00127406,-0.00002561,-0.00006
 464,-0.00012212,-0.00002704,0.00013007,-0.00018164,-0.00015119,-0.0001
 0085,0.00004313,-0.00008515,-0.00005061,0.00004182,0.00213784,0.001827
 30,-0.00131673,-0.00036286,-0.00031283,0.00036301,0.00030900,-0.000390
 04,-0.00000722,0.00009700,0.00004598,-0.00028482,-0.00002506,0.0000462
 7,-0.00000081,0.00000695,-0.00002927,-0.00005055,-0.00000918,0.0000080
 7,0.00005273,0.00001753,0.00001602,-0.00005835,-0.00000048,0.00001300,
 0.00000469,0.00000160,-0.00000191,-0.00000382,-0.00000087,0.00000240,-
 0.00000110,-0.00000004,0.00003130,-0.00002497,0.00010141,-0.00000405,0
 .00013678,-0.00003453,-0.00000650,-0.00001163,-0.00000053,0.00003084,0
 .00000311,0.00000518,-0.00001599,-0.00000310,-0.00000251,0.00000278,-0
 .00000389,-0.00000085,-0.00000109,0.00000439,-0.00000025,0.00000042,-0
 .00000089,0.00000049,-0.00000052,0.00000027,-0.00000045,-0.00000013,-0
 .00000008,0.00000111,-0.00000066,0.00000064,0.00000377,0.00000742,-0.0
 0001077,0.00000199,-0.00000472,0.00000012,0.00000121,-0.00000657,0.000
 01519,-0.00000053,0.00000052,-0.00000312,-0.00000336,0.00033517,0.0003
 5589,-0.00004800,-0.00008105,0.00000302,0.00000101,0.00000453,-0.00000
 600,-0.00086262,-0.00010911,0.00063488,0.00126630,-0.00542613,-0.00200
 855,-0.01447159,0.05317657,-0.00020424,0.00149397,0.00146969,0.0115619
 7,-0.00432473,0.00158896,-0.02034147,-0.00259633,-0.04301813,0.0305984
 4,0.01194514,-0.01034006,0.00198331,0.00046502,0.00109753,-0.03615707,
 0.00034038,-0.00490402,0.00177244,0.00153380,0.00317848,-0.00017756,0.
 00030414,-0.00010120,0.00001999,-0.00001716,0.00001952,-0.00003656,-0.
 00000955,0.00002694,-0.00001995,-0.00001143,0.00000816,-0.00074666,0.0
 0032614,-0.00049131,0.00014740,0.00057960,-0.00041180,-0.00099921,-0.0
 0088670,0.00148008,0.00038343,0.00006771,-0.00041255,0.00004361,0.0000
 8059,0.00006688,0.00002862,-0.00001627,-0.00004860,0.00001793,0.000025
 18,-0.00001997,-0.00002869,-0.00003298,0.00002944,-0.00002078,0.000002
 49,0.00002279,0.00000216,0.00002065,-0.00002791,-0.00000213,0.00000162
 ,0.00000073,0.00000393,0.00003095,0.00002545,0.00015153,-0.00001627,0.
 00018093,-0.00002895,0.00000355,-0.00002708,-0.00001260,0.00003228,0.0
 0005217,0.00000184,0.00000066,-0.00005074,0.00000260,-0.00001665,0.000
 03331,0.00001130,0.00000177,-0.00002706,-0.00000082,0.00000075,0.00000
 357,-0.00000067,0.00000071,-0.00000126,0.00000026,0.00000107,0.0000004
 1,0.00000310,-0.00000300,0.00000352,0.00002870,0.00001954,-0.00006758,
 0.00000843,-0.00000622,0.00000666,-0.00000175,-0.00001190,0.00001406,0
 .00000595,0.00000064,-0.00001483,0.00005185,0.00031698,0.00002017,-0.0
 0002015,-0.00000387,0.00001293,-0.00000598,-0.00004604,-0.00000309,-0.
 00019731,0.00043298,0.00001330,0.00082345,-0.00162859,-0.00039741,0.01
 188022,-0.00740224,0.05707509,0.00035321,-0.00009480,-0.00007790,-0.00
 064317,0.00080244,-0.00008132,-0.00988705,-0.00386552,-0.00216454,0.00
 122389,0.00044147,0.00018931,0.00022982,0.00008573,0.00019779,-0.34555
 045,-0.06772284,-0.00926543,-0.01756454,0.01237434,0.00711155,-0.00042
 169,0.00021521,-0.00169804,0.00000299,0.00002453,0.00004699,0.00005065
 ,0.00001202,0.00001269,-0.00000323,-0.00000744,-0.00001029,-0.00011118
 ,-0.00000953,-0.00004616,0.00177662,-0.00037074,-0.00031711,-0.0077462
 1,-0.00146617,-0.00018778,0.00103483,0.00061513,-0.00157654,0.00035787
 ,0.00022514,0.00014670,0.00005268,0.00002689,-0.00006469,0.00002996,0.
 00001827,-0.00007133,-0.00001589,-0.00006478,0.00002512,-0.00002809,0.
 00002529,0.00003867,0.00000902,0.00000653,-0.00004165,-0.00000499,0.00
 000583,-0.00000052,0.00001551,0.00017222,-0.00009448,0.00047077,-0.000
 12617,0.00072026,-0.00010645,-0.00003081,-0.00011311,-0.00005202,0.000
 09837,0.00008945,0.00002305,-0.00006935,-0.00003099,-0.00001285,0.0000
 2583,0.00002108,0.00001264,-0.00001184,-0.00002438,-0.00000164,0.00000
 285,0.00000351,0.00000329,-0.00000252,-0.00000020,0.00000366,0.0000009
 3,-0.00000063,0.00000450,-0.00001496,0.00001439,0.00001723,0.00005739,
 -0.00028447,0.00001888,-0.00001661,0.00000734,0.00000425,-0.00003951,0
 .00006860,0.00000129,-0.00000372,-0.00002283,-0.00004802,-0.00009823,-
 0.00006146,0.00001289,0.00002497,0.00000908,-0.00000408,-0.00001609,-0
 .00001546,0.00008480,0.00009910,0.00000912,0.00046439,-0.00045360,-0.0
 0016704,0.00036733,-0.00059070,-0.00091694,0.37531836,0.00015616,-0.00
 000582,-0.00002051,-0.00052172,0.00027798,0.00038776,-0.00759075,0.000
 45642,-0.00016221,0.00107463,0.00035611,-0.00036677,-0.00000709,-0.000
 10813,0.00010528,-0.06760242,-0.05318477,0.00041915,0.03997910,-0.0079
 0024,-0.00724547,0.00081314,0.00114658,0.00181363,-0.00008820,0.000125
 43,0.00010841,0.00010746,-0.00005101,-0.00001940,-0.00000829,-0.000001
 29,-0.00002153,-0.00023692,-0.00011110,-0.00017127,0.00110304,0.001978
 06,-0.00011733,-0.02863561,-0.00690078,0.00111562,0.00083006,0.0011012
 6,-0.00216109,-0.00006915,0.00035703,0.00003613,0.00002590,-0.00006901
 ,-0.00022113,0.00012562,0.00001057,0.00003243,-0.00014037,0.00006149,0
 .00003757,-0.00002115,0.00003843,0.00002786,0.00001137,0.00001750,-0.0
 0002219,-0.00000387,0.00000232,-0.00000247,-0.00006481,-0.00005731,0.0
 0006678,-0.00043413,-0.00011666,-0.00032514,0.00017219,0.00002302,-0.0
 0002531,0.00005211,-0.00003583,0.00004097,-0.00001214,0.00003879,-0.00
 002985,0.00000587,-0.00003700,0.00002324,0.00000545,0.00001004,-0.0000
 1097,0.00000008,-0.00000053,0.00000178,-0.00000121,0.00000429,0.000000
 75,0.00000541,0.00000028,-0.00000792,0.00002778,-0.00000357,0.00003106
 ,0.00017021,-0.00000642,-0.00012885,0.00000613,0.00001690,0.00001520,-
 0.00000417,0.00001741,-0.00004483,0.00000130,-0.00001135,0.00004261,0.
 00000108,0.00000791,-0.00001679,0.00001372,-0.00001569,0.00000211,-0.0
 0000632,-0.00002979,-0.00000115,0.00023292,0.00016890,0.00008068,0.000
 09911,-0.00008769,-0.00028736,0.00023664,0.00002679,-0.00136772,0.0600
 5107,0.06574563,0.00065358,-0.00006813,-0.00048415,-0.00122993,0.00146
 744,0.00089797,-0.03538295,-0.00862613,-0.00350537,0.00214240,0.000449
 90,0.00307113,0.00010311,-0.00022249,0.00063312,-0.01257383,0.00027564
 ,-0.04387842,0.01541625,-0.00614122,0.00053652,0.00136958,0.00007354,0
 .00096130,-0.00006152,-0.00000366,0.00005527,0.00002756,-0.00000250,0.
 00000875,-0.00000315,-0.00000250,-0.00000354,-0.00026013,-0.00026312,-
 0.00053874,-0.00122471,-0.00091778,0.00041839,0.02327837,0.00853815,-0
 .00110632,0.00038825,-0.00045437,0.00164540,0.00035210,-0.00017751,-0.
 00020764,-0.00002201,0.00007988,0.00022782,-0.00010952,-0.00004084,-0.
 00007022,0.00010916,-0.00005147,0.00003971,0.00002647,-0.00003669,-0.0
 0003738,-0.00000986,-0.00003375,0.00003290,0.00000465,-0.00000110,0.00
 000237,0.00001134,0.00007301,-0.00015225,-0.00034356,-0.00007427,-0.00
 001227,0.00007766,-0.00000734,0.00007256,-0.00001370,0.00001747,-0.000
 06562,-0.00001562,-0.00005668,0.00011391,-0.00000521,0.00007771,-0.000
 05682,-0.00001866,-0.00001652,0.00003422,0.00000122,-0.00000085,-0.000
 00518,0.00000076,-0.00000682,-0.00000052,-0.00000553,-0.00000301,0.000
 00872,-0.00004145,0.00001764,-0.00003070,-0.00025857,-0.00002989,0.000
 05948,-0.00004634,0.00000091,-0.00005437,0.00000019,-0.00000300,0.0000
 0837,-0.00002537,-0.00001363,0.00006781,0.00002614,-0.00019632,-0.0000
 8729,0.00000130,0.00000251,-0.00000880,0.00000921,-0.00003728,0.000003
 01,0.00007464,0.00008606,-0.00019181,0.00048902,-0.00037450,-0.0000943
 3,-0.00168135,-0.00144132,-0.00580297,0.00837221,0.00544350,0.04992857
 ,0.00010616,-0.00003584,0.00032191,0.00020887,0.00033314,-0.00009423,-
 0.00042105,-0.00034439,-0.00014721,0.00024666,0.00000057,0.00002619,-0
 .00004340,0.00000225,0.00006530,-0.00440233,0.00105983,0.00134967,0.00
 194142,-0.00012264,-0.00122930,-0.00044402,-0.00026515,-0.00004980,0.0
 0068679,0.00035954,0.00010718,0.00019422,-0.00026183,-0.00000022,0.000
 01620,-0.00004479,-0.00008635,-0.00023153,-0.00179628,-0.00244078,-0.0
 1191348,0.00810406,0.00619499,-0.34167405,-0.04739667,0.06094221,-0.01
 684280,-0.00431789,-0.00614380,0.00045389,-0.00041539,0.00325609,0.000
 10230,0.00001853,-0.00036795,0.00052824,-0.00001079,-0.00028920,-0.000
 79539,-0.00002075,0.00068759,-0.00006035,0.00010265,0.00005566,0.00003
 518,0.00002784,-0.00005374,-0.00001328,0.00000752,-0.00000742,-0.00012
 940,0.00007267,0.00006944,0.00017696,-0.00006704,0.00007087,-0.0000113
 5,-0.00002995,-0.00003867,0.00042880,0.00004598,-0.00003195,-0.0000124
 5,-0.00004441,-0.00023052,0.00000305,-0.00008566,0.00006130,0.00002482
 ,0.00001773,-0.00004342,-0.00000099,0.00000272,0.00000448,0.00000264,0
 .00001085,0.00000117,0.00002636,0.00000574,-0.00003602,0.00010340,-0.0
 0013668,0.00016391,0.00088665,0.00025326,-0.00148386,0.00013874,0.0001
 1469,0.00024157,0.00002021,-0.00000616,-0.00000029,0.00003269,-0.00002
 908,-0.00003459,0.00001249,-0.00000817,0.00000584,0.00000603,0.0001488
 4,0.00008402,-0.00007307,-0.00008485,0.00000889,0.00137428,-0.00000690
 ,0.00080075,0.00005131,0.00003177,-0.00030889,0.00036749,0.00007174,0.
 00038700,0.00025718,0.00014076,0.00039782,0.36863592,-0.00004225,0.000
 30838,-0.00027254,-0.00048941,-0.00044518,-0.00002349,-0.00099999,-0.0
 0020874,-0.00132944,0.00045513,0.00002433,0.00045939,0.00005681,-0.000
 11488,0.00010733,-0.02442327,-0.00160110,0.00575929,0.00129367,0.00340
 043,-0.00091959,-0.00058431,-0.00035800,-0.00016762,0.00009803,0.00013
 404,0.00012341,-0.00010437,-0.00009602,-0.00007807,-0.00001613,0.00003
 648,0.00000798,0.00550015,0.00062065,0.00385147,0.03120985,-0.00698536
 ,-0.01581356,-0.04951833,-0.05094667,0.01282523,-0.00742897,0.00256202
 ,-0.00159625,0.00034465,-0.00040184,0.00109879,0.00017976,-0.00004992,
 -0.00004973,-0.00032010,0.00010664,0.00021748,0.00074181,-0.00007987,-
 0.00062584,0.00000721,0.00002020,0.00007046,-0.00001428,0.00005654,-0.
 00007651,-0.00000008,0.00000195,0.00000387,-0.00007473,0.00005655,-0.0
 0005617,0.00012701,-0.00002165,0.00007870,-0.00003238,-0.00001729,-0.0
 0001948,0.00003069,0.00011646,0.00010205,-0.00000879,-0.00001061,-0.00
 013892,0.00001342,-0.00004716,0.00008833,0.00002203,0.00000607,-0.0000
 6195,-0.00000110,0.00000182,0.00000869,-0.00000378,0.00000173,-0.00000
 683,-0.00001311,0.00000523,0.00000106,0.00000747,-0.00006020,0.0000167
 6,0.00036307,0.00010581,-0.00023741,0.00002210,-0.00000985,0.00003494,
 0.00001343,-0.00002361,0.00000644,0.00001336,-0.00001295,-0.00002825,-
 0.00000190,0.00001841,0.00000354,-0.00000761,-0.00007145,-0.00007214,0
 .00006747,0.00002635,0.00002774,-0.00110377,0.00031518,-0.00026079,-0.
 00011341,-0.00013772,0.00001222,0.00047196,0.00015230,0.00036935,-0.00
 033563,-0.00325514,0.00270136,0.04459864,0.05687764,-0.00003281,-0.000
 11671,-0.00023573,-0.00034968,0.00055657,-0.00012008,0.00102403,-0.000
 43761,0.00149381,-0.00039236,0.00007486,-0.00017194,-0.00002659,-0.000
 00530,-0.00005251,0.02186579,0.00298640,-0.00028783,-0.00212294,-0.001
 26511,0.00114422,-0.00018483,0.00018744,-0.00026895,0.00011267,-0.0000
 5496,-0.00006141,-0.00013143,-0.00001182,-0.00007608,-0.00002284,0.000
 01917,0.00000793,0.00475814,-0.00111683,0.00206238,0.01003310,-0.00596
 523,-0.00410456,0.06564888,0.01599230,-0.05820609,-0.03412213,-0.00590
 266,-0.00828927,-0.00457950,-0.00149894,0.00548761,0.00004621,0.000005
 07,-0.00053326,0.00013033,0.00010748,0.00031596,-0.00019780,0.00011185
 ,-0.00041397,-0.00000665,0.00008143,0.00007489,0.00001739,0.00006630,-
 0.00007145,-0.00000334,0.00000603,-0.00000380,-0.00007187,0.00016006,0
 .00008282,0.00008957,-0.00019607,0.00015593,0.00002292,-0.00003775,-0.
 00008701,-0.00009950,-0.00007162,0.00003140,0.00011134,0.00004845,-0.0
 0024806,0.00002427,-0.00013814,0.00012059,0.00002560,0.00003002,-0.000
 07234,-0.00000043,0.00000399,0.00000692,-0.00000462,0.00000977,0.00000
 231,0.00002272,0.00001115,-0.00004856,0.00021389,-0.00008600,0.0000458
 7,0.00124496,0.00017727,-0.00019375,0.00024147,0.00007146,0.00002684,0
 .00000673,-0.00001523,0.00000268,0.00001998,-0.00004036,-0.00001231,-0
 .00002447,0.00000012,-0.00000037,-0.00004469,-0.00006668,-0.00003353,0
 .00003537,0.00006441,0.00001089,-0.00073050,-0.00051472,-0.00077356,-0
 .00017749,-0.00007557,0.00009733,-0.00043468,0.00004226,-0.00026318,0.
 00025145,0.00294473,-0.00243262,-0.06218567,-0.00614127,0.06589186\\0.
 01194459,-0.01863052,-0.00294113,0.00147399,0.01869797,-0.00824439,0.0
 0328597,-0.00143410,0.02985416,0.00967944,-0.00016611,0.01235910,-0.01
 446892,-0.00873441,-0.02425933,0.01284393,-0.02227070,0.00041496,-0.00
 179573,0.00980193,-0.00408828,0.00267928,0.00149739,0.01669526,-0.0021
 4841,0.00265373,0.00456020,-0.00882622,0.01865275,-0.01061423,0.001244
 60,-0.03013473,0.01148152,-0.03077915,0.01721690,0.01202379,0.02392011
 ,0.00024009,-0.00420847,-0.06146464,-0.00035600,-0.01835346,0.01415101
 ,0.00057936,-0.00083971,-0.01596530,-0.00018805,-0.00617309,-0.0108625
 2,0.02639414,0.02919445,0.01728785,-0.00009458,0.00397040,-0.01194714,
 0.00014682,-0.02498696,0.00038280,0.02795974,-0.02474420,-0.00989878,0
 .01194490,-0.00563504,0.00222542,-0.00839623,0.03212153,0.00503364,-0.
 01268578,0.00647040,-0.00531990,-0.02228197,0.00654075,-0.00266354,0.0
 3075127,-0.00678391,0.00869685,-0.02421988,0.00073103,-0.01724937,-0.0
 1332570,0.00924619,0.07564051,-0.02534967,0.01345631,-0.02273427,0.017
 16780,0.00186866,-0.00274965,-0.00267899,-0.00667269,-0.01711098,-0.00
 085836,-0.00499513,0.02012786,-0.00513130,-0.00434350,-0.02342235,-0.0
 0222109,0.00308035,0.01945649,-0.00092722,0.00131677,-0.02003894,0.001
 83331,0.00499513,-0.00935845,-0.00734764,-0.01352473,0.01825471,0.0001
 8376,-0.00778594,-0.00385185,0.00234957,0.00047587,0.01660975,0.003874
 77,0.00890655,0.00276502,0.00646606,-0.01820318,0.02142004,0.00339599,
 -0.00274904,-0.01754359,0.00084221,-0.00065285,0.02316060,-0.00078158,
 -0.00156777,-0.02042376,0.00135048,-0.00209586,0.01833900,0.00421367,-
 0.00530049\\\@


 The mind is not a vessel to be filled but a fire to be kindled.
                                  -- Plutarch
 Job cpu time:  0 days 12 hours 55 minutes 40.8 seconds.
 File lengths (MBytes):  RWF=   1322 Int=      0 D2E=      0 Chk=     19 Scr=      1
 Normal termination of Gaussian 09 at Thu Jan 21 04:54:58 2016.
Gaussian '09 finished on node001 at Thu Jan 21 04:54:58 EST 2016.
