Gaussian '09 started on node019 at Mon Feb  8 13:54:04 EST 2016.
 Entering Gaussian System, Link 0=/usr/local/gaussian/g09/g09
 Initial command:
 /usr/local/gaussian/g09/l1.exe /home/srmcgrat/thesis/gaussian/cellobiose/310/10000/1/2dfp/gaussian31382/Gau-31462.inp -scrdir=/home/srmcgrat/thesis/gaussian/cellobiose/310/10000/1/2dfp/gaussian31382/
 Entering Link 1 = /usr/local/gaussian/g09/l1.exe PID=     31464.
  
 Copyright (c) 1988,1990,1992,1993,1995,1998,2003,2009,2010,
            Gaussian, Inc.  All Rights Reserved.
  
 This is part of the Gaussian(R) 09 program.  It is based on
 the Gaussian(R) 03 system (copyright 2003, Gaussian, Inc.),
 the Gaussian(R) 98 system (copyright 1998, Gaussian, Inc.),
 the Gaussian(R) 94 system (copyright 1995, Gaussian, Inc.),
 the Gaussian 92(TM) system (copyright 1992, Gaussian, Inc.),
 the Gaussian 90(TM) system (copyright 1990, Gaussian, Inc.),
 the Gaussian 88(TM) system (copyright 1988, Gaussian, Inc.),
 the Gaussian 86(TM) system (copyright 1986, Carnegie Mellon
 University), and the Gaussian 82(TM) system (copyright 1983,
 Carnegie Mellon University). Gaussian is a federally registered
 trademark of Gaussian, Inc.
  
 This software contains proprietary and confidential information,
 including trade secrets, belonging to Gaussian, Inc.
  
 This software is provided under written license and may be
 used, copied, transmitted, or stored only in accord with that
 written license.
  
 The following legend is applicable only to US Government
 contracts under FAR:
  
                    RESTRICTED RIGHTS LEGEND
  
 Use, reproduction and disclosure by the US Government is
 subject to restrictions as set forth in subparagraphs (a)
 and (c) of the Commercial Computer Software - Restricted
 Rights clause in FAR 52.227-19.
  
 Gaussian, Inc.
 340 Quinnipiac St., Bldg. 40, Wallingford CT 06492
  
  
 ---------------------------------------------------------------
 Warning -- This program may not be used in any manner that
 competes with the business of Gaussian, Inc. or will provide
 assistance to any competitor of Gaussian, Inc.  The licensee
 of this program is prohibited from giving any competitor of
 Gaussian, Inc. access to this program.  By using this program,
 the user acknowledges that Gaussian, Inc. is engaged in the
 business of creating and licensing software in the field of
 computational chemistry and represents and warrants to the
 licensee that it is not a competitor of Gaussian, Inc. and that
 it will not use this program in any manner prohibited above.
 ---------------------------------------------------------------
  

 Cite this work as:
 Gaussian 09, Revision B.01,
 M. J. Frisch, G. W. Trucks, H. B. Schlegel, G. E. Scuseria, 
 M. A. Robb, J. R. Cheeseman, G. Scalmani, V. Barone, B. Mennucci, 
 G. A. Petersson, H. Nakatsuji, M. Caricato, X. Li, H. P. Hratchian, 
 A. F. Izmaylov, J. Bloino, G. Zheng, J. L. Sonnenberg, M. Hada, 
 M. Ehara, K. Toyota, R. Fukuda, J. Hasegawa, M. Ishida, T. Nakajima, 
 Y. Honda, O. Kitao, H. Nakai, T. Vreven, J. A. Montgomery, Jr., 
 J. E. Peralta, F. Ogliaro, M. Bearpark, J. J. Heyd, E. Brothers, 
 K. N. Kudin, V. N. Staroverov, T. Keith, R. Kobayashi, J. Normand, 
 K. Raghavachari, A. Rendell, J. C. Burant, S. S. Iyengar, J. Tomasi, 
 M. Cossi, N. Rega, J. M. Millam, M. Klene, J. E. Knox, J. B. Cross, 
 V. Bakken, C. Adamo, J. Jaramillo, R. Gomperts, R. E. Stratmann, 
 O. Yazyev, A. J. Austin, R. Cammi, C. Pomelli, J. W. Ochterski, 
 R. L. Martin, K. Morokuma, V. G. Zakrzewski, G. A. Voth, 
 P. Salvador, J. J. Dannenberg, S. Dapprich, A. D. Daniels, 
 O. Farkas, J. B. Foresman, J. V. Ortiz, J. Cioslowski, 
 and D. J. Fox, Gaussian, Inc., Wallingford CT, 2010.
 
 ******************************************
 Gaussian 09:  EM64L-G09RevB.01 12-Aug-2010
                 8-Feb-2016 
 ******************************************
 --------------------------------------------------
 # freq=raman b3lyp/6-31+g(2df,p) geom=connectivity
 --------------------------------------------------
 1/10=4,30=1,38=1,57=2/1,3;
 2/12=2,17=6,18=5,40=1/2;
 3/5=1,6=6,7=114,11=2,16=1,25=1,30=1,71=2,74=-5/1,2,3;
 4//1;
 5/5=2,38=5,98=1/2;
 8/6=4,10=90,11=11/1;
 10/13=10,15=4/2;
 11/6=3,8=1,9=11,15=111,16=1/1,2,10;
 10/6=1/2;
 6/7=2,8=2,9=2,10=2,18=1,28=1/1;
 7/8=1,10=1,25=1/1,2,3,16;
 1/10=4,30=1/3;
 99//99;
 -------------
 310 10000.com
 -------------
 Symbolic Z-matrix:
 Charge =  0 Multiplicity = 1
 O                     7.467     7.731     12.241 
 C                     8.059     7.838     13.544 
 C                     7.715     9.224     14.065 
 O                     8.061     10.253    13.126 
 H                     7.977     9.988     12.166 
 C                     8.256     9.55      15.447 
 O                     7.601     10.729    15.937 
 H                     7.997     11.132    16.762 
 C                     7.952     5.356     14.183 
 O                     7.499     4.893     12.902 
 H                     7.616     3.901     12.876 
 C                     7.608     6.791     14.55 
 O                     8.235     7.167     15.784 
 C                     7.868     8.418     16.384 
 O                     8.723     8.6       17.522 
 C                     8.021     8.429     18.762 
 C                     8.49      7.039     19.158 
 O                     8.046     6.028     18.241 
 H                     8.258     6.255     17.29 
 C                     8.038     6.751     20.581 
 O                     8.687     5.637     21.21 
 H                     8.319     5.479     22.126 
 C                     7.98      10.859    19.55 
 O                     8.388     11.458    18.311 
 H                     8.292     12.447    18.428 
 C                     8.395     9.427     19.846 
 O                     7.853     9.169     21.149 
 C                     8.384     7.89      21.526 
 O                     7.829     7.56      22.807 
 H                     8.53981   7.39903   23.43185 
 H                     8.15951   7.67659   11.57838 
 H                     7.53523   4.71511   14.93164 
 H                     9.01671   5.25406   14.21295 
 H                     6.54728   6.86666   14.66855 
 H                     9.12161   7.76913   13.43899 
 H                     6.64889   9.24848   14.15279 
 H                     9.31757   9.68197   15.42332 
 H                     6.83211   8.45138   16.64992 
 H                     8.35656   11.47217   20.34191 
 H                     6.91138   10.89756   19.58821 
 H                     9.46128   9.41334   19.9341 
 H                     6.96385   8.43254   18.59672 
 H                     9.55996   7.04011   19.14864 
 H                     6.97963   6.59394   20.5898 
 H                     9.44798   7.96342   21.61232 
 

 GradGradGradGradGradGradGradGradGradGradGradGradGradGradGradGradGradGrad
 Berny optimization.
 Initialization pass.
 Trust Radius=3.00D-01 FncErr=1.00D-07 GrdErr=1.00D-07
 Number of steps in this run=      2 maximum allowed number of steps=      2.
 GradGradGradGradGradGradGradGradGradGradGradGradGradGradGradGradGradGrad

                          Input orientation:                          
 ---------------------------------------------------------------------
 Center     Atomic      Atomic             Coordinates (Angstroms)
 Number     Number       Type             X           Y           Z
 ---------------------------------------------------------------------
      1          8           0        7.467000    7.731000   12.241000
      2          6           0        8.059000    7.838000   13.544000
      3          6           0        7.715000    9.224000   14.065000
      4          8           0        8.061000   10.253000   13.126000
      5          1           0        7.977000    9.988000   12.166000
      6          6           0        8.256000    9.550000   15.447000
      7          8           0        7.601000   10.729000   15.937000
      8          1           0        7.997000   11.132000   16.762000
      9          6           0        7.952000    5.356000   14.183000
     10          8           0        7.499000    4.893000   12.902000
     11          1           0        7.616000    3.901000   12.876000
     12          6           0        7.608000    6.791000   14.550000
     13          8           0        8.235000    7.167000   15.784000
     14          6           0        7.868000    8.418000   16.384000
     15          8           0        8.723000    8.600000   17.522000
     16          6           0        8.021000    8.429000   18.762000
     17          6           0        8.490000    7.039000   19.158000
     18          8           0        8.046000    6.028000   18.241000
     19          1           0        8.258000    6.255000   17.290000
     20          6           0        8.038000    6.751000   20.581000
     21          8           0        8.687000    5.637000   21.210000
     22          1           0        8.319000    5.479000   22.126000
     23          6           0        7.980000   10.859000   19.550000
     24          8           0        8.388000   11.458000   18.311000
     25          1           0        8.292000   12.447000   18.428000
     26          6           0        8.395000    9.427000   19.846000
     27          8           0        7.853000    9.169000   21.149000
     28          6           0        8.384000    7.890000   21.526000
     29          8           0        7.829000    7.560000   22.807000
     30          1           0        8.539811    7.399032   23.431849
     31          1           0        8.159509    7.676587   11.578376
     32          1           0        7.535228    4.715108   14.931638
     33          1           0        9.016712    5.254056   14.212946
     34          1           0        6.547282    6.866657   14.668545
     35          1           0        9.121606    7.769135   13.438991
     36          1           0        6.648888    9.248481   14.152787
     37          1           0        9.317566    9.681970   15.423318
     38          1           0        6.832108    8.451379   16.649921
     39          1           0        8.356564   11.472171   20.341910
     40          1           0        6.911378   10.897557   19.588214
     41          1           0        9.461279    9.413341   19.934104
     42          1           0        6.963849    8.432535   18.596716
     43          1           0        9.559958    7.040113   19.148641
     44          1           0        6.979627    6.593936   20.589800
     45          1           0        9.447983    7.963416   21.612316
 ---------------------------------------------------------------------
                    Distance matrix (angstroms):
                    1          2          3          4          5
     1  O    0.000000
     2  C    1.435173   0.000000
     3  C    2.370133   1.520123   0.000000
     4  O    2.737982   2.450909   1.435367   0.000000
     5  H    2.315119   2.555016   2.063623   0.999440   0.000000
     6  C    3.769578   2.567326   1.519500   2.432956   3.321844
     7  O    4.760922   3.780753   2.404663   2.887888   3.861463
     8  H    5.682178   4.605410   3.315690   3.741288   4.736280
     9  C    3.105996   2.565169   3.877050   5.010962   5.052162
    10  O    2.914136   3.065744   4.489631   5.394036   5.170029
    11  H    3.885142   4.017766   5.455076   6.372474   6.138892
    12  C    2.496991   1.520410   2.483176   3.770733   4.005050
    13  O    3.668892   2.344956   2.730679   4.076596   4.595055
    14  C    4.218675   2.904906   2.459839   3.744201   4.502033
    15  O    5.497423   4.104391   3.654626   4.742939   5.582992
    16  C    6.581608   5.251500   4.773622   5.923941   6.777878
    17  C    7.026399   5.686929   5.595847   6.848274   7.605776
    18  O    6.263821   5.033694   5.269056   6.634310   7.252033
    19  H    5.319460   4.071610   4.417062   5.775960   6.345835
    20  C    8.416771   7.120490   6.976985   8.236599   9.016325
    21  O    9.290651   8.000396   8.053718   9.330080  10.061274
    22  H   10.174018   8.904112   8.908960  10.191057  10.938448
    23  C    7.966746   6.723445   5.729631   6.453028   7.435194
    24  O    7.182177   5.994742   4.844812   5.333215   6.331733
    25  H    7.823059   6.719422   5.454945   5.742665   6.734876
    26  C    7.846886   6.507920   5.824394   6.778808   7.711799
    27  O    9.031573   7.723343   7.085557   8.098571   9.021110
    28  C    9.331527   7.988783   7.608787   8.732016   9.600878
    29  O   10.573582   9.270024   8.899689  10.051260  10.915492
    30  H   11.247054   9.909260   9.578553  10.704435  11.573196
    31  H    0.960000   1.974799   2.962326   3.007116   2.391912
    32  H    4.042251   3.457214   4.594941   5.848505   5.970537
    33  H    3.524972   2.835748   4.180526   5.204256   5.261294
    34  H    2.736046   2.119764   2.699055   4.017226   4.248483
    35  H    2.043124   1.070000   2.118268   2.718903   2.802498
    36  H    2.574293   2.085304   1.070000   2.014301   2.501618
    37  H    4.166296   2.918227   2.150112   2.680057   3.535660
    38  H    4.512274   3.395326   2.838707   4.144156   4.876221
    39  H    8.967297   7.714099   6.698169   7.324144   8.318193
    40  H    8.019810   6.870986   5.826877   6.595248   7.553285
    41  H    8.123501   6.729154   6.126314   7.001149   7.929486
    42  H    6.414081   5.204110   4.661233   5.869120   6.693284
    43  H    7.250745   5.856748   5.832379   6.988686   7.742937
    44  H    8.439959   7.235747   7.073261   8.382507   9.136456
    45  H    9.581225   8.187962   7.845653   8.898510   9.772186
                    6          7          8          9         10
     6  C    0.000000
     7  O    1.434979   0.000000
     8  H    2.073410   0.999925   0.000000
     9  C    4.390871   5.662936   6.325776   0.000000
    10  O    5.360758   6.578794   7.353416   1.435458   0.000000
    11  H    6.239458   7.482749   8.217878   1.984482   0.999214
    12  C    2.972641   4.175124   4.887591   1.520608   2.515987
    13  O    2.406803   3.621217   4.090764   2.433724   3.744155
    14  C    1.519848   2.368928   2.743232   3.771909   4.968512
    15  O    2.329424   2.881623   2.741478   4.718781   6.048506
    16  C    3.507291   3.667019   3.362556   5.515010   6.864064
    17  C    4.486803   4.978078   4.768282   5.279447   6.687670
    18  O    4.500558   5.254126   5.314194   4.114339   5.485650
    19  H    3.775404   4.720057   4.912437   3.248890   4.656787
    20  C    5.851485   6.130431   5.812022   6.548880   7.918947
    21  O    6.979219   7.410289   7.103227   7.070920   8.425422
    22  H    7.822151   8.147499   7.799525   7.952425   9.278899
    23  C    4.315584   3.635149   2.801386   7.686903   8.945413
    24  O    3.443891   2.605127   1.630509   7.380033   8.552592
    25  H    4.156954   3.103882   2.142850   8.271512   9.393000
    26  C    4.402914   4.195941   3.546334   6.988480   8.341409
    27  O    5.728907   5.446288   4.808313   7.941909   9.296370
    28  C    6.302874   6.317431   5.775468   7.779938   9.172710
    29  O    7.636231   7.569111   7.023492   8.902029  10.263080
    30  H    8.274360   8.254866   7.662675   9.490032  10.873877
    31  H    4.299446   5.350398   6.231873   3.494602   3.152238
    32  H    4.915414   6.097703   6.688794   1.070000   2.037741
    33  H    4.533951   5.911989   6.487505   1.070000   2.037741
    34  H    3.275063   4.199642   4.967634   2.119215   2.814564
    35  H    2.820080   4.160900   4.859628   2.782938   3.345648
    36  H    2.085356   2.506365   3.488988   4.104926   4.610572
    37  H    1.070000   2.075269   2.374564   4.702890   5.709506
    38  H    2.163667   2.507391   2.924938   4.113542   5.210923
    39  H    5.259753   4.530608   3.613967   8.689268   9.968609
    40  H    4.557804   3.719591   3.036614   7.810768   9.005857
    41  H    4.648169   4.600917   3.893603   7.198273   8.586880
    42  H    3.583168   3.571246   3.423550   5.470137   6.726402
    43  H    4.658539   5.268780   4.988230   5.484465   6.919405
    44  H    6.067605   6.255670   6.023381   6.597354   7.890830
    45  H    6.476820   6.577918   5.972507   8.014444   9.439046
                   11         12         13         14         15
    11  H    0.000000
    12  C    3.339826   0.000000
    13  O    4.416603   1.434316   0.000000
    14  C    5.724758   2.465418   1.435162   0.000000
    15  O    6.700102   3.653559   2.304838   1.434989   0.000000
    16  C    7.437191   4.538123   3.241439   2.382942   1.435146
    17  C    7.076330   4.698201   3.386043   3.159684   2.273215
    18  O    5.787249   3.794403   2.714754   3.031870   2.755081
    19  H    5.043498   2.866600   1.760769   2.377289   2.401890
    20  C    8.226032   6.046442   4.819032   4.519137   3.639438
    21  O    8.579994   6.844820   5.655677   5.629831   4.730963
    22  H    9.409931   7.721570   6.563335   6.466196   5.576798
    23  C    9.648240   6.456548   5.280023   3.999323   3.125366
    24  O    9.340421   6.044370   4.982150   3.636665   2.983774
    25  H   10.213510   6.891812   5.905284   4.537681   3.975677
    26  C    8.928853   5.967871   4.651134   3.644345   2.488471
    27  O    9.810735   7.018669   5.739090   4.823842   3.773035
    28  C    9.556382   7.104545   5.789257   5.194728   4.080568
    29  O   10.585765   8.295677   7.045695   6.480171   5.460042
    30  H   11.158656   8.951269   7.657437   7.152748   6.033423
    31  H    4.029179   3.149440   4.237056   4.871210   6.041264
    32  H    2.212452   2.111935   2.688490   3.991429   4.818004
    33  H    2.362240   2.111935   2.595889   4.005441   4.715024
    34  H    3.626362   1.070000   2.045199   2.663409   3.985026
    35  H    4.188827   2.117095   2.578314   3.265827   4.185712
    36  H    5.582208   2.667749   3.083694   2.674741   4.009247
    37  H    6.542459   3.470304   2.761723   2.149831   2.434879
    38  H    5.963465   2.787209   2.089869   1.070000   2.087602
    39  H   10.658840   7.484646   6.270870   5.023117   4.041724
    40  H    9.721220   6.537025   5.490089   4.162970   3.581897
    41  H    9.143729   6.268962   4.875774   4.016526   2.650439
    42  H    7.327121   4.414236   3.335982   2.390358   2.068253
    43  H    7.278669   5.001969   3.618346   3.522008   2.404103
    44  H    8.195096   6.075597   5.000008   4.669601   4.058946
    45  H    9.807273   7.391644   6.006236   5.480719   4.202561
                   16         17         18         19         20
    16  C    0.000000
    17  C    1.519499   0.000000
    18  O    2.457004   1.435321   0.000000
    19  H    2.636139   2.039094   1.000437   0.000000
    20  C    2.474820   1.520584   2.449162   3.335431   0.000000
    21  O    3.772469   2.493014   3.062470   3.991537   1.434517
    22  H    4.484172   3.357360   3.933085   4.898244   2.020883
    23  C    2.554902   3.873779   5.005637   5.136312   4.235799
    24  O    3.084304   4.500597   5.441210   5.303824   5.237485
    25  H    4.040955   5.460638   6.426433   6.295797   6.094616
    26  C    1.520176   2.486949   3.775053   4.075965   2.797972
    27  O    2.504714   2.984418   4.284810   4.852556   2.490697
    28  C    2.839364   2.518504   3.791110   4.542334   1.519889
    29  O    4.141745   3.744805   4.821044   5.685451   2.377654
    30  H    4.810144   4.289276   5.391520   6.253842   2.966328
    31  H    7.224248   7.613569   6.864494   5.886701   9.050895
    32  H    5.357298   4.916727   3.596728   2.907841   6.026021
    33  H    5.636099   5.283655   4.215032   3.323522   6.614441
    34  H    4.622676   4.894799   3.963828   3.189468   6.098585
    35  H    5.475507   5.799921   5.219939   4.227137   7.295141
    36  H    4.878430   5.772664   5.388590   4.625178   7.034839
    37  H    3.794445   4.649517   4.786200   4.043675   6.068736
    38  H    2.423808   3.321728   3.142902   2.695728   4.449589
    39  H    3.445229   4.590474   5.843737   6.045059   4.737942
    40  H    2.829782   4.191133   5.178315   5.352431   4.410084
    41  H    2.101704   2.680152   4.041058   4.291187   3.087436
    42  H    1.070000   2.141522   2.660709   2.850262   2.814026
    43  H    2.108766   1.070000   2.034762   2.401259   2.109881
    44  H    2.791553   2.128229   2.640890   3.554968   1.070000
    45  H    3.221389   2.792121   4.132452   4.797620   2.126409
                   21         22         23         24         25
    21  O    0.000000
    22  H    0.999722   0.000000
    23  C    5.524919   5.974537   0.000000
    24  O    6.509811   7.092773   1.435404   0.000000
    25  H    7.366929   7.888533   1.969257   1.000513   0.000000
    26  C    4.038547   4.559702   1.520021   2.545827   3.337923
    27  O    3.629642   3.845489   2.330028   3.685104   4.282738
    28  C    2.295141   2.485386   3.589255   4.802798   5.511109
    29  O    2.642821   2.243752   4.638346   5.976696   6.578205
    30  H    2.839548   2.332493   5.230059   6.536158   7.112095
    31  H    9.859327  10.775305   8.585264   7.725252   8.348158
    32  H    6.449364   7.277134   7.698994   7.590382   8.519355
    33  H    7.015278   7.946939   7.808606   7.461786   8.368413
    34  H    6.991501   7.789622   6.466845   6.142976   6.951098
    35  H    8.069910   9.019590   6.942259   6.154866   6.889186
    36  H    8.185410   8.976100   5.787533   5.019683   5.586393
    37  H    7.088377   7.974211   4.494885   3.515265   4.210142
    38  H    5.670597   6.405726   3.940146   3.770909   4.610622
    39  H    5.908636   6.253198   1.070000   2.031203   2.148840
    40  H    5.784158   6.146749   1.070000   2.031203   2.377601
    41  H    4.060563   4.646316   2.105149   2.822592   3.583106
    42  H    4.196846   4.797463   2.798043   3.356081   4.231829
    43  H    2.641966   3.583534   4.152260   4.646812   5.600132
    44  H    2.053168   2.323126   4.502521   5.552977   6.376053
    45  H    2.480557   2.776832   3.846106   4.922841   5.619492
                   26         27         28         29         30
    26  C    0.000000
    27  O    1.434621   0.000000
    28  C    2.277035   1.435246   0.000000
    29  O    3.545922   2.310502   1.434533   0.000000
    30  H    4.122128   2.969158   1.974231   0.960000   0.000000
    31  H    8.454171   9.691134   9.952445  11.234092  11.862819
    32  H    6.862368   7.654654   7.367901   8.378606   8.970297
    33  H    7.037847   8.049215   7.799314   8.976960   9.477159
    34  H    6.064277   7.000141   7.172548   8.267888   9.002727
    35  H    6.657795   7.938086   8.121476   9.459078  10.016619
    36  H    5.957637   7.099521   7.695476   8.896012   9.648680
    37  H    4.525070   5.932245   6.428486   7.825430   8.363808
    38  H    3.689091   4.668931   5.147782   6.300633   7.072357
    39  H    2.104787   2.491900   3.772899   4.654038   5.115834
    40  H    2.104787   2.512094   3.868983   4.726722   5.446559
    41  H    1.070000   2.030329   2.452597   3.788501   4.140141
    42  H    2.144263   2.801272   3.300285   4.385920   5.189441
    43  H    2.746028   3.383387   2.785143   4.080452   4.417623
    44  H    3.253117   2.776047   2.128031   2.563335   3.340598
    45  H    2.524029   2.052332   1.070000   2.052102   2.110452
                   31         32         33         34         35
    31  H    0.000000
    32  H    4.517128   0.000000
    33  H    3.680272   1.732563   0.000000
    34  H    3.578324   2.382104   2.984315   0.000000
    35  H    2.096684   3.751222   2.633558   2.992225   0.000000
    36  H    3.373488   4.684408   4.643882   2.439142   2.968552
    37  H    4.488456   5.299830   4.600211   4.021212   2.763131
    38  H    5.299326   4.172121   4.575392   2.553100   4.002165
    39  H    9.552215   8.695029   8.755852   7.528036   7.870708
    40  H    8.722957   7.765022   8.073107   6.370547   7.244658
    41  H    8.633024   7.127954   7.087238   6.534760   6.708597
    42  H    7.159480   5.251527   5.790891   4.249238   5.630110
    43  H    7.724977   5.223820   5.276950   5.401626   5.772671
    44  H    9.152596   5.987778   6.827098   5.943279   7.556668
    45  H   10.120394   7.670827   7.891597   7.604794   8.182145
                   36         37         38         39         40
    36  H    0.000000
    37  H    2.987307   0.000000
    38  H    2.627664   3.032559   0.000000
    39  H    6.794571   5.321738   5.007987   0.000000
    40  H    5.686142   4.961225   3.824087   1.728236   0.000000
    41  H    6.431200   4.521062   4.315526   2.371809   2.970612
    42  H    4.529179   4.143854   1.951338   3.771570   2.657472
    43  H    6.189489   4.573423   3.959349   4.745017   4.699796
    44  H    6.970734   6.457124   4.358268   5.074896   4.419161
    45  H    8.070371   6.424495   5.630832   3.887993   4.374990
                   41         42         43         44         45
    41  H    0.000000
    42  H    2.997957   0.000000
    43  H    2.501780   2.997207   0.000000
    44  H    3.812818   2.711656   2.989000   0.000000
    45  H    2.217849   3.935078   2.633386   3.002298   0.000000
 Stoichiometry    C12H22O11
 Framework group  C1[X(C12H22O11)]
 Deg. of freedom   129
 Full point group                 C1      NOp   1
 Largest Abelian subgroup         C1      NOp   1
 Largest concise Abelian subgroup C1      NOp   1
                         Standard orientation:                         
 ---------------------------------------------------------------------
 Center     Atomic      Atomic             Coordinates (Angstroms)
 Number     Number       Type             X           Y           Z
 ---------------------------------------------------------------------
      1          8           0        5.035200   -0.119344   -0.311621
      2          6           0        3.698063   -0.080482    0.208259
      3          6           0        3.123301    1.274453   -0.171970
      4          8           0        3.985801    2.353458    0.218056
      5          1           0        4.961727    2.140068    0.187812
      6          6           0        1.698477    1.527595    0.291360
      7          8           0        1.182601    2.676485   -0.396455
      8          1           0        0.316936    3.035927   -0.048211
      9          6           0        3.199259   -2.593520    0.082058
     10          8           0        4.525903   -2.988598   -0.298032
     11          1           0        4.598423   -3.977391   -0.173701
     12          6           0        2.775433   -1.181395   -0.290130
     13          8           0        1.490828   -0.870108    0.266782
     14          6           0        0.845756    0.345710   -0.139863
     15          8           0       -0.345179    0.469166    0.651103
     16          6           0       -1.534237    0.229621   -0.115972
     17          6           0       -1.880396   -1.178096    0.339423
     18          8           0       -0.887924   -2.139879   -0.048030
     19          1           0        0.036651   -1.861505    0.213774
     20          6           0       -3.259280   -1.543479   -0.187218
     21          8           0       -3.862292   -2.687512    0.433591
     22          1           0       -4.747164   -2.895613    0.017491
     23          6           0       -2.447450    2.613705   -0.214531
     24          8           0       -1.266240    3.279625    0.256296
     25          1           0       -1.430478    4.260609    0.148023
     26          6           0       -2.688719    1.169238    0.192619
     27          8           0       -3.944656    0.839958   -0.417572
     28          6           0       -4.281170   -0.455700    0.100077
     29          8           0       -5.510620   -0.855738   -0.521460
     30          1           0       -6.163739   -1.047694    0.155436
     31          1           0        5.661114   -0.135891    0.416087
     32          1           0        2.509698   -3.274996   -0.370708
     33          1           0        3.116901   -2.693478    1.144191
     34          1           0        2.710919   -1.115639   -1.356157
     35          1           0        3.748615   -0.140176    1.275395
     36          1           0        3.092481    1.290739   -1.241402
     37          1           0        1.657273    1.664080    1.351819
     38          1           0        0.635201    0.361423   -1.188824
     39          1           0       -3.290285    3.184725    0.114807
     40          1           0       -2.429456    2.646698   -1.283871
     41          1           0       -2.833864    1.154323    1.252624
     42          1           0       -1.312092    0.238597   -1.162619
     43          1           0       -1.929351   -1.173020    1.408290
     44          1           0       -3.202072   -1.704213   -1.243528
     45          1           0       -4.429057   -0.383578    1.157351
 ---------------------------------------------------------------------
 Rotational constants (GHZ):      0.4216877      0.1452651      0.1104697
 Standard basis: 6-31+G(2df,p) (6D, 7F)
 There are   846 symmetry adapted basis functions of A   symmetry.
 Integral buffers will be    131072 words long.
 Raffenetti 2 integral format.
 Two-electron integral symmetry is turned on.
   846 basis functions,  1258 primitive gaussians,   915 cartesian basis functions
    91 alpha electrons       91 beta electrons
       nuclear repulsion energy      2296.0811351222 Hartrees.
 NAtoms=   45 NActive=   45 NUniq=   45 SFac= 1.00D+00 NAtFMM=   50 NAOKFM=F Big=F
 One-electron integrals computed using PRISM.
 NBasis=   846 RedAO= T  NBF=   846
 NBsUse=   846 1.00D-06 NBFU=   846
 Harris functional with IExCor=  402 diagonalized for initial guess.
 ExpMin= 4.38D-02 ExpMax= 5.48D+03 ExpMxC= 8.25D+02 IAcc=2 IRadAn=         0 AccDes= 0.00D+00
 HarFok:  IExCor=  402 AccDes= 0.00D+00 IRadAn=         0 IDoV= 1
 ScaDFX=  1.000000  1.000000  1.000000  1.000000
 FoFCou: FMM=F IPFlag=           0 FMFlag=      100000 FMFlg1=           0
         NFxFlg=           0 DoJE=T BraDBF=F KetDBF=T FulRan=T
         Omega=  0.000000  0.000000  1.000000  0.000000  0.000000 ICntrl=     500 IOpCl=  0
         NMat0=    1 NMatS0=    1 NMatT0=    0 NMatD0=    1 NMtDS0=    0 NMtDT0=    0
         I1Cent=           4 NGrid=           0.
 Petite list used in FoFCou.
 Initial guess orbital symmetries:
       Occupied  (A) (A) (A) (A) (A) (A) (A) (A) (A) (A) (A) (A)
                 (A) (A) (A) (A) (A) (A) (A) (A) (A) (A) (A) (A)
                 (A) (A) (A) (A) (A) (A) (A) (A) (A) (A) (A) (A)
                 (A) (A) (A) (A) (A) (A) (A) (A) (A) (A) (A) (A)
                 (A) (A) (A) (A) (A) (A) (A) (A) (A) (A) (A) (A)
                 (A) (A) (A) (A) (A) (A) (A) (A) (A) (A) (A) (A)
                 (A) (A) (A) (A) (A) (A) (A) (A) (A) (A) (A) (A)
                 (A) (A) (A) (A) (A) (A) (A)
       Virtual   (A) (A) (A) (A) (A) (A) (A) (A) (A) (A) (A) (A)
                 (A) (A) (A) (A) (A) (A) (A) (A) (A) (A) (A) (A)
                 (A) (A) (A) (A) (A) (A) (A) (A) (A) (A) (A) (A)
                 (A) (A) (A) (A) (A) (A) (A) (A) (A) (A) (A) (A)
                 (A) (A) (A) (A) (A) (A) (A) (A) (A) (A) (A) (A)
                 (A) (A) (A) (A) (A) (A) (A) (A) (A) (A) (A) (A)
                 (A) (A) (A) (A) (A) (A) (A) (A) (A) (A) (A) (A)
                 (A) (A) (A) (A) (A) (A) (A) (A) (A) (A) (A) (A)
                 (A) (A) (A) (A) (A) (A) (A) (A) (A) (A) (A) (A)
                 (A) (A) (A) (A) (A) (A) (A) (A) (A) (A) (A) (A)
                 (A) (A) (A) (A) (A) (A) (A) (A) (A) (A) (A) (A)
                 (A) (A) (A) (A) (A) (A) (A) (A) (A) (A) (A) (A)
                 (A) (A) (A) (A) (A) (A) (A) (A) (A) (A) (A) (A)
                 (A) (A) (A) (A) (A) (A) (A) (A) (A) (A) (A) (A)
                 (A) (A) (A) (A) (A) (A) (A) (A) (A) (A) (A) (A)
                 (A) (A) (A) (A) (A) (A) (A) (A) (A) (A) (A) (A)
                 (A) (A) (A) (A) (A) (A) (A) (A) (A) (A) (A) (A)
                 (A) (A) (A) (A) (A) (A) (A) (A) (A) (A) (A) (A)
                 (A) (A) (A) (A) (A) (A) (A) (A) (A) (A) (A) (A)
                 (A) (A) (A) (A) (A) (A) (A) (A) (A) (A) (A) (A)
                 (A) (A) (A) (A) (A) (A) (A) (A) (A) (A) (A) (A)
                 (A) (A) (A) (A) (A) (A) (A) (A) (A) (A) (A) (A)
                 (A) (A) (A) (A) (A) (A) (A) (A) (A) (A) (A) (A)
                 (A) (A) (A) (A) (A) (A) (A) (A) (A) (A) (A) (A)
                 (A) (A) (A) (A) (A) (A) (A) (A) (A) (A) (A) (A)
                 (A) (A) (A) (A) (A) (A) (A) (A) (A) (A) (A) (A)
                 (A) (A) (A) (A) (A) (A) (A) (A) (A) (A) (A) (A)
                 (A) (A) (A) (A) (A) (A) (A) (A) (A) (A) (A) (A)
                 (A) (A) (A) (A) (A) (A) (A) (A) (A) (A) (A) (A)
                 (A) (A) (A) (A) (A) (A) (A) (A) (A) (A) (A) (A)
                 (A) (A) (A) (A) (A) (A) (A) (A) (A) (A) (A) (A)
                 (A) (A) (A) (A) (A) (A) (A) (A) (A) (A) (A) (A)
                 (A) (A) (A) (A) (A) (A) (A) (A) (A) (A) (A) (A)
                 (A) (A) (A) (A) (A) (A) (A) (A) (A) (A) (A) (A)
                 (A) (A) (A) (A) (A) (A) (A) (A) (A) (A) (A) (A)
                 (A) (A) (A) (A) (A) (A) (A) (A) (A) (A) (A) (A)
                 (A) (A) (A) (A) (A) (A) (A) (A) (A) (A) (A) (A)
                 (A) (A) (A) (A) (A) (A) (A) (A) (A) (A) (A) (A)
                 (A) (A) (A) (A) (A) (A) (A) (A) (A) (A) (A) (A)
                 (A) (A) (A) (A) (A) (A) (A) (A) (A) (A) (A) (A)
                 (A) (A) (A) (A) (A) (A) (A) (A) (A) (A) (A) (A)
                 (A) (A) (A) (A) (A) (A) (A) (A) (A) (A) (A) (A)
                 (A) (A) (A) (A) (A) (A) (A) (A) (A) (A) (A) (A)
                 (A) (A) (A) (A) (A) (A) (A) (A) (A) (A) (A) (A)
                 (A) (A) (A) (A) (A) (A) (A) (A) (A) (A) (A) (A)
                 (A) (A) (A) (A) (A) (A) (A) (A) (A) (A) (A) (A)
                 (A) (A) (A) (A) (A) (A) (A) (A) (A) (A) (A) (A)
                 (A) (A) (A) (A) (A) (A) (A) (A) (A) (A) (A) (A)
                 (A) (A) (A) (A) (A) (A) (A) (A) (A) (A) (A) (A)
                 (A) (A) (A) (A) (A) (A) (A) (A) (A) (A) (A) (A)
                 (A) (A) (A) (A) (A) (A) (A) (A) (A) (A) (A) (A)
                 (A) (A) (A) (A) (A) (A) (A) (A) (A) (A) (A) (A)
                 (A) (A) (A) (A) (A) (A) (A) (A) (A) (A) (A) (A)
                 (A) (A) (A) (A) (A) (A) (A) (A) (A) (A) (A) (A)
                 (A) (A) (A) (A) (A) (A) (A) (A) (A) (A) (A) (A)
                 (A) (A) (A) (A) (A) (A) (A) (A) (A) (A) (A) (A)
                 (A) (A) (A) (A) (A) (A) (A) (A) (A) (A) (A) (A)
                 (A) (A) (A) (A) (A) (A) (A) (A) (A) (A) (A) (A)
                 (A) (A) (A) (A) (A) (A) (A) (A) (A) (A) (A) (A)
                 (A) (A) (A) (A) (A) (A) (A) (A) (A) (A) (A) (A)
                 (A) (A) (A) (A) (A) (A) (A) (A) (A) (A) (A) (A)
                 (A) (A) (A) (A) (A) (A) (A) (A) (A) (A) (A) (A)
                 (A) (A) (A) (A) (A) (A) (A) (A) (A) (A) (A)
 The electronic state of the initial guess is 1-A.
 Requested convergence on RMS density matrix=1.00D-08 within 128 cycles.
 Requested convergence on MAX density matrix=1.00D-06.
 Requested convergence on             energy=1.00D-06.
 No special actions if energy rises.
 SCF Done:  E(RB3LYP) =  -1298.01653194     A.U. after   13 cycles
             Convg  =    0.4472D-08             -V/T =  2.0065
 Range of M.O.s used for correlation:     1   846
 NBasis=   846 NAE=    91 NBE=    91 NFC=     0 NFV=     0
 NROrb=    846 NOA=    91 NOB=    91 NVA=   755 NVB=   755

 **** Warning!!: The largest alpha MO coefficient is  0.63369104D+02

          Differentiating once with respect to electric field.
                with respect to dipole field.
          Electric field/nuclear overlap derivatives assumed to be zero.
          There are     3 degrees of freedom in the 1st order CPHF.  IDoFFX=0.
      3 vectors produced by pass  0 Test12= 2.29D-12 3.33D-08 XBig12= 1.23D+02 1.21D+00.
 AX will form     3 AO Fock derivatives at one time.
      3 vectors produced by pass  1 Test12= 2.29D-12 3.33D-08 XBig12= 2.47D+01 4.53D-01.
      3 vectors produced by pass  2 Test12= 2.29D-12 3.33D-08 XBig12= 1.04D+01 2.16D-01.
      3 vectors produced by pass  3 Test12= 2.29D-12 3.33D-08 XBig12= 1.06D+00 8.24D-02.
      3 vectors produced by pass  4 Test12= 2.29D-12 3.33D-08 XBig12= 2.82D-01 4.31D-02.
      3 vectors produced by pass  5 Test12= 2.29D-12 3.33D-08 XBig12= 5.54D-02 1.75D-02.
      3 vectors produced by pass  6 Test12= 2.29D-12 3.33D-08 XBig12= 1.96D-02 1.41D-02.
      3 vectors produced by pass  7 Test12= 2.29D-12 3.33D-08 XBig12= 2.56D-03 8.06D-03.
      3 vectors produced by pass  8 Test12= 2.29D-12 3.33D-08 XBig12= 4.36D-04 2.35D-03.
      3 vectors produced by pass  9 Test12= 2.29D-12 3.33D-08 XBig12= 1.36D-04 1.36D-03.
      3 vectors produced by pass 10 Test12= 2.29D-12 3.33D-08 XBig12= 3.16D-05 5.72D-04.
      3 vectors produced by pass 11 Test12= 2.29D-12 3.33D-08 XBig12= 7.93D-06 3.63D-04.
      3 vectors produced by pass 12 Test12= 2.29D-12 3.33D-08 XBig12= 1.09D-06 9.42D-05.
      3 vectors produced by pass 13 Test12= 2.29D-12 3.33D-08 XBig12= 4.06D-07 3.94D-05.
      3 vectors produced by pass 14 Test12= 2.29D-12 3.33D-08 XBig12= 4.83D-08 1.58D-05.
      3 vectors produced by pass 15 Test12= 2.29D-12 3.33D-08 XBig12= 3.39D-09 5.88D-06.
      3 vectors produced by pass 16 Test12= 2.29D-12 3.33D-08 XBig12= 7.12D-10 2.94D-06.
      3 vectors produced by pass 17 Test12= 2.29D-12 3.33D-08 XBig12= 1.49D-10 9.86D-07.
      3 vectors produced by pass 18 Test12= 2.29D-12 3.33D-08 XBig12= 3.06D-11 3.50D-07.
      3 vectors produced by pass 19 Test12= 2.29D-12 3.33D-08 XBig12= 8.85D-12 2.26D-07.
      3 vectors produced by pass 20 Test12= 2.29D-12 3.33D-08 XBig12= 4.29D-12 1.95D-07.
      3 vectors produced by pass 21 Test12= 2.29D-12 3.33D-08 XBig12= 1.17D-12 6.71D-08.
 Inverted reduced A of dimension    66 with in-core refinement.
 End of Minotr Frequency-dependent properties file   721 does not exist.
 End of Minotr Frequency-dependent properties file   722 does not exist.
 Symmetrizing basis deriv contribution to polar:
 IMax=3 JMax=2 DiffMx= 0.00D+00
 G2DrvN: will do     8 centers at a time, making    6 passes doing MaxLOS=3.
 Calling FoFCou, ICntrl=  3107 FMM=F I1Cent=   0 AccDes= 0.00D+00.
 Calling FoFCou, ICntrl=  3107 FMM=F I1Cent=   0 AccDes= 0.00D+00.
 Calling FoFCou, ICntrl=  3107 FMM=F I1Cent=   0 AccDes= 0.00D+00.
 Calling FoFCou, ICntrl=  3107 FMM=F I1Cent=   0 AccDes= 0.00D+00.
 Calling FoFCou, ICntrl=  3107 FMM=F I1Cent=   0 AccDes= 0.00D+00.
 Calling FoFCou, ICntrl=  3107 FMM=F I1Cent=   0 AccDes= 0.00D+00.
 FoFDir/FoFCou used for L=0 through L=3.
 End of G2Drv Frequency-dependent properties file   721 does not exist.
 End of G2Drv Frequency-dependent properties file   722 does not exist.
          IDoAtm=111111111111111111111111111111111111111111111
          Differentiating once with respect to electric field.
                with respect to dipole field.
          Differentiating once with respect to nuclear coordinates.
          There are   138 degrees of freedom in the 1st order CPHF.  IDoFFX=5.
 Will reuse    3 saved solutions.
    135 vectors produced by pass  0 Test12= 6.87D-14 1.00D-09 XBig12= 1.54D-01 7.03D-02.
 AX will form    27 AO Fock derivatives at one time.
    135 vectors produced by pass  1 Test12= 6.87D-14 1.00D-09 XBig12= 2.32D-02 1.25D-02.
    132 vectors produced by pass  2 Test12= 6.87D-14 1.00D-09 XBig12= 1.52D-04 1.24D-03.
    132 vectors produced by pass  3 Test12= 6.87D-14 1.00D-09 XBig12= 8.51D-07 6.10D-05.
    132 vectors produced by pass  4 Test12= 6.87D-14 1.00D-09 XBig12= 2.24D-09 2.80D-06.
    132 vectors produced by pass  5 Test12= 6.87D-14 1.00D-09 XBig12= 5.89D-12 1.30D-07.
     98 vectors produced by pass  6 Test12= 6.87D-14 1.00D-09 XBig12= 2.43D-13 2.65D-08.
      1 vectors produced by pass  7 Test12= 6.87D-14 1.00D-09 XBig12= 4.51D-16 1.11D-09.
 Inverted reduced A of dimension   897 with in-core refinement.
 Isotropic polarizability for W=    0.000000      191.32 Bohr**3.
 End of Minotr Frequency-dependent properties file   721 does not exist.
 End of Minotr Frequency-dependent properties file   722 does not exist.

 **********************************************************************

            Population analysis using the SCF density.

 **********************************************************************

 Orbital symmetries:
       Occupied  (A) (A) (A) (A) (A) (A) (A) (A) (A) (A) (A) (A)
                 (A) (A) (A) (A) (A) (A) (A) (A) (A) (A) (A) (A)
                 (A) (A) (A) (A) (A) (A) (A) (A) (A) (A) (A) (A)
                 (A) (A) (A) (A) (A) (A) (A) (A) (A) (A) (A) (A)
                 (A) (A) (A) (A) (A) (A) (A) (A) (A) (A) (A) (A)
                 (A) (A) (A) (A) (A) (A) (A) (A) (A) (A) (A) (A)
                 (A) (A) (A) (A) (A) (A) (A) (A) (A) (A) (A) (A)
                 (A) (A) (A) (A) (A) (A) (A)
       Virtual   (A) (A) (A) (A) (A) (A) (A) (A) (A) (A) (A) (A)
                 (A) (A) (A) (A) (A) (A) (A) (A) (A) (A) (A) (A)
                 (A) (A) (A) (A) (A) (A) (A) (A) (A) (A) (A) (A)
                 (A) (A) (A) (A) (A) (A) (A) (A) (A) (A) (A) (A)
                 (A) (A) (A) (A) (A) (A) (A) (A) (A) (A) (A) (A)
                 (A) (A) (A) (A) (A) (A) (A) (A) (A) (A) (A) (A)
                 (A) (A) (A) (A) (A) (A) (A) (A) (A) (A) (A) (A)
                 (A) (A) (A) (A) (A) (A) (A) (A) (A) (A) (A) (A)
                 (A) (A) (A) (A) (A) (A) (A) (A) (A) (A) (A) (A)
                 (A) (A) (A) (A) (A) (A) (A) (A) (A) (A) (A) (A)
                 (A) (A) (A) (A) (A) (A) (A) (A) (A) (A) (A) (A)
                 (A) (A) (A) (A) (A) (A) (A) (A) (A) (A) (A) (A)
                 (A) (A) (A) (A) (A) (A) (A) (A) (A) (A) (A) (A)
                 (A) (A) (A) (A) (A) (A) (A) (A) (A) (A) (A) (A)
                 (A) (A) (A) (A) (A) (A) (A) (A) (A) (A) (A) (A)
                 (A) (A) (A) (A) (A) (A) (A) (A) (A) (A) (A) (A)
                 (A) (A) (A) (A) (A) (A) (A) (A) (A) (A) (A) (A)
                 (A) (A) (A) (A) (A) (A) (A) (A) (A) (A) (A) (A)
                 (A) (A) (A) (A) (A) (A) (A) (A) (A) (A) (A) (A)
                 (A) (A) (A) (A) (A) (A) (A) (A) (A) (A) (A) (A)
                 (A) (A) (A) (A) (A) (A) (A) (A) (A) (A) (A) (A)
                 (A) (A) (A) (A) (A) (A) (A) (A) (A) (A) (A) (A)
                 (A) (A) (A) (A) (A) (A) (A) (A) (A) (A) (A) (A)
                 (A) (A) (A) (A) (A) (A) (A) (A) (A) (A) (A) (A)
                 (A) (A) (A) (A) (A) (A) (A) (A) (A) (A) (A) (A)
                 (A) (A) (A) (A) (A) (A) (A) (A) (A) (A) (A) (A)
                 (A) (A) (A) (A) (A) (A) (A) (A) (A) (A) (A) (A)
                 (A) (A) (A) (A) (A) (A) (A) (A) (A) (A) (A) (A)
                 (A) (A) (A) (A) (A) (A) (A) (A) (A) (A) (A) (A)
                 (A) (A) (A) (A) (A) (A) (A) (A) (A) (A) (A) (A)
                 (A) (A) (A) (A) (A) (A) (A) (A) (A) (A) (A) (A)
                 (A) (A) (A) (A) (A) (A) (A) (A) (A) (A) (A) (A)
                 (A) (A) (A) (A) (A) (A) (A) (A) (A) (A) (A) (A)
                 (A) (A) (A) (A) (A) (A) (A) (A) (A) (A) (A) (A)
                 (A) (A) (A) (A) (A) (A) (A) (A) (A) (A) (A) (A)
                 (A) (A) (A) (A) (A) (A) (A) (A) (A) (A) (A) (A)
                 (A) (A) (A) (A) (A) (A) (A) (A) (A) (A) (A) (A)
                 (A) (A) (A) (A) (A) (A) (A) (A) (A) (A) (A) (A)
                 (A) (A) (A) (A) (A) (A) (A) (A) (A) (A) (A) (A)
                 (A) (A) (A) (A) (A) (A) (A) (A) (A) (A) (A) (A)
                 (A) (A) (A) (A) (A) (A) (A) (A) (A) (A) (A) (A)
                 (A) (A) (A) (A) (A) (A) (A) (A) (A) (A) (A) (A)
                 (A) (A) (A) (A) (A) (A) (A) (A) (A) (A) (A) (A)
                 (A) (A) (A) (A) (A) (A) (A) (A) (A) (A) (A) (A)
                 (A) (A) (A) (A) (A) (A) (A) (A) (A) (A) (A) (A)
                 (A) (A) (A) (A) (A) (A) (A) (A) (A) (A) (A) (A)
                 (A) (A) (A) (A) (A) (A) (A) (A) (A) (A) (A) (A)
                 (A) (A) (A) (A) (A) (A) (A) (A) (A) (A) (A) (A)
                 (A) (A) (A) (A) (A) (A) (A) (A) (A) (A) (A) (A)
                 (A) (A) (A) (A) (A) (A) (A) (A) (A) (A) (A) (A)
                 (A) (A) (A) (A) (A) (A) (A) (A) (A) (A) (A) (A)
                 (A) (A) (A) (A) (A) (A) (A) (A) (A) (A) (A) (A)
                 (A) (A) (A) (A) (A) (A) (A) (A) (A) (A) (A) (A)
                 (A) (A) (A) (A) (A) (A) (A) (A) (A) (A) (A) (A)
                 (A) (A) (A) (A) (A) (A) (A) (A) (A) (A) (A) (A)
                 (A) (A) (A) (A) (A) (A) (A) (A) (A) (A) (A) (A)
                 (A) (A) (A) (A) (A) (A) (A) (A) (A) (A) (A) (A)
                 (A) (A) (A) (A) (A) (A) (A) (A) (A) (A) (A) (A)
                 (A) (A) (A) (A) (A) (A) (A) (A) (A) (A) (A) (A)
                 (A) (A) (A) (A) (A) (A) (A) (A) (A) (A) (A) (A)
                 (A) (A) (A) (A) (A) (A) (A) (A) (A) (A) (A) (A)
                 (A) (A) (A) (A) (A) (A) (A) (A) (A) (A) (A) (A)
                 (A) (A) (A) (A) (A) (A) (A) (A) (A) (A) (A)
 The electronic state is 1-A.
 Alpha  occ. eigenvalues --  -19.19280 -19.18626 -19.18557 -19.18088 -19.17993
 Alpha  occ. eigenvalues --  -19.16455 -19.16302 -19.15448 -19.14165 -19.13412
 Alpha  occ. eigenvalues --  -19.12202 -10.30195 -10.30110 -10.26344 -10.25998
 Alpha  occ. eigenvalues --  -10.25472 -10.25381 -10.24674 -10.24439 -10.24320
 Alpha  occ. eigenvalues --  -10.24003 -10.23457 -10.23244  -1.10021  -1.09311
 Alpha  occ. eigenvalues --   -1.06067  -1.05061  -1.04139  -1.03919  -1.02778
 Alpha  occ. eigenvalues --   -1.01908  -1.00768  -0.99926  -0.98811  -0.82262
 Alpha  occ. eigenvalues --   -0.79848  -0.79059  -0.78105  -0.71855  -0.69683
 Alpha  occ. eigenvalues --   -0.66795  -0.65167  -0.63365  -0.62677  -0.61267
 Alpha  occ. eigenvalues --   -0.59971  -0.56343  -0.55697  -0.55175  -0.54445
 Alpha  occ. eigenvalues --   -0.53710  -0.53242  -0.52848  -0.52053  -0.51368
 Alpha  occ. eigenvalues --   -0.50870  -0.49639  -0.49312  -0.48746  -0.46596
 Alpha  occ. eigenvalues --   -0.45471  -0.45234  -0.44492  -0.43819  -0.43216
 Alpha  occ. eigenvalues --   -0.42380  -0.41430  -0.40935  -0.40410  -0.40084
 Alpha  occ. eigenvalues --   -0.38254  -0.37809  -0.37459  -0.36471  -0.35974
 Alpha  occ. eigenvalues --   -0.34907  -0.34502  -0.33485  -0.33315  -0.32954
 Alpha  occ. eigenvalues --   -0.32713  -0.31413  -0.30565  -0.30382  -0.29683
 Alpha  occ. eigenvalues --   -0.29206  -0.28562  -0.28217  -0.27170  -0.26628
 Alpha  occ. eigenvalues --   -0.25681
 Alpha virt. eigenvalues --   -0.02219  -0.01825  -0.01751  -0.00294   0.00506
 Alpha virt. eigenvalues --    0.01273   0.01943   0.02504   0.03419   0.03628
 Alpha virt. eigenvalues --    0.03911   0.04439   0.04971   0.05392   0.05608
 Alpha virt. eigenvalues --    0.06484   0.06643   0.07414   0.07700   0.08090
 Alpha virt. eigenvalues --    0.08416   0.08869   0.09197   0.09862   0.10115
 Alpha virt. eigenvalues --    0.10562   0.11022   0.11604   0.12075   0.12240
 Alpha virt. eigenvalues --    0.12597   0.13223   0.13435   0.13692   0.13762
 Alpha virt. eigenvalues --    0.14155   0.14623   0.14810   0.15032   0.15501
 Alpha virt. eigenvalues --    0.15966   0.16180   0.16687   0.17258   0.17294
 Alpha virt. eigenvalues --    0.17366   0.17715   0.17908   0.18135   0.18698
 Alpha virt. eigenvalues --    0.19008   0.19321   0.19566   0.19816   0.19957
 Alpha virt. eigenvalues --    0.20665   0.20830   0.21100   0.21538   0.21882
 Alpha virt. eigenvalues --    0.22185   0.22455   0.22604   0.23320   0.23608
 Alpha virt. eigenvalues --    0.23901   0.23964   0.24143   0.24413   0.24769
 Alpha virt. eigenvalues --    0.24938   0.25530   0.25711   0.25973   0.26260
 Alpha virt. eigenvalues --    0.26392   0.26798   0.27000   0.27421   0.27554
 Alpha virt. eigenvalues --    0.27925   0.28229   0.28354   0.28635   0.28778
 Alpha virt. eigenvalues --    0.29033   0.29438   0.30141   0.30586   0.30767
 Alpha virt. eigenvalues --    0.31210   0.31393   0.31918   0.32162   0.32324
 Alpha virt. eigenvalues --    0.32714   0.33132   0.33654   0.34025   0.34184
 Alpha virt. eigenvalues --    0.34363   0.34526   0.34864   0.35010   0.35584
 Alpha virt. eigenvalues --    0.36231   0.36497   0.36926   0.37425   0.37764
 Alpha virt. eigenvalues --    0.37910   0.38246   0.38607   0.38870   0.39472
 Alpha virt. eigenvalues --    0.40161   0.40259   0.40439   0.40975   0.41439
 Alpha virt. eigenvalues --    0.42377   0.42580   0.42960   0.43230   0.43815
 Alpha virt. eigenvalues --    0.44048   0.44750   0.45506   0.46263   0.47081
 Alpha virt. eigenvalues --    0.47292   0.47836   0.48577   0.48790   0.49798
 Alpha virt. eigenvalues --    0.50650   0.51616   0.53185   0.57382   0.57930
 Alpha virt. eigenvalues --    0.58729   0.59448   0.59594   0.60989   0.61859
 Alpha virt. eigenvalues --    0.63115   0.63670   0.64763   0.65690   0.66195
 Alpha virt. eigenvalues --    0.66865   0.67700   0.68083   0.68505   0.69899
 Alpha virt. eigenvalues --    0.70360   0.71397   0.71650   0.72098   0.73017
 Alpha virt. eigenvalues --    0.74218   0.74841   0.75616   0.76165   0.76538
 Alpha virt. eigenvalues --    0.77621   0.78363   0.79319   0.79696   0.81104
 Alpha virt. eigenvalues --    0.81962   0.82148   0.82939   0.83542   0.84262
 Alpha virt. eigenvalues --    0.85683   0.86974   0.88077   0.88533   0.89124
 Alpha virt. eigenvalues --    0.89282   0.89689   0.90026   0.91145   0.91524
 Alpha virt. eigenvalues --    0.91881   0.92525   0.92894   0.92937   0.93696
 Alpha virt. eigenvalues --    0.94089   0.94533   0.95189   0.95485   0.95888
 Alpha virt. eigenvalues --    0.96034   0.96864   0.97651   0.98227   0.98587
 Alpha virt. eigenvalues --    0.98962   0.99489   1.00390   1.01213   1.02116
 Alpha virt. eigenvalues --    1.03164   1.03517   1.03916   1.05033   1.05962
 Alpha virt. eigenvalues --    1.06511   1.06994   1.08018   1.08126   1.08759
 Alpha virt. eigenvalues --    1.09032   1.09662   1.10106   1.11041   1.11254
 Alpha virt. eigenvalues --    1.11927   1.12551   1.13179   1.13959   1.14301
 Alpha virt. eigenvalues --    1.15090   1.15249   1.15764   1.16124   1.17036
 Alpha virt. eigenvalues --    1.17463   1.17516   1.18113   1.18253   1.19281
 Alpha virt. eigenvalues --    1.19445   1.20208   1.21018   1.21292   1.21647
 Alpha virt. eigenvalues --    1.22381   1.22809   1.23270   1.24184   1.24868
 Alpha virt. eigenvalues --    1.25514   1.26281   1.26457   1.27071   1.27244
 Alpha virt. eigenvalues --    1.28221   1.28954   1.29307   1.30293   1.30725
 Alpha virt. eigenvalues --    1.32270   1.32426   1.32551   1.33809   1.34316
 Alpha virt. eigenvalues --    1.34916   1.35041   1.36559   1.36744   1.37224
 Alpha virt. eigenvalues --    1.37578   1.37950   1.38948   1.39601   1.40775
 Alpha virt. eigenvalues --    1.41267   1.41666   1.42338   1.43164   1.43781
 Alpha virt. eigenvalues --    1.44456   1.44730   1.45471   1.46144   1.46819
 Alpha virt. eigenvalues --    1.48239   1.48356   1.49598   1.50510   1.50672
 Alpha virt. eigenvalues --    1.52246   1.52656   1.54660   1.55022   1.55810
 Alpha virt. eigenvalues --    1.56715   1.57170   1.58033   1.59532   1.59962
 Alpha virt. eigenvalues --    1.60717   1.62070   1.62660   1.64028   1.64259
 Alpha virt. eigenvalues --    1.64595   1.64757   1.65934   1.66433   1.66784
 Alpha virt. eigenvalues --    1.67739   1.69314   1.69431   1.70830   1.71664
 Alpha virt. eigenvalues --    1.72566   1.73525   1.73932   1.74572   1.76104
 Alpha virt. eigenvalues --    1.77011   1.77696   1.78991   1.80193   1.81329
 Alpha virt. eigenvalues --    1.81527   1.82958   1.83173   1.83771   1.85458
 Alpha virt. eigenvalues --    1.86794   1.88093   1.88204   1.89257   1.90649
 Alpha virt. eigenvalues --    1.91265   1.92473   1.92821   1.94379   1.95486
 Alpha virt. eigenvalues --    1.96800   1.97092   1.97944   1.98742   2.00048
 Alpha virt. eigenvalues --    2.01894   2.02387   2.03937   2.04743   2.05966
 Alpha virt. eigenvalues --    2.07136   2.07600   2.08254   2.10367   2.12499
 Alpha virt. eigenvalues --    2.14121   2.15941   2.16934   2.17649   2.18167
 Alpha virt. eigenvalues --    2.19745   2.21019   2.22956   2.24664   2.26509
 Alpha virt. eigenvalues --    2.27667   2.28795   2.29510   2.31534   2.32482
 Alpha virt. eigenvalues --    2.33692   2.35962   2.38781   2.39414   2.42884
 Alpha virt. eigenvalues --    2.43315   2.46372   2.48118   2.50177   2.50513
 Alpha virt. eigenvalues --    2.51289   2.52855   2.53385   2.54458   2.54895
 Alpha virt. eigenvalues --    2.55869   2.57517   2.58582   2.59125   2.60802
 Alpha virt. eigenvalues --    2.61075   2.63155   2.63665   2.64461   2.65219
 Alpha virt. eigenvalues --    2.66320   2.67893   2.68793   2.73086   2.73297
 Alpha virt. eigenvalues --    2.74434   2.75097   2.76472   2.78154   2.79652
 Alpha virt. eigenvalues --    2.80283   2.81936   2.82659   2.84454   2.85211
 Alpha virt. eigenvalues --    2.85782   2.87067   2.87228   2.88717   2.89153
 Alpha virt. eigenvalues --    2.90153   2.91625   2.92822   2.92890   2.94131
 Alpha virt. eigenvalues --    2.94540   2.94903   2.95956   2.97524   2.97660
 Alpha virt. eigenvalues --    2.98856   3.00716   3.01032   3.02348   3.03660
 Alpha virt. eigenvalues --    3.04158   3.04348   3.05581   3.06182   3.07852
 Alpha virt. eigenvalues --    3.08601   3.09442   3.10460   3.11729   3.12192
 Alpha virt. eigenvalues --    3.14067   3.15035   3.15572   3.16867   3.17653
 Alpha virt. eigenvalues --    3.18881   3.19908   3.21881   3.22482   3.23582
 Alpha virt. eigenvalues --    3.24714   3.26600   3.27028   3.27145   3.28136
 Alpha virt. eigenvalues --    3.28848   3.30125   3.30900   3.32244   3.34343
 Alpha virt. eigenvalues --    3.35316   3.36204   3.37692   3.39797   3.40115
 Alpha virt. eigenvalues --    3.41212   3.42223   3.43685   3.43941   3.45437
 Alpha virt. eigenvalues --    3.46612   3.47180   3.48365   3.49649   3.50391
 Alpha virt. eigenvalues --    3.55451   3.56967   3.57906   3.58633   3.59157
 Alpha virt. eigenvalues --    3.62300   3.63021   3.66248   3.66705   3.67410
 Alpha virt. eigenvalues --    3.67797   3.70239   3.73170   3.74156   3.74962
 Alpha virt. eigenvalues --    3.76412   3.76857   3.78444   3.79214   3.80494
 Alpha virt. eigenvalues --    3.81281   3.82761   3.83252   3.84418   3.85333
 Alpha virt. eigenvalues --    3.85838   3.86800   3.87551   3.88993   3.90803
 Alpha virt. eigenvalues --    3.92865   3.95862   3.97298   3.99035   4.02750
 Alpha virt. eigenvalues --    4.05612   4.07518   4.08422   4.09394   4.16209
 Alpha virt. eigenvalues --    4.17236   4.18009   4.18518   4.20050   4.20830
 Alpha virt. eigenvalues --    4.22170   4.22536   4.23592   4.24318   4.25532
 Alpha virt. eigenvalues --    4.26791   4.27853   4.29154   4.29734   4.30638
 Alpha virt. eigenvalues --    4.31463   4.31762   4.32718   4.34675   4.35084
 Alpha virt. eigenvalues --    4.36397   4.36860   4.37444   4.38687   4.39793
 Alpha virt. eigenvalues --    4.40371   4.41488   4.42550   4.42826   4.44472
 Alpha virt. eigenvalues --    4.45112   4.46226   4.46843   4.47977   4.48340
 Alpha virt. eigenvalues --    4.48976   4.49515   4.50309   4.50847   4.51512
 Alpha virt. eigenvalues --    4.53423   4.53829   4.54595   4.54718   4.55588
 Alpha virt. eigenvalues --    4.55884   4.57005   4.57215   4.57933   4.59148
 Alpha virt. eigenvalues --    4.59923   4.60394   4.61135   4.61405   4.61806
 Alpha virt. eigenvalues --    4.62770   4.63779   4.64394   4.65048   4.65305
 Alpha virt. eigenvalues --    4.66338   4.66953   4.68396   4.68708   4.69237
 Alpha virt. eigenvalues --    4.69817   4.70745   4.71636   4.72143   4.72477
 Alpha virt. eigenvalues --    4.73247   4.74020   4.74125   4.75022   4.76158
 Alpha virt. eigenvalues --    4.76945   4.77253   4.78837   4.79225   4.80134
 Alpha virt. eigenvalues --    4.80406   4.81099   4.81589   4.81969   4.83201
 Alpha virt. eigenvalues --    4.84734   4.85049   4.85321   4.85845   4.86740
 Alpha virt. eigenvalues --    4.87116   4.87717   4.89053   4.89545   4.90146
 Alpha virt. eigenvalues --    4.90615   4.93081   4.94287   4.94898   4.94970
 Alpha virt. eigenvalues --    4.97479   4.97814   4.98052   4.99408   5.02755
 Alpha virt. eigenvalues --    5.03967   5.04938   5.06077   5.07469   5.09340
 Alpha virt. eigenvalues --    5.12704   5.13658   5.15460   5.17142   5.18313
 Alpha virt. eigenvalues --    5.19081   5.20839   5.21655   5.22385   5.23220
 Alpha virt. eigenvalues --    5.23616   5.24603   5.26923   5.27687   5.28055
 Alpha virt. eigenvalues --    5.29469   5.30130   5.31956   5.32717   5.34071
 Alpha virt. eigenvalues --    5.35621   5.36099   5.37375   5.39093   5.39545
 Alpha virt. eigenvalues --    5.40125   5.40843   5.41215   5.42452   5.42916
 Alpha virt. eigenvalues --    5.44803   5.45325   5.46583   5.47112   5.47521
 Alpha virt. eigenvalues --    5.48954   5.49999   5.51842   5.52488   5.53508
 Alpha virt. eigenvalues --    5.54362   5.55141   5.55874   5.58353   5.58759
 Alpha virt. eigenvalues --    5.59655   5.60645   5.62955   5.65070   5.66461
 Alpha virt. eigenvalues --    5.67610   5.69542   5.70264   5.73478   5.75815
 Alpha virt. eigenvalues --    5.77435   5.79338   5.80823   5.82638   5.84248
 Alpha virt. eigenvalues --    5.86514   5.87801   5.89433   5.89629   5.90093
 Alpha virt. eigenvalues --    5.90751   5.92308   5.93046   5.94271   5.95395
 Alpha virt. eigenvalues --    5.96250   5.96978   5.97265   5.99090   5.99777
 Alpha virt. eigenvalues --    6.02754   6.04247   6.05941   6.06233   6.07000
 Alpha virt. eigenvalues --    6.08231   6.09596   6.10826   6.11412   6.13184
 Alpha virt. eigenvalues --    6.14275   6.17054   6.18620   6.19360   6.21959
 Alpha virt. eigenvalues --    6.23889   6.26366   6.28541   6.31272   6.38940
 Alpha virt. eigenvalues --    6.57096   6.64091   6.99291   7.02937   7.10012
 Alpha virt. eigenvalues --    7.14792   7.20029   7.22918   7.25389   7.27034
 Alpha virt. eigenvalues --    7.32378   7.36924   7.49456   7.58811   7.68713
 Alpha virt. eigenvalues --    7.85187   8.24758  12.03132  12.16118  12.22223
 Alpha virt. eigenvalues --   12.27701  12.49009  12.56485  12.83541  12.90725
 Alpha virt. eigenvalues --   12.99380  13.05303  13.22220  13.36179  13.45343
 Alpha virt. eigenvalues --   13.51894  13.53077  13.56386  13.57394  13.63590
 Alpha virt. eigenvalues --   13.72229  13.82351  13.87553  14.20429  14.30664
          Condensed to atoms (all electrons):
              1          2          3          4          5          6
     1  O    8.082896   0.336985  -0.145790  -0.021151   0.023974   0.060057
     2  C    0.336985   7.589721  -0.620656   0.059140  -0.038484  -1.743535
     3  C   -0.145790  -0.620656   7.497312   0.205803  -0.028265   0.177753
     4  O   -0.021151   0.059140   0.205803   8.117573   0.240519  -0.144862
     5  H    0.023974  -0.038484  -0.028265   0.240519   0.417148   0.022029
     6  C    0.060057  -1.743535   0.177753  -0.144862   0.022029   9.076351
     7  O    0.000050   0.040127  -0.128954   0.004994  -0.000271   0.242751
     8  H    0.000019  -0.007353   0.015305  -0.000438   0.000015   0.020881
     9  C   -0.030494  -0.200580  -0.277484   0.008810  -0.000337   0.163882
    10  O   -0.023322   0.001150   0.021321  -0.000225   0.000027  -0.006337
    11  H    0.001149  -0.007227  -0.002572   0.000003   0.000000   0.000321
    12  C   -0.075104  -0.555177  -0.507297   0.010440   0.018569   0.407023
    13  O    0.003377  -0.101996  -0.026065  -0.001698  -0.000045   0.037095
    14  C   -0.025829   0.795162  -0.037602   0.019314   0.000656  -2.141581
    15  O   -0.000004   0.003316  -0.009467   0.000678   0.000005  -0.065717
    16  C    0.001432   0.085212  -0.100212  -0.003331   0.000463  -0.158438
    17  C   -0.000085  -0.023616  -0.007963   0.000926   0.000018  -0.051861
    18  O    0.000031   0.009862   0.000407  -0.000010   0.000000  -0.007851
    19  H   -0.000029  -0.001673   0.002259   0.000008   0.000000   0.002214
    20  C    0.000064   0.005236  -0.012065  -0.000071   0.000001   0.077230
    21  O    0.000000   0.000018  -0.000023   0.000000   0.000000   0.000070
    22  H    0.000000   0.000000   0.000001   0.000000   0.000000  -0.000031
    23  C   -0.000071   0.009701   0.015454   0.000141  -0.000004  -0.068724
    24  O   -0.000004   0.001290  -0.006489  -0.000100  -0.000003  -0.013299
    25  H    0.000000  -0.000024   0.000889   0.000002   0.000000   0.003582
    26  C    0.000064  -0.006813  -0.042893   0.000092   0.000015   0.027000
    27  O    0.000000  -0.000014   0.000189   0.000000   0.000000   0.002240
    28  C    0.000005  -0.000900  -0.001453   0.000005   0.000000  -0.008737
    29  O    0.000000   0.000007   0.000036   0.000000   0.000000  -0.000309
    30  H    0.000000   0.000000   0.000000   0.000000   0.000000   0.000006
    31  H    0.274859   0.031408  -0.040315   0.000814  -0.002778  -0.003586
    32  H   -0.000664  -0.016342   0.003335   0.000006   0.000000  -0.004165
    33  H    0.001580  -0.005489  -0.003519   0.000003   0.000000   0.011426
    34  H    0.004240   0.073929  -0.055601   0.000642  -0.000003  -0.015859
    35  H   -0.011753   0.371781  -0.091642   0.003413  -0.000190  -0.018894
    36  H   -0.001201   0.068530   0.253400  -0.019692  -0.000337  -0.255276
    37  H   -0.000236   0.033235  -0.102114   0.006143  -0.000152   0.316779
    38  H    0.000155  -0.012108  -0.036262   0.000070   0.000003   0.059490
    39  H    0.000000  -0.000006  -0.000004   0.000000   0.000000   0.000155
    40  H    0.000000   0.000099   0.000524   0.000000   0.000000  -0.003708
    41  H    0.000000  -0.000021   0.001382   0.000000   0.000000  -0.003611
    42  H   -0.000002  -0.002572   0.005901   0.000007   0.000000   0.006831
    43  H    0.000000  -0.000202   0.001310  -0.000001   0.000000   0.008980
    44  H    0.000000   0.000074   0.000060   0.000000   0.000000   0.001318
    45  H    0.000000   0.000009   0.000012   0.000000   0.000000   0.000087
              7          8          9         10         11         12
     1  O    0.000050   0.000019  -0.030494  -0.023322   0.001149  -0.075104
     2  C    0.040127  -0.007353  -0.200580   0.001150  -0.007227  -0.555177
     3  C   -0.128954   0.015305  -0.277484   0.021321  -0.002572  -0.507297
     4  O    0.004994  -0.000438   0.008810  -0.000225   0.000003   0.010440
     5  H   -0.000271   0.000015  -0.000337   0.000027   0.000000   0.018569
     6  C    0.242751   0.020881   0.163882  -0.006337   0.000321   0.407023
     7  O    8.130554   0.271098   0.001230  -0.000005   0.000000  -0.000995
     8  H    0.271098   0.329868   0.000031   0.000000   0.000000   0.000189
     9  C    0.001230   0.000031   6.834083   0.052849  -0.008570  -0.618542
    10  O   -0.000005   0.000000   0.052849   8.131636   0.232275   0.068661
    11  H    0.000000   0.000000  -0.008570   0.232275   0.432701   0.018366
    12  C   -0.000995   0.000189  -0.618542   0.068661   0.018366   8.228734
    13  O    0.004076  -0.000660  -0.043860   0.002051  -0.000476   0.094623
    14  C   -0.054471  -0.058839  -0.505019   0.017018  -0.003287  -0.820699
    15  O    0.012318   0.003460  -0.002570   0.000069   0.000000  -0.007637
    16  C    0.046411   0.012353  -0.163668  -0.000161  -0.000106  -0.103181
    17  C   -0.004190   0.002379   0.052306   0.000082   0.000030  -0.064187
    18  O    0.000125  -0.000040  -0.007892  -0.000110   0.000003  -0.002701
    19  H   -0.000137   0.000001   0.004662   0.000014  -0.000001  -0.007824
    20  C    0.003904   0.000398   0.001144   0.000015   0.000000  -0.020507
    21  O    0.000000   0.000000   0.000132   0.000000   0.000000   0.000061
    22  H    0.000000   0.000000  -0.000002   0.000000   0.000000   0.000011
    23  C    0.025842   0.002241  -0.000837   0.000003   0.000000  -0.003679
    24  O   -0.048222  -0.019731  -0.000017   0.000000   0.000000   0.003389
    25  H    0.002695  -0.001008  -0.000013   0.000000   0.000000  -0.000402
    26  C   -0.022654  -0.008052   0.000943   0.000017  -0.000001   0.004820
    27  O   -0.000109  -0.000026   0.000027   0.000000   0.000000  -0.000123
    28  C   -0.000897  -0.000159  -0.001368  -0.000003   0.000000   0.000647
    29  O   -0.000002   0.000000  -0.000012   0.000000   0.000000   0.000024
    30  H    0.000000   0.000000   0.000000   0.000000   0.000000   0.000000
    31  H   -0.000017   0.000000   0.000115  -0.000543  -0.000030  -0.002797
    32  H   -0.000006   0.000000   0.390549  -0.023143  -0.008401  -0.016054
    33  H    0.000006   0.000000   0.573374  -0.046761  -0.002317  -0.210856
    34  H    0.000180   0.000002   0.032324   0.000591  -0.000226   0.104952
    35  H    0.000936   0.000003  -0.032534  -0.001261  -0.000020  -0.047499
    36  H    0.011569  -0.000162   0.013923  -0.000126   0.000000   0.049477
    37  H   -0.016610  -0.006215   0.011446   0.000013   0.000000   0.050545
    38  H   -0.002167  -0.000332   0.013686   0.000039   0.000000   0.046588
    39  H   -0.000646   0.000188   0.000001   0.000000   0.000000   0.000084
    40  H    0.000816   0.000091   0.000008   0.000000   0.000000  -0.000066
    41  H   -0.000176  -0.000017   0.000058   0.000000   0.000000   0.000755
    42  H   -0.003135  -0.000009   0.000152   0.000001   0.000000   0.004356
    43  H   -0.000030   0.000000  -0.000385   0.000000   0.000000  -0.001224
    44  H    0.000006   0.000000  -0.000127   0.000000   0.000000  -0.000034
    45  H    0.000002   0.000000  -0.000006   0.000000   0.000000   0.000005
             13         14         15         16         17         18
     1  O    0.003377  -0.025829  -0.000004   0.001432  -0.000085   0.000031
     2  C   -0.101996   0.795162   0.003316   0.085212  -0.023616   0.009862
     3  C   -0.026065  -0.037602  -0.009467  -0.100212  -0.007963   0.000407
     4  O   -0.001698   0.019314   0.000678  -0.003331   0.000926  -0.000010
     5  H   -0.000045   0.000656   0.000005   0.000463   0.000018   0.000000
     6  C    0.037095  -2.141581  -0.065717  -0.158438  -0.051861  -0.007851
     7  O    0.004076  -0.054471   0.012318   0.046411  -0.004190   0.000125
     8  H   -0.000660  -0.058839   0.003460   0.012353   0.002379  -0.000040
     9  C   -0.043860  -0.505019  -0.002570  -0.163668   0.052306  -0.007892
    10  O    0.002051   0.017018   0.000069  -0.000161   0.000082  -0.000110
    11  H   -0.000476  -0.003287   0.000000  -0.000106   0.000030   0.000003
    12  C    0.094623  -0.820699  -0.007637  -0.103181  -0.064187  -0.002701
    13  O    7.912906   0.221782   0.002268   0.005575   0.020321  -0.027822
    14  C    0.221782   9.701756   0.216363  -1.288938   0.273080   0.010623
    15  O    0.002268   0.216363   7.737064   0.299746  -0.086205  -0.008422
    16  C    0.005575  -1.288938   0.299746  10.654924  -1.685250   0.004656
    17  C    0.020321   0.273080  -0.086205  -1.685250   7.815366   0.221448
    18  O   -0.027822   0.010623  -0.008422   0.004656   0.221448   8.131433
    19  H    0.031690  -0.016233   0.011151  -0.041894   0.018212   0.237938
    20  C   -0.011212  -0.391158   0.030155  -1.049136  -0.347029  -0.076675
    21  O   -0.000066   0.002246   0.000143   0.076403  -0.096601   0.008395
    22  H    0.000001  -0.000456  -0.000019  -0.015967   0.035203  -0.000654
    23  C    0.000449  -0.056115  -0.000761   0.009267  -0.260085   0.011956
    24  O    0.000885   0.104420  -0.016638  -0.025209   0.002645   0.000134
    25  H   -0.000021  -0.014542   0.001700  -0.005480  -0.001560   0.000000
    26  C   -0.004295  -0.450774  -0.072994  -2.034216  -0.003849   0.025713
    27  O    0.000108   0.010133   0.001117   0.047422  -0.015148  -0.001090
    28  C    0.001086   0.029800  -0.006084   1.007451  -0.003168  -0.007043
    29  O    0.000021  -0.001676  -0.000107  -0.018985  -0.017595   0.000512
    30  H    0.000000   0.000189   0.000003   0.003711   0.007864  -0.000019
    31  H   -0.000729   0.004628  -0.000001   0.000275  -0.000029  -0.000001
    32  H   -0.002686   0.001468  -0.000143   0.002723   0.000510  -0.000128
    33  H   -0.003703  -0.004571  -0.000306  -0.005474   0.002652  -0.000244
    34  H   -0.026973   0.123782  -0.000823   0.001301   0.005759  -0.000574
    35  H    0.002723   0.085027   0.000015  -0.004089   0.001872   0.000030
    36  H    0.003920   0.111251   0.001354  -0.011816   0.003174   0.000088
    37  H    0.007294  -0.010306  -0.008932  -0.025575   0.004988   0.000221
    38  H   -0.023680   0.188491  -0.026292   0.016849  -0.001520  -0.002688
    39  H    0.000012   0.012035   0.000833   0.013645   0.007765   0.000003
    40  H   -0.000020  -0.005354   0.000499   0.061424  -0.002194   0.000057
    41  H   -0.000157   0.055230  -0.002466   0.034425  -0.019135   0.000314
    42  H    0.000574   0.014575  -0.033247   0.128317   0.038174  -0.003677
    43  H   -0.001149   0.021512  -0.006330  -0.063670   0.319681  -0.022530
    44  H    0.000119  -0.009587   0.001103   0.092191  -0.152922   0.007377
    45  H    0.000030  -0.001837   0.000820   0.014534  -0.012488   0.000572
             19         20         21         22         23         24
     1  O   -0.000029   0.000064   0.000000   0.000000  -0.000071  -0.000004
     2  C   -0.001673   0.005236   0.000018   0.000000   0.009701   0.001290
     3  C    0.002259  -0.012065  -0.000023   0.000001   0.015454  -0.006489
     4  O    0.000008  -0.000071   0.000000   0.000000   0.000141  -0.000100
     5  H    0.000000   0.000001   0.000000   0.000000  -0.000004  -0.000003
     6  C    0.002214   0.077230   0.000070  -0.000031  -0.068724  -0.013299
     7  O   -0.000137   0.003904   0.000000   0.000000   0.025842  -0.048222
     8  H    0.000001   0.000398   0.000000   0.000000   0.002241  -0.019731
     9  C    0.004662   0.001144   0.000132  -0.000002  -0.000837  -0.000017
    10  O    0.000014   0.000015   0.000000   0.000000   0.000003   0.000000
    11  H   -0.000001   0.000000   0.000000   0.000000   0.000000   0.000000
    12  C   -0.007824  -0.020507   0.000061   0.000011  -0.003679   0.003389
    13  O    0.031690  -0.011212  -0.000066   0.000001   0.000449   0.000885
    14  C   -0.016233  -0.391158   0.002246  -0.000456  -0.056115   0.104420
    15  O    0.011151   0.030155   0.000143  -0.000019  -0.000761  -0.016638
    16  C   -0.041894  -1.049136   0.076403  -0.015967   0.009267  -0.025209
    17  C    0.018212  -0.347029  -0.096601   0.035203  -0.260085   0.002645
    18  O    0.237938  -0.076675   0.008395  -0.000654   0.011956   0.000134
    19  H    0.340682   0.008826  -0.000338   0.000011  -0.003365  -0.000022
    20  C    0.008826   7.761174   0.118330  -0.020476   0.126976  -0.005465
    21  O   -0.000338   0.118330   8.107318   0.250845  -0.000552   0.000016
    22  H    0.000011  -0.020476   0.250845   0.409690  -0.000164   0.000000
    23  C   -0.003365   0.126976  -0.000552  -0.000164   6.511584   0.028175
    24  O   -0.000022  -0.005465   0.000016   0.000000   0.028175   8.256884
    25  H    0.000000   0.000974   0.000000   0.000000  -0.027287   0.246697
    26  C   -0.001232   0.956887  -0.050028   0.009638  -0.680901   0.040332
    27  O    0.000050  -0.121108   0.003233  -0.000504  -0.099324   0.004297
    28  C    0.003076  -1.126078   0.072561  -0.026647  -0.230041   0.006715
    29  O    0.000004  -0.051631  -0.011709   0.015822   0.014590   0.000050
    30  H    0.000000  -0.029610  -0.002555  -0.002643  -0.001051  -0.000001
    31  H    0.000000   0.000000   0.000000   0.000000   0.000002   0.000000
    32  H    0.000652  -0.000399   0.000001   0.000000  -0.000008   0.000000
    33  H   -0.000010   0.000170   0.000000   0.000000  -0.000020   0.000000
    34  H   -0.000006   0.000593  -0.000001   0.000000  -0.000064  -0.000003
    35  H   -0.000030  -0.000012   0.000000   0.000000   0.000000   0.000009
    36  H    0.000000  -0.000085   0.000000   0.000000   0.000253   0.000112
    37  H   -0.000030   0.000675   0.000000   0.000000   0.002261   0.001394
    38  H    0.000014   0.019356   0.000009   0.000000   0.004162   0.000151
    39  H    0.000000  -0.005342   0.000000   0.000000   0.373349  -0.021262
    40  H    0.000000   0.000475   0.000002   0.000000   0.589464  -0.052792
    41  H    0.000018  -0.043570   0.000359   0.000004   0.077997   0.002234
    42  H    0.000344   0.034720  -0.000332   0.000008   0.004903   0.000792
    43  H   -0.003364  -0.021195  -0.000622  -0.000185   0.017203  -0.000060
    44  H   -0.000163   0.285762  -0.015530  -0.005697   0.007563   0.000010
    45  H    0.000001  -0.101406  -0.000031   0.000094   0.000803   0.000087
             25         26         27         28         29         30
     1  O    0.000000   0.000064   0.000000   0.000005   0.000000   0.000000
     2  C   -0.000024  -0.006813  -0.000014  -0.000900   0.000007   0.000000
     3  C    0.000889  -0.042893   0.000189  -0.001453   0.000036   0.000000
     4  O    0.000002   0.000092   0.000000   0.000005   0.000000   0.000000
     5  H    0.000000   0.000015   0.000000   0.000000   0.000000   0.000000
     6  C    0.003582   0.027000   0.002240  -0.008737  -0.000309   0.000006
     7  O    0.002695  -0.022654  -0.000109  -0.000897  -0.000002   0.000000
     8  H   -0.001008  -0.008052  -0.000026  -0.000159   0.000000   0.000000
     9  C   -0.000013   0.000943   0.000027  -0.001368  -0.000012   0.000000
    10  O    0.000000   0.000017   0.000000  -0.000003   0.000000   0.000000
    11  H    0.000000  -0.000001   0.000000   0.000000   0.000000   0.000000
    12  C   -0.000402   0.004820  -0.000123   0.000647   0.000024   0.000000
    13  O   -0.000021  -0.004295   0.000108   0.001086   0.000021   0.000000
    14  C   -0.014542  -0.450774   0.010133   0.029800  -0.001676   0.000189
    15  O    0.001700  -0.072994   0.001117  -0.006084  -0.000107   0.000003
    16  C   -0.005480  -2.034216   0.047422   1.007451  -0.018985   0.003711
    17  C   -0.001560  -0.003849  -0.015148  -0.003168  -0.017595   0.007864
    18  O    0.000000   0.025713  -0.001090  -0.007043   0.000512  -0.000019
    19  H    0.000000  -0.001232   0.000050   0.003076   0.000004   0.000000
    20  C    0.000974   0.956887  -0.121108  -1.126078  -0.051631  -0.029610
    21  O    0.000000  -0.050028   0.003233   0.072561  -0.011709  -0.002555
    22  H    0.000000   0.009638  -0.000504  -0.026647   0.015822  -0.002643
    23  C   -0.027287  -0.680901  -0.099324  -0.230041   0.014590  -0.001051
    24  O    0.246697   0.040332   0.004297   0.006715   0.000050  -0.000001
    25  H    0.405298   0.033059  -0.000787  -0.001540  -0.000002   0.000000
    26  C    0.033059   9.496269   0.170892  -1.081864  -0.021468  -0.001476
    27  O   -0.000787   0.170892   7.893610   0.257120  -0.021032   0.001907
    28  C   -0.001540  -1.081864   0.257120   6.380489   0.295504   0.004002
    29  O   -0.000002  -0.021468  -0.021032   0.295504   8.074302   0.271917
    30  H    0.000000  -0.001476   0.001907   0.004002   0.271917   0.401629
    31  H    0.000000  -0.000001   0.000000   0.000000   0.000000   0.000000
    32  H    0.000000   0.000237   0.000000   0.000015   0.000000   0.000000
    33  H    0.000000  -0.000071   0.000000  -0.000009   0.000000   0.000000
    34  H    0.000000  -0.000262   0.000000  -0.000010   0.000000   0.000000
    35  H    0.000000  -0.000255   0.000000  -0.000002   0.000000   0.000000
    36  H    0.000000  -0.001145   0.000000  -0.000009   0.000000   0.000000
    37  H   -0.000005  -0.005485   0.000001  -0.000087   0.000000   0.000000
    38  H    0.000011   0.027213   0.000236  -0.001704  -0.000003   0.000000
    39  H   -0.010165  -0.046208  -0.002420   0.006814  -0.000004  -0.000001
    40  H   -0.001013  -0.280246  -0.000819   0.000072  -0.000040   0.000000
    41  H   -0.000211   0.117722  -0.036559   0.053033   0.000575   0.000007
    42  H   -0.000022   0.061546   0.001349  -0.008328  -0.000191   0.000002
    43  H    0.000000   0.034331   0.001056  -0.034684   0.000195   0.000018
    44  H    0.000000  -0.005547   0.002313   0.047234   0.001578  -0.000059
    45  H    0.000000   0.008883  -0.043196   0.419928  -0.018812  -0.009660
             31         32         33         34         35         36
     1  O    0.274859  -0.000664   0.001580   0.004240  -0.011753  -0.001201
     2  C    0.031408  -0.016342  -0.005489   0.073929   0.371781   0.068530
     3  C   -0.040315   0.003335  -0.003519  -0.055601  -0.091642   0.253400
     4  O    0.000814   0.000006   0.000003   0.000642   0.003413  -0.019692
     5  H   -0.002778   0.000000   0.000000  -0.000003  -0.000190  -0.000337
     6  C   -0.003586  -0.004165   0.011426  -0.015859  -0.018894  -0.255276
     7  O   -0.000017  -0.000006   0.000006   0.000180   0.000936   0.011569
     8  H    0.000000   0.000000   0.000000   0.000002   0.000003  -0.000162
     9  C    0.000115   0.390549   0.573374   0.032324  -0.032534   0.013923
    10  O   -0.000543  -0.023143  -0.046761   0.000591  -0.001261  -0.000126
    11  H   -0.000030  -0.008401  -0.002317  -0.000226  -0.000020   0.000000
    12  C   -0.002797  -0.016054  -0.210856   0.104952  -0.047499   0.049477
    13  O   -0.000729  -0.002686  -0.003703  -0.026973   0.002723   0.003920
    14  C    0.004628   0.001468  -0.004571   0.123782   0.085027   0.111251
    15  O   -0.000001  -0.000143  -0.000306  -0.000823   0.000015   0.001354
    16  C    0.000275   0.002723  -0.005474   0.001301  -0.004089  -0.011816
    17  C   -0.000029   0.000510   0.002652   0.005759   0.001872   0.003174
    18  O   -0.000001  -0.000128  -0.000244  -0.000574   0.000030   0.000088
    19  H    0.000000   0.000652  -0.000010  -0.000006  -0.000030   0.000000
    20  C    0.000000  -0.000399   0.000170   0.000593  -0.000012  -0.000085
    21  O    0.000000   0.000001   0.000000  -0.000001   0.000000   0.000000
    22  H    0.000000   0.000000   0.000000   0.000000   0.000000   0.000000
    23  C    0.000002  -0.000008  -0.000020  -0.000064   0.000000   0.000253
    24  O    0.000000   0.000000   0.000000  -0.000003   0.000009   0.000112
    25  H    0.000000   0.000000   0.000000   0.000000   0.000000   0.000000
    26  C   -0.000001   0.000237  -0.000071  -0.000262  -0.000255  -0.001145
    27  O    0.000000   0.000000   0.000000   0.000000   0.000000   0.000000
    28  C    0.000000   0.000015  -0.000009  -0.000010  -0.000002  -0.000009
    29  O    0.000000   0.000000   0.000000   0.000000   0.000000   0.000000
    30  H    0.000000   0.000000   0.000000   0.000000   0.000000   0.000000
    31  H    0.401729   0.000010  -0.000089  -0.000232  -0.013370  -0.000006
    32  H    0.000010   0.574562  -0.049256  -0.006851  -0.000010   0.000005
    33  H   -0.000089  -0.049256   0.584405   0.006350   0.002750  -0.000004
    34  H   -0.000232  -0.006851   0.006350   0.619438   0.006321   0.002680
    35  H   -0.013370  -0.000010   0.002750   0.006321   0.613427   0.006640
    36  H   -0.000006   0.000005  -0.000004   0.002680   0.006640   0.631614
    37  H    0.000018   0.000000  -0.000011  -0.000074   0.001914   0.006869
    38  H    0.000001  -0.000015  -0.000009   0.002688  -0.000038   0.001923
    39  H    0.000000   0.000000   0.000000   0.000000   0.000000   0.000000
    40  H    0.000000   0.000000   0.000000   0.000000   0.000000   0.000000
    41  H    0.000000   0.000000   0.000000   0.000000   0.000000   0.000000
    42  H    0.000000   0.000000   0.000000  -0.000007   0.000000  -0.000004
    43  H    0.000000   0.000000   0.000000  -0.000001   0.000000   0.000000
    44  H    0.000000   0.000000   0.000000   0.000000   0.000000   0.000000
    45  H    0.000000   0.000000   0.000000   0.000000   0.000000   0.000000
             37         38         39         40         41         42
     1  O   -0.000236   0.000155   0.000000   0.000000   0.000000  -0.000002
[...]
 0.00003755,0.00007481,0.00004911,0.00038045,0.00005274,0.00004187,-0.0
 0042163,-0.00049344,-0.00590966,-0.01939864,-0.00051158,0.00883996,-0.
 34358899,0.00260505,-0.05172864,-0.00971617,0.00061281,-0.00337706,0.0
 0202265,-0.00087796,0.00061784,-0.00032058,0.00008143,0.00012095,-0.00
 082277,0.00001778,0.00062822,0.00042068,0.00001611,-0.00008187,-0.0000
 3880,0.00005367,-0.00008788,0.00049228,0.00035612,0.00020035,0.0001006
 9,-0.00005943,-0.00001033,0.00002037,-0.00003522,0.00000790,-0.0081334
 4,0.00035104,-0.00159061,0.00134359,0.00049670,-0.00104711,-0.00014057
 ,-0.00022580,-0.00005437,0.00005903,0.00003014,-0.00007650,-0.00000112
 ,-0.00000826,0.00000196,-0.00000185,-0.00000131,-0.00000158,0.00000116
 ,0.00000898,-0.00000288,0.00001003,-0.00000169,-0.00000605,0.00002695,
 0.00001189,0.00002750,0.00000971,-0.00000314,-0.00001278,0.00001966,0.
 00000094,0.00002886,0.00008112,0.00023163,-0.00032798,0.00183804,0.000
 09152,0.00009185,0.00024077,0.00005319,-0.00001157,0.00035271,-0.00086
 969,-0.00008092,0.00053153,-0.00062386,-0.00051350,0.37304595,-0.00000
 067,-0.00003208,0.00002473,0.00000106,0.00005253,-0.00002337,0.0000562
 1,0.00005736,-0.00000216,-0.00000062,-0.00003379,-0.00003052,-0.000004
 28,0.00001373,-0.00000734,-0.00024882,0.00013159,-0.00009169,0.0001857
 7,-0.00011922,-0.00024832,-0.00021337,-0.00023013,0.00018544,0.0000173
 5,-0.00002076,-0.00001693,-0.00000730,0.00001929,0.00003164,0.00000577
 ,-0.00000363,-0.00000327,-0.00002612,0.00001040,-0.00006667,0.00017072
 ,-0.00003804,0.00030294,-0.00015556,0.00162756,-0.00145628,-0.00836582
 ,0.00082024,0.00110298,0.00376303,-0.04421821,-0.00030430,0.03320790,-
 0.00190461,0.00736784,-0.00225896,0.00409545,0.00023678,0.00030388,-0.
 00029010,-0.00039473,0.00092496,0.00092728,-0.00140981,-0.00042277,-0.
 00024734,0.00022940,-0.00009764,-0.00008447,0.00006594,-0.00118115,0.0
 0181635,0.00069507,0.00014079,-0.00008099,-0.00006300,-0.00000232,-0.0
 0005267,0.00004062,-0.02615844,-0.00042857,-0.00606253,0.00158977,0.00
 115432,0.00091931,0.00018038,-0.00071543,0.00006512,0.00002311,0.00014
 518,0.00005939,-0.00001640,-0.00000088,0.00001037,0.00000172,0.0000019
 0,-0.00000142,0.00000092,-0.00001680,0.00000050,-0.00000791,-0.0000001
 8,0.00000510,-0.00001145,0.00001348,-0.00000905,-0.00000034,-0.0000082
 3,0.00000254,0.00000113,0.00000771,0.00001212,0.00006926,-0.00002915,-
 0.00001177,0.00005252,0.00049081,0.00002840,0.00037036,0.00028935,0.00
 003697,0.00077588,-0.00013734,0.00001129,-0.00141308,-0.00274503,-0.00
 343130,-0.00221300,0.04500441,-0.00000786,-0.00001254,-0.00002755,-0.0
 0000125,0.00001524,0.00002122,0.00002752,0.00005230,0.00003920,-0.0000
 2620,-0.00000121,-0.00002474,-0.00000315,0.00000387,-0.00000418,0.0004
 8543,0.00004806,-0.00039111,-0.00026093,0.00001751,0.00010139,0.000077
 80,-0.00004350,-0.00010887,-0.00003251,0.00003097,-0.00002347,-0.00000
 089,-0.00002566,-0.00000615,0.00000090,-0.00000019,-0.00000480,0.00002
 472,-0.00007948,-0.00009159,-0.00094905,-0.00037796,-0.00027363,0.0091
 8347,0.00084776,0.00091281,0.03293720,0.00112484,-0.01261905,-0.061924
 83,0.00046199,-0.05091323,-0.01175665,-0.00134394,-0.00108102,0.001475
 12,-0.00064605,0.00061559,0.00025337,0.00010403,-0.00006378,-0.0007413
 0,-0.00039667,0.00045272,0.00029180,0.00007144,0.00000581,0.00002005,-
 0.00002153,-0.00002424,-0.00006918,0.00122554,0.00064751,0.00011814,-0
 .00015169,0.00007045,-0.00002716,0.00000999,0.00005170,-0.02405830,-0.
 00101772,-0.00333638,0.00141307,0.00074459,0.00177761,-0.00040101,0.00
 017523,-0.00002400,0.00007425,0.00003049,-0.00018336,0.00001470,-0.000
 00714,0.00001108,-0.00000048,0.00000285,0.00000353,-0.00000299,-0.0000
 0912,-0.00000018,-0.00000148,0.00000778,0.00000330,-0.00003237,-0.0000
 2653,-0.00006716,-0.00000856,0.00000662,0.00001512,-0.00006002,-0.0000
 0673,-0.00005617,-0.00030468,-0.00002978,-0.00004586,-0.00067055,0.000
 07153,-0.00230862,0.00018980,0.00017787,-0.00001263,0.00059104,-0.0004
 5639,0.00008172,-0.00093590,-0.00298592,-0.00305355,0.05492893,0.00029
 482,0.07030234,0.00000880,0.00003835,-0.00004288,-0.00002471,-0.000048
 51,0.00002333,-0.00002691,-0.00007571,0.00001032,0.00001787,0.00004942
 ,0.00001462,-0.00000580,-0.00001814,0.00000842,0.00009119,0.00001626,0
 .00008003,0.00005422,0.00010140,0.00004667,-0.00005589,-0.00002038,-0.
 00007756,-0.00003352,-0.00003853,0.00011352,0.00001122,-0.00000553,-0.
 00009121,-0.00001277,0.00001109,0.00002116,0.00000654,0.00006144,0.000
 09989,-0.00002525,0.00067057,-0.00038702,0.00013765,-0.00097573,-0.000
 51073,0.00253017,-0.00157570,0.00179351,-0.01352368,0.00189726,0.00164
 560,-0.35161708,0.00830122,0.01097552,-0.00935951,-0.01061654,-0.01082
 713,0.00004072,-0.00086857,0.00120127,-0.01264175,0.00146073,0.0023145
 4,0.00161417,-0.00014054,-0.00032216,0.00022408,0.00002374,-0.00010185
 ,0.00047597,0.00028680,0.00019503,0.00003299,-0.00006464,0.00006316,-0
 .00000925,-0.00000177,-0.00000628,-0.00087029,-0.00053396,-0.00074102,
 0.00066516,0.00006460,-0.00009348,-0.00126820,-0.00087735,-0.00052355,
 0.00054594,0.00009390,0.00011663,-0.00003304,0.00001291,0.00014052,-0.
 00000683,-0.00000374,0.00000321,0.00002570,0.00005283,-0.00000472,0.00
 000722,0.00000110,-0.00000605,0.00001401,-0.00001668,0.00001604,0.0000
 0674,0.00000317,-0.00000942,0.00000952,-0.00000078,0.00000130,0.000002
 18,0.00002685,-0.00004290,0.00014070,0.00000546,0.00033483,-0.00001637
 ,0.00014208,-0.00000449,0.00009018,-0.00025726,-0.00000234,0.00099347,
 0.00040526,0.00051467,0.00022840,0.00148672,-0.00025369,0.38044610,0.0
 0000011,0.00002974,-0.00006391,-0.00002091,-0.00004692,0.00003946,0.00
 001652,-0.00000142,-0.00000633,-0.00000407,0.00004361,-0.00003492,0.00
 000172,-0.00000796,0.00000062,-0.00008015,-0.00013374,-0.00013438,-0.0
 0007542,0.00009237,0.00015812,0.00004216,0.00000464,-0.00010549,-0.000
 04986,-0.00001607,0.00010506,0.00001331,-0.00002555,-0.00008637,-0.000
 01311,0.00001148,0.00001394,0.00006048,0.00008571,0.00012806,-0.000004
 46,0.00047073,-0.00040058,0.00043262,-0.00012223,-0.00001792,-0.000161
 43,0.00218603,-0.00240979,0.03325138,-0.00593648,0.00086295,0.00682316
 ,-0.03754514,0.00373421,-0.03130936,-0.01078149,-0.01328787,-0.0004754
 8,0.00007754,0.00157550,-0.00949279,0.00146098,0.00259366,-0.00006144,
 0.00058380,-0.00136204,0.00010690,0.00006289,-0.00017732,-0.00013191,-
 0.00003050,-0.00002647,-0.00003504,-0.00001607,0.00006705,-0.00000187,
 0.00001828,-0.00001366,0.00151416,0.00221835,0.00075918,-0.00024602,-0
 .00028756,-0.00035442,0.00040416,-0.00047388,-0.00015953,0.00013016,-0
 .00008378,0.00023394,0.00000908,0.00009547,0.00007039,-0.00000605,0.00
 000160,0.00000441,0.00001209,0.00005070,0.00000058,0.00001672,0.000008
 90,-0.00001701,0.00000375,-0.00002712,0.00000454,0.00000125,0.00000611
 ,-0.00000480,-0.00000323,-0.00000099,-0.00000633,-0.00002180,-0.000017
 38,0.00003488,-0.00028410,-0.00002648,0.00000527,-0.00008104,-0.000096
 95,0.00002407,-0.00018998,0.00013204,-0.00000477,-0.00069534,-0.000320
 92,-0.00038002,0.00091487,-0.00507773,0.00199350,0.00034954,0.05315446
 ,0.00001124,0.00001439,-0.00002272,-0.00003248,-0.00001650,0.00001306,
 0.00000365,-0.00002683,0.00000751,0.00001379,0.00001934,-0.00000709,-0
 .00000349,-0.00000527,0.00000415,-0.00008319,0.00000742,0.00003547,0.0
 0005458,0.00001441,-0.00003480,-0.00002901,-0.00000159,0.00002266,-0.0
 0006452,-0.00003848,0.00007457,0.00002885,0.00000236,-0.00004684,-0.00
 001356,0.00000375,0.00001296,-0.00000129,0.00003202,0.00004998,0.00029
 067,0.00030548,-0.00031988,-0.00062012,-0.00011108,-0.00047773,-0.0013
 3680,-0.00009549,0.00082719,-0.01058779,0.00467561,0.00007232,0.013999
 52,0.00285675,-0.03996173,-0.02806927,-0.01393412,-0.00787730,-0.00125
 952,-0.00008107,0.00126005,0.03519211,-0.00008547,-0.00404681,-0.00176
 457,-0.00092124,0.00259459,-0.00011330,-0.00031781,0.00037020,0.000079
 08,0.00007733,0.00010446,0.00001266,-0.00001872,-0.00000592,0.00000139
 ,-0.00001351,0.00000483,0.00049607,-0.00049657,-0.00056753,-0.00018443
 ,-0.00036927,-0.00002879,0.00143158,0.00107560,0.00148662,-0.00061978,
 0.00005753,-0.00022982,-0.00005924,-0.00013655,-0.00011743,-0.00000559
 ,-0.00000067,-0.00000120,0.00001369,0.00004159,-0.00000067,0.00002436,
 0.00000026,-0.00002158,0.00002668,-0.00001131,0.00002866,0.00001111,0.
 00000210,-0.00001517,0.00001207,0.00000083,0.00000830,0.00002728,0.000
 03422,-0.00002732,0.00021027,-0.00001377,-0.00007085,0.00002070,0.0000
 8581,-0.00000626,0.00001756,-0.00005421,-0.00002456,0.00017356,-0.0001
 8180,0.00022385,-0.00050141,0.00151089,-0.00041531,-0.00774613,0.00540
 639,0.05323582,0.00000369,-0.00000022,-0.00001143,-0.00000465,-0.00000
 215,0.00000777,-0.00001497,-0.00001861,0.00001361,0.00001074,0.0000075
 8,-0.00000663,-0.00000346,-0.00000185,0.00000274,0.00002148,0.00001482
 ,0.00003285,0.00002347,0.00000091,-0.00001603,-0.00001252,-0.00000113,
 0.00000804,-0.00001545,0.00000176,0.00001082,0.00001315,-0.00000406,-0
 .00000833,-0.00000750,0.00000130,0.00000255,-0.00001604,0.00001250,0.0
 0001350,0.00001757,0.00001749,-0.00007074,-0.00010469,-0.00007201,0.00
 004160,0.00053860,-0.00019717,0.00025879,-0.00080769,0.00068926,-0.000
 02456,-0.01161528,-0.00398312,0.00064521,0.00160094,0.00056592,-0.0006
 6046,0.00023957,0.00004941,-0.00001664,-0.34483234,-0.05473993,0.00782
 904,-0.01600132,0.00949289,-0.00776716,0.00032110,0.00064119,0.0005826
 8,-0.00004249,-0.00000377,-0.00001944,0.00003984,0.00002937,-0.0000280
 3,-0.00001198,-0.00000465,-0.00000321,-0.00019085,-0.00011468,-0.00007
 365,0.00166937,-0.00101078,0.00041034,-0.00929688,-0.00141054,0.000646
 49,0.00152351,-0.00000864,0.00016983,0.00033852,0.00034396,0.00036388,
 -0.00000234,0.00000131,0.00000166,-0.00000367,0.00000513,-0.00000097,0
 .00000880,0.00000047,-0.00000534,0.00000886,-0.00000445,0.00000406,0.0
 0000460,0.00000083,-0.00000417,0.00000691,0.00000006,0.00000024,0.0000
 0469,0.00000749,-0.00000973,0.00002969,-0.00001037,0.00004014,0.000013
 15,-0.00000942,0.00001420,0.00003281,-0.00004562,0.00000656,0.00008477
 ,0.00013321,0.00000305,0.00059392,-0.00043713,0.00019801,0.00040297,-0
 .00078103,0.00141636,0.37501021,0.00000254,-0.00000535,0.00001591,0.00
 000254,0.00000622,-0.00001037,-0.00000585,0.00000926,-0.00000595,0.000
 00196,-0.00001058,0.00000689,-0.00000083,0.00000330,-0.00000188,-0.000
 00612,0.00001077,-0.00001012,0.00001635,-0.00001299,-0.00000135,-0.000
 01057,-0.00000199,-0.00001017,0.00000505,0.00000314,-0.00002215,-0.000
 00009,0.00000581,0.00002164,0.00000290,-0.00000267,-0.00000480,-0.0000
 1317,-0.00001099,-0.00002571,0.00002133,-0.00006347,0.00006728,-0.0000
 1851,0.00009192,-0.00002149,0.00014008,0.00002721,-0.00008147,-0.00061
 569,0.00007349,-0.00030220,-0.00578091,0.00071650,-0.00005672,0.000909
 26,0.00031384,0.00039626,0.00000204,-0.00003795,-0.00008948,-0.0573800
 9,-0.04924236,-0.00146562,0.03858261,-0.00723033,0.00862180,0.00032211
 ,0.00128952,-0.00108898,-0.00006167,0.00003469,-0.00004513,0.00002354,
 -0.00002089,-0.00000434,-0.00000676,0.00000375,0.00000298,-0.00019051,
 -0.00016157,0.00014465,0.00162574,0.00215153,0.00066882,-0.03038387,-0
 .00607986,-0.00031081,0.00200442,0.00160252,0.00203881,0.00014013,-0.0
 0004631,0.00044209,0.00000098,0.00000019,-0.00000219,-0.00000276,-0.00
 000806,0.00000113,-0.00000028,-0.00000260,0.00000144,0.00000262,0.0000
 0349,0.00000152,0.00000112,-0.00000125,-0.00000018,0.00000062,0.000000
 87,0.00000103,0.00000228,0.00000077,-0.00000345,0.00001394,0.00000194,
 0.00001843,0.00000594,-0.00002401,-0.00000046,0.00003672,-0.00005744,0
 .00001889,0.00016145,0.00014667,-0.00007539,0.00007119,-0.00001753,0.0
 0015876,0.00010698,0.00017225,0.00107840,0.05117179,0.05968307,-0.0000
 0557,-0.00001159,-0.00000648,0.00000535,0.00001426,0.00000675,0.000017
 56,0.00002324,0.00001150,-0.00000484,-0.00000514,-0.00002365,0.0000013
 1,0.00000532,-0.00000279,-0.00002272,-0.00003679,-0.00003289,-0.000018
 14,0.00000370,-0.00001032,0.00000725,-0.00001588,0.00000258,0.00001289
 ,0.00002108,-0.00002308,-0.00001060,-0.00001163,0.00001019,0.00000534,
 -0.00000011,-0.00000644,0.00002759,-0.00001091,0.00001566,-0.00000949,
 -0.00022058,0.00007787,0.00012192,0.00030501,0.00025041,-0.00076861,0.
 00015897,-0.00058106,0.00055942,-0.00095609,0.00084019,0.03465416,0.00
 635398,-0.00253881,-0.00174731,0.00011058,0.00339829,-0.00016104,0.000
 19463,0.00004000,0.01049096,-0.00094091,-0.04318691,-0.01800611,0.0071
 8446,-0.00211340,-0.00126567,-0.00013624,0.00078467,0.00005504,0.00000
 339,0.00006182,-0.00001231,-0.00000633,0.00000705,-0.00000481,-0.00000
 224,0.00000536,0.00020177,0.00013562,-0.00044383,0.00139545,0.00079529
 ,0.00066284,-0.02233943,-0.00690892,-0.00109086,0.00073279,0.00073331,
 0.00234900,-0.00005805,0.00022633,0.00042982,0.00000070,0.00000237,0.0
 0000151,-0.00000389,-0.00001246,0.00000210,-0.00000532,0.00000018,0.00
 000448,-0.00001121,0.00000545,-0.00001053,-0.00000324,-0.00000130,0.00
 000406,-0.00000391,0.00000085,-0.00000216,-0.00000288,-0.00001023,0.00
 001261,-0.00004002,0.00000360,-0.00006058,-0.00001002,0.00003030,0.000
 00321,-0.00001135,0.00001234,0.00000280,-0.00008963,-0.00003964,-0.000
 15575,-0.00033973,0.00035913,-0.00007289,0.00145199,0.00137429,-0.0056
 9103,-0.00357020,-0.00651217,0.04957517,0.00000214,-0.00000353,-0.0000
 1791,-0.00000795,0.00000382,0.00001189,-0.00000173,-0.00000494,0.00001
 645,0.00000981,0.00000724,-0.00002171,-0.00000356,0.00000027,0.0000015
 2,-0.00003361,0.00000754,0.00000473,0.00001687,-0.00001499,-0.00005195
 ,-0.00000328,0.00000824,0.00005806,-0.00001213,0.00000836,0.00000548,0
 .00000750,-0.00000896,-0.00000890,-0.00000466,0.00000148,0.00000117,0.
 00000432,0.00000523,0.00002441,0.00001350,-0.00003257,-0.00007240,0.00
 003938,0.00005445,0.00007626,0.00004308,-0.00000101,-0.00029896,-0.000
 02552,0.00020545,-0.00001506,-0.00066024,-0.00026282,0.00083082,0.0004
 7182,-0.00000404,-0.00007054,-0.00001460,-0.00002497,-0.00004235,-0.01
 116602,0.00009367,-0.00258694,0.00291809,0.00097685,0.00158784,-0.0003
 0975,0.00000882,0.00007435,0.00087827,-0.00015646,-0.00010387,0.000018
 89,0.00027619,-0.00017997,-0.00001050,-0.00000041,-0.00003576,-0.00019
 829,-0.00119815,0.00207509,-0.01246083,0.01310453,-0.00521824,-0.34823
 135,-0.03381207,-0.02903777,-0.01069328,-0.00419605,0.00699181,0.00095
 998,0.00005939,0.00086231,-0.00000297,0.00000164,0.00000220,-0.0000011
 7,0.00000167,-0.00000083,0.00000503,-0.00000023,-0.00000271,0.00000290
 ,-0.00000178,-0.00000107,0.00000391,-0.00000033,-0.00000298,0.00000471
 ,0.00000061,0.00000079,0.00000475,-0.00000147,-0.00000359,0.00000613,-
 0.00000295,0.00000549,-0.00004089,-0.00001469,-0.00000159,0.00013670,-
 0.00039106,0.00014115,0.00105395,0.00037813,-0.00111739,0.00005298,-0.
 00008608,0.00022568,0.00070697,0.00012173,-0.00047334,0.00042119,-0.00
 090054,-0.00121539,0.37609944,0.00000377,0.00001337,0.00000814,-0.0000
 0288,-0.00001597,-0.00000330,-0.00000451,0.00000323,-0.00000938,-0.000
 00148,0.00000743,0.00001123,0.00000036,-0.00000244,-0.00000111,0.00002
 394,-0.00005570,-0.00002357,0.00000219,0.00007661,0.00009942,-0.000026
 83,-0.00004001,-0.00014538,-0.00000459,-0.00001411,0.00001344,0.000004
 84,0.00000807,-0.00000647,-0.00000357,-0.00000015,0.00000347,-0.000007
 11,0.00001267,0.00000376,0.00000525,0.00012772,-0.00001161,-0.00008779
 ,-0.00007601,-0.00009242,0.00009111,0.00036979,0.00019145,-0.00050881,
 -0.00070309,0.00011755,-0.00085873,0.00020145,0.00135472,0.00042304,-0
 .00002010,-0.00045101,0.00009384,-0.00010306,0.00008799,-0.02395070,-0
 .00311562,-0.00553324,0.00002953,0.00264843,-0.00022817,-0.00043930,-0
 .00014774,0.00007893,0.00035730,0.00013825,-0.00020127,-0.00024490,-0.
 00022622,0.00028572,0.00000946,0.00003618,0.00001783,0.00469692,0.0008
 2807,-0.00445660,0.03786539,-0.01448759,0.01313129,-0.03281210,-0.0426
 3717,-0.00496796,-0.00809348,0.00207082,0.00471817,-0.00095712,0.00053
 282,-0.00030553,-0.00000030,-0.00000241,-0.00000189,0.00000335,0.00000
 778,-0.00000115,0.00000108,0.00000082,-0.00000046,0.00000225,-0.000003
 13,0.00000175,0.00000028,0.00000097,-0.00000049,0.00000065,-0.00000140
 ,0.00000063,-0.00000324,0.00000562,-0.00000351,0.00000628,-0.00000475,
 0.00000197,0.00002706,-0.00001713,-0.00001388,-0.00029263,-0.00001786,
 0.00007701,-0.00127523,0.00017401,0.00021241,-0.00001045,-0.00014603,-
 0.00003785,0.00047037,0.00010868,-0.00037115,-0.00032734,-0.00331455,-
 0.00221848,0.02579480,0.05777944,-0.00000095,0.00000087,-0.00002088,-0
 .00000496,-0.00000072,0.00001417,0.00000232,-0.00000668,0.00001605,0.0
 0000349,0.00001112,-0.00001985,-0.00000130,-0.00000124,0.00000162,-0.0
 0001448,-0.00001049,-0.00000195,0.00000692,0.00000620,-0.00002091,-0.0
 0000395,0.00000021,0.00002359,-0.00000615,0.00000670,0.00001488,0.0000
 0103,-0.00001010,-0.00001719,-0.00000188,0.00000262,0.00000288,0.00001
 099,0.00001186,0.00003128,-0.00000415,0.00000739,-0.00008054,0.0000416
 8,0.00000249,0.00005847,0.00007493,0.00007795,-0.00025887,0.00015342,-
 0.00029977,-0.00016219,-0.00135155,0.00038595,0.00164743,0.00049905,-0
 .00003955,-0.00020168,0.00006101,0.00000081,0.00006387,-0.02510682,-0.
 00442235,-0.00100663,0.00183327,0.00229771,0.00112971,0.00029609,-0.00
 030433,-0.00017300,-0.00016868,0.00005324,0.00004061,0.00009327,0.0000
 8092,-0.00011656,-0.00001364,-0.00001278,-0.00000526,-0.00337133,0.000
 68548,0.00230759,-0.00787181,0.00656471,-0.00077324,-0.03602000,-0.008
 91828,-0.04797440,0.03949075,0.00868014,-0.01525857,0.00272861,-0.0002
 4627,0.00293642,-0.00000197,0.00000091,0.00000265,0.00000127,0.0000044
 0,-0.00000079,0.00000164,-0.00000024,-0.00000168,0.00000020,-0.0000019
 0,-0.00000097,0.00000157,0.00000025,-0.00000221,0.00000239,-0.00000011
 ,0.00000082,0.00000169,0.00000042,-0.00000315,0.00000368,-0.00000442,0
 .00000945,0.00000782,-0.00002310,-0.00001245,0.00015145,0.00001663,-0.
 00006948,0.00058215,0.00038953,-0.00007381,0.00012775,0.00003515,0.000
 12045,0.00060880,-0.00013613,-0.00041890,-0.00042730,-0.00355414,-0.00
 250648,0.02758370,-0.00133103,0.06075968\\0.00442104,0.00181936,-0.006
 08231,-0.00051394,-0.01054010,0.01298310,0.00149798,-0.01827498,0.0208
 1661,-0.01221826,0.00130719,0.01571119,0.00466543,0.00241175,-0.036436
 01,0.02989356,-0.01888226,-0.00281463,-0.00288554,-0.00395993,0.006523
 61,0.00277410,0.02281208,0.01715624,-0.00514770,0.01109696,0.00180024,
 0.00181636,0.01577447,0.00020533,0.00333082,-0.03326213,-0.00359657,0.
 00564630,-0.01473474,0.01647277,-0.00644240,0.02149965,-0.00801619,-0.
 05269229,-0.00918510,0.00995452,0.03233890,-0.01162585,0.00968868,-0.0
 1765627,0.02910095,-0.00304255,0.01326866,0.02780345,-0.00574684,0.002
 42927,-0.00604252,-0.00044528,0.00089217,-0.00003136,-0.02499062,-0.00
 756529,0.01071038,-0.01746535,0.00159020,0.01612427,-0.00578896,-0.004
 84277,-0.01060710,0.03319670,0.00779955,-0.00888037,0.00192342,-0.0094
 8815,-0.02945172,-0.00995213,-0.00410478,0.03268123,0.00386181,-0.0053
 4306,-0.02882703,0.01443129,-0.00459091,0.02378627,0.01759319,0.028875
 82,-0.00939503,-0.02362170,-0.00104603,-0.00683399,0.01271719,-0.00179
 562,-0.00464281,-0.00103364,-0.00014944,0.00526831,-0.00096214,0.00556
 452,0.00901637,-0.01665298,-0.02103917,0.00078048,-0.00365322,0.021249
 41,-0.00100267,-0.00128154,-0.02004058,0.00354127,0.00024087,0.0231847
 6,-0.00004247,-0.00245698,-0.01775842,0.00137539,-0.00109978,0.0155644
 5,0.00164826,-0.00287863,-0.00567521,-0.00741743,-0.01513004,0.0202563
 0,0.00036509,-0.00281586,-0.02247669,0.00104965,0.00014195,0.01702879,
 -0.00142415,0.00124905,-0.02064474,-0.00372098,-0.00016004,0.01976903,
 0.00122101,0.00023265,-0.01974018,-0.00240910,-0.00077640\\\@


 IF IT HAPPENS, IT MUST BE POSSIBLE.

 -- THE UNNAMED LAW FROM PAUL DICKSON'S 
    "THE OFFICIAL RULES"
 Job cpu time:  4 days  0 hours 53 minutes 35.0 seconds.
 File lengths (MBytes):  RWF=   2340 Int=      0 D2E=      0 Chk=     43 Scr=      1
 Normal termination of Gaussian 09 at Fri Feb 12 14:49:33 2016.
Gaussian '09 finished on node019 at Fri Feb 12 14:49:33 EST 2016.
