Gaussian '09 started on node030 at Sun Mar 20 15:04:13 EDT 2016.
 Entering Gaussian System, Link 0=/usr/local/gaussian/g09/g09
 Initial command:
 /usr/local/gaussian/g09/l1.exe /home/srmcgrat/thesis/gaussian/cellobiose/280K/5605ps/1/2dp/gaussian28628/Gau-28664.inp -scrdir=/home/srmcgrat/thesis/gaussian/cellobiose/280K/5605ps/1/2dp/gaussian28628/
 Entering Link 1 = /usr/local/gaussian/g09/l1.exe PID=     28666.
  
 Copyright (c) 1988,1990,1992,1993,1995,1998,2003,2009,2010,
            Gaussian, Inc.  All Rights Reserved.
  
 This is part of the Gaussian(R) 09 program.  It is based on
 the Gaussian(R) 03 system (copyright 2003, Gaussian, Inc.),
 the Gaussian(R) 98 system (copyright 1998, Gaussian, Inc.),
 the Gaussian(R) 94 system (copyright 1995, Gaussian, Inc.),
 the Gaussian 92(TM) system (copyright 1992, Gaussian, Inc.),
 the Gaussian 90(TM) system (copyright 1990, Gaussian, Inc.),
 the Gaussian 88(TM) system (copyright 1988, Gaussian, Inc.),
 the Gaussian 86(TM) system (copyright 1986, Carnegie Mellon
 University), and the Gaussian 82(TM) system (copyright 1983,
 Carnegie Mellon University). Gaussian is a federally registered
 trademark of Gaussian, Inc.
  
 This software contains proprietary and confidential information,
 including trade secrets, belonging to Gaussian, Inc.
  
 This software is provided under written license and may be
 used, copied, transmitted, or stored only in accord with that
 written license.
  
 The following legend is applicable only to US Government
 contracts under FAR:
  
                    RESTRICTED RIGHTS LEGEND
  
 Use, reproduction and disclosure by the US Government is
 subject to restrictions as set forth in subparagraphs (a)
 and (c) of the Commercial Computer Software - Restricted
 Rights clause in FAR 52.227-19.
  
 Gaussian, Inc.
 340 Quinnipiac St., Bldg. 40, Wallingford CT 06492
  
  
 ---------------------------------------------------------------
 Warning -- This program may not be used in any manner that
 competes with the business of Gaussian, Inc. or will provide
 assistance to any competitor of Gaussian, Inc.  The licensee
 of this program is prohibited from giving any competitor of
 Gaussian, Inc. access to this program.  By using this program,
 the user acknowledges that Gaussian, Inc. is engaged in the
 business of creating and licensing software in the field of
 computational chemistry and represents and warrants to the
 licensee that it is not a competitor of Gaussian, Inc. and that
 it will not use this program in any manner prohibited above.
 ---------------------------------------------------------------
  

 Cite this work as:
 Gaussian 09, Revision B.01,
 M. J. Frisch, G. W. Trucks, H. B. Schlegel, G. E. Scuseria, 
 M. A. Robb, J. R. Cheeseman, G. Scalmani, V. Barone, B. Mennucci, 
 G. A. Petersson, H. Nakatsuji, M. Caricato, X. Li, H. P. Hratchian, 
 A. F. Izmaylov, J. Bloino, G. Zheng, J. L. Sonnenberg, M. Hada, 
 M. Ehara, K. Toyota, R. Fukuda, J. Hasegawa, M. Ishida, T. Nakajima, 
 Y. Honda, O. Kitao, H. Nakai, T. Vreven, J. A. Montgomery, Jr., 
 J. E. Peralta, F. Ogliaro, M. Bearpark, J. J. Heyd, E. Brothers, 
 K. N. Kudin, V. N. Staroverov, T. Keith, R. Kobayashi, J. Normand, 
 K. Raghavachari, A. Rendell, J. C. Burant, S. S. Iyengar, J. Tomasi, 
 M. Cossi, N. Rega, J. M. Millam, M. Klene, J. E. Knox, J. B. Cross, 
 V. Bakken, C. Adamo, J. Jaramillo, R. Gomperts, R. E. Stratmann, 
 O. Yazyev, A. J. Austin, R. Cammi, C. Pomelli, J. W. Ochterski, 
 R. L. Martin, K. Morokuma, V. G. Zakrzewski, G. A. Voth, 
 P. Salvador, J. J. Dannenberg, S. Dapprich, A. D. Daniels, 
 O. Farkas, J. B. Foresman, J. V. Ortiz, J. Cioslowski, 
 and D. J. Fox, Gaussian, Inc., Wallingford CT, 2010.
 
 ******************************************
 Gaussian 09:  EM64L-G09RevB.01 12-Aug-2010
                20-Mar-2016 
 ******************************************
 -------------------------------------------------
 # freq=raman b3lyp/6-31+g(2d,p) geom=connectivity
 -------------------------------------------------
 1/10=4,30=1,38=1,57=2/1,3;
 2/12=2,17=6,18=5,40=1/2;
 3/5=1,6=6,7=112,11=2,16=1,25=1,30=1,71=2,74=-5/1,2,3;
 4//1;
 5/5=2,38=5,98=1/2;
 8/6=4,10=90,11=11/1;
 10/13=10,15=4/2;
 11/6=3,8=1,9=11,15=111,16=1/1,2,10;
 10/6=1/2;
 6/7=2,8=2,9=2,10=2,18=1,28=1/1;
 7/8=1,10=1,25=1/1,2,3,16;
 1/10=4,30=1/3;
 99//99;
 -----------------
 280 5605/5605.com
 -----------------
 Symbolic Z-matrix:
 Charge =  0 Multiplicity = 1
 O                     7.34      7.554     12.243 
 C                     8.003     7.915     13.464 
 C                     7.555     9.25      14.037 
 O                     7.474     10.353    13.124 
 H                     7.367     9.934     12.222 
 C                     8.201     9.652     15.353 
 O                     7.475     10.735    15.954 
 H                     7.963     10.804    16.824 
 C                     8.382     5.521     14.247 
 O                     7.826     4.725     13.191 
 H                     8.098     3.8       13.457 
 C                     7.738     6.868     14.533 
 O                     8.301     7.241     15.799 
 C                     8.03      8.532     16.365 
 O                     8.818     8.667     17.557 
 C                     8.194     8.32      18.801 
 C                     8.82      7.063     19.382 
 O                     8.436     6.022     18.471 
 H                     8.56      6.418     17.561 
 C                     8.251     6.636     20.725 
 O                     8.84      5.454     21.287 
 H                     8.52      5.269     22.216 
 C                     7.97      10.687    19.501 
 O                     8.515     11.379    18.369 
 H                     8.385     12.359    18.524 
 C                     8.484     9.317     19.912 
 O                     8.007     8.982     21.223 
 C                     8.497     7.738     21.743 
 O                     7.619     7.437     22.838 
 H                     8.13931   7.22316   23.61591 
 H                     7.99499   7.35501   11.56995 
 H                     8.09157   11.33099   20.34682 
 H                     6.91927   10.58504   19.32642 
 H                     9.54878   9.39389   19.98437 
 H                     7.13927   8.19184   18.67443 
 H                     9.88524   7.1524    19.42855 
 H                     7.19666   6.48455   20.62332 
 H                     9.52144   7.79536   22.04653 
 H                     8.34043   4.94301   15.1465 
 H                     9.4119    5.69549   14.01514 
 H                     6.6817    6.73693   14.64236 
 H                     9.05626   7.95807   13.28046 
 H                     6.53412   9.07163   14.30323 
 H                     9.23307   9.90196   15.22165 
 H                     7.0029    8.5361    16.66493 
 

 GradGradGradGradGradGradGradGradGradGradGradGradGradGradGradGradGradGrad
 Berny optimization.
 Initialization pass.
 Trust Radius=3.00D-01 FncErr=1.00D-07 GrdErr=1.00D-07
 Number of steps in this run=      2 maximum allowed number of steps=      2.
 GradGradGradGradGradGradGradGradGradGradGradGradGradGradGradGradGradGrad

                          Input orientation:                          
 ---------------------------------------------------------------------
 Center     Atomic      Atomic             Coordinates (Angstroms)
 Number     Number       Type             X           Y           Z
 ---------------------------------------------------------------------
      1          8           0        7.340000    7.554000   12.243000
      2          6           0        8.003000    7.915000   13.464000
      3          6           0        7.555000    9.250000   14.037000
      4          8           0        7.474000   10.353000   13.124000
      5          1           0        7.367000    9.934000   12.222000
      6          6           0        8.201000    9.652000   15.353000
      7          8           0        7.475000   10.735000   15.954000
      8          1           0        7.963000   10.804000   16.824000
      9          6           0        8.382000    5.521000   14.247000
     10          8           0        7.826000    4.725000   13.191000
     11          1           0        8.098000    3.800000   13.457000
     12          6           0        7.738000    6.868000   14.533000
     13          8           0        8.301000    7.241000   15.799000
     14          6           0        8.030000    8.532000   16.365000
     15          8           0        8.818000    8.667000   17.557000
     16          6           0        8.194000    8.320000   18.801000
     17          6           0        8.820000    7.063000   19.382000
     18          8           0        8.436000    6.022000   18.471000
     19          1           0        8.560000    6.418000   17.561000
     20          6           0        8.251000    6.636000   20.725000
     21          8           0        8.840000    5.454000   21.287000
     22          1           0        8.520000    5.269000   22.216000
     23          6           0        7.970000   10.687000   19.501000
     24          8           0        8.515000   11.379000   18.369000
     25          1           0        8.385000   12.359000   18.524000
     26          6           0        8.484000    9.317000   19.912000
     27          8           0        8.007000    8.982000   21.223000
     28          6           0        8.497000    7.738000   21.743000
     29          8           0        7.619000    7.437000   22.838000
     30          1           0        8.139314    7.223163   23.615912
     31          1           0        7.994989    7.355008   11.569954
     32          1           0        8.091568   11.330985   20.346816
     33          1           0        6.919274   10.585041   19.326415
     34          1           0        9.548778    9.393886   19.984369
     35          1           0        7.139270    8.191841   18.674428
     36          1           0        9.885242    7.152399   19.428547
     37          1           0        7.196664    6.484551   20.623317
     38          1           0        9.521442    7.795358   22.046527
     39          1           0        8.340431    4.943005   15.146496
     40          1           0        9.411900    5.695488   14.015139
     41          1           0        6.681704    6.736925   14.642356
     42          1           0        9.056261    7.958067   13.280461
     43          1           0        6.534116    9.071631   14.303233
     44          1           0        9.233069    9.901959   15.221648
     45          1           0        7.002905    8.536099   16.664932
 ---------------------------------------------------------------------
                    Distance matrix (angstroms):
                    1          2          3          4          5
     1  O    0.000000
     2  C    1.435525   0.000000
     3  C    2.478120   1.520282   0.000000
     4  O    2.937434   2.517794   1.434134   0.000000
     5  H    2.380246   2.454266   1.948698   1.000307   0.000000
     6  C    3.849029   2.573848   1.520124   2.447115   3.252421
     7  O    4.889633   3.798853   2.426214   2.855665   3.818519
     8  H    5.651211   4.431424   3.216947   3.759325   4.721284
     9  C    3.038893   2.547149   3.825372   5.043195   4.960385
    10  O    3.022936   3.206549   4.611375   5.639395   5.318207
    11  H    4.017571   4.116102   5.507608   6.591060   6.299646
    12  C    2.423448   1.519604   2.439965   3.768316   3.857294
    13  O    3.696840   2.448531   2.774390   4.186179   4.573788
    14  C    4.292257   2.966011   2.482082   3.758891   4.423757
    15  O    5.626886   4.240563   3.784899   4.929546   5.672117
    16  C    6.657585   5.355752   4.895806   6.072876   6.824380
    17  C    7.307312   6.034577   5.912040   7.197109   7.849806
    18  O    6.506629   5.370381   5.554863   6.947907   7.449598
    19  H    5.573152   4.397348   4.631288   6.029145   6.503109
    20  C    8.580033   7.376955   7.214344   8.496765   9.162929
    21  O    9.404995   8.243568   8.283921   9.617730  10.218334
    22  H   10.299240   9.157844   9.147438  10.469271  11.089259
    23  C    7.930394   6.643075   5.665023   6.404975   7.342647
    24  O    7.317044   6.026646   4.921429   5.444849   6.418063
    25  H    7.976905   6.745269   5.521589   5.832149   6.828774
    26  C    7.951759   6.616167   5.948374   6.940486   7.795157
    27  O    9.117262   7.832023   7.205187   8.231496   9.073803
    28  C    9.571965   8.295614   7.909232   9.064873   9.836095
    29  O   10.599319   9.394031   8.986026  10.143268  10.908619
    30  H   11.405765  10.176372   9.808417  10.968990  11.737391
    31  H    0.960000   1.975112   3.141799   3.416789   2.733265
    32  H    8.972307   7.684397   6.665747   7.314842   8.275820
    33  H    7.716151   6.532342   5.492212   6.231494   7.148218
    34  H    8.257886   6.862343   6.274317   7.231132   8.081228
    35  H    6.466096   5.288783   4.774753   5.965727   6.687362
    36  H    7.633586   6.300811   6.236885   7.470291   8.124849
    37  H    8.449495   7.345215   7.152320   8.442841   9.083492
    38  H   10.046197   8.716636   8.374688   9.505000  10.282837
    39  H    4.030936   3.431823   4.516424   5.840312   5.866027
    40  H    3.299593   2.686073   4.010376   5.122695   5.036065
    41  H    2.618754   2.126548   2.728488   4.001142   4.068051
    42  H    2.045763   1.070000   2.120195   2.874671   2.806822
    43  H    2.682762   2.049324   1.070000   1.978858   2.401855
    44  H    4.238982   2.924107   2.155077   2.774507   3.532864
    45  H    4.542205   3.410560   2.778577   4.007650   4.671866
                    6          7          8          9         10
     6  C    0.000000
     7  O    1.435676   0.000000
     8  H    1.883504   0.999902   0.000000
     9  C    4.280322   5.560782   5.892926   0.000000
    10  O    5.393533   6.624007   7.083198   1.434534   0.000000
    11  H    6.152343   7.397119   7.772447   1.914836   1.000182
    12  C    2.938950   4.128208   4.559759   1.520178   2.530051
    13  O    2.453943   3.593652   3.722880   2.318117   3.654798
    14  C    1.519140   2.308713   2.318869   3.698101   4.960760
    15  O    2.491692   2.941068   2.415592   4.587321   5.965349
    16  C    3.696346   3.801920   3.183103   5.348706   6.673196
    17  C    4.828967   5.200365   4.612255   5.379390   6.691992
    18  O    4.791038   5.428736   5.079750   4.253950   5.471079
    19  H    3.932290   4.732458   4.487379   3.437861   4.743617
    20  C    6.160937   6.337698   5.716027   6.574562   7.784196
    21  O    7.296840   7.628439   7.022108   7.055200   8.191755
    22  H    8.149431   8.377459   7.747266   7.974178   9.067976
    23  C    4.281412   3.581695   2.679565   7.379825   8.682297
    24  O    3.489610   2.707132   1.738492   7.164128   8.459440
    25  H    4.173361   3.173386   2.342244   8.065419   9.329058
    26  C    4.580043   4.323722   3.466750   6.819989   8.166472
    27  O    5.911297   5.578386   4.761599   7.796392   9.092185
    28  C    6.677059   6.598410   5.820831   7.817821   9.092036
    29  O    7.827527   7.634592   6.900958   8.835072  10.023093
    30  H    8.612710   8.454538   7.680075   9.525375  10.724634
    31  H    4.430582   5.560090   6.285028   3.268017   3.094073
    32  H    5.269645   4.475733   3.564334   8.428999   9.742447
    33  H    4.278015   3.421184   2.720182   7.320146   8.532617
    34  H    4.830394   4.726840   3.806711   7.019831   8.421183
    35  H    3.780373   3.739131   3.305449   5.317884   6.523693
    36  H    5.069000   5.542272   4.879844   5.636455   7.002838
    37  H    6.230382   6.320309   5.803423   6.556742   7.663642
    38  H    7.070642   7.067411   6.225388   8.203880   9.524808
    39  H    4.715583   5.911704   6.108006   1.070000   2.033748
    40  H    4.348579   5.736501   6.007155   1.070000   2.033748
    41  H    3.363174   4.281861   4.789821   2.127389   2.731975
    42  H    2.810035   4.166480   4.674529   2.707051   3.460386
    43  H    2.053617   2.525290   3.375956   4.003101   4.668965
    44  H    1.070000   2.078727   2.234790   4.568047   5.736225
    45  H    2.098054   2.358700   2.467886   4.103549   5.222084
                   11         12         13         14         15
    11  H    0.000000
    12  C    3.271085   0.000000
    13  O    4.167332   1.434871   0.000000
    14  C    5.554540   2.492064   1.435437   0.000000
    15  O    6.404380   3.680676   2.321924   1.435282   0.000000
    16  C    6.999854   4.531232   3.191817   2.450701   1.434336
    17  C    6.802505   4.972077   3.624767   3.447369   2.429701
    18  O    5.494700   4.087880   2.940029   3.301541   2.824419
    19  H    4.889804   3.169695   1.961901   2.486023   2.263754
    20  C    7.803213   6.217544   4.963265   4.759544   3.805611
    21  O    8.037113   6.987869   5.796726   5.861422   4.923084
    22  H    8.891351   7.886496   6.716743   6.717252   5.774209
    23  C    9.163901   6.270535   5.068459   3.805538   2.928932
    24  O    9.041177   5.972248   4.875832   3.515203   2.847121
    25  H    9.950545   6.818927   5.798845   4.408314   3.841021
    26  C    8.500195   5.957160   4.610860   3.661086   2.465782
    27  O    9.336603   7.021215   5.704147   4.878852   3.767825
    28  C    9.182856   7.301855   5.967961   5.456318   4.299846
    29  O   10.072754   8.325320   7.074677   6.577817   5.553329
    30  H   10.720226   9.098708   7.818604   7.368903   6.265437
    31  H    4.026119   3.013779   4.241636   4.937510   6.184124
    32  H   10.207122   7.337827   6.120006   4.867542   3.925251
    33  H    9.048547   6.120746   5.053161   3.770765   3.227208
    34  H    8.717962   6.275065   4.869208   4.018627   2.637143
    35  H    6.886870   4.388902   3.243732   2.498513   2.071848
    36  H    7.077583   5.353309   3.961223   3.838039   2.633574
    37  H    7.705538   6.126339   5.006576   4.797891   4.098062
    38  H    9.579616   7.777772   6.389709   5.920032   4.627142
    39  H    2.054174   2.108295   2.389162   3.802894   4.461697
    40  H    2.372915   2.108295   2.608614   3.934119   4.661264
    41  H    3.469365   1.070000   2.052812   2.829788   4.096840
    42  H    4.270709   2.120121   2.725371   3.301059   4.341445
    43  H    5.563447   2.521531   2.951340   2.603796   3.995855
    44  H    6.452617   3.451721   2.877984   2.152073   2.674187
    45  H    5.824147   2.805005   2.027848   1.070000   2.026695
                   16         17         18         19         20
    16  C    0.000000
    17  C    1.519699   0.000000
    18  O    2.334153   1.435639   0.000000
    19  H    2.299817   1.949273   1.000146   0.000000
    20  C    2.557515   1.519783   2.343446   3.186519   0.000000
    21  O    3.848567   2.493653   2.900982   3.858856   1.435231
    22  H    4.590981   3.367490   3.820876   4.794875   2.040620
    23  C    2.478480   3.724250   4.800029   4.726104   4.241195
    24  O    3.105986   4.443765   5.358553   5.026570   5.302498
    25  H    4.052990   5.382658   6.337427   6.021086   6.133114
    26  C    1.520668   2.339725   3.596639   3.733253   2.811231
    27  O    2.517796   2.780793   4.064375   4.504459   2.410655
    28  C    3.014282   2.476747   3.695181   4.385829   1.520278
    29  O    4.172252   3.677800   4.662661   5.456241   2.346443
    30  H    4.938565   4.291270   5.291591   6.122681   2.952051
    31  H    7.297866   7.860915   7.042431   6.090144   9.186805
    32  H    3.386159   4.435897   5.641156   5.667241   4.712890
    33  H    2.651678   4.002577   4.884008   4.813824   4.395959
    34  H    2.094998   2.515352   3.859815   3.963117   3.136669
    35  H    1.070000   2.144713   2.535961   2.530752   2.803824
    36  H    2.148816   1.070000   2.072438   2.404858   2.149001
    37  H    2.772073   2.123838   2.526336   3.352745   1.070000
    38  H    3.545532   2.850977   4.136106   4.789722   2.169001
    39  H    4.978045   4.760657   3.496525   2.837895   5.830432
    40  H    5.592478   5.569886   4.573149   3.717645   6.874190
    41  H    4.699732   5.209881   4.271673   3.485426   6.282630
    42  H    5.599183   6.171365   5.574476   4.576145   7.603780
    43  H    4.852842   5.920620   5.503426   4.664656   7.079483
    44  H    4.048953   5.053597   5.123250   4.250125   6.474398
    45  H    2.455238   3.585292   3.411208   2.777378   4.653200
                   21         22         23         24         25
    21  O    0.000000
    22  H    0.999833   0.000000
    23  C    5.597409   6.085101   0.000000
    24  O    6.612562   7.220217   1.434334   0.000000
    25  H    7.451189   7.994823   1.980489   1.000662   0.000000
    26  C    4.115839   4.657898   1.519874   2.575588   3.345162
    27  O    3.625572   3.877575   2.423567   3.761514   4.339541
    28  C    2.354196   2.514005   3.741777   4.963978   5.632774
    29  O    2.797987   2.428767   4.671324   6.026122   6.589646
    30  H    3.007446   2.433810   5.381388   6.703895   7.236349
    31  H    9.937246  10.861186   8.602575   7.917699   8.576177
    32  H    5.998588   6.358071   1.070000   2.023204   2.113190
    33  H    5.818992   6.258779   1.070000   2.023204   2.437038
    34  H    4.209740   4.801379   2.097219   2.760216   3.504134
    35  H    4.148950   4.795013   2.756656   3.484810   4.351975
    36  H    2.725975   3.630561   4.020797   4.567752   5.493417
    37  H    2.050137   2.401129   4.417943   5.547575   6.350466
    38  H    2.554056   2.722883   4.153104   5.232554   5.875927
    39  H    6.181947   7.079294   7.217506   7.199794   8.149018
    40  H    7.298311   8.260236   7.555722   7.215459   8.110903
    41  H    7.103199   7.930588   6.392904   6.228781   7.041030
    42  H    8.391769   9.346792   6.879110   6.155402   6.878481
    43  H    8.196180   9.000868   5.629206   5.077235   5.661046
    44  H    7.531755   8.419842   4.530396   3.550084   4.202595
    45  H    5.851305   6.617392   3.688486   3.643126   4.469999
                   26         27         28         29         30
    26  C    0.000000
    27  O    1.434739   0.000000
    28  C    2.417844   1.434586   0.000000
    29  O    3.583867   2.268434   1.435448   0.000000
    30  H    4.268715   2.972716   1.975043   0.960000   0.000000
    31  H    8.583605   9.789206  10.192623  11.274616  12.047544
    32  H    2.097428   2.508502   3.875984   4.646767   5.250093
    33  H    2.097428   2.711074   4.053979   4.767705   5.584846
    34  H    1.070000   2.020132   2.634573   3.961900   4.459454
    35  H    2.146128   2.805802   3.386080   4.258551   5.133877
    36  H    2.623491   3.177310   2.761673   4.103806   4.537323
    37  H    3.191547   2.693235   2.125017   2.447519   3.223316
    38  H    2.819199   2.092809   1.070000   2.091444   2.168100
    39  H    6.470121   7.304009   7.165917   8.117863   8.773287
    40  H    6.982071   8.045382   8.045417   9.170073   9.804494
    41  H    6.137932   7.078252   7.397067   8.278720   9.104162
    42  H    6.793489   8.076715   8.483854   9.679039  10.402040
    43  H    5.943107   7.075352   7.809073   8.757354   9.629096
    44  H    4.785675   6.194013   6.910322   8.166398   8.878959
    45  H    3.653341   4.688606   5.353136   6.300346   7.164590
                   31         32         33         34         35
    31  H    0.000000
    32  H    9.635924   0.000000
    33  H    8.470713   1.723927   0.000000
    34  H    8.796231   2.450955   2.960750   0.000000
    35  H    7.204589   3.682116   2.490159   2.994425   0.000000
    36  H    8.085270   4.639081   4.537668   2.333755   3.031418
    37  H    9.130082   4.936115   4.309631   3.795381   2.591582
    38  H   10.596346   4.175430   4.685362   2.609316   4.147649
    39  H    4.327672   8.240846   7.164075   6.683970   4.944090
    40  H    3.277281   8.578592   7.637445   7.023432   5.753746
    41  H    3.397999   7.458818   6.066700   6.619415   4.310888
    42  H    2.101383   7.889270   6.929738   6.873612   5.729257
    43  H    3.542847   6.637412   5.260334   6.439515   4.499732
    44  H    4.621112   5.441736   4.761235   4.800138   4.385224
    45  H    5.323345   4.748984   3.359859   4.270355   2.043327
                   36         37         38         39         40
    36  H    0.000000
    37  H    3.016943   0.000000
    38  H    2.720214   3.024621   0.000000
    39  H    5.060022   5.803458   7.559175   0.000000
    40  H    5.625978   7.014122   8.302086   1.730389   0.000000
    41  H    5.774331   6.008391   8.000383   2.494731   2.988639
    42  H    6.255820   7.716663   8.779908   3.617334   2.405306
    43  H    6.417348   6.861153   8.397118   4.584694   4.445558
    44  H    5.067880   6.708476   7.148419   5.039214   4.379731
    45  H    4.226117   4.462645   5.987762   4.123705   4.570966
                   41         42         43         44         45
    41  H    0.000000
    42  H    2.997410   0.000000
    43  H    2.363819   2.940630   0.000000
    44  H    4.106395   2.752850   2.969391   0.000000
    45  H    2.725988   4.000629   2.466613   2.987018   0.000000
 Stoichiometry    C12H22O11
 Framework group  C1[X(C12H22O11)]
 Deg. of freedom   129
 Full point group                 C1      NOp   1
 Largest Abelian subgroup         C1      NOp   1
 Largest concise Abelian subgroup C1      NOp   1
                         Standard orientation:                         
 ---------------------------------------------------------------------
 Center     Atomic      Atomic             Coordinates (Angstroms)
 Number     Number       Type             X           Y           Z
 ---------------------------------------------------------------------
      1          8           0        5.102128   -0.458160   -0.456546
      2          6           0        3.835464   -0.144306    0.141609
      3          6           0        3.284873    1.215027   -0.258793
      4          8           0        4.192991    2.323718   -0.205262
      5          1           0        5.103353    1.915215   -0.275827
      6          6           0        1.924310    1.570602    0.318452
      7          8           0        1.366932    2.696275   -0.376787
      8          1           0        0.464728    2.731069    0.052888
      9          6           0        3.046074   -2.560106    0.311136
     10          8           0        4.143991   -3.315446   -0.219835
     11          1           0        3.866736   -4.256843   -0.026791
     12          6           0        2.795271   -1.175307   -0.263643
     13          8           0        1.490553   -0.843175    0.232597
     14          6           0        0.935015    0.460873    0.006072
     15          8           0       -0.309682    0.541236    0.716216
     16          6           0       -1.504835    0.231365   -0.013791
     17          6           0       -2.118353   -1.065092    0.488485
     18          8           0       -1.175160   -2.076437    0.102965
     19          1           0       -0.278931   -1.686485    0.315102
     20          6           0       -3.415476   -1.458639   -0.198781
     21          8           0       -4.008040   -2.677812    0.272784
     22          1           0       -4.911230   -2.844640   -0.122288
     23          6           0       -2.205375    2.605742   -0.133963
     24          8           0       -1.119066    3.264643    0.531691
     25          1           0       -1.272036    4.250505    0.454229
     26          6           0       -2.640701    1.204248    0.261413
     27          8           0       -3.912963    0.896683   -0.326148
     28          6           0       -4.456308   -0.377859    0.045815
     29          8           0       -5.485575   -0.625019   -0.923737
     30          1           0       -6.296032   -0.874274   -0.473592
     31          1           0        5.729664   -0.696873    0.229613
     32          1           0       -3.062386    3.237994   -0.030580
     33          1           0       -1.957671    2.572182   -1.174355
     34          1           0       -2.787223    1.212192    1.321303
     35          1           0       -1.304554    0.171771   -1.063189
     36          1           0       -2.239242   -1.044613    1.551437
     37          1           0       -3.239875   -1.541574   -1.251010
     38          1           0       -4.830484   -0.387506    1.048212
     39          1           0        2.155979   -3.136951    0.170139
     40          1           0        3.204727   -2.451594    1.363730
     41          1           0        2.760328   -1.238425   -1.331208
     42          1           0        3.945281   -0.168593    1.205682
     43          1           0        3.091336    1.101957   -1.305052
     44          1           0        1.981982    1.753983    1.371042
     45          1           0        0.706923    0.530189   -1.037034
 ---------------------------------------------------------------------
 Rotational constants (GHZ):      0.4118177      0.1422389      0.1087222
 Standard basis: 6-31+G(2d,p) (6D, 7F)
 There are   685 symmetry adapted basis functions of A   symmetry.
 Integral buffers will be    131072 words long.
 Raffenetti 2 integral format.
 Two-electron integral symmetry is turned on.
   685 basis functions,  1028 primitive gaussians,   685 cartesian basis functions
    91 alpha electrons       91 beta electrons
       nuclear repulsion energy      2282.0186412072 Hartrees.
 NAtoms=   45 NActive=   45 NUniq=   45 SFac= 1.00D+00 NAtFMM=   50 NAOKFM=F Big=F
 One-electron integrals computed using PRISM.
 NBasis=   685 RedAO= T  NBF=   685
 NBsUse=   685 1.00D-06 NBFU=   685
 Harris functional with IExCor=  402 diagonalized for initial guess.
 ExpMin= 4.38D-02 ExpMax= 5.48D+03 ExpMxC= 8.25D+02 IAcc=2 IRadAn=         0 AccDes= 0.00D+00
 HarFok:  IExCor=  402 AccDes= 0.00D+00 IRadAn=         0 IDoV= 1
 ScaDFX=  1.000000  1.000000  1.000000  1.000000
 FoFCou: FMM=F IPFlag=           0 FMFlag=      100000 FMFlg1=           0
         NFxFlg=           0 DoJE=T BraDBF=F KetDBF=T FulRan=T
         Omega=  0.000000  0.000000  1.000000  0.000000  0.000000 ICntrl=     500 IOpCl=  0
         NMat0=    1 NMatS0=    1 NMatT0=    0 NMatD0=    1 NMtDS0=    0 NMtDT0=    0
         I1Cent=           4 NGrid=           0.
 Petite list used in FoFCou.
 Initial guess orbital symmetries:
       Occupied  (A) (A) (A) (A) (A) (A) (A) (A) (A) (A) (A) (A)
                 (A) (A) (A) (A) (A) (A) (A) (A) (A) (A) (A) (A)
                 (A) (A) (A) (A) (A) (A) (A) (A) (A) (A) (A) (A)
                 (A) (A) (A) (A) (A) (A) (A) (A) (A) (A) (A) (A)
                 (A) (A) (A) (A) (A) (A) (A) (A) (A) (A) (A) (A)
                 (A) (A) (A) (A) (A) (A) (A) (A) (A) (A) (A) (A)
                 (A) (A) (A) (A) (A) (A) (A) (A) (A) (A) (A) (A)
                 (A) (A) (A) (A) (A) (A) (A)
       Virtual   (A) (A) (A) (A) (A) (A) (A) (A) (A) (A) (A) (A)
                 (A) (A) (A) (A) (A) (A) (A) (A) (A) (A) (A) (A)
                 (A) (A) (A) (A) (A) (A) (A) (A) (A) (A) (A) (A)
                 (A) (A) (A) (A) (A) (A) (A) (A) (A) (A) (A) (A)
                 (A) (A) (A) (A) (A) (A) (A) (A) (A) (A) (A) (A)
                 (A) (A) (A) (A) (A) (A) (A) (A) (A) (A) (A) (A)
                 (A) (A) (A) (A) (A) (A) (A) (A) (A) (A) (A) (A)
                 (A) (A) (A) (A) (A) (A) (A) (A) (A) (A) (A) (A)
                 (A) (A) (A) (A) (A) (A) (A) (A) (A) (A) (A) (A)
                 (A) (A) (A) (A) (A) (A) (A) (A) (A) (A) (A) (A)
                 (A) (A) (A) (A) (A) (A) (A) (A) (A) (A) (A) (A)
                 (A) (A) (A) (A) (A) (A) (A) (A) (A) (A) (A) (A)
                 (A) (A) (A) (A) (A) (A) (A) (A) (A) (A) (A) (A)
                 (A) (A) (A) (A) (A) (A) (A) (A) (A) (A) (A) (A)
                 (A) (A) (A) (A) (A) (A) (A) (A) (A) (A) (A) (A)
                 (A) (A) (A) (A) (A) (A) (A) (A) (A) (A) (A) (A)
                 (A) (A) (A) (A) (A) (A) (A) (A) (A) (A) (A) (A)
                 (A) (A) (A) (A) (A) (A) (A) (A) (A) (A) (A) (A)
                 (A) (A) (A) (A) (A) (A) (A) (A) (A) (A) (A) (A)
                 (A) (A) (A) (A) (A) (A) (A) (A) (A) (A) (A) (A)
                 (A) (A) (A) (A) (A) (A) (A) (A) (A) (A) (A) (A)
                 (A) (A) (A) (A) (A) (A) (A) (A) (A) (A) (A) (A)
                 (A) (A) (A) (A) (A) (A) (A) (A) (A) (A) (A) (A)
                 (A) (A) (A) (A) (A) (A) (A) (A) (A) (A) (A) (A)
                 (A) (A) (A) (A) (A) (A) (A) (A) (A) (A) (A) (A)
                 (A) (A) (A) (A) (A) (A) (A) (A) (A) (A) (A) (A)
                 (A) (A) (A) (A) (A) (A) (A) (A) (A) (A) (A) (A)
                 (A) (A) (A) (A) (A) (A) (A) (A) (A) (A) (A) (A)
                 (A) (A) (A) (A) (A) (A) (A) (A) (A) (A) (A) (A)
                 (A) (A) (A) (A) (A) (A) (A) (A) (A) (A) (A) (A)
                 (A) (A) (A) (A) (A) (A) (A) (A) (A) (A) (A) (A)
                 (A) (A) (A) (A) (A) (A) (A) (A) (A) (A) (A) (A)
                 (A) (A) (A) (A) (A) (A) (A) (A) (A) (A) (A) (A)
                 (A) (A) (A) (A) (A) (A) (A) (A) (A) (A) (A) (A)
                 (A) (A) (A) (A) (A) (A) (A) (A) (A) (A) (A) (A)
                 (A) (A) (A) (A) (A) (A) (A) (A) (A) (A) (A) (A)
                 (A) (A) (A) (A) (A) (A) (A) (A) (A) (A) (A) (A)
                 (A) (A) (A) (A) (A) (A) (A) (A) (A) (A) (A) (A)
                 (A) (A) (A) (A) (A) (A) (A) (A) (A) (A) (A) (A)
                 (A) (A) (A) (A) (A) (A) (A) (A) (A) (A) (A) (A)
                 (A) (A) (A) (A) (A) (A) (A) (A) (A) (A) (A) (A)
                 (A) (A) (A) (A) (A) (A) (A) (A) (A) (A) (A) (A)
                 (A) (A) (A) (A) (A) (A) (A) (A) (A) (A) (A) (A)
                 (A) (A) (A) (A) (A) (A) (A) (A) (A) (A) (A) (A)
                 (A) (A) (A) (A) (A) (A) (A) (A) (A) (A) (A) (A)
                 (A) (A) (A) (A) (A) (A) (A) (A) (A) (A) (A) (A)
                 (A) (A) (A) (A) (A) (A) (A) (A) (A) (A) (A) (A)
                 (A) (A) (A) (A) (A) (A) (A) (A) (A) (A) (A) (A)
                 (A) (A) (A) (A) (A) (A) (A) (A) (A) (A) (A) (A)
                 (A) (A) (A) (A) (A) (A)
 The electronic state of the initial guess is 1-A.
 Requested convergence on RMS density matrix=1.00D-08 within 128 cycles.
 Requested convergence on MAX density matrix=1.00D-06.
 Requested convergence on             energy=1.00D-06.
 No special actions if energy rises.
 SCF Done:  E(RB3LYP) =  -1297.97559444     A.U. after   13 cycles
             Convg  =    0.5576D-08             -V/T =  2.0064
 Range of M.O.s used for correlation:     1   685
 NBasis=   685 NAE=    91 NBE=    91 NFC=     0 NFV=     0
 NROrb=    685 NOA=    91 NOB=    91 NVA=   594 NVB=   594

 **** Warning!!: The largest alpha MO coefficient is  0.71408318D+02

          Differentiating once with respect to electric field.
                with respect to dipole field.
          Electric field/nuclear overlap derivatives assumed to be zero.
          There are     3 degrees of freedom in the 1st order CPHF.  IDoFFX=0.
      3 vectors produced by pass  0 Test12= 1.80D-12 3.33D-08 XBig12= 1.24D+02 1.05D+00.
 AX will form     3 AO Fock derivatives at one time.
      3 vectors produced by pass  1 Test12= 1.80D-12 3.33D-08 XBig12= 2.40D+01 3.63D-01.
      3 vectors produced by pass  2 Test12= 1.80D-12 3.33D-08 XBig12= 9.94D+00 2.22D-01.
      3 vectors produced by pass  3 Test12= 1.80D-12 3.33D-08 XBig12= 1.12D+00 9.64D-02.
      3 vectors produced by pass  4 Test12= 1.80D-12 3.33D-08 XBig12= 3.22D-01 4.39D-02.
      3 vectors produced by pass  5 Test12= 1.80D-12 3.33D-08 XBig12= 6.40D-02 2.37D-02.
      3 vectors produced by pass  6 Test12= 1.80D-12 3.33D-08 XBig12= 2.19D-02 1.82D-02.
      3 vectors produced by pass  7 Test12= 1.80D-12 3.33D-08 XBig12= 3.21D-03 8.63D-03.
      3 vectors produced by pass  8 Test12= 1.80D-12 3.33D-08 XBig12= 5.48D-04 2.51D-03.
      3 vectors produced by pass  9 Test12= 1.80D-12 3.33D-08 XBig12= 1.78D-04 1.49D-03.
      3 vectors produced by pass 10 Test12= 1.80D-12 3.33D-08 XBig12= 3.61D-05 4.43D-04.
      3 vectors produced by pass 11 Test12= 1.80D-12 3.33D-08 XBig12= 9.46D-06 2.22D-04.
      3 vectors produced by pass 12 Test12= 1.80D-12 3.33D-08 XBig12= 1.17D-06 8.24D-05.
      3 vectors produced by pass 13 Test12= 1.80D-12 3.33D-08 XBig12= 4.15D-07 5.59D-05.
      3 vectors produced by pass 14 Test12= 1.80D-12 3.33D-08 XBig12= 4.65D-08 1.93D-05.
      3 vectors produced by pass 15 Test12= 1.80D-12 3.33D-08 XBig12= 9.35D-09 9.79D-06.
      3 vectors produced by pass 16 Test12= 1.80D-12 3.33D-08 XBig12= 1.44D-09 3.43D-06.
      3 vectors produced by pass 17 Test12= 1.80D-12 3.33D-08 XBig12= 1.88D-10 1.05D-06.
      3 vectors produced by pass 18 Test12= 1.80D-12 3.33D-08 XBig12= 4.51D-11 5.78D-07.
      3 vectors produced by pass 19 Test12= 1.80D-12 3.33D-08 XBig12= 1.09D-11 3.01D-07.
      3 vectors produced by pass 20 Test12= 1.80D-12 3.33D-08 XBig12= 3.16D-12 1.53D-07.
      2 vectors produced by pass 21 Test12= 1.80D-12 3.33D-08 XBig12= 1.01D-12 6.59D-08.
 Inverted reduced A of dimension    65 with in-core refinement.
 End of Minotr Frequency-dependent properties file   721 does not exist.
 End of Minotr Frequency-dependent properties file   722 does not exist.
 Symmetrizing basis deriv contribution to polar:
 IMax=3 JMax=2 DiffMx= 0.00D+00
 G2DrvN: will do    16 centers at a time, making    3 passes doing MaxLOS=2.
 Calling FoFCou, ICntrl=  3107 FMM=F I1Cent=   0 AccDes= 0.00D+00.
 Calling FoFCou, ICntrl=  3107 FMM=F I1Cent=   0 AccDes= 0.00D+00.
 Calling FoFCou, ICntrl=  3107 FMM=F I1Cent=   0 AccDes= 0.00D+00.
 FoFDir/FoFCou used for L=0 through L=2.
 End of G2Drv Frequency-dependent properties file   721 does not exist.
 End of G2Drv Frequency-dependent properties file   722 does not exist.
          IDoAtm=111111111111111111111111111111111111111111111
          Differentiating once with respect to electric field.
                with respect to dipole field.
          Differentiating once with respect to nuclear coordinates.
          There are   138 degrees of freedom in the 1st order CPHF.  IDoFFX=5.
 Will reuse    3 saved solutions.
    135 vectors produced by pass  0 Test12= 5.41D-14 1.00D-09 XBig12= 1.64D-01 8.01D-02.
 AX will form    45 AO Fock derivatives at one time.
    135 vectors produced by pass  1 Test12= 5.41D-14 1.00D-09 XBig12= 1.78D-02 1.09D-02.
    132 vectors produced by pass  2 Test12= 5.41D-14 1.00D-09 XBig12= 1.09D-04 1.12D-03.
    132 vectors produced by pass  3 Test12= 5.41D-14 1.00D-09 XBig12= 4.85D-07 4.67D-05.
    132 vectors produced by pass  4 Test12= 5.41D-14 1.00D-09 XBig12= 1.06D-09 2.12D-06.
    132 vectors produced by pass  5 Test12= 5.41D-14 1.00D-09 XBig12= 2.66D-12 9.39D-08.
     81 vectors produced by pass  6 Test12= 5.41D-14 1.00D-09 XBig12= 8.64D-14 1.76D-08.
 Inverted reduced A of dimension   879 with in-core refinement.
 Isotropic polarizability for W=    0.000000      191.68 Bohr**3.
 End of Minotr Frequency-dependent properties file   721 does not exist.
 End of Minotr Frequency-dependent properties file   722 does not exist.

 **********************************************************************

            Population analysis using the SCF density.

 **********************************************************************

 Orbital symmetries:
       Occupied  (A) (A) (A) (A) (A) (A) (A) (A) (A) (A) (A) (A)
                 (A) (A) (A) (A) (A) (A) (A) (A) (A) (A) (A) (A)
                 (A) (A) (A) (A) (A) (A) (A) (A) (A) (A) (A) (A)
                 (A) (A) (A) (A) (A) (A) (A) (A) (A) (A) (A) (A)
                 (A) (A) (A) (A) (A) (A) (A) (A) (A) (A) (A) (A)
                 (A) (A) (A) (A) (A) (A) (A) (A) (A) (A) (A) (A)
                 (A) (A) (A) (A) (A) (A) (A) (A) (A) (A) (A) (A)
                 (A) (A) (A) (A) (A) (A) (A)
       Virtual   (A) (A) (A) (A) (A) (A) (A) (A) (A) (A) (A) (A)
                 (A) (A) (A) (A) (A) (A) (A) (A) (A) (A) (A) (A)
                 (A) (A) (A) (A) (A) (A) (A) (A) (A) (A) (A) (A)
                 (A) (A) (A) (A) (A) (A) (A) (A) (A) (A) (A) (A)
                 (A) (A) (A) (A) (A) (A) (A) (A) (A) (A) (A) (A)
                 (A) (A) (A) (A) (A) (A) (A) (A) (A) (A) (A) (A)
                 (A) (A) (A) (A) (A) (A) (A) (A) (A) (A) (A) (A)
                 (A) (A) (A) (A) (A) (A) (A) (A) (A) (A) (A) (A)
                 (A) (A) (A) (A) (A) (A) (A) (A) (A) (A) (A) (A)
                 (A) (A) (A) (A) (A) (A) (A) (A) (A) (A) (A) (A)
                 (A) (A) (A) (A) (A) (A) (A) (A) (A) (A) (A) (A)
                 (A) (A) (A) (A) (A) (A) (A) (A) (A) (A) (A) (A)
                 (A) (A) (A) (A) (A) (A) (A) (A) (A) (A) (A) (A)
                 (A) (A) (A) (A) (A) (A) (A) (A) (A) (A) (A) (A)
                 (A) (A) (A) (A) (A) (A) (A) (A) (A) (A) (A) (A)
                 (A) (A) (A) (A) (A) (A) (A) (A) (A) (A) (A) (A)
                 (A) (A) (A) (A) (A) (A) (A) (A) (A) (A) (A) (A)
                 (A) (A) (A) (A) (A) (A) (A) (A) (A) (A) (A) (A)
                 (A) (A) (A) (A) (A) (A) (A) (A) (A) (A) (A) (A)
                 (A) (A) (A) (A) (A) (A) (A) (A) (A) (A) (A) (A)
                 (A) (A) (A) (A) (A) (A) (A) (A) (A) (A) (A) (A)
                 (A) (A) (A) (A) (A) (A) (A) (A) (A) (A) (A) (A)
                 (A) (A) (A) (A) (A) (A) (A) (A) (A) (A) (A) (A)
                 (A) (A) (A) (A) (A) (A) (A) (A) (A) (A) (A) (A)
                 (A) (A) (A) (A) (A) (A) (A) (A) (A) (A) (A) (A)
                 (A) (A) (A) (A) (A) (A) (A) (A) (A) (A) (A) (A)
                 (A) (A) (A) (A) (A) (A) (A) (A) (A) (A) (A) (A)
                 (A) (A) (A) (A) (A) (A) (A) (A) (A) (A) (A) (A)
                 (A) (A) (A) (A) (A) (A) (A) (A) (A) (A) (A) (A)
                 (A) (A) (A) (A) (A) (A) (A) (A) (A) (A) (A) (A)
                 (A) (A) (A) (A) (A) (A) (A) (A) (A) (A) (A) (A)
                 (A) (A) (A) (A) (A) (A) (A) (A) (A) (A) (A) (A)
                 (A) (A) (A) (A) (A) (A) (A) (A) (A) (A) (A) (A)
                 (A) (A) (A) (A) (A) (A) (A) (A) (A) (A) (A) (A)
                 (A) (A) (A) (A) (A) (A) (A) (A) (A) (A) (A) (A)
                 (A) (A) (A) (A) (A) (A) (A) (A) (A) (A) (A) (A)
                 (A) (A) (A) (A) (A) (A) (A) (A) (A) (A) (A) (A)
                 (A) (A) (A) (A) (A) (A) (A) (A) (A) (A) (A) (A)
                 (A) (A) (A) (A) (A) (A) (A) (A) (A) (A) (A) (A)
                 (A) (A) (A) (A) (A) (A) (A) (A) (A) (A) (A) (A)
                 (A) (A) (A) (A) (A) (A) (A) (A) (A) (A) (A) (A)
                 (A) (A) (A) (A) (A) (A) (A) (A) (A) (A) (A) (A)
                 (A) (A) (A) (A) (A) (A) (A) (A) (A) (A) (A) (A)
                 (A) (A) (A) (A) (A) (A) (A) (A) (A) (A) (A) (A)
                 (A) (A) (A) (A) (A) (A) (A) (A) (A) (A) (A) (A)
                 (A) (A) (A) (A) (A) (A) (A) (A) (A) (A) (A) (A)
                 (A) (A) (A) (A) (A) (A) (A) (A) (A) (A) (A) (A)
                 (A) (A) (A) (A) (A) (A) (A) (A) (A) (A) (A) (A)
                 (A) (A) (A) (A) (A) (A) (A) (A) (A) (A) (A) (A)
                 (A) (A) (A) (A) (A) (A)
 The electronic state is 1-A.
 Alpha  occ. eigenvalues --  -19.19281 -19.18893 -19.18253 -19.18215 -19.17884
 Alpha  occ. eigenvalues --  -19.17607 -19.16393 -19.16002 -19.15262 -19.13707
 Alpha  occ. eigenvalues --  -19.13560 -10.30630 -10.30602 -10.26069 -10.25878
 Alpha  occ. eigenvalues --  -10.25720 -10.25689 -10.25041 -10.24627 -10.24576
 Alpha  occ. eigenvalues --  -10.24190 -10.24183 -10.23954  -1.09985  -1.09229
 Alpha  occ. eigenvalues --   -1.05817  -1.05466  -1.04367  -1.03705  -1.03016
 Alpha  occ. eigenvalues --   -1.02607  -1.02386  -1.00865  -1.00486  -0.82691
 Alpha  occ. eigenvalues --   -0.80581  -0.79107  -0.78528  -0.71831  -0.69945
 Alpha  occ. eigenvalues --   -0.67725  -0.65095  -0.62819  -0.62491  -0.61648
 Alpha  occ. eigenvalues --   -0.60222  -0.56683  -0.56060  -0.55392  -0.55195
 Alpha  occ. eigenvalues --   -0.54358  -0.53213  -0.52960  -0.51672  -0.50960
 Alpha  occ. eigenvalues --   -0.50863  -0.50094  -0.49600  -0.48613  -0.46816
 Alpha  occ. eigenvalues --   -0.45929  -0.45248  -0.44229  -0.43643  -0.43210
 Alpha  occ. eigenvalues --   -0.42893  -0.42344  -0.41201  -0.40516  -0.39177
 Alpha  occ. eigenvalues --   -0.38704  -0.38381  -0.37722  -0.36855  -0.36231
 Alpha  occ. eigenvalues --   -0.36057  -0.34961  -0.34848  -0.34455  -0.34186
 Alpha  occ. eigenvalues --   -0.32982  -0.31142  -0.30803  -0.30353  -0.30133
 Alpha  occ. eigenvalues --   -0.29236  -0.28844  -0.28500  -0.27353  -0.26920
 Alpha  occ. eigenvalues --   -0.25974
 Alpha virt. eigenvalues --   -0.02152  -0.01973  -0.01889  -0.00280   0.00217
 Alpha virt. eigenvalues --    0.00944   0.01773   0.02181   0.03166   0.03528
 Alpha virt. eigenvalues --    0.04030   0.04119   0.04775   0.05367   0.05625
 Alpha virt. eigenvalues --    0.05803   0.06620   0.07309   0.07650   0.08107
 Alpha virt. eigenvalues --    0.08370   0.08642   0.09102   0.09719   0.09975
 Alpha virt. eigenvalues --    0.10339   0.10901   0.11197   0.11706   0.11904
 Alpha virt. eigenvalues --    0.12188   0.12801   0.12956   0.13467   0.13880
 Alpha virt. eigenvalues --    0.13926   0.14244   0.14474   0.14644   0.15101
 Alpha virt. eigenvalues --    0.15547   0.15936   0.16415   0.16822   0.17110
 Alpha virt. eigenvalues --    0.17285   0.17388   0.17606   0.17893   0.18325
 Alpha virt. eigenvalues --    0.19002   0.19025   0.19249   0.19603   0.19861
 Alpha virt. eigenvalues --    0.20481   0.20877   0.20994   0.21341   0.21663
 Alpha virt. eigenvalues --    0.21948   0.22066   0.22539   0.22839   0.23263
 Alpha virt. eigenvalues --    0.23510   0.23781   0.24099   0.24423   0.24485
 Alpha virt. eigenvalues --    0.24675   0.25096   0.25391   0.25692   0.25938
 Alpha virt. eigenvalues --    0.25991   0.26339   0.26560   0.26862   0.26978
 Alpha virt. eigenvalues --    0.27578   0.27746   0.27942   0.28285   0.28511
 Alpha virt. eigenvalues --    0.28680   0.29300   0.29549   0.30268   0.30576
 Alpha virt. eigenvalues --    0.30866   0.31362   0.31588   0.31735   0.32109
 Alpha virt. eigenvalues --    0.32568   0.32700   0.32869   0.33543   0.33833
 Alpha virt. eigenvalues --    0.33944   0.34181   0.34565   0.35153   0.35479
 Alpha virt. eigenvalues --    0.36049   0.36226   0.36686   0.37169   0.37549
 Alpha virt. eigenvalues --    0.37710   0.38035   0.38545   0.39180   0.39392
 Alpha virt. eigenvalues --    0.39641   0.40382   0.40578   0.41081   0.41620
 Alpha virt. eigenvalues --    0.42078   0.42533   0.42731   0.43028   0.43408
 Alpha virt. eigenvalues --    0.44354   0.45367   0.45849   0.46181   0.46709
 Alpha virt. eigenvalues --    0.47426   0.47811   0.48200   0.48751   0.49134
 Alpha virt. eigenvalues --    0.50200   0.51168   0.53876   0.57273   0.58432
 Alpha virt. eigenvalues --    0.60284   0.60413   0.61013   0.61508   0.61988
 Alpha virt. eigenvalues --    0.62434   0.63141   0.64789   0.65518   0.66386
 Alpha virt. eigenvalues --    0.66871   0.68196   0.68816   0.69899   0.70596
 Alpha virt. eigenvalues --    0.71701   0.72112   0.72991   0.73137   0.73845
 Alpha virt. eigenvalues --    0.74760   0.75306   0.76392   0.76540   0.77366
 Alpha virt. eigenvalues --    0.78011   0.78994   0.79479   0.80475   0.81339
 Alpha virt. eigenvalues --    0.82269   0.82947   0.83867   0.84953   0.85058
 Alpha virt. eigenvalues --    0.86254   0.87526   0.88015   0.88393   0.89108
 Alpha virt. eigenvalues --    0.89646   0.90370   0.90845   0.91235   0.92066
 Alpha virt. eigenvalues --    0.92168   0.92647   0.92788   0.93230   0.93688
 Alpha virt. eigenvalues --    0.94087   0.94922   0.95291   0.96053   0.96654
 Alpha virt. eigenvalues --    0.97144   0.97391   0.97979   0.98357   0.99296
 Alpha virt. eigenvalues --    0.99410   0.99684   1.01086   1.01780   1.02560
 Alpha virt. eigenvalues --    1.03060   1.04191   1.04895   1.05668   1.06336
 Alpha virt. eigenvalues --    1.06635   1.07425   1.07806   1.08400   1.08806
 Alpha virt. eigenvalues --    1.09235   1.10286   1.10975   1.11480   1.11921
 Alpha virt. eigenvalues --    1.12773   1.13129   1.13665   1.14051   1.14627
 Alpha virt. eigenvalues --    1.15263   1.15732   1.15959   1.16789   1.17189
 Alpha virt. eigenvalues --    1.17593   1.18003   1.18517   1.19565   1.19782
 Alpha virt. eigenvalues --    1.20229   1.21102   1.21551   1.21563   1.22958
 Alpha virt. eigenvalues --    1.23019   1.23549   1.24090   1.24637   1.24864
 Alpha virt. eigenvalues --    1.25617   1.26845   1.27090   1.27811   1.28276
 Alpha virt. eigenvalues --    1.29469   1.29793   1.30291   1.30902   1.31286
 Alpha virt. eigenvalues --    1.32369   1.33027   1.33308   1.34305   1.34753
 Alpha virt. eigenvalues --    1.34900   1.36042   1.36530   1.36926   1.37271
 Alpha virt. eigenvalues --    1.38738   1.39466   1.39860   1.39954   1.41050
 Alpha virt. eigenvalues --    1.41665   1.42152   1.43153   1.43968   1.44368
 Alpha virt. eigenvalues --    1.45298   1.45914   1.46545   1.47342   1.48257
 Alpha virt. eigenvalues --    1.49337   1.49962   1.50878   1.51508   1.53045
 Alpha virt. eigenvalues --    1.53392   1.54770   1.55461   1.55538   1.56744
 Alpha virt. eigenvalues --    1.57703   1.58119   1.59402   1.60360   1.60780
 Alpha virt. eigenvalues --    1.61591   1.62827   1.63230   1.63775   1.64438
 Alpha virt. eigenvalues --    1.65396   1.66659   1.67717   1.68180   1.68559
 Alpha virt. eigenvalues --    1.69392   1.70056   1.71574   1.72567   1.73882
 Alpha virt. eigenvalues --    1.74756   1.76264   1.77323   1.78215   1.78714
 Alpha virt. eigenvalues --    1.79943   1.81055   1.81106   1.82557   1.82781
 Alpha virt. eigenvalues --    1.85227   1.85837   1.87676   1.88306   1.88945
 Alpha virt. eigenvalues --    1.90383   1.90884   1.91315   1.92646   1.93094
 Alpha virt. eigenvalues --    1.94510   1.95429   1.97258   1.98077   1.98715
 Alpha virt. eigenvalues --    1.99499   2.01037   2.02604   2.03470   2.04699
 Alpha virt. eigenvalues --    2.06338   2.06903   2.08077   2.09026   2.11057
 Alpha virt. eigenvalues --    2.12002   2.13513   2.14344   2.15856   2.16173
 Alpha virt. eigenvalues --    2.18428   2.20087   2.23026   2.24758   2.26930
 Alpha virt. eigenvalues --    2.27201   2.28225   2.28633   2.31122   2.32398
 Alpha virt. eigenvalues --    2.34055   2.34624   2.35750   2.37298   2.38931
 Alpha virt. eigenvalues --    2.39164   2.40062   2.41463   2.48800   2.51280
 Alpha virt. eigenvalues --    2.52059   2.53090   2.54712   2.56573   2.57771
 Alpha virt. eigenvalues --    2.59437   2.61945   2.63984   2.65492   2.66372
 Alpha virt. eigenvalues --    2.68403   2.69967   2.70213   2.70606   2.72084
 Alpha virt. eigenvalues --    2.74290   2.74754   2.76538   2.77596   2.79109
 Alpha virt. eigenvalues --    2.80425   2.81956   2.82726   2.85846   2.87015
 Alpha virt. eigenvalues --    2.88568   2.90136   2.91317   2.92116   2.93188
 Alpha virt. eigenvalues --    2.93868   2.95231   2.95290   2.96211   2.96548
 Alpha virt. eigenvalues --    2.97373   2.97652   2.98478   2.98789   2.99743
 Alpha virt. eigenvalues --    3.01230   3.02175   3.03102   3.04249   3.05442
 Alpha virt. eigenvalues --    3.05822   3.06219   3.06457   3.07520   3.08046
 Alpha virt. eigenvalues --    3.09450   3.09893   3.11297   3.12613   3.15185
 Alpha virt. eigenvalues --    3.15786   3.17050   3.20172   3.21278   3.23668
 Alpha virt. eigenvalues --    3.25653   3.30599   3.32937   3.76367   3.83086
 Alpha virt. eigenvalues --    3.97793   4.04488   4.07807   4.08614   4.12813
 Alpha virt. eigenvalues --    4.13142   4.14409   4.14879   4.15059   4.16701
 Alpha virt. eigenvalues --    4.17855   4.18583   4.21754   4.22413   4.23545
 Alpha virt. eigenvalues --    4.24257   4.24290   4.25545   4.26019   4.26438
 Alpha virt. eigenvalues --    4.26995   4.28339   4.28947   4.29910   4.30457
 Alpha virt. eigenvalues --    4.30662   4.31225   4.31652   4.32195   4.32465
 Alpha virt. eigenvalues --    4.32802   4.33775   4.34089   4.34681   4.35826
 Alpha virt. eigenvalues --    4.36424   4.37070   4.37980   4.38760   4.39736
 Alpha virt. eigenvalues --    4.40770   4.41987   4.42360   4.42967   4.45134
 Alpha virt. eigenvalues --    4.45321   4.46387   4.46642   4.48914   4.50064
 Alpha virt. eigenvalues --    4.50869   4.52038   4.53462   4.54769   4.55084
 Alpha virt. eigenvalues --    4.55983   4.56932   4.57713   4.59052   4.60998
 Alpha virt. eigenvalues --    4.61390   4.62802   4.63127   4.63771   4.64391
 Alpha virt. eigenvalues --    4.64766   4.65187   4.65835   4.66695   4.67127
 Alpha virt. eigenvalues --    4.67710   4.68839   4.68972   4.69995   4.70264
 Alpha virt. eigenvalues --    4.70586   4.71085   4.72096   4.72564   4.73578
 Alpha virt. eigenvalues --    4.73791   4.74610   4.76052   4.76897   4.77363
 Alpha virt. eigenvalues --    4.77723   4.78836   4.79657   4.80603   4.81085
 Alpha virt. eigenvalues --    4.81716   4.83026   4.83984   4.85796   4.86316
 Alpha virt. eigenvalues --    4.86872   4.87984   4.89447   4.90678   4.91662
 Alpha virt. eigenvalues --    4.92676   4.93233   4.95502   4.97264   4.98105
 Alpha virt. eigenvalues --    4.99599   5.00080   5.00824   5.03881   5.06384
 Alpha virt. eigenvalues --    5.07606   5.09518   5.10203   5.12964   5.16604
 Alpha virt. eigenvalues --    5.22193   5.25669   5.26458   5.31897   5.39470
 Alpha virt. eigenvalues --    5.45013   5.81826   6.05934   6.14029   6.46587
 Alpha virt. eigenvalues --    6.73806   6.77036   6.79148   6.81022   6.83650
 Alpha virt. eigenvalues --    6.87065   6.88623   6.92571   6.98533   7.06834
 Alpha virt. eigenvalues --    7.09097  11.84442  11.99368  12.07093  12.16399
 Alpha virt. eigenvalues --   12.29258  12.40176  12.66183  12.79322  12.86904
 Alpha virt. eigenvalues --   12.91570  13.13727  13.16773  13.26214  13.30313
 Alpha virt. eigenvalues --   13.31491  13.34946  13.36961  13.42545  13.48500
 Alpha virt. eigenvalues --   13.54953  13.63759  13.73057  13.79901
          Condensed to atoms (all electrons):
              1          2          3          4          5          6
     1  O    8.185806   0.252040  -0.071206  -0.013919   0.016648   0.041302
     2  C    0.252040   6.700428  -0.218732   0.076334  -0.051477  -1.383414
     3  C   -0.071206  -0.218732   6.404257   0.106638   0.020081   0.285002
     4  O   -0.013919   0.076334   0.106638   8.257805   0.230178  -0.074183
     5  H    0.016648  -0.051477   0.020081   0.230178   0.429618  -0.008213
     6  C    0.041302  -1.383414   0.285002  -0.074183  -0.008213   9.029176
     7  O   -0.000077   0.041496  -0.102292   0.009125   0.000085   0.142466
     8  H   -0.000001  -0.007740   0.005970  -0.000516   0.000010   0.055741
     9  C   -0.010985   0.135672  -0.326275   0.010517  -0.001357   0.099000
    10  O   -0.006085   0.015383   0.025456  -0.000112  -0.000012  -0.005566
    11  H    0.001065  -0.012939  -0.002160   0.000001   0.000000   0.001033
    12  C   -0.117358  -0.558362  -0.120853   0.006995   0.007593   0.185718
    13  O    0.000849  -0.032957  -0.073829   0.000429  -0.000350   0.078117
    14  C   -0.000112   0.668231  -0.204563  -0.013279   0.014955  -2.003747
    15  O   -0.000043  -0.005841   0.001019  -0.000007   0.000000  -0.009838
    16  C    0.000827   0.074644  -0.030165  -0.002994   0.000636  -0.465641
    17  C   -0.000227  -0.015407   0.022751   0.000521   0.000011   0.064535
    18  O    0.000021   0.005013  -0.001928  -0.000006   0.000000  -0.012110
    19  H   -0.000025  -0.004482   0.004444   0.000000   0.000000   0.013278
    20  C    0.000034   0.001305  -0.001733  -0.000043   0.000001   0.023557
    21  O    0.000000  -0.000014  -0.000030   0.000000   0.000000  -0.000148
    22  H    0.000000   0.000000   0.000001   0.000000   0.000000  -0.000032
    23  C   -0.000001   0.012755  -0.005590  -0.000099  -0.000014  -0.165479
    24  O    0.000000   0.001645  -0.007497  -0.000050  -0.000001   0.010512
    25  H    0.000000  -0.000026   0.001550   0.000000   0.000000  -0.001878
    26  C    0.000004  -0.024157  -0.027463   0.000199   0.000028   0.008142
    27  O    0.000000   0.000004   0.000137   0.000000   0.000000   0.005280
    28  C    0.000000   0.000238   0.000164   0.000010   0.000000  -0.000597
    29  O    0.000000   0.000004   0.000005   0.000000   0.000000  -0.000305
    30  H    0.000000   0.000000   0.000000   0.000000   0.000000   0.000005
    31  H    0.262979   0.043144  -0.029937   0.001950  -0.001881  -0.002458
    32  H    0.000000   0.000008   0.000061   0.000000   0.000000   0.001446
    33  H    0.000000   0.000121   0.000373   0.000000   0.000000  -0.004289
    34  H    0.000000   0.000055   0.000239   0.000000   0.000000  -0.002979
    35  H   -0.000001  -0.002553   0.001620   0.000007   0.000000   0.012151
    36  H    0.000000   0.000006   0.000175   0.000000   0.000000   0.003333
    37  H    0.000000   0.000063  -0.000012   0.000000   0.000000   0.000386
    38  H    0.000000   0.000002   0.000001   0.000000   0.000000   0.000015
    39  H   -0.000353  -0.025416   0.004177   0.000006   0.000000  -0.001398
    40  H    0.001809   0.038345  -0.020178   0.000070  -0.000001   0.008018
    41  H    0.004503   0.086956  -0.058425   0.000578   0.000009  -0.002447
    42  H   -0.017979   0.369475  -0.073290   0.003230   0.000293  -0.005565
    43  H   -0.004116   0.027404   0.270642  -0.032783   0.000594  -0.227848
    44  H   -0.000433   0.032479  -0.098194   0.005053  -0.000181   0.297835
    45  H   -0.000055  -0.017738  -0.014864   0.000027   0.000001   0.018544
              7          8          9         10         11         12
     1  O   -0.000077  -0.000001  -0.010985  -0.006085   0.001065  -0.117358
     2  C    0.041496  -0.007740   0.135672   0.015383  -0.012939  -0.558362
     3  C   -0.102292   0.005970  -0.326275   0.025456  -0.002160  -0.120853
     4  O    0.009125  -0.000516   0.010517  -0.000112   0.000001   0.006995
     5  H    0.000085   0.000010  -0.001357  -0.000012   0.000000   0.007593
     6  C    0.142466   0.055741   0.099000  -0.005566   0.001033   0.185718
     7  O    8.231129   0.235197  -0.000438  -0.000010   0.000000  -0.001310
     8  H    0.235197   0.357874   0.000249   0.000000   0.000000   0.003074
     9  C   -0.000438   0.000249   6.311651   0.071091  -0.005067  -0.844891
    10  O   -0.000010   0.000000   0.071091   8.253502   0.226475  -0.002062
    11  H    0.000000   0.000000  -0.005067   0.226475   0.449603   0.027026
    12  C   -0.001310   0.003074  -0.844891  -0.002062   0.027026   8.161480
    13  O    0.000791  -0.000209  -0.009106  -0.003797  -0.000261  -0.048359
    14  C    0.033842  -0.067043  -0.283852   0.012536  -0.003088  -0.598996
    15  O    0.006422   0.011799  -0.011747   0.000010   0.000000   0.006990
    16  C    0.025017   0.004995  -0.040960   0.000440  -0.000419  -0.120458
    17  C   -0.004169  -0.001292   0.015545   0.000190   0.000006  -0.020696
    18  O    0.000090  -0.000050   0.000833  -0.000123  -0.000005  -0.007470
    19  H   -0.000055  -0.000009   0.000564  -0.000018   0.000000  -0.001894
    20  C    0.001119   0.000699   0.001711   0.000035  -0.000002  -0.009283
    21  O   -0.000002   0.000000   0.000131   0.000000   0.000000  -0.000159
    22  H    0.000000   0.000000  -0.000003   0.000000   0.000000   0.000015
    23  C    0.027341   0.006472  -0.001170  -0.000003   0.000000  -0.003290
    24  O   -0.047165   0.000615  -0.000014   0.000000   0.000000  -0.001388
    25  H    0.002754  -0.003080  -0.000007   0.000000   0.000000  -0.000207
    26  C   -0.024655  -0.018824   0.013303   0.000009  -0.000004   0.024732
    27  O   -0.000084  -0.000070   0.000044   0.000000   0.000000  -0.000041
    28  C   -0.000163  -0.000033  -0.000942  -0.000001   0.000000   0.000620
    29  O   -0.000002   0.000000  -0.000002   0.000000   0.000000   0.000048
    30  H    0.000000   0.000000   0.000000   0.000000   0.000000  -0.000001
    31  H   -0.000006   0.000000   0.001678  -0.000459  -0.000029  -0.017354
    32  H   -0.000538   0.000337  -0.000005   0.000000   0.000000   0.000023
    33  H    0.001748  -0.000012  -0.000002   0.000000   0.000000   0.000116
    34  H   -0.000158   0.000000   0.000023   0.000000   0.000000   0.000483
    35  H   -0.002071  -0.000141   0.000441   0.000001   0.000000   0.003842
    36  H    0.000002  -0.000003  -0.000073   0.000000   0.000000   0.000086
    37  H    0.000002   0.000000  -0.000052   0.000000   0.000000   0.000258
    38  H    0.000000   0.000000   0.000000   0.000000   0.000000   0.000007
    39  H   -0.000012   0.000000   0.412588  -0.020934  -0.013846  -0.009607
    40  H    0.000012   0.000000   0.593080  -0.052766  -0.000049  -0.263059
    41  H    0.000002   0.000001   0.083741   0.003785  -0.000333   0.049508
    42  H    0.000646  -0.000001   0.003007  -0.000512  -0.000016  -0.099453
    43  H    0.007681  -0.000208   0.018137  -0.000188   0.000000   0.060875
    44  H   -0.026824  -0.004865   0.008050   0.000004   0.000000   0.043768
    45  H   -0.012063  -0.000535   0.010402   0.000056   0.000000   0.043192
             13         14         15         16         17         18
     1  O    0.000849  -0.000112  -0.000043   0.000827  -0.000227   0.000021
     2  C   -0.032957   0.668231  -0.005841   0.074644  -0.015407   0.005013
     3  C   -0.073829  -0.204563   0.001019  -0.030165   0.022751  -0.001928
     4  O    0.000429  -0.013279  -0.000007  -0.002994   0.000521  -0.000006
     5  H   -0.000350   0.014955   0.000000   0.000636   0.000011   0.000000
     6  C    0.078117  -2.003747  -0.009838  -0.465641   0.064535  -0.012110
     7  O    0.000791   0.033842   0.006422   0.025017  -0.004169   0.000090
     8  H   -0.000209  -0.067043   0.011799   0.004995  -0.001292  -0.000050
     9  C   -0.009106  -0.283852  -0.011747  -0.040960   0.015545   0.000833
    10  O   -0.003797   0.012536   0.000010   0.000440   0.000190  -0.000123
    11  H   -0.000261  -0.003088   0.000000  -0.000419   0.000006  -0.000005
    12  C   -0.048359  -0.598996   0.006990  -0.120458  -0.020696  -0.007470
    13  O    8.260653   0.149014   0.003264   0.035063  -0.012943  -0.012248
    14  C    0.149014   8.520829   0.238161  -0.653762  -0.104472  -0.044977
    15  O    0.003264   0.238161   8.037352   0.164176  -0.006243  -0.012681
    16  C    0.035063  -0.653762   0.164176  11.218331  -2.570697   0.114289
    17  C   -0.012943  -0.104472  -0.006243  -2.570697   7.945290   0.060275
    18  O   -0.012248  -0.044977  -0.012681   0.114289   0.060275   8.261831
    19  H    0.020744   0.005303   0.014760  -0.094859   0.066134   0.223288
    20  C   -0.012759  -0.246086   0.006787  -1.375891   0.639846  -0.057899
    21  O    0.000010   0.004241  -0.000014   0.079830  -0.100937   0.009876
    22  H    0.000002  -0.000581  -0.000022  -0.009620   0.008714  -0.000320
    23  C    0.007790   0.137806  -0.003016   0.483666  -0.523901   0.021966
    24  O   -0.000296   0.064691  -0.029809   0.023946   0.008319  -0.000140
    25  H   -0.000030  -0.008408   0.002781  -0.012488  -0.001777   0.000001
    26  C   -0.021163  -0.477759  -0.093656  -2.533165   0.754479   0.037263
    27  O    0.000087   0.007812  -0.000666   0.079908  -0.028806  -0.000487
    28  C    0.001908   0.044733   0.005894   1.142799  -0.459883   0.007885
    29  O    0.000029  -0.001385  -0.000176  -0.016213  -0.042353   0.000703
    30  H    0.000000  -0.000015   0.000000   0.000694   0.009885  -0.000019
    31  H   -0.000523   0.001693  -0.000001   0.000107  -0.000018   0.000000
    32  H    0.000036   0.005288   0.000197   0.009841   0.009049   0.000004
    33  H   -0.000022  -0.002514   0.002102   0.069600  -0.010009   0.000044
    34  H   -0.000132   0.055951  -0.000851   0.023850  -0.043918   0.000601
    35  H   -0.002356   0.000269  -0.032949   0.153983   0.051144  -0.003168
    36  H   -0.000195   0.000800  -0.005594  -0.004512   0.273405  -0.018419
    37  H    0.000138  -0.005219   0.000255   0.157177  -0.227008   0.009734
    38  H    0.000004   0.002130   0.000198   0.075977  -0.025326   0.000548
    39  H   -0.007307  -0.010474  -0.000247   0.004060   0.001137   0.000140
    40  H   -0.005178   0.002006  -0.000426  -0.001451   0.001008  -0.000041
    41  H   -0.019874   0.092769  -0.000945   0.007363   0.002403  -0.000052
    42  H    0.008778   0.063085  -0.000056  -0.004082   0.000836   0.000035
    43  H    0.004199   0.097038   0.001147  -0.013456   0.002006   0.000068
    44  H    0.007450   0.011108  -0.006175  -0.018596   0.001397   0.000079
    45  H   -0.043097   0.295674  -0.050379  -0.025636   0.024241  -0.002418
             19         20         21         22         23         24
     1  O   -0.000025   0.000034   0.000000   0.000000  -0.000001   0.000000
     2  C   -0.004482   0.001305  -0.000014   0.000000   0.012755   0.001645
     3  C    0.004444  -0.001733  -0.000030   0.000001  -0.005590  -0.007497
     4  O    0.000000  -0.000043   0.000000   0.000000  -0.000099  -0.000050
     5  H    0.000000   0.000001   0.000000   0.000000  -0.000014  -0.000001
     6  C    0.013278   0.023557  -0.000148  -0.000032  -0.165479   0.010512
     7  O   -0.000055   0.001119  -0.000002   0.000000   0.027341  -0.047165
     8  H   -0.000009   0.000699   0.000000   0.000000   0.006472   0.000615
     9  C    0.000564   0.001711   0.000131  -0.000003  -0.001170  -0.000014
    10  O   -0.000018   0.000035   0.000000   0.000000  -0.000003   0.000000
    11  H    0.000000  -0.000002   0.000000   0.000000   0.000000   0.000000
    12  C   -0.001894  -0.009283  -0.000159   0.000015  -0.003290  -0.001388
    13  O    0.020744  -0.012759   0.000010   0.000002   0.007790  -0.000296
    14  C    0.005303  -0.246086   0.004241  -0.000581   0.137806   0.064691
    15  O    0.014760   0.006787  -0.000014  -0.000022  -0.003016  -0.029809
    16  C   -0.094859  -1.375891   0.079830  -0.009620   0.483666   0.023946
    17  C    0.066134   0.639846  -0.100937   0.008714  -0.523901   0.008319
    18  O    0.223288  -0.057899   0.009876  -0.000320   0.021966  -0.000140
    19  H    0.387829  -0.005900  -0.000578   0.000015  -0.007290   0.000017
    20  C   -0.005900   7.020393   0.085805  -0.017778  -0.020439  -0.007065
    21  O   -0.000578   0.085805   8.245615   0.234023   0.001572   0.000010
    22  H    0.000015  -0.017778   0.234023   0.433850  -0.000089   0.000000
    23  C   -0.007290  -0.020439   0.001572  -0.000089   6.534748  -0.062715
    24  O    0.000017  -0.007065   0.000010   0.000000  -0.062715   8.347236
    25  H    0.000000   0.001049   0.000000   0.000000  -0.001770   0.244576
    26  C    0.001403   0.802281  -0.042407   0.007047  -1.065478   0.083951
    27  O    0.000064  -0.117258   0.002621  -0.000463  -0.073560   0.002537
    28  C    0.001979  -0.933416   0.068732  -0.000029  -0.083272   0.007102
    29  O    0.000002   0.000308  -0.007797   0.017140   0.007361   0.000010
    30  H    0.000000  -0.034065  -0.001264  -0.002210  -0.000519   0.000000
    31  H    0.000000   0.000000   0.000000   0.000000   0.000002   0.000000
    32  H    0.000000  -0.000712  -0.000008   0.000000   0.385442  -0.020611
    33  H   -0.000001  -0.000593   0.000003   0.000000   0.615986  -0.065851
    34  H    0.000018  -0.037337   0.000133   0.000003   0.093531   0.000322
    35  H   -0.000266   0.030093  -0.000299   0.000003  -0.027453   0.000448
    36  H   -0.002914  -0.039457   0.002062  -0.000239   0.020062  -0.000056
    37  H   -0.000250   0.306143  -0.020480  -0.003669   0.012554   0.000019
    38  H    0.000002  -0.135405   0.001601   0.000123   0.001364   0.000033
    39  H    0.000547  -0.000220   0.000001   0.000000  -0.000012   0.000000
    40  H    0.000016   0.000068   0.000000   0.000000  -0.000009   0.000000
    41  H   -0.000060   0.000315   0.000000   0.000000   0.000097   0.000002
    42  H   -0.000006  -0.000020   0.000000   0.000000   0.000004   0.000008
    43  H    0.000000  -0.000099   0.000000   0.000000   0.000172   0.000070
    44  H   -0.000016   0.000120   0.000000   0.000000   0.004342   0.000393
    45  H   -0.000418   0.007898   0.000001   0.000000  -0.005211  -0.000029
             25         26         27         28         29         30
     1  O    0.000000   0.000004   0.000000   0.000000   0.000000   0.000000
     2  C   -0.000026  -0.024157   0.000004   0.000238   0.000004   0.000000
     3  C    0.001550  -0.027463   0.000137   0.000164   0.000005   0.000000
     4  O    0.000000   0.000199   0.000000   0.000010   0.000000   0.000000
     5  H    0.000000   0.000028   0.000000   0.000000   0.000000   0.000000
     6  C   -0.001878   0.008142   0.005280  -0.000597  -0.000305   0.000005
     7  O    0.002754  -0.024655  -0.000084  -0.000163  -0.000002   0.000000
     8  H   -0.003080  -0.018824  -0.000070  -0.000033   0.000000   0.000000
     9  C   -0.000007   0.013303   0.000044  -0.000942  -0.000002   0.000000
    10  O    0.000000   0.000009   0.000000  -0.000001   0.000000   0.000000
    11  H    0.000000  -0.000004   0.000000   0.000000   0.000000   0.000000
    12  C   -0.000207   0.024732  -0.000041   0.000620   0.000048  -0.000001
    13  O   -0.000030  -0.021163   0.000087   0.001908   0.000029   0.000000
    14  C   -0.008408  -0.477759   0.007812   0.044733  -0.001385  -0.000015
    15  O    0.002781  -0.093656  -0.000666   0.005894  -0.000176   0.000000
    16  C   -0.012488  -2.533165   0.079908   1.142799  -0.016213   0.000694
    17  C   -0.001777   0.754479  -0.028806  -0.459883  -0.042353   0.009885
    18  O    0.000001   0.037263  -0.000487   0.007885   0.000703  -0.000019
    19  H    0.000000   0.001403   0.000064   0.001979   0.000002   0.000000
    20  C    0.001049   0.802281  -0.117258  -0.933416   0.000308  -0.034065
    21  O    0.000000  -0.042407   0.002621   0.068732  -0.007797  -0.001264
    22  H    0.000000   0.007047  -0.000463  -0.000029   0.017140  -0.002210
    23  C   -0.001770  -1.065478  -0.073560  -0.083272   0.007361  -0.000519
    24  O    0.244576   0.083951   0.002537   0.007102   0.000010   0.000000
    25  H    0.411718   0.018288  -0.000658  -0.001267  -0.000002   0.000000
    26  C    0.018288   9.582438   0.111927  -0.982603   0.014139  -0.004834
    27  O   -0.000658   0.111927   8.176046   0.218412  -0.035458   0.003362
    28  C   -0.001267  -0.982603   0.218412   6.023850   0.223292   0.018949
    29  O   -0.000002   0.014139  -0.035458   0.223292   8.145639   0.261191
    30  H    0.000000  -0.004834   0.003362   0.018949   0.261191   0.423823
    31  H    0.000000  -0.000005   0.000000   0.000000   0.000000   0.000000
    32  H   -0.013057  -0.051215  -0.001837   0.001009  -0.000097   0.000000
    33  H    0.000026  -0.313331   0.002663   0.003677  -0.000095   0.000000
    34  H   -0.000218   0.132792  -0.037024   0.056270  -0.001301   0.000018
    35  H   -0.000008   0.068525   0.002860   0.004079  -0.000572   0.000002
    36  H    0.000000   0.042278   0.001502  -0.017057   0.000163   0.000011
    37  H    0.000000  -0.026874   0.002500   0.058594  -0.002328   0.000144
    38  H    0.000000  -0.037367  -0.043004   0.464048  -0.024162  -0.008647
    39  H    0.000000   0.000385   0.000000   0.000002   0.000000   0.000000
    40  H    0.000000  -0.000036   0.000000  -0.000001   0.000000   0.000000
    41  H    0.000000  -0.000467   0.000000  -0.000009   0.000000   0.000000
    42  H    0.000000  -0.000169   0.000000   0.000001   0.000000   0.000000
    43  H    0.000000  -0.000337   0.000000  -0.000001   0.000000   0.000000
    44  H    0.000000  -0.005918  -0.000001  -0.000065   0.000000   0.000000
    45  H    0.000009   0.021242   0.000288  -0.001347  -0.000002   0.000000
             31         32         33         34         35         36
     1  O    0.262979   0.000000   0.000000   0.000000  -0.000001   0.000000
     2  C    0.043144   0.000008   0.000121   0.000055  -0.002553   0.000006
     3  C   -0.029937   0.000061   0.000373   0.000239   0.001620   0.000175
     4  O    0.001950   0.000000   0.000000   0.000000   0.000007   0.000000
     5  H   -0.001881   0.000000   0.000000   0.000000   0.000000   0.000000
     6  C   -0.002458   0.001446  -0.004289  -0.002979   0.012151   0.003333
     7  O   -0.000006  -0.000538   0.001748  -0.000158  -0.002071   0.000002
     8  H    0.000000   0.000337  -0.000012   0.000000  -0.000141  -0.000003
     9  C    0.001678  -0.000005  -0.000002   0.000023   0.000441  -0.000073
    10  O   -0.000459   0.000000   0.000000   0.000000   0.000001   0.000000
    11  H   -0.000029   0.000000   0.000000   0.000000   0.000000   0.000000
    12  C   -0.017354   0.000023   0.000116   0.000483   0.003842   0.000086
    13  O   -0.000523   0.000036  -0.000022  -0.000132  -0.002356  -0.000195
    14  C    0.001693   0.005288  -0.002514   0.055951   0.000269   0.000800
    15  O   -0.000001   0.000197   0.002102  -0.000851  -0.032949  -0.005594
    16  C    0.000107   0.009841   0.069600   0.023850   0.153983  -0.004512
    17  C   -0.000018   0.009049  -0.010009  -0.043918   0.051144   0.273405
    18  O    0.000000   0.000004   0.000044   0.000601  -0.003168  -0.018419
    19  H    0.000000   0.000000  -0.000001   0.000018  -0.000266  -0.002914
    20  C    0.000000  -0.000712  -0.000593  -0.037337   0.030093  -0.039457
    21  O    0.000000  -0.000008   0.000003   0.000133  -0.000299   0.002062
    22  H    0.000000   0.000000   0.000000   0.000003   0.000003  -0.000239
    23  C    0.000002   0.385442   0.615986   0.093531  -0.027453   0.020062
    24  O    0.000000  -0.020611  -0.065851   0.000322   0.000448  -0.000056
    25  H    0.000000  -0.013057   0.000026  -0.000218  -0.000008   0.000000
    26  C   -0.000005  -0.051215  -0.313331   0.132792   0.068525   0.042278
    27  O    0.000000  -0.001837   0.002663  -0.037024   0.002860   0.001502
    28  C    0.000000   0.001009   0.003677   0.056270   0.004079  -0.017057
    29  O    0.000000  -0.000097  -0.000095  -0.001301  -0.000572   0.000163
    30  H    0.000000   0.000000   0.000000   0.000018   0.000002   0.000011
    31  H    0.411659   0.000000   0.000000   0.000000   0.000000   0.000000
    32  H    0.000000   0.580446  -0.041115  -0.003918   0.000039   0.000008
    33  H    0.000000  -0.041115   0.576227   0.006456   0.002747  -0.000013
    34  H    0.000000  -0.003918   0.006456   0.625674   0.006122   0.001171
    35  H    0.000000   0.000039   0.002747   0.006122   0.589687   0.004663
    36  H    0.000000   0.000008  -0.000013   0.001171   0.004663   0.601530
    37  H    0.000000   0.000000  -0.000018  -0.000060   0.001282   0.005811
    38  H    0.000000  -0.000031  -0.000004   0.002995  -0.000026   0.001444
    39  H    0.000018   0.000000   0.000000   0.000000   0.000000  -0.000001
    40  H   -0.000180   0.000000   0.000000   0.000000   0.000000   0.000000
    41  H   -0.000122   0.000000   0.000000   0.000000  -0.000003   0.000000
    42  H   -0.012764   0.000000   0.000000   0.000000   0.000000   0.000000
    43  H   -0.000083   0.000000   0.000001   0.000000   0.000000   0.000000
    44  H    0.000011   0.000000  -0.000001   0.000002  -0.000005  -0.000002
    45  H    0.000001   0.000002   0.000081   0.000003   0.009664  -0.000015
             37         38         39         40         41         42
     1  O    0.000000   0.000000  -0.000353   0.001809   0.004503  -0.017979
     2  C    0.000063   0.000002  -0.025416   0.038345   0.086956   0.369475
     3  C   -0.000012   0.000001   0.004177  -0.020178  -0.058425  -0.073290
     4  O    0.000000   0.000000   0.000006   0.000070   0.000578   0.003230
     5  H    0.000000   0.000000   0.000000  -0.000001   0.000009   0.000293
     6  C    0.000386   0.000015  -0.001398   0.008018  -0.002447  -0.005565
     7  O    0.000002   0.000000  -0.000012   0.000012   0.000002   0.000646
     8  H    0.000000   0.000000   0.000000   0.000000   0.000001  -0.000001
     9  C   -0.000052   0.000000   0.412588   0.593080   0.083741   0.003007
    10  O    0.000000   0.000000  -0.020934  -0.052766   0.003785  -0.000512
    11  H    0.000000   0.000000  -0.013846  -0.000049  -0.000333  -0.000016
    12  C    0.000258   0.000007  -0.009607  -0.263059   0.049508  -0.099453
    13  O    0.000138   0.000004  -0.007307  -0.005178  -0.019874   0.008778
    14  C   -0.005219   0.002130  -0.010474   0.002006   0.092769   0.063085
    15  O    0.000255   0.000198  -0.000247  -0.000426  -0.000945  -0.000056
    16  C    0.157177   0.075977   0.004060  -0.001451   0.007363  -0.004082
    17  C   -0.227008  -0.025326   0.001137   0.001008   0.002403   0.000836
    18  O    0.009734   0.000548   0.000140  -0.000041  -0.000052   0.000035
    19  H   -0.000250   0.000002   0.000547   0.000016  -0.000060  -0.000006
    20  C    0.306143  -0.135405  -0.000220   0.000068   0.000315  -0.000020
    21  O   -0.020480   0.001601   0.000001   0.000000   0.000000   0.000000
    22  H   -0.003669   0.000123   0.000000   0.000000   0.000000   0.000000
    23  C    0.012554   0.001364  -0.000012  -0.000009   0.000097   0.000004
    24  O    0.000019   0.000033   0.000000   0.000000   0.000002   0.000008
    25  H    0.000000   0.000000   0.000000   0.000000   0.000000   0.000000
    26  C   -0.026874  -0.037367   0.000385  -0.000036  -0.000467  -0.000169
    27  O    0.002500  -0.043004   0.000000   0.000000   0.000000   0.000000
    28  C    0.058594   0.464048   0.000002  -0.000001  -0.000009   0.000001
    29  O   -0.002328  -0.024162   0.000000   0.000000   0.000000   0.000000
    30  H    0.000144  -0.008647   0.000000   0.000000   0.000000   0.000000
    31  H    0.000000   0.000000   0.000018  -0.000180  -0.000122  -0.012764
    32  H    0.000000  -0.000031   0.000000   0.000000   0.000000   0.000000
    33  H   -0.000018  -0.000004   0.000000   0.000000   0.000000   0.000000
    34  H   -0.000060   0.002995   0.000000   0.000000   0.000000   0.000000
    35  H    0.001282  -0.000026   0.000000   0.000000  -0.000003   0.000000
    36  H    0.005811   0.001444  -0.000001   0.000000   0.000000   0.000000
    37  H    0.589325   0.004505   0.000000   0.000000   0.000000   0.000000
    38  H    0.004505   0.577863   0.000000   0.000000   0.000000   0.000000
    39  H    0.000000   0.000000   0.571404  -0.047101  -0.003736   0.000132
    40  H    0.000000   0.000000  -0.047101   0.598332   0.006143   0.004373
    41  H    0.000000   0.000000  -0.003736   0.006143   0.619121   0.006411
    42  H    0.000000   0.000000   0.000132   0.004373   0.006411   0.630842
    43  H    0.000000   0.000000   0.000005  -0.000005   0.002735   0.007856
    44  H    0.000000   0.000000   0.000000  -0.000023  -0.000072   0.002469
    45  H   -0.000007   0.000000  -0.000031  -0.000008   0.002994   0.000001
             43         44         45
     1  O   -0.004116  -0.000433  -0.000055
     2  C    0.027404   0.032479  -0.017738
     3  C    0.270642  -0.098194  -0.014864
     4  O   -0.032783   0.005053   0.000027
     5  H    0.000594  -0.000181   0.000001
     6  C   -0.227848   0.297835   0.018544
     7  O    0.007681  -0.026824  -0.012063
     8  H   -0.000208  -0.004865  -0.000535
     9  C    0.018137   0.008050   0.010402
    10  O   -0.000188   0.000004   0.000056
    11  H    0.000000   0.000000   0.000000
    12  C    0.060875   0.043768   0.043192
    13  O    0.004199   0.007450  -0.043097
    14  C    0.097038   0.011108   0.295674
    15  O    0.001147  -0.006175  -0.050379
    16  C   -0.013456  -0.018596  -0.025636
    17  C    0.002006   0.001397   0.024241
    18  O    0.000068   0.000079  -0.002418
    19  H    0.000000  -0.000016  -0.000418
    20  C   -0.000099   0.000120   0.007898
    21  O    0.000000   0.000000   0.000001
    22  H    0.000000   0.000000   0.000000
    23  C    0.000172   0.004342  -0.005211
    24  O    0.000070   0.000393  -0.000029
    25  H    0.000000   0.000000   0.000009
    26  C   -0.000337  -0.005918   0.021242
[...]
 15,0.00167695,0.00159031,0.00055193,0.00096061,-0.00017872,-0.00008512
 ,-0.00000196,0.00011566,-0.00000624,0.00017720,0.00001120,0.00001167,-
 0.00002940,-0.00002533,0.00000578,0.00000915,0.00004104,-0.00003379,0.
 00001955,-0.00004567,0.00004547,-0.00003026,-0.00000419,0.00000659,-0.
 00000652,0.00001157,-0.00001152,0.00000929,-0.00000276,0.00000054,-0.0
 0000175,-0.00001022,0.00000290,-0.00000627,0.00004085,0.00001804,0.000
 05118,-0.00001515,-0.00000494,0.00000135,-0.00001443,-0.00000525,-0.00
 000803,0.00001336,-0.00000943,0.00001546,-0.00001328,0.00001358,-0.000
 01202,0.00000330,-0.00000261,0.00000559,-0.00000158,-0.00000012,-0.000
 00090,0.00101052,0.00012069,-0.00042452,-0.00000010,-0.00000001,0.0000
 0425,0.00000612,-0.00000053,-0.00000355,0.00000764,0.00000043,0.000006
 11,0.00000792,0.00000095,-0.00000707,0.00000653,0.00000142,0.00000863,
 0.00000408,0.00000071,-0.00000239,0.00000326,-0.00000046,0.00000262,0.
 00047399,0.00015357,-0.00007084,0.00085958,-0.00058143,-0.00014143,0.0
 0052027,-0.00046410,0.00063794,0.36961819,-0.01013303,-0.00023821,-0.0
 0424362,-0.00633592,-0.04445034,0.00332398,0.03381460,0.00036582,-0.00
 976392,-0.00232491,0.00203090,0.00061509,0.00033556,-0.00005338,0.0004
 7636,0.00067016,0.00135135,0.00122293,-0.00045085,-0.00020006,-0.00002
 763,-0.00007156,-0.00001065,0.00007393,-0.00254524,0.00137893,-0.00023
 691,0.00045699,0.00002812,0.00012284,-0.00002267,-0.00007886,-0.000018
 62,-0.02650987,-0.00335165,0.00736914,0.00146732,0.00115138,-0.0010515
 1,0.00028183,-0.00054488,-0.00017647,-0.00003374,0.00011119,-0.0000283
 6,-0.00001941,0.00001512,0.00000575,0.00000987,-0.00000066,-0.00001174
 ,0.00001494,-0.00000768,-0.00000335,-0.00001957,0.00001681,-0.00000451
 ,-0.00000623,-0.00000003,0.00000256,0.00000251,0.00000333,-0.00000338,
 -0.00000095,-0.00000037,-0.00000025,0.00000184,-0.00000747,0.00000629,
 -0.00002126,-0.00001079,-0.00004605,0.00000863,0.00000462,-0.00000277,
 0.00000125,-0.00000446,0.00000810,-0.00000266,0.00000609,-0.00000630,0
 .00000127,-0.00000529,0.00000755,0.00000262,0.00000078,-0.00000614,-0.
 00000012,0.00000042,0.00000121,-0.00094999,0.00133965,0.00013169,-0.00
 000010,0.00000113,-0.00000461,-0.00000196,0.00000034,0.00000342,-0.000
 00128,0.00000116,-0.00000139,0.00000097,-0.00000745,0.00000490,0.00000
 095,0.00000265,0.00000169,0.00000044,-0.00000084,-0.00000097,-0.000000
 27,0.00000094,-0.00000029,0.00030191,0.00032419,-0.00013724,0.00106020
 ,-0.00033478,-0.00013361,-0.00083270,-0.00293695,0.00338313,0.01047270
 ,0.04943420,-0.04135907,-0.00658063,-0.01159825,0.06415547,0.00378808,
 -0.05458269,0.01394030,0.00043128,-0.00287126,-0.00083729,-0.00067104,
 0.00134777,-0.00023968,-0.00048348,-0.00016495,0.00104203,0.00022282,0
 .00054220,-0.00039466,-0.00005060,-0.00003195,0.00001647,0.00002176,0.
 00004149,0.00074132,-0.00158366,0.00066204,-0.00022319,0.00003203,0.00
 005225,0.00004729,0.00000344,0.00007061,0.02489368,0.00270622,-0.00441
 125,-0.00124042,-0.00066199,0.00203604,0.00030970,-0.00015642,-0.00024
 950,-0.00010289,0.00002090,-0.00018027,0.00000236,-0.00002703,0.000024
 08,0.00001511,-0.00000183,0.00000545,-0.00004372,0.00000607,-0.0000066
 4,0.00004930,-0.00000353,-0.00001009,0.00000587,-0.00000909,0.00001167
 ,-0.00001020,0.00001340,-0.00001314,0.00000214,-0.00000114,0.00000238,
 0.00001091,0.00000186,0.00000292,-0.00002420,-0.00001528,-0.00003038,0
 .00000886,0.00000411,0.00000121,0.00001088,0.00001102,0.00001282,-0.00
 001011,0.00000873,-0.00002167,0.00000808,-0.00001289,0.00002018,0.0000
 0137,0.00000236,-0.00001311,0.00000057,0.00000042,0.00000256,-0.002842
 62,0.00079886,0.00353019,-0.00000140,-0.00000231,-0.00000354,-0.000005
 36,0.00000171,0.00000370,-0.00000615,-0.00000152,-0.00000605,-0.000009
 30,0.00000064,0.00000995,-0.00000737,-0.00000287,-0.00001038,-0.000004
 18,-0.00000020,0.00000334,-0.00000251,0.00000017,-0.00000305,-0.000158
 76,-0.00024282,0.00000519,-0.00080024,0.00030083,0.00025287,0.00051625
 ,0.00269904,-0.00327981,-0.05761510,0.00219719,0.06959823,0.00163772,0
 .00041603,0.00040000,-0.01784045,0.00243372,0.00434774,-0.32347689,-0.
 04097403,0.06475420,0.00865493,-0.00476790,0.00511825,-0.00033314,-0.0
 0068814,-0.00033621,-0.02419567,-0.00306941,-0.00041346,0.00285467,0.0
 0078778,0.00119184,0.00020769,0.00029820,0.00008018,0.00067749,0.00037
 520,-0.00006520,0.00000037,-0.00003064,-0.00005333,-0.00000635,0.00001
 659,-0.00000467,-0.00042190,-0.00183424,0.00102851,0.00019323,0.000845
 79,-0.00067884,-0.00177930,-0.00138140,0.00154555,0.00094374,0.0000516
 1,0.00001521,-0.00006760,0.00009861,-0.00016832,-0.00000290,-0.0000158
 4,-0.00005741,0.00005885,0.00000538,0.00004495,-0.00004909,0.00001351,
 -0.00000376,-0.00002103,0.00001534,-0.00001484,0.00001948,-0.00000947,
 0.00001716,-0.00000534,0.00000047,-0.00000552,-0.00005481,-0.00004043,
 0.00005707,0.00007396,0.00007370,0.00005730,-0.00001996,-0.00000996,0.
 00001933,-0.00000243,-0.00001166,-0.00001963,0.00001648,0.00000852,0.0
 0001321,-0.00001042,-0.00000336,-0.00002208,-0.00000023,0.00000379,0.0
 0001716,-0.00000098,-0.00000182,-0.00000399,0.00026554,-0.00025688,-0.
 00023077,0.00000746,0.00000553,0.00000202,0.00002181,0.00000140,-0.000
 01401,0.00001304,0.00000094,0.00001444,0.00001446,0.00000798,-0.000055
 63,0.00001188,0.00000030,0.00001162,0.00000676,0.00000051,-0.00000408,
 0.00000380,0.00000040,0.00000384,0.00000948,0.00008565,-0.00000834,0.0
 0023350,-0.00038950,-0.00001437,0.00112138,0.00080698,-0.00064024,0.00
 035330,0.00217247,0.00074643,0.35043975,-0.00180714,0.00164894,0.00148
 703,0.03359421,-0.00331396,-0.00930955,-0.04106799,-0.04020951,0.00241
 880,-0.02525949,-0.02207750,0.02769076,-0.00130879,-0.00112315,-0.0000
 3264,-0.01315581,-0.00006094,-0.00076178,0.00019422,0.00066201,0.00117
 277,0.00002307,0.00002898,-0.00005707,0.00041150,0.00008589,-0.0002044
 1,-0.00010392,-0.00001693,-0.00003017,0.00000762,0.00001820,0.00000505
 ,0.00219661,0.00087787,-0.00105881,-0.00035672,-0.00005172,0.00003865,
 0.00036315,-0.00010795,0.00105819,0.00021972,-0.00006323,-0.00017622,-
 0.00002128,0.00003862,-0.00003435,0.00001161,0.00000379,-0.00001505,-0
 .00000269,-0.00000364,-0.00000321,0.00000526,-0.00000754,0.00002005,-0
 .00000968,0.00000242,0.00000163,0.00000361,-0.00000161,-0.00000418,-0.
 00000132,0.00000187,-0.00000041,-0.00002486,0.00000941,-0.00000784,0.0
 0007306,0.00002765,0.00009775,-0.00002423,-0.00000807,0.00000144,-0.00
 000364,0.00002558,0.00000228,0.00000859,-0.00001545,-0.00000332,-0.000
 00451,0.00000986,-0.00000273,0.00000134,-0.00000204,-0.00000010,0.0000
 0001,-0.00000018,-0.00000047,0.00007815,0.00026354,0.00044471,0.000002
 57,-0.00000377,0.00000503,0.00001053,0.00000389,-0.00001029,0.00000514
 ,-0.00000559,0.00000352,0.00000113,0.00000954,-0.00001376,-0.00000047,
 -0.00000145,0.00000032,0.00000063,0.00000079,0.00000086,0.00000125,-0.
 00000110,0.00000056,-0.00012546,0.00002861,0.00002826,-0.00029262,-0.0
 0011962,0.00009922,-0.00028750,-0.00067846,0.00019145,0.00202869,-0.00
 505283,-0.00266828,0.04510486,0.06907619,-0.00085953,0.00100728,0.0014
 9374,0.01954588,-0.00249843,-0.00272618,0.06650706,0.00174057,-0.05519
 232,0.02199612,0.02472887,-0.01848975,0.00158902,0.00099721,-0.0004604
 3,-0.03351297,-0.00669054,0.00100922,0.00134697,0.00150138,0.00245720,
 -0.00038016,0.00038789,0.00005802,-0.00017046,-0.00017020,-0.00009396,
 -0.00001030,0.00001180,0.00001336,-0.00000168,0.00000137,0.00000162,-0
 .00058367,0.00209767,0.00037958,0.00029133,-0.00025166,-0.00002914,-0.
 00174032,-0.00031757,0.00071855,0.00037047,-0.00000312,0.00016876,0.00
 008366,0.00002361,0.00002198,-0.00000564,-0.00001014,-0.00000142,0.000
 00745,0.00000431,0.00000630,-0.00001119,-0.00000151,-0.00002146,0.0000
 0044,-0.00000084,0.00000544,-0.00000102,0.00000413,-0.00000525,-0.0000
 0012,-0.00000025,0.00000018,-0.00000808,0.00000189,0.00000707,0.000096
 13,0.00002671,0.00012138,-0.00000774,0.00000470,-0.00000978,-0.0000072
 0,0.00001208,0.00001163,0.00000342,-0.00000027,-0.00001309,-0.00000033
 ,-0.00000561,0.00000755,0.00000280,0.00000062,-0.00000523,-0.00000035,
 0.00000061,0.00000152,-0.00010907,0.00041582,0.00018141,0.00000117,-0.
 00000216,0.00000095,0.00000845,0.00000208,-0.00000958,0.00000512,-0.00
 000157,0.00000735,0.00001920,0.00001341,-0.00004570,0.00000110,-0.0000
 0180,0.00000381,-0.00000050,0.00000061,-0.00000113,-0.00000017,0.00000
 064,-0.00000020,-0.00006887,-0.00003930,0.00001139,-0.00016118,0.00016
 055,-0.00000183,-0.00054351,-0.00007322,0.00047558,0.00104286,-0.00281
 216,-0.00082406,-0.07276226,-0.01849574,0.07626580,0.00039623,-0.00004
 931,-0.00018591,-0.00069328,0.00091276,0.00026139,-0.01368060,-0.00665
 287,0.00159350,0.00171448,0.00105693,0.00012895,0.00004431,0.00002862,
 0.00005501,-0.32872344,-0.08140714,0.03233932,-0.01630295,0.00779882,0
 .00968889,-0.00050451,0.00038071,-0.00166146,-0.00007732,-0.00003486,0
 .00002068,0.00005223,0.00001388,0.00000041,-0.00000926,-0.00000486,0.0
 0000391,0.00007522,0.00005749,0.00014545,0.00062621,-0.00163393,-0.000
 19439,-0.00251890,-0.00000134,-0.00039963,0.00080136,-0.00013404,0.000
 19076,0.00019768,0.00006307,0.00016891,-0.00001311,0.00002434,0.000008
 82,0.00004136,-0.00002557,-0.00001187,-0.00004529,-0.00001842,-0.00001
 998,-0.00001162,0.00001318,0.00000757,0.00001400,-0.00001927,-0.000004
 03,-0.00000397,0.00000484,-0.00000098,-0.00001652,0.00011737,-0.000079
 49,0.00033296,0.00004119,0.00062867,-0.00007639,-0.00004030,-0.0000370
 2,-0.00005864,0.00008049,0.00000570,0.00003726,-0.00007754,0.00002057,
 -0.00002696,0.00005320,-0.00002028,0.00000459,-0.00001392,0.00000682,-
 0.00000209,0.00000047,-0.00000090,-0.00005127,-0.00012533,-0.00006435,
 0.00000900,-0.00002585,0.00004231,0.00003998,0.00000883,-0.00006262,0.
 00002083,-0.00001659,0.00001274,-0.00000965,0.00005913,-0.00020336,0.0
 0000408,-0.00000511,0.00001480,0.00000397,0.00000210,-0.00000167,0.000
 00580,-0.00000418,0.00000394,0.00000702,-0.00000400,-0.00001249,0.0000
 5322,-0.00002751,-0.00002110,0.00005367,0.00014907,-0.00004334,0.00056
 087,-0.00063846,-0.00047054,-0.00040139,-0.00076854,-0.00214722,0.3577
 1552,0.00027109,0.00002716,-0.00005090,-0.00091192,0.00064447,0.000603
 74,-0.00947238,-0.00182093,0.00194980,0.00095287,0.00086029,-0.0005874
 4,-0.00003193,0.00000002,0.00005021,-0.08224084,-0.06359518,0.01189422
 ,0.03546889,-0.00124498,-0.01132926,0.00076007,0.00105862,0.00199887,-
 0.00008974,0.00000827,0.00003433,0.00003691,-0.00002799,-0.00000999,-0
 .00000630,0.00000163,-0.00000261,0.00003504,-0.00008046,0.00018266,0.0
 0160358,0.00062356,-0.00051316,-0.02776329,-0.00531915,0.00284269,0.00
 139367,0.00115908,-0.00163346,-0.00006881,0.00016165,0.00004029,0.0000
 7804,0.00000520,-0.00010923,0.00008779,0.00000313,0.00006683,-0.000114
 79,0.00004288,-0.00006369,-0.00001993,0.00002916,-0.00000193,0.0000110
 9,0.00000958,0.00000161,-0.00000403,-0.00000210,-0.00000295,-0.0000239
 4,-0.00009749,0.00015338,-0.00030520,-0.00018785,-0.00040987,0.0000863
 4,0.00003836,-0.00005159,0.00006708,-0.00007848,0.00001086,-0.00001146
 ,0.00006151,-0.00002413,0.00000852,-0.00005143,0.00001115,0.00000201,0
 .00001399,-0.00000231,0.00000009,-0.00000053,0.00000049,-0.00000574,-0
 .00001796,-0.00003186,-0.00000182,0.00001537,-0.00002371,-0.00001611,-
 0.00001568,0.00004699,0.00000292,0.00003429,0.00002596,0.00018185,0.00
 002506,-0.00015574,0.00002201,-0.00002009,0.00003134,0.00000591,0.0000
 0211,-0.00000604,-0.00000104,0.00000558,0.00000128,0.00000915,-0.00001
 213,-0.00001813,0.00004840,-0.00003673,-0.00003021,0.00010229,0.000086
 81,-0.00000737,0.00036760,-0.00014994,-0.00012496,-0.00062390,-0.00020
 839,-0.00190328,0.08042818,0.07102324,0.00044477,0.00003895,-0.0003718
 6,-0.00107806,0.00185123,0.00160161,-0.03082196,-0.01073418,0.00331843
 ,0.00258674,0.00051927,0.00244257,0.00014005,-0.00018240,0.00026240,0.
 03040952,0.01200115,-0.04825947,0.01618597,-0.00467754,-0.00356152,0.0
 0165380,0.00003407,0.00092368,0.00004063,0.00000750,0.00009737,-0.0000
 0693,0.00002257,0.00002710,0.00000777,0.00000332,0.00000748,-0.0006109
 0,-0.00024351,-0.00063157,-0.00118503,0.00078464,0.00056560,0.02391365
 ,0.00782411,-0.00331560,-0.00063978,-0.00112137,0.00236993,0.00033212,
 -0.00013106,-0.00024413,-0.00008389,-0.00002296,0.00014369,-0.00008630
 ,-0.00000361,-0.00004382,0.00010749,-0.00000674,0.00008004,0.00002793,
 -0.00004204,-0.00001159,-0.00001672,-0.00000507,0.00001254,0.00000545,
 -0.00000325,0.00000327,0.00013937,0.00007395,-0.00004127,-0.00032156,-
 0.00015173,-0.00014245,0.00005193,0.00000911,0.00003288,-0.00004779,-0
 .00002351,-0.00000529,-0.00002498,-0.00000213,0.00005218,0.00000906,0.
 00001846,-0.00000946,-0.00000770,-0.00000385,0.00000401,0.00000104,-0.
 00000064,-0.00000097,0.00003111,-0.00012088,-0.00006929,-0.00002983,-0
 .00001368,0.00001225,-0.00006589,-0.00001351,0.00005077,-0.00003456,-0
 .00000631,-0.00006399,-0.00027619,-0.00006370,0.00009910,-0.00003208,0
 .00003422,-0.00003138,-0.00000774,-0.00000487,0.00000694,-0.00000220,-
 0.00000151,-0.00000296,0.00001621,-0.00005206,0.00001073,0.00000560,-0
 .00002791,0.00000356,0.00019538,-0.00002829,-0.00009005,0.00068633,-0.
 00027681,-0.00007302,-0.00307637,-0.00179226,-0.00504551,-0.03933716,-
 0.00580959,0.05243714,0.00005089,-0.00007514,0.00012483,0.00005926,0.0
 0040863,-0.00016262,-0.00050105,-0.00035384,-0.00042230,0.00026506,0.0
 0017730,-0.00020890,0.00002679,0.00000953,0.00006250,-0.00709096,0.000
 48981,0.00408422,0.00294457,0.00252460,-0.00252201,-0.00066956,-0.0004
 7202,-0.00004355,0.00029761,-0.00008257,0.00020607,-0.00002044,0.00020
 604,0.00008827,-0.00000216,-0.00000599,0.00002638,0.00007107,0.0003157
 8,0.00010272,-0.00047082,0.00925279,0.00556999,-0.32588687,-0.00994123
 ,0.08406738,-0.02751075,-0.00272144,-0.00998946,0.00000166,-0.00133729
 ,0.00497809,0.00041829,0.00032559,-0.00020411,0.00040450,-0.00008031,-
 0.00018971,-0.00055221,-0.00010625,0.00041986,-0.00005558,0.00010254,0
 .00003637,0.00004013,0.00000635,-0.00004429,-0.00001491,0.00000914,-0.
 00000855,-0.00039992,0.00007747,0.00003846,0.00017793,-0.00006335,0.00
 010686,0.00000246,-0.00004595,-0.00003201,0.00071209,0.00018144,-0.000
 08410,0.00003069,-0.00012817,-0.00023423,-0.00002084,-0.00000691,0.000
 02931,0.00001894,-0.00000157,-0.00002965,0.00000014,0.00000273,0.00000
 345,-0.00000656,0.00000013,-0.00000699,0.00008397,0.00000005,0.0000137
 4,0.00016173,-0.00002734,-0.00002978,0.00013020,0.00018322,0.00032601,
 0.00172823,0.00051422,-0.00145052,0.00013047,-0.00025704,0.00021824,0.
 00002714,0.00002207,-0.00004090,0.00000486,0.00000566,0.00000214,0.000
 00902,-0.00004553,-0.00000249,0.00002002,-0.00011493,-0.00008437,-0.00
 007931,0.00047062,0.00109925,0.00000214,-0.00015627,-0.00011546,0.0008
 4913,0.00028010,0.00017484,0.00041531,-0.00031821,0.00080170,0.3541976
 0,-0.00008966,0.00035499,-0.00031056,-0.00017441,-0.00078747,-0.000170
 52,-0.00111876,-0.00027016,-0.00121199,0.00045936,0.00004819,0.0003080
 2,0.00013455,-0.00007641,0.00000467,-0.02232207,-0.00389732,0.01085059
 ,-0.00097454,0.00105204,0.00101163,-0.00079776,-0.00054529,0.00002406,
 -0.00023771,0.00015539,-0.00016578,-0.00010713,-0.00044940,-0.00020998
 ,-0.00001919,0.00001224,-0.00004350,0.00376187,0.00154299,0.00317852,0
 .03525766,-0.02053227,-0.02196426,-0.00949382,-0.03673916,0.00602486,-
 0.00579774,0.00519495,-0.00156810,0.00092766,-0.00025238,0.00084124,0.
 00012084,-0.00006919,0.00004069,-0.00028445,0.00018135,0.00020475,0.00
 043316,-0.00014872,-0.00079810,0.00003730,0.00000633,0.00009791,-0.000
 02398,0.00005834,-0.00007499,-0.00000193,0.00000002,0.00000561,-0.0001
 6899,0.00002550,-0.00010208,0.00008239,-0.00002015,0.00007085,-0.00002
 738,-0.00001544,-0.00000034,-0.00007938,0.00019813,0.00005515,-0.00000
 260,-0.00004696,-0.00011495,0.00000193,-0.00001564,0.00008731,0.000019
 71,0.00000155,-0.00005446,-0.00000109,0.00000144,0.00000994,-0.0000109
 9,0.00000326,0.00002444,0.00005153,-0.00002174,0.00001580,0.00005453,-
 0.00000580,-0.00004037,-0.00001134,-0.00004449,0.00000989,0.00015001,0
 .00028483,0.00014904,-0.00000750,-0.00003424,0.00002092,-0.00001458,0.
 00000117,0.00000435,-0.00000266,-0.00000197,-0.00000853,0.00000873,0.0
 0006233,-0.00000046,-0.00018492,0.00012077,0.00005435,-0.00124127,0.00
 007604,-0.00014379,0.00000743,-0.00012154,0.00002864,0.00047737,0.0003
 1099,0.00013356,0.00043426,-0.00297353,0.00234440,0.00077556,0.0573764
 4,-0.00009662,-0.00000014,-0.00028738,-0.00001855,0.00000180,-0.000097
 30,0.00214873,0.00018477,0.00090022,-0.00070694,-0.00007198,0.00007764
 ,-0.00001890,-0.00004323,0.00001696,0.02442212,0.00495825,-0.00654796,
 -0.00151374,-0.00319410,0.00155883,0.00014884,0.00017185,0.00015483,-0
 .00010620,0.00001571,0.00005163,-0.00008368,-0.00022222,-0.00013391,0.
 00000359,0.00001985,-0.00001288,0.00166589,0.00079166,0.00275733,0.014
 62372,-0.01348080,-0.00464545,0.09283049,0.00865027,-0.06980467,-0.037
 85480,-0.00070144,-0.01264685,-0.00765621,-0.00177834,0.00306969,0.000
 04642,0.00019223,-0.00047982,0.00011295,0.00013491,0.00028620,-0.00018
 282,-0.00012146,-0.00052925,0.00000152,0.00007724,0.00009435,0.0000162
 4,0.00004674,-0.00004378,-0.00000626,0.00000304,-0.00000434,-0.0001205
 2,0.00006571,0.00008164,0.00003003,-0.00012978,-0.00000519,0.00003423,
 -0.00001622,-0.00003510,-0.00030840,-0.00011907,-0.00016159,0.00012700
 ,0.00007569,-0.00016513,0.00000857,-0.00009241,0.00007273,0.00001687,0
 .00001953,-0.00004185,-0.00000016,0.00000183,0.00000629,-0.00002185,-0
 .00000482,0.00001659,0.00003450,-0.00000084,0.00000211,0.00003661,-0.0
 0006514,-0.00002500,0.00020927,0.00005199,-0.00000260,0.00089877,0.000
 25421,-0.00065738,0.00026128,-0.00003784,-0.00001402,0.00003185,0.0000
 1988,-0.00004951,-0.00000424,0.00000458,0.00000518,-0.00000080,0.00005
 751,-0.00000707,-0.00014506,0.00009076,0.00002018,-0.00082993,-0.00010
 372,-0.00034249,-0.00015704,0.00004086,0.00014589,-0.00083271,-0.00008
 567,-0.00045336,-0.00036933,0.00295674,-0.00255005,-0.08667473,0.00138
 157,0.09042566\\0.00609123,-0.01459635,-0.01019090,-0.00941900,-0.0023
 5215,-0.00092225,0.02902127,-0.01333983,0.00875943,-0.01653432,0.02123
 464,0.02576299,-0.00056536,-0.01358918,-0.02546754,0.01220680,-0.00450
 202,-0.01121708,-0.02379791,0.00585071,-0.00414987,0.01608720,-0.01581
 377,0.01223210,-0.00005549,0.00665771,0.00600712,-0.00399833,0.0226652
 4,-0.01297898,0.01268414,-0.02763869,0.01553437,-0.00377682,0.00621915
 ,0.00115477,-0.01796405,0.00098341,-0.00723644,-0.00438534,0.02507378,
 -0.00025137,0.00491484,-0.00251826,0.01442994,-0.01854569,0.00798366,-
 0.03649013,0.02959236,0.05091537,0.03267299,-0.01433267,-0.00311850,0.
 02454447,0.00234672,0.01921262,-0.01928780,-0.01945909,-0.00780130,-0.
 02481475,-0.00447897,0.01002777,-0.00479116,-0.00148585,-0.01360983,0.
 03298305,0.01645794,-0.01844705,-0.01996337,-0.01252176,-0.01734392,-0
 .00654366,-0.00374550,0.03376034,0.00565712,-0.01601673,-0.02925142,0.
 02374112,0.00522853,-0.00340733,0.01129858,0.05414999,-0.00221464,0.00
 652447,-0.01409691,-0.00536186,0.00466013,-0.00177227,-0.00467071,-0.0
 0426753,-0.00137994,0.00270182,-0.00049446,-0.00004706,-0.00929763,-0.
 01648273,0.02092647,0.00145462,0.00094538,-0.02263004,-0.00152980,0.00
 109162,0.01641423,0.00329416,0.00266747,-0.01975955,-0.00306544,0.0000
 1822,0.01753543,-0.00061106,0.00210116,-0.01705715,-0.00342292,-0.0055
 2242,0.00047166,0.00491585,-0.01768072,-0.02058372,-0.00449105,0.00140
 297,0.02067112,0.00117134,-0.00052333,-0.02051113,0.00096063,0.0036399
 1,0.02412293,0.00379210,-0.00758746,-0.01899406,-0.00531031,0.00276443
 ,0.01899188,-0.00156990,-0.00372987\\\@


 THE WHOLE OF SCIENCE IS NOTHING MORE THAN A REFINEMENT OF EVEYDAY THINKING.
                                                              -- A. EINSTEIN
 Job cpu time:  1 days  6 hours 38 minutes 19.9 seconds.
 File lengths (MBytes):  RWF=   1769 Int=      0 D2E=      0 Chk=     28 Scr=      1
 Normal termination of Gaussian 09 at Mon Mar 21 21:44:17 2016.
Gaussian '09 finished on node030 at Mon Mar 21 21:44:17 EDT 2016.
