Gaussian '09 started on node011 at Wed Jan 20 15:58:13 EST 2016.
 Entering Gaussian System, Link 0=/usr/local/gaussian/g09/g09
 Initial command:
 /usr/local/gaussian/g09/l1.exe /home/srmcgrat/thesis/gaussian/cellobiose/310/6000/gaussian12266/Gau-12302.inp -scrdir=/home/srmcgrat/thesis/gaussian/cellobiose/310/6000/gaussian12266/
 Entering Link 1 = /usr/local/gaussian/g09/l1.exe PID=     12304.
  
 Copyright (c) 1988,1990,1992,1993,1995,1998,2003,2009,2010,
            Gaussian, Inc.  All Rights Reserved.
  
 This is part of the Gaussian(R) 09 program.  It is based on
 the Gaussian(R) 03 system (copyright 2003, Gaussian, Inc.),
 the Gaussian(R) 98 system (copyright 1998, Gaussian, Inc.),
 the Gaussian(R) 94 system (copyright 1995, Gaussian, Inc.),
 the Gaussian 92(TM) system (copyright 1992, Gaussian, Inc.),
 the Gaussian 90(TM) system (copyright 1990, Gaussian, Inc.),
 the Gaussian 88(TM) system (copyright 1988, Gaussian, Inc.),
 the Gaussian 86(TM) system (copyright 1986, Carnegie Mellon
 University), and the Gaussian 82(TM) system (copyright 1983,
 Carnegie Mellon University). Gaussian is a federally registered
 trademark of Gaussian, Inc.
  
 This software contains proprietary and confidential information,
 including trade secrets, belonging to Gaussian, Inc.
  
 This software is provided under written license and may be
 used, copied, transmitted, or stored only in accord with that
 written license.
  
 The following legend is applicable only to US Government
 contracts under FAR:
  
                    RESTRICTED RIGHTS LEGEND
  
 Use, reproduction and disclosure by the US Government is
 subject to restrictions as set forth in subparagraphs (a)
 and (c) of the Commercial Computer Software - Restricted
 Rights clause in FAR 52.227-19.
  
 Gaussian, Inc.
 340 Quinnipiac St., Bldg. 40, Wallingford CT 06492
  
  
 ---------------------------------------------------------------
 Warning -- This program may not be used in any manner that
 competes with the business of Gaussian, Inc. or will provide
 assistance to any competitor of Gaussian, Inc.  The licensee
 of this program is prohibited from giving any competitor of
 Gaussian, Inc. access to this program.  By using this program,
 the user acknowledges that Gaussian, Inc. is engaged in the
 business of creating and licensing software in the field of
 computational chemistry and represents and warrants to the
 licensee that it is not a competitor of Gaussian, Inc. and that
 it will not use this program in any manner prohibited above.
 ---------------------------------------------------------------
  

 Cite this work as:
 Gaussian 09, Revision B.01,
 M. J. Frisch, G. W. Trucks, H. B. Schlegel, G. E. Scuseria, 
 M. A. Robb, J. R. Cheeseman, G. Scalmani, V. Barone, B. Mennucci, 
 G. A. Petersson, H. Nakatsuji, M. Caricato, X. Li, H. P. Hratchian, 
 A. F. Izmaylov, J. Bloino, G. Zheng, J. L. Sonnenberg, M. Hada, 
 M. Ehara, K. Toyota, R. Fukuda, J. Hasegawa, M. Ishida, T. Nakajima, 
 Y. Honda, O. Kitao, H. Nakai, T. Vreven, J. A. Montgomery, Jr., 
 J. E. Peralta, F. Ogliaro, M. Bearpark, J. J. Heyd, E. Brothers, 
 K. N. Kudin, V. N. Staroverov, T. Keith, R. Kobayashi, J. Normand, 
 K. Raghavachari, A. Rendell, J. C. Burant, S. S. Iyengar, J. Tomasi, 
 M. Cossi, N. Rega, J. M. Millam, M. Klene, J. E. Knox, J. B. Cross, 
 V. Bakken, C. Adamo, J. Jaramillo, R. Gomperts, R. E. Stratmann, 
 O. Yazyev, A. J. Austin, R. Cammi, C. Pomelli, J. W. Ochterski, 
 R. L. Martin, K. Morokuma, V. G. Zakrzewski, G. A. Voth, 
 P. Salvador, J. J. Dannenberg, S. Dapprich, A. D. Daniels, 
 O. Farkas, J. B. Foresman, J. V. Ortiz, J. Cioslowski, 
 and D. J. Fox, Gaussian, Inc., Wallingford CT, 2010.
 
 ******************************************
 Gaussian 09:  EM64L-G09RevB.01 12-Aug-2010
                20-Jan-2016 
 ******************************************
 ------------------------------------------------
 # freq=raman b3lyp/6-31+g(d,p) geom=connectivity
 ------------------------------------------------
 1/10=4,30=1,38=1,57=2/1,3;
 2/12=2,17=6,18=5,40=1/2;
 3/5=1,6=6,7=111,11=2,16=1,25=1,30=1,71=2,74=-5/1,2,3;
 4//1;
 5/5=2,38=5,98=1/2;
 8/6=4,10=90,11=11/1;
 10/13=10,15=4/2;
 11/6=3,8=1,9=11,15=111,16=1/1,2,10;
 10/6=1/2;
 6/7=2,8=2,9=2,10=2,18=1,28=1/1;
 7/8=1,10=1,25=1/1,2,3,16;
 1/10=4,30=1/3;
 99//99;
 ------------
 310 6000.com
 ------------
 Symbolic Z-matrix:
 Charge =  0 Multiplicity = 1
 O                     7.526     7.453     12.256 
 C                     8.117     7.895     13.487 
 C                     7.707     9.298     13.905 
 O                     8.099     10.326    12.983 
 H                     7.732     10.061    12.091 
 C                     8.206     9.637     15.3 
 O                     7.868     10.91     15.87 
 H                     8.252     11.       16.789 
 C                     8.319     5.462     14.397 
 O                     7.761     4.574     13.418 
 H                     8.183     3.678     13.56 
 C                     7.71      6.85      14.513 
 O                     8.135     7.274     15.816 
 C                     7.76      8.575     16.292 
 O                     8.591     8.624     17.461 
 C                     7.928     8.427     18.718 
 C                     8.374     7.081     19.264 
 O                     8.138     6.083     18.26 
 H                     8.469     6.469     17.398 
 C                     7.885     6.784     20.672 
 O                     8.543     5.548     20.988 
 H                     8.204     5.303     21.896 
 C                     8.055     10.833    19.606 
 O                     8.505     11.406    18.37 
 H                     8.479     12.386    18.57 
 C                     8.462     9.378     19.777 
 O                     8.057     9.203     21.143 
 C                     8.36      7.881     21.611 
 O                     7.633     7.712     22.836 
 H                     8.25107   7.61161   23.56368 
 H                     8.21904   7.22851   11.63078 
 H                     8.2359    4.98808   15.35271 
 H                     9.35935   5.57934   14.17608 
 H                     6.64377   6.76034   14.5086 
 H                     9.18144   7.87103   13.38075 
 H                     6.63781   9.30868   13.94531 
 H                     9.27438   9.59491   15.25883 
 H                     6.71844   8.63862   16.52865 
 H                     8.46341   11.40069   20.41584 
 H                     9.53038   9.32933   19.7439 
 H                     6.86358   8.48649   18.62646 
 H                     6.98765   10.89731   19.64518 
 H                     9.4385    7.14772   19.34937 
 H                     6.82072   6.67718   20.70011 
 H                     9.41048   7.78449   21.79009 
 

 GradGradGradGradGradGradGradGradGradGradGradGradGradGradGradGradGradGrad
 Berny optimization.
 Initialization pass.
 Trust Radius=3.00D-01 FncErr=1.00D-07 GrdErr=1.00D-07
 Number of steps in this run=      2 maximum allowed number of steps=      2.
 GradGradGradGradGradGradGradGradGradGradGradGradGradGradGradGradGradGrad

                          Input orientation:                          
 ---------------------------------------------------------------------
 Center     Atomic      Atomic             Coordinates (Angstroms)
 Number     Number       Type             X           Y           Z
 ---------------------------------------------------------------------
      1          8           0        7.526000    7.453000   12.256000
      2          6           0        8.117000    7.895000   13.487000
      3          6           0        7.707000    9.298000   13.905000
      4          8           0        8.099000   10.326000   12.983000
      5          1           0        7.732000   10.061000   12.091000
      6          6           0        8.206000    9.637000   15.300000
      7          8           0        7.868000   10.910000   15.870000
      8          1           0        8.252000   11.000000   16.789000
      9          6           0        8.319000    5.462000   14.397000
     10          8           0        7.761000    4.574000   13.418000
     11          1           0        8.183000    3.678000   13.560000
     12          6           0        7.710000    6.850000   14.513000
     13          8           0        8.135000    7.274000   15.816000
     14          6           0        7.760000    8.575000   16.292000
     15          8           0        8.591000    8.624000   17.461000
     16          6           0        7.928000    8.427000   18.718000
     17          6           0        8.374000    7.081000   19.264000
     18          8           0        8.138000    6.083000   18.260000
     19          1           0        8.469000    6.469000   17.398000
     20          6           0        7.885000    6.784000   20.672000
     21          8           0        8.543000    5.548000   20.988000
     22          1           0        8.204000    5.303000   21.896000
     23          6           0        8.055000   10.833000   19.606000
     24          8           0        8.505000   11.406000   18.370000
     25          1           0        8.479000   12.386000   18.570000
     26          6           0        8.462000    9.378000   19.777000
     27          8           0        8.057000    9.203000   21.143000
     28          6           0        8.360000    7.881000   21.611000
     29          8           0        7.633000    7.712000   22.836000
     30          1           0        8.251070    7.611610   23.563676
     31          1           0        8.219038    7.228509   11.630778
     32          1           0        8.235900    4.988077   15.352715
     33          1           0        9.359349    5.579337   14.176081
     34          1           0        6.643772    6.760338   14.508598
     35          1           0        9.181442    7.871030   13.380750
     36          1           0        6.637813    9.308678   13.945308
     37          1           0        9.274379    9.594913   15.258830
     38          1           0        6.718439    8.638616   16.528650
     39          1           0        8.463408   11.400688   20.415835
     40          1           0        9.530380    9.329332   19.743904
     41          1           0        6.863584    8.486486   18.626455
     42          1           0        6.987653   10.897312   19.645185
     43          1           0        9.438500    7.147719   19.349374
     44          1           0        6.820717    6.677179   20.700112
     45          1           0        9.410481    7.784485   21.790093
 ---------------------------------------------------------------------
                    Distance matrix (angstroms):
                    1          2          3          4          5
     1  O    0.000000
     2  C    1.435272   0.000000
     3  C    2.481126   1.520274   0.000000
     4  O    3.018441   2.482761   1.435455   0.000000
     5  H    2.621321   2.605494   1.968093   1.000289   0.000000
     6  C    3.807649   2.515841   1.519851   2.419640   3.271411
     7  O    5.012864   3.851093   2.546702   2.954520   3.875582
     8  H    5.801411   4.534584   3.392828   3.868245   4.819059
     9  C    3.029325   2.605454   3.915546   5.070137   5.178128
    10  O    3.113537   3.340739   4.749343   5.778319   5.645258
    11  H    4.047554   4.218148   5.650664   6.673521   6.565368
    12  C    2.343398   1.519984   2.522375   3.817695   4.022075
    13  O    3.616147   2.410437   2.816324   4.164359   4.669626
    14  C    4.195585   2.908242   2.494656   3.759043   4.456162
    15  O    5.440358   4.068021   3.725704   4.815740   5.624922
    16  C    6.547345   5.261379   4.896167   6.043647   6.828287
    17  C    7.068914   5.839724   5.837710   7.075070   7.793875
    18  O    6.188656   5.105420   5.430286   6.771359   7.351590
    19  H    5.319555   4.177715   4.559050   5.874145   6.450572
    20  C    8.450177   7.274089   7.221092   8.468310   9.186713
    21  O    8.995062   7.871143   8.057933   9.333083  10.009071
    22  H    9.900090   8.799847   8.947799  10.231477  10.908683
    23  C    8.107203   6.788067   5.914282   6.642523   7.561451
    24  O    7.346131   6.026720   5.001669   5.509175   6.467797
    25  H    8.069033   6.792423   5.647473   5.966789   6.923949
    26  C    7.819665   6.471662   5.920879   6.869418   7.750741
    27  O    9.073215   7.767162   7.247080   8.237020   9.098379
    28  C    9.401849   8.127645   7.862362   8.971540   9.786582
    29  O   10.583711   9.363308   9.071033  10.204497  10.999210
    30  H   11.332008  10.081551   9.819874  10.924364  11.742709
    31  H    0.960000   1.974887   3.117220   3.381917   2.910672
    32  H    4.021125   3.456188   4.577232   5.841893   6.052045
    33  H    3.249384   2.716718   4.078259   5.053982   5.203953
    34  H    2.516407   2.121679   2.816827   4.142353   4.233603
    35  H    2.044578   1.070000   2.117796   2.712336   2.925800
    36  H    2.661987   2.096789   1.070000   2.023870   2.280722
    37  H    4.081863   2.714519   2.092293   2.663721   3.554057
    38  H    4.507037   3.429369   2.880205   4.162313   4.768986
    39  H    9.112952   7.772941   6.883635   7.518962   8.463605
    40  H    7.975391   6.572959   6.117066   6.982264   7.895343
    41  H    6.487649   5.323054   4.864365   6.062891   6.778305
    42  H    8.170260   6.943525   6.002081   6.778362   7.636699
    43  H    7.353014   6.055760   6.104344   7.240611   8.005208
    44  H    8.508957   7.429161   7.336740   8.631438   9.295026
    45  H    9.724200   8.403967   8.207756   9.259814  10.103080
                    6          7          8          9         10
     6  C    0.000000
     7  O    1.435156   0.000000
     8  H    2.019160   1.000058   0.000000
     9  C    4.273032   5.661611   6.032876   0.000000
    10  O    5.419771   6.794752   7.273115   1.434695   0.000000
    11  H    6.207883   7.598496   8.002680   1.975277   1.000532
    12  C    2.938155   4.283692   4.764078   1.520158   2.526223
    13  O    2.419724   3.646190   3.852726   2.308844   3.630466
    14  C    1.520139   2.375284   2.523826   3.687041   4.926244
    15  O    2.417502   2.877465   2.492365   4.411386   5.782495
    16  C    3.636497   3.778888   3.232081   5.255012   6.554655
    17  C    4.719603   5.141645   4.636709   5.129510   6.390347
    18  O    4.625704   5.393045   5.133588   3.916781   5.085683
    19  H    3.808805   4.734814   4.576891   3.168998   4.464604
    20  C    6.091062   6.331143   5.743434   6.427415   7.584194
    21  O    7.013333   7.443157   6.887713   6.595366   7.672359
    22  H    7.892451   8.237962   7.651115   7.501567   8.520808
    23  C    4.471560   3.741469   2.828814   7.486723   8.806410
    24  O    3.555793   2.627125   1.651789   7.151955   8.470659
    25  H    4.280704   3.137180   2.268146   8.085871   9.385413
    26  C    4.491787   4.238456   3.406336   6.655817   8.000419
    27  O    5.860990   5.545638   4.714292   7.718306   9.010598
    28  C    6.552555   6.509684   5.743824   7.608879   8.855524
    29  O    7.799054   7.668610   6.910884   8.760697   9.927847
    30  H    8.508382   8.379663   7.574788   9.415592  10.601980
    31  H    4.389098   5.625620   6.390030   3.283676   3.232705
    32  H    4.649319   5.955847   6.181132   1.070000   2.034726
    33  H    4.365551   5.788735   6.118591   1.070000   2.034726
    34  H    3.367797   4.535620   5.075566   2.122386   2.686573
    35  H    2.784539   4.142081   4.719161   2.753179   3.590188
    36  H    2.098141   2.789630   3.681407   4.222244   4.894566
    37  H    1.070000   2.020120   2.315372   4.328564   5.557746
    38  H    2.172370   2.629543   2.827672   4.146880   5.223426
    39  H    5.417437   4.610846   3.655021   8.456669   9.801365
    40  H    4.647249   4.502127   3.627236   6.709178   8.109312
    41  H    3.767103   3.805301   3.409060   5.399448   6.575782
    42  H    4.685444   3.876492   3.125205   7.671932   8.908432
    43  H    4.910500   5.359783   4.775287   5.349854   6.679763
    44  H    6.311954   6.507193   6.002679   6.591717   7.637843
    45  H    6.855938   6.869904   6.057437   7.825796   9.117014
                   11         12         13         14         15
    11  H    0.000000
    12  C    3.345672   0.000000
    13  O    4.245357   1.434646   0.000000
    14  C    5.623465   2.478501   1.435201   0.000000
    15  O    6.312462   3.551611   2.176341   1.435104   0.000000
    16  C    7.015910   4.496274   3.129515   2.436310   1.434722
    17  C    6.644735   4.802734   3.461658   3.382575   2.383012
    18  O    5.279777   3.848569   2.718754   3.197807   2.701905
    19  H    4.754127   3.007402   1.806185   2.482167   2.159370
    20  C    7.766375   6.161839   4.887058   4.733678   3.767566
    21  O    7.668226   6.656930   5.467643   5.641652   4.680151
    22  H    8.492936   7.559493   6.391870   6.504455   5.554101
    23  C    9.368272   6.474717   5.199710   4.020968   3.125380
    24  O    9.108335   6.022093   4.871677   3.589940   2.928003
    25  H   10.050720   6.906367   5.816820   4.497773   3.923655
    26  C    8.439131   5.887783   4.497029   3.644563   2.439060
    27  O    9.383144   7.043715   5.666044   4.900489   3.765305
    28  C    9.083784   7.201879   5.831046   5.397536   4.222311
    29  O   10.130145   8.367873   7.051542   6.601881   5.535353
    30  H   10.749486   9.098766   7.755896   7.351635   6.195412
    31  H    4.040954   2.951202   4.186312   4.873473   6.006433
    32  H    2.221019   2.109135   2.334579   3.738283   4.217926
    33  H    2.319146   2.109135   2.657112   4.001128   4.544340
    34  H    3.573495   1.070000   2.048636   2.778396   3.997700
    35  H    4.313991   2.118875   2.716970   3.315335   4.190946
    36  H    5.851546   2.741707   3.143401   2.702693   4.079683
    37  H    6.251959   3.246243   2.644855   2.097858   2.501846
    38  H    5.963684   2.871443   2.092054   1.070000   2.091883
    39  H   10.330587   7.491318   6.188368   5.048298   4.056763
    40  H    8.484907   6.068214   4.647569   3.952075   2.567407
    41  H    7.108542   4.507219   3.314405   2.502214   2.088339
    42  H    9.517184   6.575852   5.395132   4.151325   3.536853
    43  H    6.865281   5.144596   3.768261   3.768558   2.542365
    44  H    7.863338   6.253083   5.092945   4.890341   4.173232
    45  H    9.279243   7.531333   6.130027   5.794655   4.485240
                   16         17         18         19         20
    16  C    0.000000
    17  C    1.519456   0.000000
    18  O    2.397540   1.435171   0.000000
    19  H    2.422570   1.966094   1.000800   0.000000
    20  C    2.553314   1.519801   2.524511   3.340562   0.000000
    21  O    3.717495   2.313185   2.809312   3.706996   1.435450
    22  H    4.464889   3.180819   3.719308   4.654222   1.947639
    23  C    2.567783   3.781035   4.937723   4.908274   4.190424
    24  O    3.054255   4.418373   5.336770   5.031903   5.200624
    25  H    3.999898   5.351232   6.319825   6.031963   6.012790
    26  C    1.520210   2.355233   3.641880   3.757921   2.804067
    27  O    2.549400   2.852019   4.248841   4.655054   2.470422
    28  C    2.975599   2.479638   3.809369   4.444659   1.520117
    29  O    4.190009   3.702219   4.883487   5.640549   2.368034
    30  H    4.924409   4.334036   5.520725   6.274441   3.029973
    31  H    7.193733   7.636219   6.727952   5.822386   9.058303
    32  H    4.821425   4.438192   3.108174   2.535875   5.625235
    33  H    5.548601   5.395630   4.292291   3.459044   6.769186
    34  H    4.705961   5.070538   4.094449   3.430011   6.287187
    35  H    5.510577   5.990721   5.300274   4.314111   7.484966
    36  H    5.022004   6.022074   5.592149   4.830952   7.292315
    37  H    3.891351   4.813712   4.757301   3.872469   6.255718
    38  H    2.510194   3.556570   3.397631   2.920182   4.686983
    39  H    3.465852   4.471513   5.747289   5.781774   4.659827
    40  H    2.105778   2.573425   3.831366   3.848544   3.169756
    41  H    1.070000   2.159447   2.745027   2.855996   2.850614
    42  H    2.801136   4.078173   5.140003   5.182101   4.333464
    43  H    2.077692   1.070000   2.002914   2.282203   2.072436
    44  H    2.866482   2.153643   2.835918   3.696501   1.070000
    45  H    3.471070   2.819633   4.120172   4.680530   2.139672
                   21         22         23         24         25
    21  O    0.000000
    22  H    0.999705   0.000000
    23  C    5.484459   5.987253   0.000000
    24  O    6.416505   7.054778   1.434756   0.000000
    25  H    7.253211   7.829865   1.914388   1.000538   0.000000
    26  C    4.017709   4.600255   1.520498   2.468660   3.241173
    27  O    3.690426   3.974748   2.240373   3.569796   4.114596
    28  C    2.421674   2.598393   3.581530   4.790692   5.436623
    29  O    2.987658   2.648192   4.511278   5.860988   6.384414
    30  H    3.313279   2.848340   5.106759   6.437091   6.912564
    31  H    9.512448  10.444261   8.753480   7.934123   8.649860
    32  H    5.671355   6.550937   7.230926   7.096912   8.070892
    33  H    6.860732   7.810784   7.667224   7.229721   8.149368
    34  H    6.859991   7.689723   6.675451   6.321137   7.177125
    35  H    7.979619   8.947606   6.985404   6.151927   6.914239
    36  H    8.208042   9.039463   6.031203   5.240520   5.852150
    37  H    7.052362   7.976105   4.681627   3.681217   4.403026
    38  H    5.724223   6.491661   4.008965   3.773697   4.616230
    39  H    5.881128   6.280126   1.070000   2.046265   2.092412
    40  H    4.101362   4.754172   2.111109   2.692873   3.438992
    41  H    4.126988   4.756177   2.808043   3.359103   4.221251
    42  H    5.730392   6.151585   1.070000   2.046265   2.365656
    43  H    2.458885   3.378206   3.944772   4.468059   5.382161
    44  H    2.079467   2.287354   4.471173   5.534256   6.314897
    45  H    2.529376   2.761265   3.987610   5.062835   5.693030
                   26         27         28         29         30
    26  C    0.000000
    27  O    1.435481   0.000000
    28  C    2.369593   1.434753   0.000000
    29  O    3.580542   2.295453   1.434474   0.000000
    30  H    4.183723   2.903421   1.974178   0.960000   0.000000
    31  H    8.428539   9.716338  10.002522  11.230948  11.939088
    32  H    6.236734   7.164146   6.895690   7.986414   8.619921
    33  H    6.826812   7.960214   7.846934   9.084202   9.668782
    34  H    6.157448   7.209653   7.392255   8.439778   9.235935
    35  H    6.610641   7.955566   8.271147   9.582521  10.228629
    36  H    6.110736   7.337032   7.985426   9.087584   9.899274
    37  H    4.595745   6.021550   6.642563   7.978282   8.599483
    38  H    3.760116   4.837613   5.394347   6.440318   7.272914
    39  H    2.121174   2.350270   3.718510   4.489231   4.930629
    40  H    1.070000   2.035750   2.636950   3.972011   4.379253
    41  H    2.161824   2.875870   3.393137   4.348804   5.202564
    42  H    2.121174   2.501529   3.853038   4.554557   5.267507
    43  H    2.471957   3.057747   2.610711   3.966712   4.402899
    44  H    3.292474   2.846809   2.155991   2.508521   3.334527
    45  H    2.737051   2.064661   1.070000   2.063641   2.125963
                   31         32         33         34         35
    31  H    0.000000
    32  H    4.344265   0.000000
    33  H    3.240161   1.730952   0.000000
    34  H    3.313985   2.527511   2.979880   0.000000
    35  H    2.097964   3.618579   2.432294   2.990894   0.000000
    36  H    3.490619   4.816874   4.622553   2.609860   2.975837
    37  H    4.458292   4.723367   4.159857   3.939258   2.550999
    38  H    5.313130   4.124554   4.676342   2.759368   4.069993
    39  H    9.728516   8.173649   8.580523   7.729125   7.903574
    40  H    8.482681   6.309098   6.715084   6.506970   6.537440
    41  H    7.235970   4.983924   5.872494   4.470420   5.767900
    42  H    8.899838   7.409621   7.988547   6.604342   7.294808
    43  H    7.814751   4.699318   5.406390   5.603006   6.017785
    44  H    9.193046   5.783638   7.086106   6.194600   7.782761
    45  H   10.244038   7.116135   7.927071   7.856444   8.412906
                   36         37         38         39         40
    36  H    0.000000
    37  H    2.959519   0.000000
    38  H    2.670045   3.009947   0.000000
    39  H    7.041096   5.523876   5.077812   0.000000
    40  H    6.480053   4.500217   4.326888   2.424962   0.000000
    41  H    4.758163   4.287358   2.108316   3.775432   3.011790
    42  H    5.927456   5.115219   3.858364   1.739293   2.988940
    43  H    6.458911   4.769512   4.192611   4.491758   2.218903
    44  H    7.251595   6.643883   4.610726   5.009071   3.910311
    45  H    8.458812   6.778906   5.971550   3.982770   2.566674
                   41         42         43         44         45
    41  H    0.000000
    42  H    2.620168   0.000000
    43  H    2.990836   4.489276   0.000000
    44  H    2.752360   4.353190   2.983067   0.000000
    45  H    4.121661   4.490035   2.522570   3.020110   0.000000
 Stoichiometry    C12H22O11
 Framework group  C1[X(C12H22O11)]
 Deg. of freedom   129
 Full point group                 C1      NOp   1
 Largest Abelian subgroup         C1      NOp   1
 Largest concise Abelian subgroup C1      NOp   1
                         Standard orientation:                         
 ---------------------------------------------------------------------
 Center     Atomic      Atomic             Coordinates (Angstroms)
 Number     Number       Type             X           Y           Z
 ---------------------------------------------------------------------
      1          8           0       -5.035446   -0.441823    0.392340
      2          6           0       -3.766212   -0.055722   -0.155361
      3          6           0       -3.295801    1.323537    0.277760
      4          8           0       -4.154721    2.396382   -0.136717
      5          1           0       -5.069803    2.172157    0.199328
      6          6           0       -1.870730    1.598448   -0.173398
      7          8           0       -1.252381    2.841011    0.191779
      8          1           0       -0.318084    2.889245   -0.161605
      9          6           0       -2.966454   -2.528151   -0.344763
     10          8           0       -4.004170   -3.371558    0.175005
     11          1           0       -3.891083   -4.270994   -0.248422
     12          6           0       -2.804760   -1.150581    0.277358
     13          8           0       -1.469927   -0.786789   -0.102227
     14          6           0       -0.945304    0.488016    0.297079
     15          8           0        0.251250    0.485826   -0.495245
     16          6           0        1.475147    0.225603    0.206743
     17          6           0        1.971016   -1.142419   -0.230725
     18          8           0        0.913655   -2.092758   -0.034358
     19          1           0        0.082207   -1.664363   -0.390409
     20          6           0        3.346612   -1.508769    0.301552
     21          8           0        3.625008   -2.754815   -0.354483
     22          1           0        4.508803   -3.044605    0.012039
     23          6           0        2.479883    2.587254    0.125395
     24          8           0        1.287811    3.220887   -0.360403
     25          1           0        1.533087    4.190098   -0.321090
     26          6           0        2.594932    1.127998   -0.286007
     27          8           0        3.937127    0.885964    0.161808
     28          6           0        4.351588   -0.455150   -0.135098
     29          8           0        5.542773   -0.686229    0.630014
     30          1           0        6.284691   -0.817785    0.035160
     31          1           0       -5.647612   -0.632521   -0.322143
     32          1           0       -2.037509   -3.047482   -0.234054
     33          1           0       -3.147428   -2.394773   -1.390879
     34          1           0       -2.848267   -1.245730    1.342231
     35          1           0       -3.838618   -0.068817   -1.222828
     36          1           0       -3.290013    1.326468    1.347740
     37          1           0       -1.878895    1.564181   -1.242818
     38          1           0       -0.740086    0.534627    1.346180
     39          1           0        3.328640    3.117957   -0.252583
     40          1           0        2.594516    1.086773   -1.355212
     41          1           0        1.351772    0.283590    1.268023
     42          1           0        2.487153    2.643821    1.193874
     43          1           0        2.094217   -1.074051   -1.291407
     44          1           0        3.334815   -1.622595    1.365415
     45          1           0        4.560155   -0.554366   -1.179873
 ---------------------------------------------------------------------
 Rotational constants (GHZ):      0.4075416      0.1473497      0.1105104
 Standard basis: 6-31+G(d,p) (6D, 7F)
 There are   547 symmetry adapted basis functions of A   symmetry.
 Integral buffers will be    131072 words long.
 Raffenetti 2 integral format.
 Two-electron integral symmetry is turned on.
   547 basis functions,   890 primitive gaussians,   547 cartesian basis functions
    91 alpha electrons       91 beta electrons
       nuclear repulsion energy      2291.3946213166 Hartrees.
 NAtoms=   45 NActive=   45 NUniq=   45 SFac= 1.00D+00 NAtFMM=   50 NAOKFM=F Big=F
 One-electron integrals computed using PRISM.
 NBasis=   547 RedAO= T  NBF=   547
 NBsUse=   547 1.00D-06 NBFU=   547
 Harris functional with IExCor=  402 diagonalized for initial guess.
 ExpMin= 4.38D-02 ExpMax= 5.48D+03 ExpMxC= 8.25D+02 IAcc=2 IRadAn=         0 AccDes= 0.00D+00
 HarFok:  IExCor=  402 AccDes= 0.00D+00 IRadAn=         0 IDoV= 1
 ScaDFX=  1.000000  1.000000  1.000000  1.000000
 FoFCou: FMM=F IPFlag=           0 FMFlag=      100000 FMFlg1=           0
         NFxFlg=           0 DoJE=T BraDBF=F KetDBF=T FulRan=T
         Omega=  0.000000  0.000000  1.000000  0.000000  0.000000 ICntrl=     500 IOpCl=  0
         NMat0=    1 NMatS0=    1 NMatT0=    0 NMatD0=    1 NMtDS0=    0 NMtDT0=    0
         I1Cent=           4 NGrid=           0.
 Petite list used in FoFCou.
 Initial guess orbital symmetries:
       Occupied  (A) (A) (A) (A) (A) (A) (A) (A) (A) (A) (A) (A)
                 (A) (A) (A) (A) (A) (A) (A) (A) (A) (A) (A) (A)
                 (A) (A) (A) (A) (A) (A) (A) (A) (A) (A) (A) (A)
                 (A) (A) (A) (A) (A) (A) (A) (A) (A) (A) (A) (A)
                 (A) (A) (A) (A) (A) (A) (A) (A) (A) (A) (A) (A)
                 (A) (A) (A) (A) (A) (A) (A) (A) (A) (A) (A) (A)
                 (A) (A) (A) (A) (A) (A) (A) (A) (A) (A) (A) (A)
                 (A) (A) (A) (A) (A) (A) (A)
       Virtual   (A) (A) (A) (A) (A) (A) (A) (A) (A) (A) (A) (A)
                 (A) (A) (A) (A) (A) (A) (A) (A) (A) (A) (A) (A)
                 (A) (A) (A) (A) (A) (A) (A) (A) (A) (A) (A) (A)
                 (A) (A) (A) (A) (A) (A) (A) (A) (A) (A) (A) (A)
                 (A) (A) (A) (A) (A) (A) (A) (A) (A) (A) (A) (A)
                 (A) (A) (A) (A) (A) (A) (A) (A) (A) (A) (A) (A)
                 (A) (A) (A) (A) (A) (A) (A) (A) (A) (A) (A) (A)
                 (A) (A) (A) (A) (A) (A) (A) (A) (A) (A) (A) (A)
                 (A) (A) (A) (A) (A) (A) (A) (A) (A) (A) (A) (A)
                 (A) (A) (A) (A) (A) (A) (A) (A) (A) (A) (A) (A)
                 (A) (A) (A) (A) (A) (A) (A) (A) (A) (A) (A) (A)
                 (A) (A) (A) (A) (A) (A) (A) (A) (A) (A) (A) (A)
                 (A) (A) (A) (A) (A) (A) (A) (A) (A) (A) (A) (A)
                 (A) (A) (A) (A) (A) (A) (A) (A) (A) (A) (A) (A)
                 (A) (A) (A) (A) (A) (A) (A) (A) (A) (A) (A) (A)
                 (A) (A) (A) (A) (A) (A) (A) (A) (A) (A) (A) (A)
                 (A) (A) (A) (A) (A) (A) (A) (A) (A) (A) (A) (A)
                 (A) (A) (A) (A) (A) (A) (A) (A) (A) (A) (A) (A)
                 (A) (A) (A) (A) (A) (A) (A) (A) (A) (A) (A) (A)
                 (A) (A) (A) (A) (A) (A) (A) (A) (A) (A) (A) (A)
                 (A) (A) (A) (A) (A) (A) (A) (A) (A) (A) (A) (A)
                 (A) (A) (A) (A) (A) (A) (A) (A) (A) (A) (A) (A)
                 (A) (A) (A) (A) (A) (A) (A) (A) (A) (A) (A) (A)
                 (A) (A) (A) (A) (A) (A) (A) (A) (A) (A) (A) (A)
                 (A) (A) (A) (A) (A) (A) (A) (A) (A) (A) (A) (A)
                 (A) (A) (A) (A) (A) (A) (A) (A) (A) (A) (A) (A)
                 (A) (A) (A) (A) (A) (A) (A) (A) (A) (A) (A) (A)
                 (A) (A) (A) (A) (A) (A) (A) (A) (A) (A) (A) (A)
                 (A) (A) (A) (A) (A) (A) (A) (A) (A) (A) (A) (A)
                 (A) (A) (A) (A) (A) (A) (A) (A) (A) (A) (A) (A)
                 (A) (A) (A) (A) (A) (A) (A) (A) (A) (A) (A) (A)
                 (A) (A) (A) (A) (A) (A) (A) (A) (A) (A) (A) (A)
                 (A) (A) (A) (A) (A) (A) (A) (A) (A) (A) (A) (A)
                 (A) (A) (A) (A) (A) (A) (A) (A) (A) (A) (A) (A)
                 (A) (A) (A) (A) (A) (A) (A) (A) (A) (A) (A) (A)
                 (A) (A) (A) (A) (A) (A) (A) (A) (A) (A) (A) (A)
                 (A) (A) (A) (A) (A) (A) (A) (A) (A) (A) (A) (A)
                 (A) (A) (A) (A) (A) (A) (A) (A) (A) (A) (A) (A)
 The electronic state of the initial guess is 1-A.
 Requested convergence on RMS density matrix=1.00D-08 within 128 cycles.
 Requested convergence on MAX density matrix=1.00D-06.
 Requested convergence on             energy=1.00D-06.
 No special actions if energy rises.
 SCF Done:  E(RB3LYP) =  -1297.94350235     A.U. after   13 cycles
             Convg  =    0.6061D-08             -V/T =  2.0086
 Range of M.O.s used for correlation:     1   547
 NBasis=   547 NAE=    91 NBE=    91 NFC=     0 NFV=     0
 NROrb=    547 NOA=    91 NOB=    91 NVA=   456 NVB=   456

 **** Warning!!: The largest alpha MO coefficient is  0.72561663D+02

          Differentiating once with respect to electric field.
                with respect to dipole field.
          Electric field/nuclear overlap derivatives assumed to be zero.
          There are     3 degrees of freedom in the 1st order CPHF.  IDoFFX=0.
      3 vectors produced by pass  0 Test12= 1.38D-12 3.33D-08 XBig12= 1.20D+02 1.28D+00.
 AX will form     3 AO Fock derivatives at one time.
      3 vectors produced by pass  1 Test12= 1.38D-12 3.33D-08 XBig12= 2.07D+01 4.12D-01.
      3 vectors produced by pass  2 Test12= 1.38D-12 3.33D-08 XBig12= 9.04D+00 2.18D-01.
      3 vectors produced by pass  3 Test12= 1.38D-12 3.33D-08 XBig12= 8.37D-01 6.87D-02.
      3 vectors produced by pass  4 Test12= 1.38D-12 3.33D-08 XBig12= 2.48D-01 4.32D-02.
      3 vectors produced by pass  5 Test12= 1.38D-12 3.33D-08 XBig12= 4.73D-02 1.41D-02.
      3 vectors produced by pass  6 Test12= 1.38D-12 3.33D-08 XBig12= 1.63D-02 1.35D-02.
      3 vectors produced by pass  7 Test12= 1.38D-12 3.33D-08 XBig12= 1.70D-03 4.71D-03.
      3 vectors produced by pass  8 Test12= 1.38D-12 3.33D-08 XBig12= 3.82D-04 1.66D-03.
      3 vectors produced by pass  9 Test12= 1.38D-12 3.33D-08 XBig12= 8.89D-05 1.11D-03.
      3 vectors produced by pass 10 Test12= 1.38D-12 3.33D-08 XBig12= 2.44D-05 4.67D-04.
      3 vectors produced by pass 11 Test12= 1.38D-12 3.33D-08 XBig12= 5.47D-06 2.74D-04.
      3 vectors produced by pass 12 Test12= 1.38D-12 3.33D-08 XBig12= 8.61D-07 8.75D-05.
      3 vectors produced by pass 13 Test12= 1.38D-12 3.33D-08 XBig12= 1.85D-07 3.69D-05.
      3 vectors produced by pass 14 Test12= 1.38D-12 3.33D-08 XBig12= 2.17D-08 1.24D-05.
      3 vectors produced by pass 15 Test12= 1.38D-12 3.33D-08 XBig12= 7.22D-09 6.97D-06.
      3 vectors produced by pass 16 Test12= 1.38D-12 3.33D-08 XBig12= 7.05D-10 2.65D-06.
      3 vectors produced by pass 17 Test12= 1.38D-12 3.33D-08 XBig12= 8.54D-11 6.60D-07.
      3 vectors produced by pass 18 Test12= 1.38D-12 3.33D-08 XBig12= 1.87D-11 3.38D-07.
      3 vectors produced by pass 19 Test12= 1.38D-12 3.33D-08 XBig12= 6.81D-12 1.59D-07.
      3 vectors produced by pass 20 Test12= 1.38D-12 3.33D-08 XBig12= 2.73D-12 8.80D-08.
      1 vectors produced by pass 21 Test12= 1.38D-12 3.33D-08 XBig12= 6.74D-13 7.06D-08.
 Inverted reduced A of dimension    64 with in-core refinement.
 End of Minotr Frequency-dependent properties file   721 does not exist.
 End of Minotr Frequency-dependent properties file   722 does not exist.
 Symmetrizing basis deriv contribution to polar:
 IMax=3 JMax=2 DiffMx= 0.00D+00
 G2DrvN: will do    23 centers at a time, making    2 passes doing MaxLOS=2.
 Calling FoFCou, ICntrl=  3107 FMM=F I1Cent=   0 AccDes= 0.00D+00.
 Calling FoFCou, ICntrl=  3107 FMM=F I1Cent=   0 AccDes= 0.00D+00.
 FoFDir/FoFCou used for L=0 through L=2.
 End of G2Drv Frequency-dependent properties file   721 does not exist.
 End of G2Drv Frequency-dependent properties file   722 does not exist.
          IDoAtm=111111111111111111111111111111111111111111111
          Differentiating once with respect to electric field.
                with respect to dipole field.
          Differentiating once with respect to nuclear coordinates.
          There are   138 degrees of freedom in the 1st order CPHF.  IDoFFX=5.
 Will reuse    3 saved solutions.
    135 vectors produced by pass  0 Test12= 4.15D-14 1.00D-09 XBig12= 2.00D-01 5.90D-02.
 AX will form    68 AO Fock derivatives at one time.
    135 vectors produced by pass  1 Test12= 4.15D-14 1.00D-09 XBig12= 3.81D-02 1.86D-02.
    132 vectors produced by pass  2 Test12= 4.15D-14 1.00D-09 XBig12= 2.51D-04 1.66D-03.
    132 vectors produced by pass  3 Test12= 4.15D-14 1.00D-09 XBig12= 8.81D-07 7.94D-05.
    132 vectors produced by pass  4 Test12= 4.15D-14 1.00D-09 XBig12= 1.60D-09 3.12D-06.
    132 vectors produced by pass  5 Test12= 4.15D-14 1.00D-09 XBig12= 3.82D-12 1.09D-07.
     77 vectors produced by pass  6 Test12= 4.15D-14 1.00D-09 XBig12= 1.29D-13 2.43D-08.
      1 vectors produced by pass  7 Test12= 4.15D-14 1.00D-09 XBig12= 2.17D-16 1.02D-09.
 Inverted reduced A of dimension   876 with in-core refinement.
 Isotropic polarizability for W=    0.000000      187.56 Bohr**3.
 End of Minotr Frequency-dependent properties file   721 does not exist.
 End of Minotr Frequency-dependent properties file   722 does not exist.

 **********************************************************************

            Population analysis using the SCF density.

 **********************************************************************

 Orbital symmetries:
       Occupied  (A) (A) (A) (A) (A) (A) (A) (A) (A) (A) (A) (A)
                 (A) (A) (A) (A) (A) (A) (A) (A) (A) (A) (A) (A)
                 (A) (A) (A) (A) (A) (A) (A) (A) (A) (A) (A) (A)
                 (A) (A) (A) (A) (A) (A) (A) (A) (A) (A) (A) (A)
                 (A) (A) (A) (A) (A) (A) (A) (A) (A) (A) (A) (A)
                 (A) (A) (A) (A) (A) (A) (A) (A) (A) (A) (A) (A)
                 (A) (A) (A) (A) (A) (A) (A) (A) (A) (A) (A) (A)
                 (A) (A) (A) (A) (A) (A) (A)
       Virtual   (A) (A) (A) (A) (A) (A) (A) (A) (A) (A) (A) (A)
                 (A) (A) (A) (A) (A) (A) (A) (A) (A) (A) (A) (A)
                 (A) (A) (A) (A) (A) (A) (A) (A) (A) (A) (A) (A)
                 (A) (A) (A) (A) (A) (A) (A) (A) (A) (A) (A) (A)
                 (A) (A) (A) (A) (A) (A) (A) (A) (A) (A) (A) (A)
                 (A) (A) (A) (A) (A) (A) (A) (A) (A) (A) (A) (A)
                 (A) (A) (A) (A) (A) (A) (A) (A) (A) (A) (A) (A)
                 (A) (A) (A) (A) (A) (A) (A) (A) (A) (A) (A) (A)
                 (A) (A) (A) (A) (A) (A) (A) (A) (A) (A) (A) (A)
                 (A) (A) (A) (A) (A) (A) (A) (A) (A) (A) (A) (A)
                 (A) (A) (A) (A) (A) (A) (A) (A) (A) (A) (A) (A)
                 (A) (A) (A) (A) (A) (A) (A) (A) (A) (A) (A) (A)
                 (A) (A) (A) (A) (A) (A) (A) (A) (A) (A) (A) (A)
                 (A) (A) (A) (A) (A) (A) (A) (A) (A) (A) (A) (A)
                 (A) (A) (A) (A) (A) (A) (A) (A) (A) (A) (A) (A)
                 (A) (A) (A) (A) (A) (A) (A) (A) (A) (A) (A) (A)
                 (A) (A) (A) (A) (A) (A) (A) (A) (A) (A) (A) (A)
                 (A) (A) (A) (A) (A) (A) (A) (A) (A) (A) (A) (A)
                 (A) (A) (A) (A) (A) (A) (A) (A) (A) (A) (A) (A)
                 (A) (A) (A) (A) (A) (A) (A) (A) (A) (A) (A) (A)
                 (A) (A) (A) (A) (A) (A) (A) (A) (A) (A) (A) (A)
                 (A) (A) (A) (A) (A) (A) (A) (A) (A) (A) (A) (A)
                 (A) (A) (A) (A) (A) (A) (A) (A) (A) (A) (A) (A)
                 (A) (A) (A) (A) (A) (A) (A) (A) (A) (A) (A) (A)
                 (A) (A) (A) (A) (A) (A) (A) (A) (A) (A) (A) (A)
                 (A) (A) (A) (A) (A) (A) (A) (A) (A) (A) (A) (A)
                 (A) (A) (A) (A) (A) (A) (A) (A) (A) (A) (A) (A)
                 (A) (A) (A) (A) (A) (A) (A) (A) (A) (A) (A) (A)
                 (A) (A) (A) (A) (A) (A) (A) (A) (A) (A) (A) (A)
                 (A) (A) (A) (A) (A) (A) (A) (A) (A) (A) (A) (A)
                 (A) (A) (A) (A) (A) (A) (A) (A) (A) (A) (A) (A)
                 (A) (A) (A) (A) (A) (A) (A) (A) (A) (A) (A) (A)
                 (A) (A) (A) (A) (A) (A) (A) (A) (A) (A) (A) (A)
                 (A) (A) (A) (A) (A) (A) (A) (A) (A) (A) (A) (A)
                 (A) (A) (A) (A) (A) (A) (A) (A) (A) (A) (A) (A)
                 (A) (A) (A) (A) (A) (A) (A) (A) (A) (A) (A) (A)
                 (A) (A) (A) (A) (A) (A) (A) (A) (A) (A) (A) (A)
                 (A) (A) (A) (A) (A) (A) (A) (A) (A) (A) (A) (A)
 The electronic state is 1-A.
 Alpha  occ. eigenvalues --  -19.19657 -19.19262 -19.19115 -19.19110 -19.18220
 Alpha  occ. eigenvalues --  -19.17677 -19.17384 -19.16719 -19.16537 -19.13594
 Alpha  occ. eigenvalues --  -19.13537 -10.31225 -10.30876 -10.26085 -10.25939
 Alpha  occ. eigenvalues --  -10.25621 -10.25586 -10.25417 -10.25214 -10.25073
 Alpha  occ. eigenvalues --  -10.24437 -10.24168 -10.23901  -1.10164  -1.09393
 Alpha  occ. eigenvalues --   -1.05879  -1.05230  -1.04020  -1.03714  -1.03096
 Alpha  occ. eigenvalues --   -1.02413  -1.02199  -1.00051  -0.99468  -0.82451
 Alpha  occ. eigenvalues --   -0.80181  -0.79367  -0.78538  -0.71694  -0.69681
 Alpha  occ. eigenvalues --   -0.67438  -0.65051  -0.63023  -0.62561  -0.61392
 Alpha  occ. eigenvalues --   -0.60107  -0.56602  -0.56212  -0.55157  -0.54630
 Alpha  occ. eigenvalues --   -0.53907  -0.53254  -0.53044  -0.51564  -0.51136
 Alpha  occ. eigenvalues --   -0.50611  -0.49990  -0.49638  -0.48179  -0.46963
 Alpha  occ. eigenvalues --   -0.45314  -0.44995  -0.44389  -0.44008  -0.43053
 Alpha  occ. eigenvalues --   -0.42509  -0.41513  -0.40938  -0.40521  -0.39384
 Alpha  occ. eigenvalues --   -0.38616  -0.38240  -0.37886  -0.36364  -0.36167
 Alpha  occ. eigenvalues --   -0.36003  -0.35430  -0.34775  -0.33325  -0.33113
 Alpha  occ. eigenvalues --   -0.32516  -0.31522  -0.30910  -0.30579  -0.29690
 Alpha  occ. eigenvalues --   -0.29256  -0.28615  -0.28355  -0.27370  -0.26258
 Alpha  occ. eigenvalues --   -0.25801
 Alpha virt. eigenvalues --   -0.02023  -0.01874  -0.01670  -0.00060   0.00294
 Alpha virt. eigenvalues --    0.00887   0.01715   0.02138   0.02842   0.03303
 Alpha virt. eigenvalues --    0.03781   0.04332   0.04890   0.05343   0.05787
 Alpha virt. eigenvalues --    0.06244   0.06774   0.07492   0.07847   0.08093
 Alpha virt. eigenvalues --    0.08586   0.08748   0.09230   0.09881   0.10183
 Alpha virt. eigenvalues --    0.10597   0.11031   0.11490   0.11915   0.12181
 Alpha virt. eigenvalues --    0.12558   0.12891   0.13035   0.13868   0.13927
 Alpha virt. eigenvalues --    0.14234   0.14327   0.14579   0.14941   0.15302
 Alpha virt. eigenvalues --    0.16000   0.16358   0.16856   0.16967   0.17175
 Alpha virt. eigenvalues --    0.17619   0.17773   0.17925   0.18156   0.18868
 Alpha virt. eigenvalues --    0.19116   0.19303   0.19613   0.19855   0.20112
 Alpha virt. eigenvalues --    0.20728   0.20948   0.21085   0.21225   0.21786
 Alpha virt. eigenvalues --    0.22335   0.22692   0.22919   0.23381   0.23724
 Alpha virt. eigenvalues --    0.23966   0.24085   0.24437   0.24534   0.24705
 Alpha virt. eigenvalues --    0.24890   0.25472   0.25578   0.25914   0.26165
 Alpha virt. eigenvalues --    0.26233   0.26595   0.26734   0.27169   0.27626
 Alpha virt. eigenvalues --    0.27989   0.28118   0.28324   0.28669   0.28765
 Alpha virt. eigenvalues --    0.29477   0.29792   0.29964   0.30438   0.30680
 Alpha virt. eigenvalues --    0.31138   0.31228   0.31640   0.32221   0.32688
 Alpha virt. eigenvalues --    0.33048   0.33200   0.33444   0.33471   0.34107
 Alpha virt. eigenvalues --    0.34635   0.35056   0.35318   0.35503   0.35959
 Alpha virt. eigenvalues --    0.36061   0.37112   0.37270   0.37525   0.37691
 Alpha virt. eigenvalues --    0.37918   0.38355   0.38973   0.39738   0.39955
 Alpha virt. eigenvalues --    0.40521   0.40698   0.41009   0.41697   0.42334
 Alpha virt. eigenvalues --    0.42449   0.43003   0.43548   0.44389   0.44804
 Alpha virt. eigenvalues --    0.44980   0.45487   0.45925   0.46972   0.47650
 Alpha virt. eigenvalues --    0.48022   0.48039   0.48942   0.49520   0.50656
 Alpha virt. eigenvalues --    0.52043   0.52203   0.56315   0.63436   0.63772
 Alpha virt. eigenvalues --    0.64895   0.65874   0.67298   0.68764   0.70408
 Alpha virt. eigenvalues --    0.70677   0.71539   0.71987   0.73088   0.74115
 Alpha virt. eigenvalues --    0.75440   0.75965   0.77155   0.77995   0.78531
 Alpha virt. eigenvalues --    0.79571   0.80165   0.82259   0.82361   0.84621
 Alpha virt. eigenvalues --    0.86712   0.86835   0.87969   0.88244   0.89874
 Alpha virt. eigenvalues --    0.90707   0.91653   0.92731   0.94269   0.96019
 Alpha virt. eigenvalues --    0.96920   0.97410   0.98342   0.99994   1.01221
 Alpha virt. eigenvalues --    1.01747   1.02348   1.03057   1.04347   1.04712
 Alpha virt. eigenvalues --    1.05214   1.05732   1.06599   1.06906   1.07407
 Alpha virt. eigenvalues --    1.07838   1.08595   1.09429   1.09772   1.10614
 Alpha virt. eigenvalues --    1.10895   1.12438   1.13896   1.14799   1.15344
 Alpha virt. eigenvalues --    1.16703   1.17438   1.18830   1.20295   1.21444
 Alpha virt. eigenvalues --    1.21738   1.23065   1.23695   1.24117   1.24983
 Alpha virt. eigenvalues --    1.25461   1.26089   1.26753   1.27586   1.28358
 Alpha virt. eigenvalues --    1.28722   1.29605   1.29995   1.30299   1.30672
 Alpha virt. eigenvalues --    1.31491   1.33275   1.34041   1.34923   1.35238
 Alpha virt. eigenvalues --    1.36226   1.36793   1.37419   1.38248   1.39347
 Alpha virt. eigenvalues --    1.39676   1.41232   1.41768   1.42891   1.43590
 Alpha virt. eigenvalues --    1.44708   1.45910   1.46718   1.47572   1.48947
 Alpha virt. eigenvalues --    1.49325   1.49732   1.50783   1.51776   1.52776
 Alpha virt. eigenvalues --    1.53505   1.54668   1.55198   1.57018   1.57418
 Alpha virt. eigenvalues --    1.57790   1.58343   1.58852   1.59735   1.61395
 Alpha virt. eigenvalues --    1.61592   1.64403   1.65116   1.65289   1.66232
 Alpha virt. eigenvalues --    1.66367   1.67820   1.67884   1.69350   1.69806
 Alpha virt. eigenvalues --    1.70176   1.72118   1.73549   1.73918   1.74216
 Alpha virt. eigenvalues --    1.75330   1.75843   1.76420   1.77484   1.78139
 Alpha virt. eigenvalues --    1.78613   1.79457   1.80462   1.82188   1.82553
 Alpha virt. eigenvalues --    1.83401   1.85259   1.85800   1.86560   1.87433
 Alpha virt. eigenvalues --    1.88360   1.89381   1.89992   1.90752   1.91016
 Alpha virt. eigenvalues --    1.91399   1.92398   1.92991   1.93397   1.95367
 Alpha virt. eigenvalues --    1.95986   1.96265   1.97144   1.97601   1.98213
 Alpha virt. eigenvalues --    1.99030   1.99606   2.00239   2.02075   2.02495
 Alpha virt. eigenvalues --    2.03527   2.04128   2.04849   2.05822   2.06549
 Alpha virt. eigenvalues --    2.07428   2.09135   2.09822   2.10177   2.11293
 Alpha virt. eigenvalues --    2.12684   2.14418   2.15322   2.15650   2.16320
 Alpha virt. eigenvalues --    2.17168   2.17412   2.18222   2.19231   2.20127
 Alpha virt. eigenvalues --    2.21896   2.23853   2.24835   2.25496   2.27447
 Alpha virt. eigenvalues --    2.30774   2.31756   2.32761   2.33288   2.34518
 Alpha virt. eigenvalues --    2.35660   2.36076   2.37177   2.38892   2.40124
 Alpha virt. eigenvalues --    2.40379   2.41227   2.43279   2.44403   2.45336
 Alpha virt. eigenvalues --    2.46460   2.47476   2.48560   2.49777   2.51207
 Alpha virt. eigenvalues --    2.51679   2.52792   2.54478   2.55453   2.55638
 Alpha virt. eigenvalues --    2.56956   2.57731   2.59050   2.59662   2.60830
 Alpha virt. eigenvalues --    2.61295   2.61859   2.63220   2.63359   2.64795
 Alpha virt. eigenvalues --    2.65729   2.66241   2.67839   2.68954   2.69926
 Alpha virt. eigenvalues --    2.71210   2.73507   2.73837   2.74293   2.74838
 Alpha virt. eigenvalues --    2.76141   2.77248   2.78259   2.78710   2.81285
 Alpha virt. eigenvalues --    2.81876   2.82542   2.83630   2.84672   2.86580
 Alpha virt. eigenvalues --    2.86755   2.88083   2.88838   2.89069   2.89439
 Alpha virt. eigenvalues --    2.90369   2.90685   2.91338   2.92787   2.94524
 Alpha virt. eigenvalues --    2.95282   2.95753   2.96930   2.97932   2.99525
 Alpha virt. eigenvalues --    2.99823   3.02597   3.03157   3.03859   3.06778
 Alpha virt. eigenvalues --    3.06962   3.08960   3.09438   3.10730   3.14233
 Alpha virt. eigenvalues --    3.18335   3.19542   3.24424   3.25397   3.30425
 Alpha virt. eigenvalues --    3.31787   3.35789   3.37399   3.38819   3.41042
 Alpha virt. eigenvalues --    3.42504   3.45216   3.47577   3.47816   3.48407
 Alpha virt. eigenvalues --    3.48619   3.50633   3.51845   3.52413   3.54075
 Alpha virt. eigenvalues --    3.55864   3.57000   3.60300   3.61459   3.64998
 Alpha virt. eigenvalues --    3.66366   3.69576   3.72825   4.30594   4.33567
 Alpha virt. eigenvalues --    4.34680   4.36466   4.39677   4.42747   4.44673
 Alpha virt. eigenvalues --    4.49310   4.50992   4.53424   4.55326   4.56526
 Alpha virt. eigenvalues --    4.58722   4.60371   4.62005   4.65847   4.71279
 Alpha virt. eigenvalues --    4.80352   4.81452   4.85740   4.87331   4.88294
 Alpha virt. eigenvalues --    4.94258
          Condensed to atoms (all electrons):
              1          2          3          4          5          6
     1  O    8.251552   0.426430  -0.154152  -0.005701   0.021433   0.017642
     2  C    0.426430   8.710324  -1.515370  -0.081594  -0.081997  -1.691056
     3  C   -0.154152  -1.515370   9.531111   0.244517   0.045605   0.051310
     4  O   -0.005701  -0.081594   0.244517   8.206639   0.196316  -0.071037
     5  H    0.021433  -0.081997   0.045605   0.196316   0.433961   0.026037
     6  C    0.017642  -1.691056   0.051310  -0.071037   0.026037   9.321109
     7  O   -0.000585   0.013220  -0.189167   0.007501  -0.000733   0.441464
     8  H    0.000012  -0.006296   0.046325  -0.000570   0.000010   0.010571
     9  C    0.029206   0.274833  -0.095033   0.002024  -0.002913   0.042247
    10  O   -0.001354   0.011082   0.005757   0.000019  -0.000027  -0.007870
    11  H   -0.000206  -0.006326  -0.002113   0.000002   0.000000   0.000049
    12  C   -0.300694  -1.904216  -0.466578   0.030609   0.014982   0.565394
    13  O    0.008041  -0.013692   0.012809  -0.000484  -0.000179  -0.212465
    14  C    0.028848   0.998749  -0.920264  -0.003826   0.004106  -2.012087
    15  O   -0.000039  -0.045358   0.029427  -0.000448   0.000078   0.134532
    16  C    0.002040   0.169279  -0.299673  -0.001291   0.001197  -0.298176
    17  C    0.000322  -0.025216  -0.029004   0.000355   0.000060   0.125066
    18  O    0.000028   0.013061  -0.004718   0.000001   0.000000   0.001558
    19  H   -0.000031  -0.008768   0.005719   0.000000   0.000000   0.010790
    20  C    0.000046   0.005777  -0.012612   0.000002   0.000003   0.008069
    21  O    0.000000  -0.000047  -0.000113   0.000000   0.000000  -0.000385
    22  H    0.000000   0.000003   0.000000   0.000000   0.000000  -0.000022
    23  C    0.000032   0.012077   0.013605   0.000340  -0.000012  -0.172149
    24  O   -0.000001   0.003331  -0.009529  -0.000244  -0.000006   0.001480
    25  H    0.000000  -0.000023   0.001055   0.000003   0.000000  -0.002646
    26  C   -0.000101   0.043730  -0.143593  -0.000028   0.000014  -0.105040
    27  O    0.000000  -0.000170   0.000453   0.000000   0.000000   0.006896
    28  C    0.000002  -0.000703   0.000824   0.000003   0.000000   0.006470
    29  O    0.000000   0.000000   0.000040   0.000000   0.000000  -0.000149
    30  H    0.000000   0.000000   0.000000   0.000000   0.000000   0.000002
    31  H    0.233816   0.051600  -0.010884  -0.000388  -0.001433   0.000093
    32  H    0.000024  -0.013049  -0.003714   0.000016   0.000000  -0.001711
    33  H    0.003222  -0.010840   0.006757  -0.000039   0.000000   0.010317
    34  H    0.006983   0.048446  -0.079419  -0.000065   0.000007  -0.009292
    35  H   -0.045395   0.483591  -0.142857   0.003273  -0.000657  -0.015553
    36  H   -0.002454   0.101815   0.174360  -0.041665  -0.007100  -0.204127
    37  H   -0.000638   0.088945  -0.220562   0.004946  -0.000160   0.281727
    38  H    0.000044   0.029389  -0.053312  -0.000230   0.000007  -0.078254
    39  H    0.000000   0.000011  -0.000034   0.000000   0.000000  -0.000695
    40  H    0.000000  -0.000366   0.001578   0.000000   0.000000   0.004536
    41  H   -0.000002  -0.002235   0.004478   0.000003   0.000000   0.009870
    42  H    0.000000  -0.000028   0.000350   0.000001   0.000000   0.001143
    43  H    0.000000   0.000696   0.000267   0.000000   0.000000   0.001067
    44  H    0.000000   0.000028   0.000047   0.000000   0.000000   0.000004
    45  H    0.000000  -0.000010   0.000017   0.000000   0.000000   0.000094
              7          8          9         10         11         12
     1  O   -0.000585   0.000012   0.029206  -0.001354  -0.000206  -0.300694
     2  C    0.013220  -0.006296   0.274833   0.011082  -0.006326  -1.904216
     3  C   -0.189167   0.046325  -0.095033   0.005757  -0.002113  -0.466578
     4  O    0.007501  -0.000570   0.002024   0.000019   0.000002   0.030609
     5  H   -0.000733   0.000010  -0.002913  -0.000027   0.000000   0.014982
     6  C    0.441464   0.010571   0.042247  -0.007870   0.000049   0.565394
     7  O    8.245650   0.212918   0.000273   0.000007   0.000000   0.035530
     8  H    0.212918   0.333230  -0.000189   0.000000   0.000000  -0.003865
     9  C    0.000273  -0.000189   6.125516   0.056634   0.011490  -1.355818
    10  O    0.000007   0.000000   0.056634   8.313619   0.193673   0.041680
    11  H    0.000000   0.000000   0.011490   0.193673   0.448557   0.022264
    12  C    0.035530  -0.003865  -1.355818   0.041680   0.022264  10.913832
    13  O    0.009634   0.000292   0.020208  -0.000264  -0.000144  -0.251282
    14  C   -0.148579  -0.058300  -0.077274   0.019583  -0.003737  -1.039877
    15  O   -0.000907   0.020814  -0.007602  -0.000077   0.000010   0.050627
    16  C   -0.023770   0.014611  -0.111966  -0.003063  -0.000030  -0.005930
    17  C    0.008435   0.003135   0.016125   0.000442   0.000112  -0.123378
    18  O   -0.000085  -0.000028   0.010687  -0.000088   0.000027  -0.044158
    19  H   -0.000048  -0.000009  -0.004061  -0.000062  -0.000007   0.015391
    20  C    0.003805   0.001290  -0.003310   0.000070   0.000036   0.000120
    21  O   -0.000005   0.000000   0.000274   0.000001   0.000000  -0.000307
    22  H    0.000000   0.000000  -0.000005   0.000000   0.000000   0.000040
    23  C    0.006745   0.027169  -0.002388  -0.000022   0.000000  -0.005827
    24  O   -0.023380  -0.013601   0.000614   0.000000   0.000000   0.003673
    25  H    0.001711  -0.000173  -0.000011   0.000000   0.000000  -0.000169
    26  C   -0.003226  -0.041954   0.002050  -0.000069   0.000011   0.034469
    27  O    0.000094  -0.000048  -0.000023   0.000000   0.000000  -0.000577
    28  C    0.000356  -0.000379  -0.001537   0.000006   0.000000   0.003486
    29  O   -0.000005   0.000000  -0.000011   0.000000   0.000000   0.000071
    30  H    0.000000   0.000000   0.000000   0.000000   0.000000  -0.000001
    31  H   -0.000022   0.000000  -0.016407   0.000973   0.000024  -0.005732
    32  H   -0.000011   0.000000   0.442108  -0.045478  -0.008952  -0.047972
    33  H   -0.000010   0.000000   0.534945  -0.062818  -0.004273  -0.199901
    34  H   -0.000009   0.000001   0.089092   0.005624  -0.000123   0.143248
    35  H    0.000096   0.000002   0.037138   0.000841  -0.000003  -0.170576
    36  H    0.007010  -0.000119   0.020939   0.000101   0.000000  -0.003694
    37  H   -0.047079  -0.007010   0.011853   0.000017   0.000000   0.010869
    38  H    0.002662  -0.000760   0.009339   0.000066   0.000000  -0.003942
    39  H   -0.000402   0.000145  -0.000002   0.000000   0.000000   0.000021
    40  H   -0.000114   0.000064   0.000098   0.000000   0.000000   0.000326
    41  H   -0.000430   0.000134  -0.000214   0.000001   0.000000   0.001332
    42  H    0.000987   0.000494   0.000004   0.000000   0.000000   0.000058
    43  H   -0.000006   0.000007  -0.000293   0.000000   0.000000   0.000336
    44  H    0.000001   0.000000  -0.000096   0.000000   0.000000   0.000355
    45  H   -0.000001   0.000000   0.000003   0.000000   0.000000   0.000031
             13         14         15         16         17         18
     1  O    0.008041   0.028848  -0.000039   0.002040   0.000322   0.000028
     2  C   -0.013692   0.998749  -0.045358   0.169279  -0.025216   0.013061
     3  C    0.012809  -0.920264   0.029427  -0.299673  -0.029004  -0.004718
     4  O   -0.000484  -0.003826  -0.000448  -0.001291   0.000355   0.000001
     5  H   -0.000179   0.004106   0.000078   0.001197   0.000060   0.000000
     6  C   -0.212465  -2.012087   0.134532  -0.298176   0.125066   0.001558
     7  O    0.009634  -0.148579  -0.000907  -0.023770   0.008435  -0.000085
     8  H    0.000292  -0.058300   0.020814   0.014611   0.003135  -0.000028
     9  C    0.020208  -0.077274  -0.007602  -0.111966   0.016125   0.010687
    10  O   -0.000264   0.019583  -0.000077  -0.003063   0.000442  -0.000088
    11  H   -0.000144  -0.003737   0.000010  -0.000030   0.000112   0.000027
    12  C   -0.251282  -1.039877   0.050627  -0.005930  -0.123378  -0.044158
    13  O    8.636946   0.241349  -0.070744   0.172400  -0.114255   0.018315
    14  C    0.241349   9.527843   0.070377  -1.169299   0.132355  -0.049710
    15  O   -0.070744   0.070377   8.315492  -0.013939   0.028650   0.004821
    16  C    0.172400  -1.169299  -0.013939  13.080542  -2.390002  -0.214050
    17  C   -0.114255   0.132355   0.028650  -2.390002   8.811407   0.476359
    18  O    0.018315  -0.049710   0.004821  -0.214050   0.476359   8.214182
    19  H    0.009671  -0.007575   0.030296  -0.115071   0.040219   0.192182
    20  C   -0.024869  -0.294405   0.083058  -1.974114  -0.664928  -0.099594
    21  O   -0.000261   0.002562  -0.001109   0.039585  -0.001474   0.003001
    22  H   -0.000002  -0.000351   0.000046  -0.011640  -0.026224   0.000052
    23  C    0.023276   0.071677  -0.034559   0.354145  -0.472396   0.004410
    24  O   -0.000469   0.057851  -0.012389   0.078808   0.002768   0.000276
    25  H    0.000046  -0.005584   0.002127  -0.016292  -0.001379   0.000000
    26  C   -0.034529  -0.522494  -0.088804  -2.979505  -0.105939   0.062839
    27  O   -0.000207   0.001603   0.004573  -0.000311  -0.026173   0.000681
    28  C    0.004799  -0.013439   0.008089   0.891750   0.233366  -0.009332
    29  O    0.000041   0.001393  -0.000004   0.012790  -0.032035   0.000136
    30  H    0.000000   0.000173  -0.000001  -0.003237   0.014594  -0.000043
    31  H   -0.001189   0.000590  -0.000024   0.000227  -0.000066   0.000000
    32  H   -0.004573   0.003936  -0.000788   0.005807  -0.000663  -0.000915
    33  H    0.004196   0.003513  -0.000524  -0.003167   0.000469   0.000206
    34  H   -0.027370   0.067504  -0.002640   0.003965   0.003062   0.000621
    35  H    0.017224   0.066441  -0.000815  -0.000182   0.001089   0.000084
    36  H    0.012207   0.133290  -0.000920   0.006259   0.000856   0.000072
    37  H    0.022649   0.061746  -0.014361   0.010497   0.005047   0.000178
    38  H   -0.048991   0.372681  -0.069891   0.015802   0.029713  -0.000134
    39  H    0.000004   0.000764  -0.000179  -0.007844  -0.005856   0.000036
    40  H   -0.000604   0.060509   0.005843   0.024567   0.012656  -0.000501
    41  H   -0.001429   0.026306  -0.058903   0.314197   0.021960  -0.002729
    42  H    0.000003   0.003051   0.001732   0.035202   0.011389  -0.000015
    43  H    0.004043   0.020864  -0.015152   0.026357   0.341861  -0.057926
    44  H    0.000361   0.001849  -0.001156   0.107206  -0.112791   0.003717
    45  H    0.000002   0.005315  -0.000173   0.095084   0.007424  -0.000981
             19         20         21         22         23         24
     1  O   -0.000031   0.000046   0.000000   0.000000   0.000032  -0.000001
     2  C   -0.008768   0.005777  -0.000047   0.000003   0.012077   0.003331
     3  C    0.005719  -0.012612  -0.000113   0.000000   0.013605  -0.009529
     4  O    0.000000   0.000002   0.000000   0.000000   0.000340  -0.000244
     5  H    0.000000   0.000003   0.000000   0.000000  -0.000012  -0.000006
     6  C    0.010790   0.008069  -0.000385  -0.000022  -0.172149   0.001480
     7  O   -0.000048   0.003805  -0.000005   0.000000   0.006745  -0.023380
     8  H   -0.000009   0.001290   0.000000   0.000000   0.027169  -0.013601
     9  C   -0.004061  -0.003310   0.000274  -0.000005  -0.002388   0.000614
    10  O   -0.000062   0.000070   0.000001   0.000000  -0.000022   0.000000
    11  H   -0.000007   0.000036   0.000000   0.000000   0.000000   0.000000
    12  C    0.015391   0.000120  -0.000307   0.000040  -0.005827   0.003673
    13  O    0.009671  -0.024869  -0.000261  -0.000002   0.023276  -0.000469
    14  C   -0.007575  -0.294405   0.002562  -0.000351   0.071677   0.057851
    15  O    0.030296   0.083058  -0.001109   0.000046  -0.034559  -0.012389
    16  C   -0.115071  -1.974114   0.039585  -0.011640   0.354145   0.078808
    17  C    0.040219  -0.664928  -0.001474  -0.026224  -0.472396   0.002768
    18  O    0.192182  -0.099594   0.003001   0.000052   0.004410   0.000276
    19  H    0.367530   0.046964  -0.000872   0.000017  -0.005539   0.000046
    20  C    0.046964   9.131161   0.071064   0.052741   0.078746  -0.006731
    21  O   -0.000872   0.071064   8.276602   0.179815   0.002944   0.000064
    22  H    0.000017   0.052741   0.179815   0.450557  -0.000267   0.000001
    23  C   -0.005539   0.078746   0.002944  -0.000267   6.557696  -0.091251
    24  O    0.000046  -0.006731   0.000064   0.000001  -0.091251   8.523990
    25  H    0.000000   0.000808   0.000001   0.000000   0.010401   0.198796
    26  C    0.010206   1.102203   0.005889  -0.004185  -1.175354  -0.033500
    27  O    0.000089  -0.183702   0.005481  -0.000144  -0.123102   0.007010
    28  C   -0.000299  -1.398835  -0.057408   0.013438  -0.133209   0.012166
    29  O    0.000018  -0.132241  -0.007748   0.015376   0.003379   0.000002
    30  H    0.000000  -0.009723  -0.001794  -0.001721   0.000596  -0.000002
    31  H    0.000000   0.000001   0.000000   0.000000   0.000003   0.000000
    32  H    0.000713  -0.001795  -0.000015   0.000000   0.000061   0.000000
    33  H    0.000100   0.000026   0.000001   0.000000  -0.000013   0.000000
    34  H    0.000126   0.000482   0.000001   0.000000   0.000141   0.000005
    35  H   -0.000006   0.000055   0.000000   0.000000   0.000090   0.000014
    36  H    0.000000   0.000135   0.000000   0.000000   0.000698   0.000171
    37  H    0.000023   0.001281   0.000001   0.000000   0.003375   0.001649
    38  H    0.000379   0.014074   0.000008   0.000000   0.003910   0.000940
    39  H    0.000000   0.002261  -0.000004   0.000000   0.435835  -0.045627
    40  H    0.000073  -0.038975  -0.000460   0.000007   0.018877   0.008967
    41  H    0.000050   0.020211  -0.000581   0.000007   0.027530   0.000926
    42  H    0.000001  -0.001096  -0.000024   0.000000   0.541664  -0.058287
    43  H   -0.006398  -0.124740  -0.000654  -0.000073   0.038411  -0.000162
    44  H   -0.000038   0.306625  -0.032871  -0.008606   0.014981  -0.000002
    45  H    0.000008  -0.162791   0.001248  -0.001240   0.000535   0.000050
             25         26         27         28         29         30
     1  O    0.000000  -0.000101   0.000000   0.000002   0.000000   0.000000
     2  C   -0.000023   0.043730  -0.000170  -0.000703   0.000000   0.000000
     3  C    0.001055  -0.143593   0.000453   0.000824   0.000040   0.000000
     4  O    0.000003  -0.000028   0.000000   0.000003   0.000000   0.000000
     5  H    0.000000   0.000014   0.000000   0.000000   0.000000   0.000000
     6  C   -0.002646  -0.105040   0.006896   0.006470  -0.000149   0.000002
     7  O    0.001711  -0.003226   0.000094   0.000356  -0.000005   0.000000
     8  H   -0.000173  -0.041954  -0.000048  -0.000379   0.000000   0.000000
     9  C   -0.000011   0.002050  -0.000023  -0.001537  -0.000011   0.000000
    10  O    0.000000  -0.000069   0.000000   0.000006   0.000000   0.000000
    11  H    0.000000   0.000011   0.000000   0.000000   0.000000   0.000000
    12  C   -0.000169   0.034469  -0.000577   0.003486   0.000071  -0.000001
    13  O    0.000046  -0.034529  -0.000207   0.004799   0.000041   0.000000
    14  C   -0.005584  -0.522494   0.001603  -0.013439   0.001393   0.000173
    15  O    0.002127  -0.088804   0.004573   0.008089  -0.000004  -0.000001
    16  C   -0.016292  -2.979505  -0.000311   0.891750   0.012790  -0.003237
    17  C   -0.001379  -0.105939  -0.026173   0.233366  -0.032035   0.014594
    18  O    0.000000   0.062839   0.000681  -0.009332   0.000136  -0.000043
    19  H    0.000000   0.010206   0.000089  -0.000299   0.000018   0.000000
    20  C    0.000808   1.102203  -0.183702  -1.398835  -0.132241  -0.009723
    21  O    0.000001   0.005889   0.005481  -0.057408  -0.007748  -0.001794
    22  H    0.000000  -0.004185  -0.000144   0.013438   0.015376  -0.001721
    23  C    0.010401  -1.175354  -0.123102  -0.133209   0.003379   0.000596
    24  O    0.198796  -0.033500   0.007010   0.012166   0.000002  -0.000002
    25  H    0.410202   0.031153  -0.000477  -0.001708   0.000001   0.000000
    26  C    0.031153  11.448489   0.194894  -1.073230  -0.069455   0.005637
    27  O   -0.000477   0.194894   8.407848   0.145212  -0.059832  -0.003876
    28  C   -0.001708  -1.073230   0.145212   6.267540   0.421490   0.001813
    29  O    0.000001  -0.069455  -0.059832   0.421490   8.222051   0.236312
    30  H    0.000000   0.005637  -0.003876   0.001813   0.236312   0.407425
    31  H    0.000000  -0.000013   0.000000   0.000000   0.000000   0.000000
    32  H    0.000000   0.000007   0.000000   0.000056   0.000000   0.000000
    33  H    0.000000  -0.000269   0.000000   0.000005   0.000000   0.000000
    34  H    0.000000   0.000305   0.000000  -0.000034   0.000000   0.000000
    35  H    0.000000   0.000279   0.000000  -0.000006   0.000000   0.000000
    36  H    0.000000   0.001182   0.000000  -0.000018   0.000000   0.000000
    37  H    0.000002   0.004684  -0.000002  -0.000038   0.000000   0.000000
    38  H    0.000015   0.007188   0.000210  -0.001098  -0.000005   0.000000
    39  H   -0.010150  -0.025310  -0.009869  -0.002417  -0.000207  -0.000003
    40  H   -0.000364   0.130029  -0.035517   0.044798  -0.001064   0.000010
    41  H   -0.000007  -0.134333   0.006834   0.004961  -0.000431   0.000001
    42  H   -0.002972  -0.252373   0.008226   0.008481  -0.000178  -0.000001
    43  H    0.000001   0.001443   0.001073  -0.018451  -0.000030   0.000012
    44  H    0.000000  -0.008616   0.004978  -0.027637  -0.004149   0.000249
    45  H    0.000000  -0.069479  -0.061067   0.478033  -0.055421  -0.007695
             31         32         33         34         35         36
     1  O    0.233816   0.000024   0.003222   0.006983  -0.045395  -0.002454
     2  C    0.051600  -0.013049  -0.010840   0.048446   0.483591   0.101815
     3  C   -0.010884  -0.003714   0.006757  -0.079419  -0.142857   0.174360
     4  O   -0.000388   0.000016  -0.000039  -0.000065   0.003273  -0.041665
     5  H   -0.001433   0.000000   0.000000   0.000007  -0.000657  -0.007100
     6  C    0.000093  -0.001711   0.010317  -0.009292  -0.015553  -0.204127
     7  O   -0.000022  -0.000011  -0.000010  -0.000009   0.000096   0.007010
     8  H    0.000000   0.000000   0.000000   0.000001   0.000002  -0.000119
     9  C   -0.016407   0.442108   0.534945   0.089092   0.037138   0.020939
    10  O    0.000973  -0.045478  -0.062818   0.005624   0.000841   0.000101
    11  H    0.000024  -0.008952  -0.004273  -0.000123  -0.000003   0.000000
    12  C   -0.005732  -0.047972  -0.199901   0.143248  -0.170576  -0.003694
    13  O   -0.001189  -0.004573   0.004196  -0.027370   0.017224   0.012207
    14  C    0.000590   0.003936   0.003513   0.067504   0.066441   0.133290
    15  O   -0.000024  -0.000788  -0.000524  -0.002640  -0.000815  -0.000920
    16  C    0.000227   0.005807  -0.003167   0.003965  -0.000182   0.006259
    17  C   -0.000066  -0.000663   0.000469   0.003062   0.001089   0.000856
    18  O    0.000000  -0.000915   0.000206   0.000621   0.000084   0.000072
    19  H    0.000000   0.000713   0.000100   0.000126  -0.000006   0.000000
    20  C    0.000001  -0.001795   0.000026   0.000482   0.000055   0.000135
    21  O    0.000000  -0.000015   0.000001   0.000001   0.000000   0.000000
    22  H    0.000000   0.000000   0.000000   0.000000   0.000000   0.000000
    23  C    0.000003   0.000061  -0.000013   0.000141   0.000090   0.000698
    24  O    0.000000   0.000000   0.000000   0.000005   0.000014   0.000171
    25  H    0.000000   0.000000   0.000000   0.000000   0.000000   0.000000
    26  C   -0.000013   0.000007  -0.000269   0.000305   0.000279   0.001182
    27  O    0.000000   0.000000   0.000000   0.000000   0.000000   0.000000
    28  C    0.000000   0.000056   0.000005  -0.000034  -0.000006  -0.000018
    29  O    0.000000   0.000000   0.000000   0.000000   0.000000   0.000000
    30  H    0.000000   0.000000   0.000000   0.000000   0.000000   0.000000
    31  H    0.397359   0.000004  -0.000097   0.000146  -0.011560   0.000015
    32  H    0.000004   0.582834  -0.051882  -0.005228   0.000153   0.000005
    33  H   -0.000097  -0.051882   0.633340   0.006345   0.005528   0.000001
    34  H    0.000146  -0.005228   0.006345   0.593247   0.006162   0.003156
    35  H   -0.011560   0.000153   0.005528   0.006162   0.624951   0.007343
    36  H    0.000015   0.000005   0.000001   0.003156   0.007343   0.650035
    37  H    0.000015   0.000007  -0.000031  -0.000008   0.004335   0.008268
    38  H    0.000002  -0.000028  -0.000010   0.003544   0.000027   0.003491
    39  H    0.000000   0.000000   0.000000   0.000000   0.000000   0.000000
    40  H    0.000000   0.000000   0.000000   0.000000   0.000000   0.000000
    41  H    0.000000   0.000000   0.000000  -0.000003   0.000000  -0.000003
    42  H    0.000000   0.000000   0.000000   0.000000   0.000000   0.000000
    43  H    0.000000   0.000001   0.000000   0.000000   0.000000   0.000000
    44  H    0.000000   0.000000   0.000000   0.000000   0.000000   0.000000
    45  H    0.000000   0.000000   0.000000   0.000000   0.000000   0.000000
             37         38         39         40         41         42
     1  O   -0.000638   0.000044   0.000000   0.000000  -0.000002   0.000000
     2  C    0.088945   0.029389   0.000011  -0.000366  -0.002235  -0.000028
     3  C   -0.220562  -0.053312  -0.000034   0.001578   0.004478   0.000350
     4  O    0.004946  -0.000230   0.000000   0.000000   0.000003   0.000001
     5  H   -0.000160   0.000007   0.000000   0.000000   0.000000   0.000000
     6  C    0.281727  -0.078254  -0.000695   0.004536   0.009870   0.001143
     7  O   -0.047079   0.002662  -0.000402  -0.000114  -0.000430   0.000987
     8  H   -0.007010  -0.000760   0.000145   0.000064   0.000134   0.000494
     9  C    0.011853   0.009339  -0.000002   0.000098  -0.000214   0.000004
    10  O    0.000017   0.000066   0.000000   0.000000   0.000001   0.000000
    11  H    0.000000   0.000000   0.000000   0.000000   0.000000   0.000000
    12  C    0.010869  -0.003942   0.000021   0.000326   0.001332   0.000058
    13  O    0.022649  -0.048991   0.000004  -0.000604  -0.001429   0.000003
    14  C    0.061746   0.372681   0.000764   0.060509   0.026306   0.003051
    15  O   -0.014361  -0.069891  -0.000179   0.005843  -0.058903   0.001732
    16  C    0.010497   0.015802  -0.007844   0.024567   0.314197   0.035202
    17  C    0.005047   0.029713  -0.005856   0.012656   0.021960   0.011389
    18  O    0.000178  -0.000134   0.000036  -0.000501  -0.002729  -0.000015
    19  H    0.000023   0.000379   0.000000   0.000073   0.000050   0.000001
    20  C    0.001281   0.014074   0.002261  -0.038975   0.020211  -0.001096
    21  O    0.000001   0.000008  -0.000004  -0.000460  -0.000581  -0.000024
    22  H    0.000000   0.000000   0.000000   0.000007   0.000007   0.000000
    23  C    0.003375   0.003910   0.435835   0.018877   0.027530   0.541664
    24  O    0.001649   0.000940  -0.045627   0.008967   0.000926  -0.058287
    25  H    0.000002   0.000015  -0.010150  -0.000364  -0.000007  -0.002972
    26  C    0.004684   0.007188  -0.025310   0.130029  -0.134333  -0.252373
    27  O   -0.000002   0.000210  -0.009869  -0.035517   0.006834   0.008226
    28  C   -0.000038  -0.001098  -0.002417   0.044798   0.004961   0.008481
    29  O    0.000000  -0.000005  -0.000207  -0.001064  -0.000431  -0.000178
    30  H    0.000000   0.000000  -0.000003   0.000010   0.000001  -0.000001
    31  H    0.000015   0.000002   0.000000   0.000000   0.000000   0.000000
    32  H    0.000007  -0.000028   0.000000   0.000000   0.000000   0.000000
    33  H   -0.000031  -0.000010   0.000000   0.000000   0.000000   0.000000
    34  H   -0.000008   0.003544   0.000000   0.000000  -0.000003   0.000000
    35  H    0.004335   0.000027   0.000000   0.000000   0.000000   0.000000
    36  H    0.008268   0.003491   0.000000   0.000000  -0.000003   0.000000
    37  H    0.622736   0.005350   0.000000  -0.000010   0.000009  -0.000001
    38  H    0.005350   0.619873   0.000001  -0.000006   0.011007   0.000015
    39  H    0.000000   0.000001   0.583376  -0.007360   0.000021  -0.045758
    40  H   -0.000010  -0.000006  -0.007360   0.611146   0.006050   0.005814
    41  H    0.000009   0.011007   0.000021   0.006050   0.604412   0.003486
    42  H   -0.000001   0.000015  -0.045758   0.005814   0.003486   0.586510
    43  H   -0.000006  -0.000021   0.000010   0.003775   0.006278  -0.000015
    44  H    0.000000  -0.000015   0.000002   0.000015   0.002054  -0.000022
    45  H    0.000000   0.000000  -0.000025   0.005338  -0.000001  -0.000021
             43         44         45
     1  O    0.000000   0.000000   0.000000
     2  C    0.000696   0.000028  -0.000010
     3  C    0.000267   0.000047   0.000017
     4  O    0.000000   0.000000   0.000000
     5  H    0.000000   0.000000   0.000000
     6  C    0.001067   0.000004   0.000094
     7  O   -0.000006   0.000001  -0.000001
     8  H    0.000007   0.000000   0.000000
     9  C   -0.000293  -0.000096   0.000003
    10  O    0.000000   0.000000   0.000000
    11  H    0.000000   0.000000   0.000000
    12  C    0.000336   0.000355   0.000031
    13  O    0.004043   0.000361   0.000002
    14  C    0.020864   0.001849   0.005315
    15  O   -0.015152  -0.001156  -0.000173
    16  C    0.026357   0.107206   0.095084
    17  C    0.341861  -0.112791   0.007424
    18  O   -0.057926   0.003717  -0.000981
    19  H   -0.006398  -0.000038   0.000008
    20  C   -0.124740   0.306625  -0.162791
    21  O   -0.000654  -0.032871   0.001248
    22  H   -0.000073  -0.008606  -0.001240
    23  C    0.038411   0.014981   0.000535
    24  O   -0.000162  -0.000002   0.000050
    25  H    0.000001   0.000000   0.000000
    26  C    0.001443  -0.008616  -0.069479
    27  O    0.001073   0.004978  -0.061067
    28  C   -0.018451  -0.027637   0.478033
    29  O   -0.000030  -0.004149  -0.055421
    30  H    0.000012   0.000249  -0.007695
    31  H    0.000000   0.000000   0.000000
    32  H    0.000001   0.000000   0.000000
    33  H    0.000000   0.000000   0.000000
    34  H    0.000000   0.000000   0.000000
    35  H    0.000000   0.000000   0.000000
    36  H    0.000000   0.000000   0.000000
    37  H   -0.000006   0.000000   0.000000
    38  H   -0.000021  -0.000015   0.000000
    39  H    0.000010   0.000002  -0.000025
    40  H    0.003775   0.000015   0.005338
    41  H    0.006278   0.002054  -0.000001
    42  H   -0.000015  -0.000022  -0.000021
    43  H    0.638036   0.006891   0.003334
    44  H    0.006891   0.588409   0.004764
    45  H    0.003334   0.004764   0.620569
 Mulliken atomic charges:
              1
     1  O   -0.518369
     2  C   -0.079055
     3  C    0.176289
     4  O   -0.488959
     5  H    0.351402
     6  C   -0.196820
     7  O   -0.559528
     8  H    0.462077
     9  C   -0.058546
    10  O   -0.529004
    11  H    0.349661
    12  C    0.045755
    13  O   -0.410514
    14  C    0.339977
    15  O   -0.349086
    16  C    0.180236
    17  C   -0.197518
    18  O   -0.522526
    19  H    0.418174
    20  C    0.203346
    21  O   -0.482408
    22  H    0.342378
    23  C   -0.037259
    24  O   -0.608419
    25  H    0.385630
    26  C   -0.215301
    27  O   -0.291060
    28  C    0.192630
    29  O   -0.550133
    30  H    0.361272
    31  H    0.362948
    32  H    0.151041
    33  H    0.124904
    34  H    0.141978
    35  H    0.128891
    36  H    0.128690
    37  H    0.139697
    38  H    0.126961
    39  H    0.139255
    40  H    0.140267
    41  H    0.129179
    42  H    0.152179
    43  H    0.129166
    44  H    0.153466
    45  H    0.137057
 Sum of Mulliken atomic charges =   0.00000
 Mulliken charges with hydrogens summed into heavy atoms:
              1
     1  O   -0.155421
     2  C    0.049835
     3  C    0.304979
     4  O   -0.137557
     6  C   -0.057123
     7  O   -0.097451
     9  C    0.217399
    10  O   -0.179343
    12  C    0.187733
    13  O   -0.410514
    14  C    0.466938
    15  O   -0.349086
    16  C    0.309415
    17  C   -0.068352
    18  O   -0.104352
    20  C    0.356813
    21  O   -0.140030
    23  C    0.254175
    24  O   -0.222789
    26  C   -0.075034
    27  O   -0.291060
    28  C    0.329686
    29  O   -0.188861
 Sum of Mulliken charges with hydrogens summed into heavy atoms =   0.00000
 APT atomic charges:
              1
     1  O   -0.639048
     2  C    0.396203
     3  C    0.427819
     4  O   -0.619836
     5  H    0.254583
     6  C    0.369166
     7  O   -0.770380
     8  H    0.504052
     9  C    0.484598
    10  O   -0.617861
    11  H    0.248042
    12  C    0.469183
    13  O   -0.877928
    14  C    0.932161
    15  O   -0.845924
    16  C    0.407372
    17  C    0.386855
    18  O   -0.728936
    19  H    0.414357
    20  C    0.367419
    21  O   -0.568272
    22  H    0.237897
    23  C    0.464842
    24  O   -0.670837
    25  H    0.248984
    26  C    0.428062
    27  O   -0.766414
    28  C    0.899337
    29  O   -0.679499
    30  H    0.263286
    31  H    0.261490
    32  H   -0.031438
    33  H   -0.063006
    34  H   -0.050334
    35  H   -0.049534
    36  H   -0.061177
    37  H   -0.041591
    38  H   -0.059314
    39  H   -0.043217
    40  H   -0.048277
    41  H   -0.031801
    42  H   -0.038957
    43  H   -0.053965
    44  H   -0.033021
    45  H   -0.075143
 Sum of APT charges=   0.00000
 APT Atomic charges with hydrogens summed into heavy atoms:
              1
[...]
 .00002469,0.00001132,-0.00000446,-0.00000395,0.00000081,-0.00003183,-0
 .00001687,-0.00001070,0.00006401,0.00008341,0.00000200,-0.00024054,-0.
 00001551,0.00000536,0.00027595,0.00003431,-0.00006155,0.00064376,-0.00
 084531,-0.00029474,0.00028243,0.00001207,0.00007515,0.00005971,0.00015
 245,-0.00002145,-0.00002616,-0.00002260,-0.00000585,-0.00009030,-0.000
 00756,0.00002969,0.00003954,-0.00002068,-0.00001631,-0.00001204,0.0000
 0793,-0.00000369,-0.35959349,0.02172145,-0.00315340,-0.00563294,-0.005
 81216,0.01287554,-0.00061940,0.00032498,0.00058656,-0.01152025,0.00098
 931,-0.00007295,0.00160540,-0.00051783,-0.00022508,0.00039159,0.000152
 00,-0.00012041,0.00005199,0.00007944,-0.00014978,0.00000666,0.00001815
 ,-0.00001048,0.00000122,-0.00000270,-0.00000504,-0.00000194,0.00000236
 ,0.00000017,0.00000531,0.00000041,-0.00000131,0.00000777,0.00000259,0.
 00000300,0.00000504,-0.00000082,-0.00000215,0.00001694,0.00000090,0.00
 000755,-0.00000274,0.00001081,-0.00002814,0.00006516,0.00001462,0.0000
 1943,-0.01177115,0.00193064,-0.00035907,0.00072240,0.00177827,-0.00006
 247,0.00044770,0.00080923,0.00055650,0.38471868,0.00000230,0.00002645,
 0.00002714,0.00000558,-0.00003518,-0.00000398,-0.00001636,0.00004349,-
 0.00002582,0.00000261,-0.00000170,0.00002557,-0.00000065,0.00000320,-0
 .00000525,0.00005233,-0.00020260,-0.00009163,0.00012784,0.00016552,0.0
 0038127,-0.00024716,-0.00017347,-0.00078902,0.00000324,-0.00001365,0.0
 0000018,0.00000044,0.00001330,0.00000133,-0.00000018,-0.00000185,0.000
 00137,-0.00000486,-0.00001736,-0.00001793,-0.00005343,0.00009348,-0.00
 004259,0.00015064,-0.00019484,0.00000837,-0.00028750,0.00008418,-0.000
 42466,0.00127932,0.00276808,0.00073074,0.00044590,-0.00007950,0.000311
 37,-0.00030004,-0.00005446,-0.00021212,0.00004203,-0.00005320,0.000082
 59,0.00008583,0.00009546,-0.00002983,-0.00005731,0.00000897,-0.0000187
 4,0.00000482,0.00001002,0.00000246,0.02147518,-0.04857573,-0.00563612,
 -0.01752672,0.00040023,0.01074266,-0.00132987,0.00009842,0.00010057,0.
 03696317,-0.00641440,0.00063585,-0.00087982,0.00198381,-0.00184630,0.0
 0004441,0.00009092,-0.00018564,-0.00013223,-0.00007365,0.00011431,-0.0
 0000129,-0.00000296,-0.00001256,0.00000209,-0.00000235,-0.00000381,0.0
 0000164,0.00000444,0.00000008,-0.00000113,0.00000084,0.00000236,-0.000
 00015,-0.00000148,-0.00000147,-0.00000050,0.00000034,0.00000133,0.0000
 0258,0.00000034,0.00000102,-0.00001782,-0.00000248,-0.00000192,-0.0000
 4136,-0.00000813,-0.00005500,-0.01933647,0.00315662,-0.00087179,0.0011
 5967,-0.00607455,0.00171053,-0.00073268,-0.00039633,-0.00036964,-0.020
 16952,0.05326379,-0.00000116,-0.00001608,0.00001343,-0.00000065,0.0000
 2071,-0.00001894,0.00002323,-0.00002383,-0.00002178,-0.00001786,-0.000
 02386,0.00002516,0.00000166,-0.00000004,-0.00000066,-0.00005005,0.0001
 8757,0.00004580,-0.00052341,-0.00029278,-0.00022721,0.00109357,0.00048
 840,0.00095031,0.00000205,-0.00001109,-0.00000724,-0.00000202,0.000011
 68,0.00001462,0.00000210,-0.00000158,-0.00000295,0.00000174,-0.0000064
 8,-0.00005914,-0.00005338,0.00001848,0.00011643,0.00015678,-0.00003035
 ,-0.00021742,-0.00018928,-0.00016953,0.00017323,0.00110594,0.00013270,
 -0.00010615,-0.00005749,-0.00012999,0.00004748,-0.00001054,0.00011289,
 0.00005169,0.00001926,-0.00000809,-0.00005067,-0.00002417,-0.00005853,
 0.00008183,0.00000903,0.00001517,-0.00004142,-0.00000581,0.00000276,-0
 .00000102,-0.00572043,-0.00527031,-0.04247664,0.03976787,0.00811592,-0
 .01620219,0.00051275,-0.00078996,-0.00048422,-0.00152057,-0.00075185,0
 .00170246,-0.00029199,0.00059238,0.00059534,-0.00029263,-0.00022155,0.
 00003253,0.00009796,-0.00003684,-0.00008772,-0.00001182,0.00000590,0.0
 0001818,0.00000063,0.00000122,-0.00000257,0.00000038,-0.00000620,0.000
 00147,-0.00000298,0.00000168,0.00000151,-0.00000028,-0.00000214,0.0000
 0484,-0.00000350,0.00000237,0.00000257,-0.00001565,-0.00000410,-0.0000
 1012,-0.00000956,0.00002806,0.00004261,-0.00004673,-0.00003455,-0.0000
 1501,-0.02518083,0.00155837,0.00288895,0.00051620,0.00071980,0.0000087
 6,-0.00009623,-0.00008080,0.00014110,-0.00927919,-0.00408667,0.0531562
 3,0.00000418,0.00003050,-0.00006749,-0.00003197,-0.00004329,0.00003785
 ,-0.00000972,-0.00005158,0.00002453,0.00001460,0.00005729,-0.00002698,
 -0.00000174,-0.00001151,0.00000840,0.00006195,-0.00007567,0.00002304,0
 .00007674,0.00015034,0.00009946,-0.00008740,-0.00006498,-0.00017368,-0
 .00002028,-0.00000623,0.00014285,0.00000972,-0.00003580,-0.00010215,-0
 .00001937,0.00001222,0.00002892,0.00000526,0.00008544,0.00013641,-0.00
 003447,0.00038638,-0.00036551,0.00019089,-0.00061140,-0.00024971,0.001
 90403,-0.00033037,0.00066983,-0.01514203,0.00205246,-0.00041398,-0.350
 68902,-0.01008091,-0.01462026,-0.00238671,-0.00961163,-0.01185706,0.00
 016486,-0.00105755,0.00075403,-0.01677106,0.00054909,0.00256479,0.0019
 7387,0.00060226,-0.00108451,0.00043103,0.00012973,-0.00022164,0.000968
 96,0.00034630,-0.00000748,0.00000856,-0.00007243,0.00015479,-0.0000104
 7,0.00002048,0.00000366,-0.00147463,-0.00246527,-0.00075982,0.00049539
 ,0.00082614,0.00034967,-0.00137416,-0.00120305,-0.00117305,0.00079541,
 0.00001253,0.00001003,-0.00001310,0.00006372,0.00018524,-0.00000644,-0
 .00000432,0.00000979,-0.00000983,0.00005853,0.00000407,0.00001803,0.00
 000845,-0.00002858,0.00000314,-0.00001062,0.00000553,0.00000830,0.0000
 0039,-0.00000884,0.00001041,-0.00000059,0.00000313,0.00000321,0.000019
 95,-0.00003899,0.00010031,0.00000278,0.00028805,-0.00001812,0.00013210
 ,0.00000508,0.00193377,-0.00010533,0.00046069,0.00027455,0.00170160,-0
 .00072342,0.00014107,-0.00046926,0.00000247,0.37725670,-0.00000232,0.0
 0002747,-0.00007573,-0.00003081,-0.00004865,0.00003803,0.00002503,-0.0
 0000721,-0.00000657,-0.00000523,0.00004742,-0.00003443,0.00000623,-0.0
 0000962,0.00000226,-0.00016868,-0.00007090,-0.00009463,-0.00004368,0.0
 0008614,0.00009333,0.00005453,-0.00001337,-0.00008278,-0.00001303,-0.0
 0000311,0.00015508,0.00001357,-0.00004388,-0.00010342,-0.00002316,0.00
 001239,0.00002467,0.00003621,0.00010938,0.00014119,0.00004885,0.000517
 36,-0.00038647,0.00033417,-0.00015692,-0.00013070,-0.00109222,0.001666
 96,-0.00199221,0.03331154,-0.00533542,0.00311747,-0.01285632,-0.037584
 75,0.00562380,-0.03089645,-0.01325271,-0.02005690,-0.00055695,-0.00003
 088,0.00133238,-0.00984216,0.00114844,0.00123245,-0.00058870,0.0005601
 6,-0.00031204,0.00009029,0.00006516,-0.00031222,0.00025178,0.00012031,
 0.00014098,-0.00005543,-0.00000017,0.00003744,-0.00000097,0.00000426,-
 0.00001126,0.00343048,-0.00084672,0.00053834,-0.00048977,-0.00015274,0
 .00005703,0.00049428,0.00016155,-0.00047234,0.00015794,-0.00011420,0.0
 0009024,0.00002403,0.00006756,0.00004711,-0.00000509,-0.00000143,0.000
 00765,-0.00004151,0.00006474,0.00001347,0.00002100,0.00001874,-0.00004
 410,0.00000067,-0.00002356,0.00000564,0.00000323,0.00000265,-0.0000050
 5,-0.00000151,0.00000087,-0.00000038,-0.00002239,-0.00001337,0.0000351
 3,-0.00025808,-0.00000344,-0.00003862,-0.00010531,0.00001558,0.0000098
 2,-0.00040932,-0.00115869,-0.00054105,0.00088167,-0.00501960,0.0021812
 8,-0.00022139,-0.00000559,-0.00001235,0.01880826,0.05906911,0.00000771
 ,0.00002108,-0.00003860,-0.00003237,-0.00002930,0.00001886,-0.00000804
 ,-0.00005480,0.00001369,0.00001255,0.00002996,-0.00000159,-0.00000167,
 -0.00000790,0.00000684,0.00002259,0.00002059,0.00007990,0.00005440,0.0
 0004767,0.00000346,-0.00005324,0.00000635,-0.00000745,-0.00003268,-0.0
 0002715,0.00012614,0.00003011,-0.00001059,-0.00006903,-0.00002184,0.00
 000490,0.00002434,-0.00000189,0.00007404,0.00007118,0.00017556,0.00034
 043,-0.00034256,-0.00040935,-0.00052152,-0.00048721,-0.00004720,-0.000
 86275,0.00163741,-0.01486559,0.00375528,-0.00022097,-0.01576671,0.0060
 8647,-0.04075727,-0.02812281,-0.01875304,-0.01483373,-0.00147329,-0.00
 068957,0.00095694,0.03596910,0.00318477,-0.00377394,-0.00094997,-0.001
 46135,0.00191806,0.00002419,-0.00054641,0.00047689,0.00019495,0.000081
 59,-0.00009209,0.00001620,-0.00002287,0.00002280,-0.00000011,-0.000004
 95,0.00000630,0.00039479,-0.00206016,-0.00003960,-0.00033817,-0.000052
 06,-0.00013074,0.00177799,0.00013037,0.00071813,-0.00052684,-0.0000290
 5,0.00013555,-0.00010177,-0.00008246,-0.00003096,-0.00000458,-0.000003
 34,0.00000290,-0.00003961,0.00004716,0.00001200,0.00002908,0.00001561,
 -0.00005013,0.00001695,-0.00001370,0.00001821,0.00000961,0.00000106,-0
 .00001115,0.00000964,0.00000069,0.00000681,0.00002514,0.00002836,-0.00
 003843,0.00021406,-0.00000204,0.00000890,0.00003835,0.00005067,-0.0000
 0064,0.00046902,-0.00046744,0.00027428,-0.00057709,0.00209926,-0.00067
 814,0.00006604,-0.00011517,-0.00002738,0.02319254,0.00825132,0.0611199
 1,0.00000461,-0.00000489,-0.00000197,-0.00000110,0.00000314,0.00000247
 ,-0.00001222,-0.00000568,0.00000793,0.00000922,-0.00000003,-0.00000572
 ,-0.00000374,0.00000116,0.00000211,0.00001387,0.00000257,0.00001769,0.
 00001943,-0.00000409,-0.00000743,-0.00001416,-0.00000186,0.00000231,-0
 .00001448,0.00000168,-0.00000911,0.00001555,0.00000239,0.00000468,-0.0
 0000622,-0.00000174,-0.00000128,-0.00001911,-0.00000248,0.00000958,0.0
 0003710,-0.00003902,-0.00000507,-0.00009938,0.00000527,0.00005983,0.00
 034287,-0.00004887,0.00008269,-0.00033400,0.00053022,-0.00016327,-0.00
 885029,-0.00271710,0.00084323,0.00117886,0.00054011,0.00032596,0.00005
 081,0.00007469,-0.00008605,-0.35750509,-0.04197448,0.00986048,-0.01321
 214,0.00973830,-0.00296565,0.00026349,0.00054636,0.00037551,-0.0000652
 6,-0.00000942,-0.00000592,0.00004632,0.00000941,-0.00001082,-0.0000123
 2,-0.00000193,0.00000023,-0.00014891,-0.00008595,-0.00015935,0.0011816
 3,-0.00129809,0.00022032,-0.01005564,-0.00046044,0.00199325,0.00174228
 ,0.00049609,0.00084330,0.00037962,0.00036625,0.00034063,-0.00000171,0.
 00000170,0.00000026,-0.00000963,-0.00000261,0.00000008,0.00000799,0.00
 000160,-0.00000631,0.00000760,-0.00000211,0.00000555,0.00000397,0.0000
 0066,-0.00000296,0.00000577,-0.00000042,0.00000101,0.00000631,0.000003
 87,-0.00000724,0.00002196,-0.00001404,0.00002322,0.00001828,-0.0000024
 1,0.00001487,0.00007077,0.00013644,0.00001611,0.00040763,-0.00051152,0
 .00029999,0.00004054,-0.00004561,0.00000623,0.00031970,-0.00043605,0.0
 0106543,0.38404164,0.00000233,0.00000019,0.00002139,0.00000288,0.00000
 258,-0.00001163,-0.00000722,0.00000633,-0.00000982,0.00000198,-0.00001
 065,0.00001334,-0.00000171,0.00000213,-0.00000177,0.00000789,0.0000082
 5,-0.00000125,0.00001211,-0.00001005,0.00001075,-0.00000958,0.00000312
 ,-0.00002112,0.00000205,-0.00000631,-0.00002048,-0.00000203,0.00001422
 ,0.00002099,0.00000525,-0.00000348,-0.00000373,-0.00000860,-0.00001735
 ,-0.00003590,0.00001785,-0.00002738,0.00007237,-0.00003310,0.00003892,
 -0.00004476,0.00018321,-0.00001896,0.00008515,-0.00071094,0.00054089,-
 0.00034003,-0.00850279,-0.00012896,-0.00039094,0.00091010,0.00063220,0
 .00064593,-0.00007989,0.00000068,-0.00015989,-0.04420471,-0.04761645,0
 .00034227,0.03988015,-0.01002194,0.00269394,0.00036235,0.00125494,-0.0
 0134351,-0.00009551,0.00004343,-0.00002943,0.00002133,-0.00004550,0.00
 002030,-0.00000529,0.00000383,0.00000621,-0.00010595,-0.00008546,-0.00
 005554,0.00168512,0.00098191,0.00046222,-0.02609908,-0.00109952,0.0007
 4350,0.00157959,0.00117495,0.00193620,0.00008673,0.00013393,0.00039291
 ,0.00000122,-0.00000071,-0.00000314,0.00000648,-0.00000863,-0.00000048
 ,-0.00000237,-0.00000296,0.00000483,0.00000143,0.00000439,0.00000208,0
 .00000024,-0.00000069,0.00000050,0.00000053,0.00000042,0.00000038,0.00
 000242,0.00000226,-0.00000467,0.00001853,-0.00000318,0.00002474,0.0000
 0807,-0.00002189,0.00000204,0.00013088,0.00010004,-0.00001685,0.000193
 42,-0.00007779,-0.00003145,0.00003249,-0.00005376,0.00001707,-0.000228
 66,-0.00008025,0.00181253,0.03585650,0.05719329,-0.00000466,-0.0000073
 4,-0.00000423,0.00000095,0.00000848,0.00000152,0.00001440,0.00001760,0
 .00000610,-0.00000609,-0.00000414,-0.00001110,0.00000257,0.00000251,-0
 .00000254,-0.00002223,-0.00002419,-0.00002663,-0.00001201,0.00000701,0
 .00000102,0.00000497,-0.00001879,-0.00000847,0.00001067,0.00001242,-0.
 00001222,-0.00001463,-0.00001174,0.00000562,0.00000670,0.00000105,-0.0
 0000640,0.00002268,-0.00000540,0.00001376,-0.00000580,-0.00009445,0.00
 003895,0.00005175,0.00018534,0.00012521,-0.00055150,-0.00003444,-0.000
 41928,0.00077322,-0.00140253,0.00114626,0.03409330,0.00583188,-0.00013
 332,-0.00239432,-0.00063279,0.00229774,-0.00012217,0.00022286,0.000143
 46,0.01348654,0.00026722,-0.04561915,-0.01059540,0.00413488,0.00207788
 ,-0.00123029,-0.00034543,0.00059073,-0.00000320,0.00001192,0.00006782,
 -0.00001550,-0.00003475,0.00003882,-0.00000537,-0.00000144,0.00000654,
 0.00044938,0.00011371,-0.00056958,0.00124976,-0.00007604,0.00054273,-0
 .02319550,-0.00489684,-0.00066128,0.00031499,0.00087582,0.00226295,-0.
 00002482,0.00016490,0.00043023,0.00000070,0.00000192,-0.00000014,0.000
 00678,-0.00000318,0.00000206,-0.00000760,-0.00000189,0.00000803,-0.000
 00872,0.00000247,-0.00001016,-0.00000348,-0.00000093,0.00000334,-0.000
 00341,0.00000059,-0.00000052,-0.00000404,-0.00000585,0.00000853,-0.000
 03883,0.00000621,-0.00005682,-0.00000678,0.00003539,0.00001104,-0.0002
 2801,-0.00003848,-0.00009570,-0.00050550,0.00042696,-0.00006714,-0.000
 01399,0.00003821,0.00000317,0.00222604,0.00159433,-0.00560513,-0.01245
 373,-0.00391376,0.04615697,0.00000262,-0.00000892,-0.00001576,-0.00000
 656,0.00000852,0.00000698,0.00000080,-0.00000276,0.00001510,0.00000676
 ,0.00000049,-0.00001843,-0.00000261,0.00000154,0.00000242,-0.00002413,
 0.00001990,0.00000744,0.00000830,-0.00002785,-0.00006755,-0.00000044,0
 .00001793,0.00008851,-0.00001265,0.00000882,-0.00000161,0.00000847,-0.
 00000941,-0.00000347,-0.00000412,0.00000075,-0.00000072,0.00000230,0.0
 0000612,0.00002216,0.00001700,-0.00005342,-0.00004851,0.00001764,0.000
 05579,0.00008096,0.00000598,-0.00003322,-0.00020807,0.00014100,0.00029
 727,0.00017546,-0.00093596,-0.00040413,0.00062615,0.00052486,0.0001243
 5,0.00005871,-0.00004506,-0.00001260,-0.00008981,-0.01119061,0.0022419
 0,-0.00265924,0.00279291,0.00075936,0.00176805,-0.00049368,-0.00027187
 ,-0.00008815,0.00035560,-0.00018554,-0.00017372,0.00002459,0.00024310,
 -0.00018767,-0.00001166,-0.00000368,-0.00002911,0.00000025,-0.00003900
 ,0.00039600,-0.00052458,0.00997570,-0.00392363,-0.35045306,0.01543544,
 -0.05544972,-0.01574778,-0.00162991,0.00678448,0.00052040,0.00010317,0
 .00058380,-0.00000267,0.00000228,0.00000178,-0.00000432,-0.00000053,0.
 00000067,0.00000543,0.00000080,-0.00000436,0.00000173,-0.00000085,-0.0
 0000089,0.00000299,-0.00000038,-0.00000203,0.00000276,0.00000014,0.000
 00086,0.00000688,-0.00000336,-0.00000207,0.00000641,-0.00000447,-0.000
 00253,-0.00001595,-0.00004280,-0.00000115,0.00004659,0.00040651,-0.001
 19591,0.00001961,-0.00016956,0.00016005,0.00004909,-0.00019970,0.00008
 837,0.00092585,0.00017281,-0.00044118,0.00012755,-0.00091570,-0.001237
 87,0.37385146,0.00000223,0.00001841,0.00001943,0.00000272,-0.00002093,
 -0.00000831,-0.00001042,0.00000615,-0.00001968,-0.00000208,0.00000477,
 0.00001976,0.00000074,-0.00000190,-0.00000194,0.00002613,-0.00006399,-
 0.00002481,0.00001357,0.00008239,0.00014566,-0.00002628,-0.00005773,-0
 .00020798,0.00000154,-0.00001873,0.00001319,0.00000444,0.00001656,-0.0
 0000419,-0.00000354,-0.00000116,0.00000469,-0.00001391,0.00000694,-0.0
 0001787,-0.00000720,0.00015413,0.00003633,-0.00009947,-0.00008393,-0.0
 0015840,0.00010093,0.00032113,0.00031620,-0.00041650,-0.00083484,0.000
 17712,-0.00109992,-0.00031611,0.00139355,0.00046234,0.00007889,-0.0005
 5800,0.00010768,-0.00018904,0.00007978,-0.02255225,0.00108972,-0.00659
 309,0.00025603,0.00280675,0.00080393,-0.00047022,-0.00029160,-0.000032
 02,0.00002470,0.00037445,-0.00004054,-0.00025226,-0.00042595,0.0003970
 0,0.00000472,0.00001686,0.00005112,0.00329489,0.00075901,-0.00437323,0
 .03517469,-0.02018117,0.01614826,0.01758372,-0.04129386,0.00065951,-0.
 00426078,0.00451003,0.00183071,-0.00031502,0.00023493,-0.00045108,0.00
 000158,-0.00000353,-0.00000258,-0.00000083,0.00000689,-0.00000056,0.00
 000130,0.00000197,-0.00000166,0.00000333,-0.00000136,0.00000444,-0.000
 00002,0.00000116,0.00000013,0.00000122,-0.00000120,0.00000096,-0.00000
 607,0.00000796,-0.00000215,0.00000410,-0.00000079,0.00000916,0.0000395
 3,0.00002312,-0.00002968,-0.00132471,0.00031556,0.00040907,0.00001617,
 -0.00008387,-0.00004613,-0.00023976,0.00012735,0.00003642,0.00048352,0
 .00021086,-0.00027255,-0.00064758,-0.00280106,-0.00240926,-0.02586300,
 0.05549676,-0.00000238,-0.00000587,-0.00003408,-0.00000686,0.00000624,
 0.00001964,0.00000757,-0.00000709,0.00002550,0.00000352,0.00001179,-0.
 00002950,0.00000035,-0.00000109,0.00000287,-0.00001861,-0.00000563,-0.
 00000239,0.00000509,0.00000022,-0.00005401,-0.00000238,0.00000435,0.00
 006568,-0.00000734,0.00001725,0.00001710,0.00000180,-0.00002177,-0.000
 02158,-0.00000300,0.00000333,0.00000359,0.00001221,0.00001825,0.000049
 76,0.00000162,-0.00003994,-0.00009835,0.00006707,0.00004172,0.00011928
 ,0.00004584,0.00000845,-0.00034797,0.00007556,-0.00018621,-0.00000610,
 -0.00181896,0.00011426,0.00153768,0.00058955,-0.00009811,-0.00024329,0
 .00003379,-0.00003325,0.00004488,-0.02414247,-0.00003421,-0.00151463,0
 .00207868,0.00176047,0.00133815,0.00004686,-0.00032893,-0.00008936,-0.
 00003904,-0.00003552,0.00015095,0.00011960,0.00014478,-0.00019379,-0.0
 0000516,-0.00001084,-0.00000770,-0.00174887,-0.00025222,0.00311431,-0.
 01146520,0.01054089,-0.00166483,-0.06299177,-0.00162856,-0.05826472,0.
 04072903,0.00053584,-0.01023667,0.00232523,-0.00005823,0.00346697,-0.0
 0000190,0.00000137,0.00000473,-0.00000268,0.00000480,-0.00000149,0.000
 00351,0.00000010,-0.00000448,-0.00000140,-0.00000154,-0.00000343,0.000
 00176,-0.00000054,-0.00000204,0.00000163,0.00000043,-0.00000049,0.0000
 0334,-0.00000107,-0.00000237,0.00000260,-0.00000652,0.00000349,-0.0000
 1434,-0.00003017,0.00000688,0.00085968,-0.00012007,-0.00020183,0.00013
 853,0.00001390,0.00008487,0.00013362,-0.00007166,-0.00005926,0.0005322
 1,-0.00005720,-0.00042278,-0.00053306,-0.00289149,-0.00268069,0.054985
 20,-0.00730070,0.06613148\\0.00703533,-0.01809797,0.00091987,-0.002426
 24,0.01925865,0.00477975,0.01545141,-0.02332598,0.00643677,0.00339368,
 0.01802711,0.02169370,-0.00979243,-0.00760650,-0.02546998,-0.00863251,
 -0.01292195,-0.02672749,0.00863476,0.00470622,0.01512992,0.00668265,0.
 00675368,0.01706901,-0.00357866,0.01205637,0.01219322,-0.00402647,0.01
 595184,0.00040556,0.01364382,-0.02872656,0.00371110,0.00177188,-0.0037
 1485,-0.01085180,0.00376628,0.00293881,0.00501254,-0.04589765,0.023821
 15,0.00183262,0.02139393,-0.02339990,-0.00327088,-0.01606381,0.0128666
 7,-0.02572643,0.00384840,0.01204791,0.03666730,0.00307265,-0.00103621,
 -0.00483016,0.01023514,0.01074459,-0.01971486,-0.02311550,0.01564322,0
 .02889092,0.01867578,0.00111421,-0.03938205,-0.01061276,-0.00176229,0.
 02489873,-0.00395857,0.00514567,0.01614013,-0.00606368,-0.03801490,-0.
 01824005,-0.00317039,0.02749132,0.01751391,0.00307769,-0.05172975,0.00
 065868,0.00551222,0.03520375,0.00642726,0.03562848,-0.00854283,-0.0189
 2015,-0.00694522,0.00094758,0.01225975,-0.00316988,-0.00365105,-0.0045
 6802,-0.00211694,0.00179767,0.00220226,0.00219153,0.00244546,-0.018473
 67,-0.02170150,-0.00378053,0.00110408,0.02155616,0.00156119,0.00268774
 ,-0.02055643,-0.00122312,0.00050929,0.02430429,0.00054017,0.00029451,-
 0.02174924,0.00487109,0.00042069,0.01770585,-0.00048903,-0.00489578,-0
 .00648332,-0.00645893,-0.01406392,-0.02092855,0.00184738,0.00383116,0.
 01743346,-0.00173331,0.00367331,0.01961349,-0.00061372,-0.00270079,-0.
 02258411,-0.00261430,-0.00401714,0.01866197,0.00032135,-0.00423415,-0.
 01971699,0.00134063,-0.00127643\\\@


 You never know when you're making a memory.
                        -- Rickie Lee Jones
 Job cpu time:  0 days 13 hours  3 minutes 26.2 seconds.
 File lengths (MBytes):  RWF=   1323 Int=      0 D2E=      0 Chk=     19 Scr=      1
 Normal termination of Gaussian 09 at Thu Jan 21 05:03:06 2016.
Gaussian '09 finished on node011 at Thu Jan 21 05:03:06 EST 2016.
