Gaussian '09 started on node020 at Mon Mar 21 22:59:39 EDT 2016.
 Entering Gaussian System, Link 0=/usr/local/gaussian/g09/g09
 Initial command:
 /usr/local/gaussian/g09/l1.exe /home/srmcgrat/thesis/gaussian/cellobiose/300K/8274ps/1/2dp/gaussian22474/Gau-22510.inp -scrdir=/home/srmcgrat/thesis/gaussian/cellobiose/300K/8274ps/1/2dp/gaussian22474/
 Entering Link 1 = /usr/local/gaussian/g09/l1.exe PID=     22512.
  
 Copyright (c) 1988,1990,1992,1993,1995,1998,2003,2009,2010,
            Gaussian, Inc.  All Rights Reserved.
  
 This is part of the Gaussian(R) 09 program.  It is based on
 the Gaussian(R) 03 system (copyright 2003, Gaussian, Inc.),
 the Gaussian(R) 98 system (copyright 1998, Gaussian, Inc.),
 the Gaussian(R) 94 system (copyright 1995, Gaussian, Inc.),
 the Gaussian 92(TM) system (copyright 1992, Gaussian, Inc.),
 the Gaussian 90(TM) system (copyright 1990, Gaussian, Inc.),
 the Gaussian 88(TM) system (copyright 1988, Gaussian, Inc.),
 the Gaussian 86(TM) system (copyright 1986, Carnegie Mellon
 University), and the Gaussian 82(TM) system (copyright 1983,
 Carnegie Mellon University). Gaussian is a federally registered
 trademark of Gaussian, Inc.
  
 This software contains proprietary and confidential information,
 including trade secrets, belonging to Gaussian, Inc.
  
 This software is provided under written license and may be
 used, copied, transmitted, or stored only in accord with that
 written license.
  
 The following legend is applicable only to US Government
 contracts under FAR:
  
                    RESTRICTED RIGHTS LEGEND
  
 Use, reproduction and disclosure by the US Government is
 subject to restrictions as set forth in subparagraphs (a)
 and (c) of the Commercial Computer Software - Restricted
 Rights clause in FAR 52.227-19.
  
 Gaussian, Inc.
 340 Quinnipiac St., Bldg. 40, Wallingford CT 06492
  
  
 ---------------------------------------------------------------
 Warning -- This program may not be used in any manner that
 competes with the business of Gaussian, Inc. or will provide
 assistance to any competitor of Gaussian, Inc.  The licensee
 of this program is prohibited from giving any competitor of
 Gaussian, Inc. access to this program.  By using this program,
 the user acknowledges that Gaussian, Inc. is engaged in the
 business of creating and licensing software in the field of
 computational chemistry and represents and warrants to the
 licensee that it is not a competitor of Gaussian, Inc. and that
 it will not use this program in any manner prohibited above.
 ---------------------------------------------------------------
  

 Cite this work as:
 Gaussian 09, Revision B.01,
 M. J. Frisch, G. W. Trucks, H. B. Schlegel, G. E. Scuseria, 
 M. A. Robb, J. R. Cheeseman, G. Scalmani, V. Barone, B. Mennucci, 
 G. A. Petersson, H. Nakatsuji, M. Caricato, X. Li, H. P. Hratchian, 
 A. F. Izmaylov, J. Bloino, G. Zheng, J. L. Sonnenberg, M. Hada, 
 M. Ehara, K. Toyota, R. Fukuda, J. Hasegawa, M. Ishida, T. Nakajima, 
 Y. Honda, O. Kitao, H. Nakai, T. Vreven, J. A. Montgomery, Jr., 
 J. E. Peralta, F. Ogliaro, M. Bearpark, J. J. Heyd, E. Brothers, 
 K. N. Kudin, V. N. Staroverov, T. Keith, R. Kobayashi, J. Normand, 
 K. Raghavachari, A. Rendell, J. C. Burant, S. S. Iyengar, J. Tomasi, 
 M. Cossi, N. Rega, J. M. Millam, M. Klene, J. E. Knox, J. B. Cross, 
 V. Bakken, C. Adamo, J. Jaramillo, R. Gomperts, R. E. Stratmann, 
 O. Yazyev, A. J. Austin, R. Cammi, C. Pomelli, J. W. Ochterski, 
 R. L. Martin, K. Morokuma, V. G. Zakrzewski, G. A. Voth, 
 P. Salvador, J. J. Dannenberg, S. Dapprich, A. D. Daniels, 
 O. Farkas, J. B. Foresman, J. V. Ortiz, J. Cioslowski, 
 and D. J. Fox, Gaussian, Inc., Wallingford CT, 2010.
 
 ******************************************
 Gaussian 09:  EM64L-G09RevB.01 12-Aug-2010
                21-Mar-2016 
 ******************************************
 -------------------------------------------------
 # freq=raman b3lyp/6-31+g(2d,p) geom=connectivity
 -------------------------------------------------
 1/10=4,30=1,38=1,57=2/1,3;
 2/12=2,17=6,18=5,40=1/2;
 3/5=1,6=6,7=112,11=2,16=1,25=1,30=1,71=2,74=-5/1,2,3;
 4//1;
 5/5=2,38=5,98=1/2;
 8/6=4,10=90,11=11/1;
 10/13=10,15=4/2;
 11/6=3,8=1,9=11,15=111,16=1/1,2,10;
 10/6=1/2;
 6/7=2,8=2,9=2,10=2,18=1,28=1/1;
 7/8=1,10=1,25=1/1,2,3,16;
 1/10=4,30=1/3;
 99//99;
 -----------------
 300 8274/8274.com
 -----------------
 Symbolic Z-matrix:
 Charge =  0 Multiplicity = 1
 O                     7.898     7.637     12.268 
 C                     8.502     7.96      13.529 
 C                     8.134     9.325     14.087 
 O                     8.338     10.339    13.092 
 H                     7.97      9.952     12.247 
 C                     8.851     9.647     15.388 
 O                     8.346     10.811    16.058 
 H                     9.105     11.116    16.634 
 C                     8.58      5.487     14.199 
 O                     7.986     4.893     13.035 
 H                     8.086     3.9       12.977 
 C                     8.25      6.914     14.602 
 O                     9.082     7.18      15.741 
 C                     8.733     8.448     16.314 
 O                     9.439     8.547     17.56 
 C                     8.608     8.351     18.714 
 C                     8.869     6.938     19.21 
 O                     8.547     5.892     18.281 
 H                     8.951     6.118     17.395 
 C                     8.297     6.641     20.586 
 O                     9.078     5.514     21.009 
 H                     8.875     5.244     21.95 
 C                     8.716     10.83     19.588 
 O                     9.387     11.504    18.514 
 H                     9.189     12.484    18.538 
 C                     8.935     9.343     19.818 
 O                     8.064     9.016     20.911 
 C                     8.527     7.808     21.532 
 O                     7.809     7.656     22.766 
 H                     8.43276   7.56679   23.49026 
 H                     8.58433   7.47044   11.61776 
 H                     8.3301    4.86188   15.03067 
 H                     9.64082   5.43673   14.06845 
 H                     7.22374   6.9628    14.90084 
 H                     9.55862   7.97563   13.36104 
 H                     7.08643   9.30354   14.30389 
 H                     9.88669   9.80605   15.17133 
 H                     7.69571   8.38099   16.56783 
 H                     8.98778   11.33183   20.4931 
 H                     7.66579   10.97472   19.44305 
 H                     9.94805   9.18988   20.12653 
 H                     7.57937   8.4494    18.43628 
 H                     9.93051   6.88238   19.33253 
 H                     7.25882   6.38911   20.52575 
 H                     9.57312   7.89479   21.73938 
 

 GradGradGradGradGradGradGradGradGradGradGradGradGradGradGradGradGradGrad
 Berny optimization.
 Initialization pass.
 Trust Radius=3.00D-01 FncErr=1.00D-07 GrdErr=1.00D-07
 Number of steps in this run=      2 maximum allowed number of steps=      2.
 GradGradGradGradGradGradGradGradGradGradGradGradGradGradGradGradGradGrad

                          Input orientation:                          
 ---------------------------------------------------------------------
 Center     Atomic      Atomic             Coordinates (Angstroms)
 Number     Number       Type             X           Y           Z
 ---------------------------------------------------------------------
      1          8           0        7.898000    7.637000   12.268000
      2          6           0        8.502000    7.960000   13.529000
      3          6           0        8.134000    9.325000   14.087000
      4          8           0        8.338000   10.339000   13.092000
      5          1           0        7.970000    9.952000   12.247000
      6          6           0        8.851000    9.647000   15.388000
      7          8           0        8.346000   10.811000   16.058000
      8          1           0        9.105000   11.116000   16.634000
      9          6           0        8.580000    5.487000   14.199000
     10          8           0        7.986000    4.893000   13.035000
     11          1           0        8.086000    3.900000   12.977000
     12          6           0        8.250000    6.914000   14.602000
     13          8           0        9.082000    7.180000   15.741000
     14          6           0        8.733000    8.448000   16.314000
     15          8           0        9.439000    8.547000   17.560000
     16          6           0        8.608000    8.351000   18.714000
     17          6           0        8.869000    6.938000   19.210000
     18          8           0        8.547000    5.892000   18.281000
     19          1           0        8.951000    6.118000   17.395000
     20          6           0        8.297000    6.641000   20.586000
     21          8           0        9.078000    5.514000   21.009000
     22          1           0        8.875000    5.244000   21.950000
     23          6           0        8.716000   10.830000   19.588000
     24          8           0        9.387000   11.504000   18.514000
     25          1           0        9.189000   12.484000   18.538000
     26          6           0        8.935000    9.343000   19.818000
     27          8           0        8.064000    9.016000   20.911000
     28          6           0        8.527000    7.808000   21.532000
     29          8           0        7.809000    7.656000   22.766000
     30          1           0        8.432764    7.566787   23.490265
     31          1           0        8.584330    7.470444   11.617762
     32          1           0        8.330101    4.861879   15.030670
     33          1           0        9.640815    5.436729   14.068449
     34          1           0        7.223738    6.962802   14.900839
     35          1           0        9.558619    7.975633   13.361038
     36          1           0        7.086433    9.303535   14.303893
     37          1           0        9.886692    9.806052   15.171334
     38          1           0        7.695706    8.380988   16.567833
     39          1           0        8.987782   11.331830   20.493097
     40          1           0        7.665788   10.974717   19.443048
     41          1           0        9.948045    9.189876   20.126532
     42          1           0        7.579367    8.449403   18.436277
     43          1           0        9.930505    6.882384   19.332527
     44          1           0        7.258818    6.389112   20.525747
     45          1           0        9.573117    7.894795   21.739377
 ---------------------------------------------------------------------
                    Distance matrix (angstroms):
                    1          2          3          4          5
     1  O    0.000000
     2  C    1.435014   0.000000
     3  C    2.492750   1.519873   0.000000
     4  O    2.858912   2.424357   1.435213   0.000000
     5  H    2.316215   2.427882   1.950801   0.999609   0.000000
     6  C    3.831802   2.534492   1.519991   2.452274   3.276441
     7  O    4.963777   3.814234   2.477495   3.003332   3.924663
     8  H    5.711589   4.468218   3.261553   3.706451   4.678556
     9  C    2.969240   2.563340   3.865450   4.982561   4.911072
    10  O    2.850538   3.149092   4.557547   5.457661   5.120027
    11  H    3.808306   4.118417   5.537601   6.444955   6.096971
    12  C    2.468641   1.519523   2.468117   3.744125   3.854072
    13  O    3.697625   2.416142   2.869747   4.189274   4.596582
    14  C    4.210114   2.836852   2.467278   3.756753   4.402803
    15  O    5.586416   4.179892   3.790783   4.938268   5.688581
    16  C    6.524171   5.200802   4.752103   5.969249   6.692708
    17  C    7.044346   5.783851   5.699397   7.019878   7.640404
    18  O    6.294632   5.182678   5.435595   6.837047   7.295594
    19  H    5.449982   4.305871   4.679231   6.058747   6.493367
    20  C    8.386915   7.182133   7.033308   8.356849   8.978228
    21  O    9.072189   7.890823   7.957948   9.300920   9.884136
    22  H   10.021083   8.856016   8.889905  10.232867  10.822777
    23  C    8.027875   6.707770   5.732779   6.525487   7.430860
    24  O    7.495554   6.180080   5.090813   5.644086   6.609984
    25  H    8.029507   6.784440   5.559110   5.914739   6.890114
    26  C    7.809501   6.453813   5.786734   6.825504   7.656510
    27  O    8.753893   7.470000   6.831351   7.934870   8.714920
    28  C    9.286904   8.004482   7.608138   8.813358   9.545586
    29  O   10.498394   9.267947   8.843994  10.053089  10.767864
    30  H   11.235218   9.969263   9.570891  10.761880  11.502799
    31  H    0.960000   1.974658   3.120787   3.234605   2.632767
    32  H    3.939588   3.447160   4.566007   5.810108   5.812729
    33  H    3.334699   2.820426   4.170071   5.165563   5.147521
    34  H    2.800181   2.123746   2.659114   3.989009   4.066334
    35  H    2.016696   1.070000   2.092212   2.673536   2.769624
    36  H    2.753332   2.099851   1.070000   2.026645   2.330666
    37  H    4.133889   2.832410   2.116394   2.646906   3.499534
    38  H    4.368410   3.172041   2.690315   4.040763   4.605748
    39  H    9.082490   7.752669   6.767155   7.495610   8.422466
    40  H    7.916791   6.690570   5.623881   6.418085   7.274723
    41  H    8.268654   6.865207   6.307533   7.307351   8.159689
    42  H    6.229700   5.017184   4.471073   5.719038   6.381030
    43  H    7.389727   6.073122   6.058825   7.309477   7.966858
    44  H    8.375927   7.277888   7.130417   8.486863   9.040885
    45  H    9.621822   8.280208   7.916781   9.070655   9.844151
                    6          7          8          9         10
     6  C    0.000000
     7  O    1.434859   0.000000
     8  H    1.942934   1.000441   0.000000
     9  C    4.335062   5.644078   6.155525   0.000000
    10  O    5.374509   6.655137   7.275348   1.435468   0.000000
    11  H    6.279025   7.571135   8.153690   2.062981   0.999706
    12  C    2.906594   4.161221   4.745193   1.519091   2.570919
    13  O    2.502810   3.718379   4.036096   2.344359   3.708641
    14  C    1.519540   2.408127   2.712749   3.641999   4.893657
    15  O    2.504661   2.928540   2.751144   4.625776   5.994877
    16  C    3.577840   3.629680   3.495516   5.346822   6.678000
    17  C    4.684729   5.020833   4.913976   5.224849   6.564476
    18  O    4.749936   5.401730   5.505829   4.102175   5.369659
    19  H    4.061021   4.917097   5.057948   3.278753   4.630491
    20  C    6.030104   6.155817   6.024682   6.496582   7.756921
    21  O    6.980606   7.287416   7.108007   6.828238   8.072347
    22  H    7.902331   8.123238   7.924212   7.760417   8.966089
    23  C    4.365514   3.549389   2.993198   7.589958   8.872580
    24  O    3.675272   2.756060   1.940224   7.448138   8.699860
    25  H    4.252683   3.108051   2.345996   8.255653   9.452698
    26  C    4.441213   4.079160   3.648326   6.824069   8.167753
    27  O    5.614362   5.182003   4.877131   7.600726   8.890252
    28  C    6.421498   6.246235   5.938632   7.691732   8.999384
    29  O    7.712634   7.432339   7.159095   8.870879  10.117206
    30  H    8.375494   8.109932   7.749657   9.522332  10.800986
    31  H    4.361560   5.561639   6.222847   3.255282   3.001630
    32  H    4.826635   6.037193   6.502704   1.070000   2.025357
    33  H    4.482344   5.875172   6.254860   1.070000   2.025357
    34  H    3.176512   4.172184   4.877709   2.123680   2.889027
    35  H    2.720803   4.096749   4.558504   2.802351   3.475925
    36  H    2.099275   2.633601   3.576177   4.099718   4.676765
    37  H    1.070000   2.042016   2.113385   4.615961   5.684597
    38  H    2.080744   2.566665   3.077463   3.842982   4.973051
    39  H    5.377674   4.511456   3.866905   8.599069   9.903803
    40  H    4.428428   3.456594   3.159437   7.645316   8.840412
    41  H    4.885300   4.663426   4.076575   7.121691   8.520716
    42  H    3.513301   3.438178   3.561811   5.266081   6.479749
    43  H    4.936368   5.354177   5.087929   5.488539   6.884591
    44  H    6.288507   6.379328   6.395119   6.525876   7.673228
    45  H    6.628097   6.502931   6.054764   7.977534   9.343227
                   11         12         13         14         15
    11  H    0.000000
    12  C    3.428078   0.000000
    13  O    4.403420   1.435375   0.000000
    14  C    5.677894   2.348912   1.434557   0.000000
    15  O    6.665516   3.581923   2.303237   1.435532   0.000000
    16  C    7.279908   4.370547   3.230270   2.405210   1.435511
    17  C    6.978024   4.649452   3.483948   3.268855   2.374085
    18  O    5.684453   3.829848   2.897718   3.230607   2.892150
    19  H    5.018613   2.987619   1.969955   2.577787   2.483024
    20  C    8.090394   5.990409   4.937689   4.658898   3.754154
    21  O    8.252399   6.610237   5.525160   5.547108   4.607061
    22  H    9.107337   7.561258   6.507121   6.484618   5.522681
    23  C    9.598287   6.357075   5.315625   4.048863   3.138089
    24  O    9.495883   6.137150   5.145826   3.821891   3.107518
    25  H   10.287195   6.884673   5.997256   4.630703   4.064351
    26  C    8.783298   5.794473   4.617587   3.622133   2.446670
    27  O    9.440461   6.652554   5.579975   4.680021   3.652367
    28  C    9.415677   6.992915   5.851332   5.261137   4.141817
    29  O   10.488507   8.209503   7.155259   6.565771   5.527496
    30  H   11.139763   8.914078   7.786027   7.236398   6.094372
    31  H    3.852783   3.054028   4.163307   4.799205   6.099150
    32  H    2.280867   2.097945   2.538426   3.830082   4.605137
    33  H    2.443409   2.097945   2.479656   3.864503   4.680325
    34  H    3.718253   1.070000   2.050898   2.545724   3.806338
    35  H    4.350503   2.092734   2.554294   3.102380   4.239345
    36  H    5.653138   2.674441   3.249149   2.735627   4.087683
    37  H    6.552790   3.371479   2.805031   2.116837   2.737036
    38  H    5.755490   2.514715   2.011923   1.070000   2.012717
    39  H   10.608347   7.400444   6.311022   5.083920   4.069636
    40  H    9.593642   6.345586   5.487321   4.161031   3.547388
    41  H    9.086573   6.211556   4.901278   4.069658   2.694347
    42  H    7.124426   4.184363   3.336736   2.415560   2.058063
    43  H    7.258756   5.020258   3.702378   3.605091   2.480802
    44  H    7.991463   6.028990   5.181052   4.914371   4.266770
    45  H    9.744186   7.324940   6.060747   5.517839   4.232086
                   16         17         18         19         20
    16  C    0.000000
    17  C    1.520101   0.000000
    18  O    2.497577   1.435563   0.000000
    19  H    2.616046   1.993326   0.999644   0.000000
    20  C    2.554448   1.519463   2.436499   3.299049   0.000000
    21  O    3.679197   2.303879   2.804787   3.666325   1.434928
    22  H    4.494044   3.221377   3.740194   4.638715   2.036219
    23  C    2.630776   3.913305   5.110837   5.202636   4.326579
    24  O    3.253959   4.647698   5.679299   5.518265   5.397226
    25  H    4.177347   5.595722   6.628173   6.472175   6.255447
    26  C    1.519806   2.481541   3.797672   4.033833   2.880568
    27  O    2.359019   2.803482   4.112124   4.641921   2.408431
    28  C    2.870981   2.503108   3.773653   4.488947   1.519771
    29  O    4.188094   3.779452   4.875609   5.702390   2.453726
    30  H    4.843388   4.348142   5.473062   6.286478   3.051273
    31  H    7.150702   7.616207   6.847746   5.944748   9.011095
    32  H    5.081153   4.697605   3.416554   2.748347   5.833358
    33  H    5.580397   5.411567   4.375990   3.464956   6.762735
    34  H    4.287596   4.612632   3.784591   3.149280   5.794524
    35  H    5.449659   5.980185   5.437915   4.482505   7.454730
    36  H    4.761464   5.730898   5.439597   4.814477   6.929606
    37  H    4.037662   5.056901   5.175384   4.407033   6.470184
    38  H    2.332212   3.231080   3.139220   2.716814   4.419817
    39  H    3.492101   4.578886   5.888923   6.064947   4.742331
    40  H    2.881521   4.218662   5.287807   5.425308   4.526132
    41  H    2.120066   2.659947   4.030497   4.229869   3.071454
    42  H    1.070000   2.132168   2.738747   2.898461   2.899419
    43  H    2.070853   1.070000   2.000164   2.301679   2.073114
    44  H    2.991943   2.150617   2.635417   3.569112   1.070000
    45  H    3.208190   2.794456   4.126073   4.734727   2.128557
                   21         22         23         24         25
    21  O    0.000000
    22  H    0.999795   0.000000
    23  C    5.514539   6.066937   0.000000
    24  O    6.496199   7.159318   1.434571   0.000000
    25  H    7.395881   8.009865   2.015427   1.000090   0.000000
    26  C    4.012502   4.620695   1.520536   2.564106   3.401293
    27  O    3.647164   3.995651   2.337954   3.699471   4.350147
    28  C    2.416519   2.621054   3.598241   4.848540   5.591713
    29  O    3.047224   2.760427   4.582206   5.947831   6.564295
    30  H    3.284348   2.821937   5.094747   6.416808   7.019672
    31  H    9.605558  10.573395   8.650356   8.029443   8.566859
    32  H    6.060119   6.951263   7.519085   7.574193   8.434204
    33  H    6.963762   7.921014   7.772265   7.525897   8.357335
    34  H    6.545758   7.441211   6.257120   6.193312   6.897451
    35  H    8.048724   9.038773   6.901628   6.247547   6.874804
    36  H    7.955211   8.839783   5.736495   5.278225   5.697702
    37  H    7.290682   8.233235   4.682513   3.782345   4.358052
    38  H    5.463911   6.340280   4.019959   4.049845   4.790219
    39  H    5.841356   6.260748   1.070000   2.026288   2.278242
    40  H    5.853715   6.370880   1.070000   2.026288   2.327493
    41  H    3.879148   4.477320   2.120839   2.875796   3.735082
    42  H    4.181076   4.929455   2.878480   3.550232   4.345025
    43  H    2.325898   3.263366   4.138111   4.724905   5.706068
    44  H    2.075760   2.439636   4.766994   5.893926   6.695103
    45  H    2.539050   2.749262   3.738784   4.843971   5.608669
                   26         27         28         29         30
    26  C    0.000000
    27  O    1.435346   0.000000
    28  C    2.336768   1.435017   0.000000
    29  O    3.578344   2.314228   1.435752   0.000000
    30  H    4.110073   2.981411   1.975314   0.960000   0.000000
    31  H    8.418631   9.435241   9.920149  11.176707  11.873862
    32  H    6.585201   7.204569   7.140427   8.240995   8.882107
    33  H    6.986735   7.881499   7.910000   9.161228   9.734842
    34  H    5.724704   6.406536   6.810665   7.917311   8.695101
    35  H    6.629551   7.766478   8.237533   9.571658  10.199801
    36  H    5.815852   6.685221   7.520465   8.651228   9.445546
    37  H    4.765673   6.073726   6.804340   8.162014   8.736866
    38  H    3.609003   4.404768   5.065799   6.241452   7.009011
    39  H    2.100949   2.528060   3.702569   4.479659   4.844234
    40  H    2.100949   2.479925   3.890180   4.698553   5.346232
    41  H    1.070000   2.048231   2.429875   3.727611   4.030532
    42  H    2.131998   2.584600   3.300441   4.407802   5.200970
    43  H    2.698397   3.244648   2.768442   4.109501   4.471959
    44  H    3.469286   2.774397   2.152690   2.631813   3.399035
    45  H    2.489213   2.054445   1.070000   2.055015   2.115089
                   31         32         33         34         35
    31  H    0.000000
    32  H    4.303160   0.000000
    33  H    3.355298   1.724614   0.000000
    34  H    3.589917   2.377977   2.977253   0.000000
    35  H    2.059968   3.740640   2.636896   2.974640   0.000000
    36  H    3.580394   4.669392   4.640312   2.419551   2.960406
    37  H    4.447369   5.185327   4.513070   3.904941   2.595234
    38  H    5.110963   3.892230   4.324237   2.238945   3.730722
    39  H    9.687345   8.492993   8.743842   7.312566   7.902922
    40  H    8.623152   7.568168   7.965950   6.076391   7.040466
    41  H    8.787226   6.878744   7.133083   6.299967   6.884617
    42  H    6.961355   5.003208   5.692424   3.851724   5.468084
    43  H    7.853382   5.014949   5.466659   5.193546   6.082119
    44  H    9.070748   5.803099   6.948211   5.654197   7.690201
    45  H   10.178648   7.466621   8.055421   7.290666   8.378742
                   36         37         38         39         40
    36  H    0.000000
    37  H    2.974295   0.000000
    38  H    2.519471   2.963349   0.000000
    39  H    6.784937   5.608672   5.077857   0.000000
    40  H    5.435018   4.954365   3.872362   1.725631   0.000000
    41  H    6.488827   4.993739   4.288551   2.375804   2.976828
    42  H    4.248426   4.221860   1.873312   3.810844   2.719976
    43  H    6.264016   5.085793   3.857937   4.693956   4.678499
    44  H    6.872776   6.873932   4.452362   5.236492   4.729232
    45  H    7.965838   6.847658   5.523217   3.702573   4.289167
                   41         42         43         44         45
    41  H    0.000000
    42  H    3.002649   0.000000
    43  H    2.440343   2.964231   0.000000
    44  H    3.903280   2.951853   2.967323   0.000000
    45  H    2.102160   3.897833   2.635456   3.015951   0.000000
 Stoichiometry    C12H22O11
 Framework group  C1[X(C12H22O11)]
 Deg. of freedom   129
 Full point group                 C1      NOp   1
 Largest Abelian subgroup         C1      NOp   1
 Largest concise Abelian subgroup C1      NOp   1
                         Standard orientation:                         
 ---------------------------------------------------------------------
 Center     Atomic      Atomic             Coordinates (Angstroms)
 Number     Number       Type             X           Y           Z
 ---------------------------------------------------------------------
      1          8           0        5.004278   -0.307827   -0.501737
      2          6           0        3.713962   -0.006315    0.049115
      3          6           0        3.116577    1.317009   -0.400285
      4          8           0        4.065909    2.377600   -0.216570
      5          1           0        4.935843    2.007046   -0.540795
      6          6           0        1.782857    1.621275    0.262275
      7          8           0        1.085405    2.733153   -0.317475
      8          1           0        0.475168    3.050766    0.408895
      9          6           0        3.135486   -2.497207    0.226698
     10          8           0        4.338815   -3.072533   -0.303929
     11          1           0        4.431057   -4.056704   -0.154552
     12          6           0        2.689409   -1.104153   -0.183247
     13          8           0        1.516055   -0.844040    0.601534
     14          6           0        0.906755    0.382772    0.175343
     15          8           0       -0.363292    0.466088    0.839263
     16          6           0       -1.482885    0.186258   -0.014494
     17          6           0       -1.933138   -1.231209    0.299775
     18          8           0       -0.955905   -2.254082    0.055672
     19          1           0       -0.091941   -1.974869    0.473876
     20          6           0       -3.278660   -1.608345   -0.296974
     21          8           0       -3.682826   -2.713035    0.524810
     22          1           0       -4.606274   -3.028862    0.307811
     23          6           0       -2.452546    2.631533   -0.051507
     24          8           0       -1.425921    3.377815    0.617147
     25          1           0       -1.480688    4.345729    0.371540
     26          6           0       -2.633031    1.148627    0.232120
     27          8           0       -3.685527    0.738545   -0.653489
     28          6           0       -4.274590   -0.469690   -0.151049
     29          8           0       -5.479233   -0.703415   -0.896429
     30          1           0       -6.218537   -0.791432   -0.290391
     31          1           0        5.638828   -0.416371    0.210418
     32          1           0        2.336062   -3.165421   -0.016838
     33          1           0        3.235023   -2.492384    1.292048
     34          1           0        2.420773   -1.115395   -1.218915
     35          1           0        3.848513    0.065554    1.108186
     36          1           0        2.933094    1.237832   -1.451458
     37          1           0        1.961299    1.837214    1.294956
     38          1           0        0.687773    0.257172   -0.864451
     39          1           0       -3.383860    3.109828    0.169374
     40          1           0       -2.280791    2.732247   -1.102819
     41          1           0       -2.966708    1.031379    1.241978
     42          1           0       -1.177439    0.246950   -1.038173
     43          1           0       -2.086199   -1.241581    1.358720
     44          1           0       -3.176938   -1.906238   -1.319623
     45          1           0       -4.517288   -0.341959    0.883205
 ---------------------------------------------------------------------
 Rotational constants (GHZ):      0.4010088      0.1474602      0.1116620
 Standard basis: 6-31+G(2d,p) (6D, 7F)
 There are   685 symmetry adapted basis functions of A   symmetry.
 Integral buffers will be    131072 words long.
 Raffenetti 2 integral format.
 Two-electron integral symmetry is turned on.
   685 basis functions,  1028 primitive gaussians,   685 cartesian basis functions
    91 alpha electrons       91 beta electrons
       nuclear repulsion energy      2286.7641896288 Hartrees.
 NAtoms=   45 NActive=   45 NUniq=   45 SFac= 1.00D+00 NAtFMM=   50 NAOKFM=F Big=F
 One-electron integrals computed using PRISM.
 NBasis=   685 RedAO= T  NBF=   685
 NBsUse=   685 1.00D-06 NBFU=   685
 Harris functional with IExCor=  402 diagonalized for initial guess.
 ExpMin= 4.38D-02 ExpMax= 5.48D+03 ExpMxC= 8.25D+02 IAcc=2 IRadAn=         0 AccDes= 0.00D+00
 HarFok:  IExCor=  402 AccDes= 0.00D+00 IRadAn=         0 IDoV= 1
 ScaDFX=  1.000000  1.000000  1.000000  1.000000
 FoFCou: FMM=F IPFlag=           0 FMFlag=      100000 FMFlg1=           0
         NFxFlg=           0 DoJE=T BraDBF=F KetDBF=T FulRan=T
         Omega=  0.000000  0.000000  1.000000  0.000000  0.000000 ICntrl=     500 IOpCl=  0
         NMat0=    1 NMatS0=    1 NMatT0=    0 NMatD0=    1 NMtDS0=    0 NMtDT0=    0
         I1Cent=           4 NGrid=           0.
 Petite list used in FoFCou.
 Initial guess orbital symmetries:
       Occupied  (A) (A) (A) (A) (A) (A) (A) (A) (A) (A) (A) (A)
                 (A) (A) (A) (A) (A) (A) (A) (A) (A) (A) (A) (A)
                 (A) (A) (A) (A) (A) (A) (A) (A) (A) (A) (A) (A)
                 (A) (A) (A) (A) (A) (A) (A) (A) (A) (A) (A) (A)
                 (A) (A) (A) (A) (A) (A) (A) (A) (A) (A) (A) (A)
                 (A) (A) (A) (A) (A) (A) (A) (A) (A) (A) (A) (A)
                 (A) (A) (A) (A) (A) (A) (A) (A) (A) (A) (A) (A)
                 (A) (A) (A) (A) (A) (A) (A)
       Virtual   (A) (A) (A) (A) (A) (A) (A) (A) (A) (A) (A) (A)
                 (A) (A) (A) (A) (A) (A) (A) (A) (A) (A) (A) (A)
                 (A) (A) (A) (A) (A) (A) (A) (A) (A) (A) (A) (A)
                 (A) (A) (A) (A) (A) (A) (A) (A) (A) (A) (A) (A)
                 (A) (A) (A) (A) (A) (A) (A) (A) (A) (A) (A) (A)
                 (A) (A) (A) (A) (A) (A) (A) (A) (A) (A) (A) (A)
                 (A) (A) (A) (A) (A) (A) (A) (A) (A) (A) (A) (A)
                 (A) (A) (A) (A) (A) (A) (A) (A) (A) (A) (A) (A)
                 (A) (A) (A) (A) (A) (A) (A) (A) (A) (A) (A) (A)
                 (A) (A) (A) (A) (A) (A) (A) (A) (A) (A) (A) (A)
                 (A) (A) (A) (A) (A) (A) (A) (A) (A) (A) (A) (A)
                 (A) (A) (A) (A) (A) (A) (A) (A) (A) (A) (A) (A)
                 (A) (A) (A) (A) (A) (A) (A) (A) (A) (A) (A) (A)
                 (A) (A) (A) (A) (A) (A) (A) (A) (A) (A) (A) (A)
                 (A) (A) (A) (A) (A) (A) (A) (A) (A) (A) (A) (A)
                 (A) (A) (A) (A) (A) (A) (A) (A) (A) (A) (A) (A)
                 (A) (A) (A) (A) (A) (A) (A) (A) (A) (A) (A) (A)
                 (A) (A) (A) (A) (A) (A) (A) (A) (A) (A) (A) (A)
                 (A) (A) (A) (A) (A) (A) (A) (A) (A) (A) (A) (A)
                 (A) (A) (A) (A) (A) (A) (A) (A) (A) (A) (A) (A)
                 (A) (A) (A) (A) (A) (A) (A) (A) (A) (A) (A) (A)
                 (A) (A) (A) (A) (A) (A) (A) (A) (A) (A) (A) (A)
                 (A) (A) (A) (A) (A) (A) (A) (A) (A) (A) (A) (A)
                 (A) (A) (A) (A) (A) (A) (A) (A) (A) (A) (A) (A)
                 (A) (A) (A) (A) (A) (A) (A) (A) (A) (A) (A) (A)
                 (A) (A) (A) (A) (A) (A) (A) (A) (A) (A) (A) (A)
                 (A) (A) (A) (A) (A) (A) (A) (A) (A) (A) (A) (A)
                 (A) (A) (A) (A) (A) (A) (A) (A) (A) (A) (A) (A)
                 (A) (A) (A) (A) (A) (A) (A) (A) (A) (A) (A) (A)
                 (A) (A) (A) (A) (A) (A) (A) (A) (A) (A) (A) (A)
                 (A) (A) (A) (A) (A) (A) (A) (A) (A) (A) (A) (A)
                 (A) (A) (A) (A) (A) (A) (A) (A) (A) (A) (A) (A)
                 (A) (A) (A) (A) (A) (A) (A) (A) (A) (A) (A) (A)
                 (A) (A) (A) (A) (A) (A) (A) (A) (A) (A) (A) (A)
                 (A) (A) (A) (A) (A) (A) (A) (A) (A) (A) (A) (A)
                 (A) (A) (A) (A) (A) (A) (A) (A) (A) (A) (A) (A)
                 (A) (A) (A) (A) (A) (A) (A) (A) (A) (A) (A) (A)
                 (A) (A) (A) (A) (A) (A) (A) (A) (A) (A) (A) (A)
                 (A) (A) (A) (A) (A) (A) (A) (A) (A) (A) (A) (A)
                 (A) (A) (A) (A) (A) (A) (A) (A) (A) (A) (A) (A)
                 (A) (A) (A) (A) (A) (A) (A) (A) (A) (A) (A) (A)
                 (A) (A) (A) (A) (A) (A) (A) (A) (A) (A) (A) (A)
                 (A) (A) (A) (A) (A) (A) (A) (A) (A) (A) (A) (A)
                 (A) (A) (A) (A) (A) (A) (A) (A) (A) (A) (A) (A)
                 (A) (A) (A) (A) (A) (A) (A) (A) (A) (A) (A) (A)
                 (A) (A) (A) (A) (A) (A) (A) (A) (A) (A) (A) (A)
                 (A) (A) (A) (A) (A) (A) (A) (A) (A) (A) (A) (A)
                 (A) (A) (A) (A) (A) (A) (A) (A) (A) (A) (A) (A)
                 (A) (A) (A) (A) (A) (A) (A) (A) (A) (A) (A) (A)
                 (A) (A) (A) (A) (A) (A)
 The electronic state of the initial guess is 1-A.
 Requested convergence on RMS density matrix=1.00D-08 within 128 cycles.
 Requested convergence on MAX density matrix=1.00D-06.
 Requested convergence on             energy=1.00D-06.
 No special actions if energy rises.
 SCF Done:  E(RB3LYP) =  -1297.99173570     A.U. after   13 cycles
             Convg  =    0.5368D-08             -V/T =  2.0065
 Range of M.O.s used for correlation:     1   685
 NBasis=   685 NAE=    91 NBE=    91 NFC=     0 NFV=     0
 NROrb=    685 NOA=    91 NOB=    91 NVA=   594 NVB=   594

 **** Warning!!: The largest alpha MO coefficient is  0.80777301D+02

          Differentiating once with respect to electric field.
                with respect to dipole field.
          Electric field/nuclear overlap derivatives assumed to be zero.
          There are     3 degrees of freedom in the 1st order CPHF.  IDoFFX=0.
      3 vectors produced by pass  0 Test12= 1.80D-12 3.33D-08 XBig12= 1.21D+02 1.19D+00.
 AX will form     3 AO Fock derivatives at one time.
      3 vectors produced by pass  1 Test12= 1.80D-12 3.33D-08 XBig12= 2.79D+01 4.47D-01.
      3 vectors produced by pass  2 Test12= 1.80D-12 3.33D-08 XBig12= 1.12D+01 2.19D-01.
      3 vectors produced by pass  3 Test12= 1.80D-12 3.33D-08 XBig12= 1.09D+00 1.16D-01.
      3 vectors produced by pass  4 Test12= 1.80D-12 3.33D-08 XBig12= 2.93D-01 5.77D-02.
      3 vectors produced by pass  5 Test12= 1.80D-12 3.33D-08 XBig12= 6.39D-02 2.48D-02.
      3 vectors produced by pass  6 Test12= 1.80D-12 3.33D-08 XBig12= 1.83D-02 1.58D-02.
      3 vectors produced by pass  7 Test12= 1.80D-12 3.33D-08 XBig12= 3.27D-03 8.63D-03.
      3 vectors produced by pass  8 Test12= 1.80D-12 3.33D-08 XBig12= 4.06D-04 2.12D-03.
      3 vectors produced by pass  9 Test12= 1.80D-12 3.33D-08 XBig12= 1.22D-04 1.17D-03.
      3 vectors produced by pass 10 Test12= 1.80D-12 3.33D-08 XBig12= 2.89D-05 4.89D-04.
      3 vectors produced by pass 11 Test12= 1.80D-12 3.33D-08 XBig12= 9.73D-06 2.39D-04.
      3 vectors produced by pass 12 Test12= 1.80D-12 3.33D-08 XBig12= 1.09D-06 8.64D-05.
      3 vectors produced by pass 13 Test12= 1.80D-12 3.33D-08 XBig12= 3.21D-07 4.51D-05.
      3 vectors produced by pass 14 Test12= 1.80D-12 3.33D-08 XBig12= 5.41D-08 2.41D-05.
      3 vectors produced by pass 15 Test12= 1.80D-12 3.33D-08 XBig12= 8.85D-09 6.64D-06.
      3 vectors produced by pass 16 Test12= 1.80D-12 3.33D-08 XBig12= 1.80D-09 3.62D-06.
      3 vectors produced by pass 17 Test12= 1.80D-12 3.33D-08 XBig12= 1.25D-10 8.77D-07.
      3 vectors produced by pass 18 Test12= 1.80D-12 3.33D-08 XBig12= 1.66D-11 2.49D-07.
      3 vectors produced by pass 19 Test12= 1.80D-12 3.33D-08 XBig12= 1.21D-11 2.07D-07.
      3 vectors produced by pass 20 Test12= 1.80D-12 3.33D-08 XBig12= 6.31D-12 1.52D-07.
      2 vectors produced by pass 21 Test12= 1.80D-12 3.33D-08 XBig12= 5.86D-12 1.97D-07.
      2 vectors produced by pass 22 Test12= 1.80D-12 3.33D-08 XBig12= 9.68D-13 5.83D-08.
 Inverted reduced A of dimension    67 with in-core refinement.
 End of Minotr Frequency-dependent properties file   721 does not exist.
 End of Minotr Frequency-dependent properties file   722 does not exist.
 Symmetrizing basis deriv contribution to polar:
 IMax=3 JMax=2 DiffMx= 0.00D+00
 G2DrvN: will do    16 centers at a time, making    3 passes doing MaxLOS=2.
 Calling FoFCou, ICntrl=  3107 FMM=F I1Cent=   0 AccDes= 0.00D+00.
 Calling FoFCou, ICntrl=  3107 FMM=F I1Cent=   0 AccDes= 0.00D+00.
 Calling FoFCou, ICntrl=  3107 FMM=F I1Cent=   0 AccDes= 0.00D+00.
 FoFDir/FoFCou used for L=0 through L=2.
 End of G2Drv Frequency-dependent properties file   721 does not exist.
 End of G2Drv Frequency-dependent properties file   722 does not exist.
          IDoAtm=111111111111111111111111111111111111111111111
          Differentiating once with respect to electric field.
                with respect to dipole field.
          Differentiating once with respect to nuclear coordinates.
          There are   138 degrees of freedom in the 1st order CPHF.  IDoFFX=5.
 Will reuse    3 saved solutions.
    135 vectors produced by pass  0 Test12= 5.41D-14 1.00D-09 XBig12= 1.68D-01 7.37D-02.
 AX will form    45 AO Fock derivatives at one time.
    135 vectors produced by pass  1 Test12= 5.41D-14 1.00D-09 XBig12= 1.65D-02 9.73D-03.
    132 vectors produced by pass  2 Test12= 5.41D-14 1.00D-09 XBig12= 1.31D-04 1.21D-03.
    132 vectors produced by pass  3 Test12= 5.41D-14 1.00D-09 XBig12= 4.83D-07 5.83D-05.
    132 vectors produced by pass  4 Test12= 5.41D-14 1.00D-09 XBig12= 9.80D-10 2.36D-06.
    132 vectors produced by pass  5 Test12= 5.41D-14 1.00D-09 XBig12= 2.92D-12 1.10D-07.
     79 vectors produced by pass  6 Test12= 5.41D-14 1.00D-09 XBig12= 1.14D-13 1.79D-08.
 Inverted reduced A of dimension   877 with in-core refinement.
 Isotropic polarizability for W=    0.000000      190.85 Bohr**3.
 End of Minotr Frequency-dependent properties file   721 does not exist.
 End of Minotr Frequency-dependent properties file   722 does not exist.

 **********************************************************************

            Population analysis using the SCF density.

 **********************************************************************

 Orbital symmetries:
       Occupied  (A) (A) (A) (A) (A) (A) (A) (A) (A) (A) (A) (A)
                 (A) (A) (A) (A) (A) (A) (A) (A) (A) (A) (A) (A)
                 (A) (A) (A) (A) (A) (A) (A) (A) (A) (A) (A) (A)
                 (A) (A) (A) (A) (A) (A) (A) (A) (A) (A) (A) (A)
                 (A) (A) (A) (A) (A) (A) (A) (A) (A) (A) (A) (A)
                 (A) (A) (A) (A) (A) (A) (A) (A) (A) (A) (A) (A)
                 (A) (A) (A) (A) (A) (A) (A) (A) (A) (A) (A) (A)
                 (A) (A) (A) (A) (A) (A) (A)
       Virtual   (A) (A) (A) (A) (A) (A) (A) (A) (A) (A) (A) (A)
                 (A) (A) (A) (A) (A) (A) (A) (A) (A) (A) (A) (A)
                 (A) (A) (A) (A) (A) (A) (A) (A) (A) (A) (A) (A)
                 (A) (A) (A) (A) (A) (A) (A) (A) (A) (A) (A) (A)
                 (A) (A) (A) (A) (A) (A) (A) (A) (A) (A) (A) (A)
                 (A) (A) (A) (A) (A) (A) (A) (A) (A) (A) (A) (A)
                 (A) (A) (A) (A) (A) (A) (A) (A) (A) (A) (A) (A)
                 (A) (A) (A) (A) (A) (A) (A) (A) (A) (A) (A) (A)
                 (A) (A) (A) (A) (A) (A) (A) (A) (A) (A) (A) (A)
                 (A) (A) (A) (A) (A) (A) (A) (A) (A) (A) (A) (A)
                 (A) (A) (A) (A) (A) (A) (A) (A) (A) (A) (A) (A)
                 (A) (A) (A) (A) (A) (A) (A) (A) (A) (A) (A) (A)
                 (A) (A) (A) (A) (A) (A) (A) (A) (A) (A) (A) (A)
                 (A) (A) (A) (A) (A) (A) (A) (A) (A) (A) (A) (A)
                 (A) (A) (A) (A) (A) (A) (A) (A) (A) (A) (A) (A)
                 (A) (A) (A) (A) (A) (A) (A) (A) (A) (A) (A) (A)
                 (A) (A) (A) (A) (A) (A) (A) (A) (A) (A) (A) (A)
                 (A) (A) (A) (A) (A) (A) (A) (A) (A) (A) (A) (A)
                 (A) (A) (A) (A) (A) (A) (A) (A) (A) (A) (A) (A)
                 (A) (A) (A) (A) (A) (A) (A) (A) (A) (A) (A) (A)
                 (A) (A) (A) (A) (A) (A) (A) (A) (A) (A) (A) (A)
                 (A) (A) (A) (A) (A) (A) (A) (A) (A) (A) (A) (A)
                 (A) (A) (A) (A) (A) (A) (A) (A) (A) (A) (A) (A)
                 (A) (A) (A) (A) (A) (A) (A) (A) (A) (A) (A) (A)
                 (A) (A) (A) (A) (A) (A) (A) (A) (A) (A) (A) (A)
                 (A) (A) (A) (A) (A) (A) (A) (A) (A) (A) (A) (A)
                 (A) (A) (A) (A) (A) (A) (A) (A) (A) (A) (A) (A)
                 (A) (A) (A) (A) (A) (A) (A) (A) (A) (A) (A) (A)
                 (A) (A) (A) (A) (A) (A) (A) (A) (A) (A) (A) (A)
                 (A) (A) (A) (A) (A) (A) (A) (A) (A) (A) (A) (A)
                 (A) (A) (A) (A) (A) (A) (A) (A) (A) (A) (A) (A)
                 (A) (A) (A) (A) (A) (A) (A) (A) (A) (A) (A) (A)
                 (A) (A) (A) (A) (A) (A) (A) (A) (A) (A) (A) (A)
                 (A) (A) (A) (A) (A) (A) (A) (A) (A) (A) (A) (A)
                 (A) (A) (A) (A) (A) (A) (A) (A) (A) (A) (A) (A)
                 (A) (A) (A) (A) (A) (A) (A) (A) (A) (A) (A) (A)
                 (A) (A) (A) (A) (A) (A) (A) (A) (A) (A) (A) (A)
                 (A) (A) (A) (A) (A) (A) (A) (A) (A) (A) (A) (A)
                 (A) (A) (A) (A) (A) (A) (A) (A) (A) (A) (A) (A)
                 (A) (A) (A) (A) (A) (A) (A) (A) (A) (A) (A) (A)
                 (A) (A) (A) (A) (A) (A) (A) (A) (A) (A) (A) (A)
                 (A) (A) (A) (A) (A) (A) (A) (A) (A) (A) (A) (A)
                 (A) (A) (A) (A) (A) (A) (A) (A) (A) (A) (A) (A)
                 (A) (A) (A) (A) (A) (A) (A) (A) (A) (A) (A) (A)
                 (A) (A) (A) (A) (A) (A) (A) (A) (A) (A) (A) (A)
                 (A) (A) (A) (A) (A) (A) (A) (A) (A) (A) (A) (A)
                 (A) (A) (A) (A) (A) (A) (A) (A) (A) (A) (A) (A)
                 (A) (A) (A) (A) (A) (A) (A) (A) (A) (A) (A) (A)
                 (A) (A) (A) (A) (A) (A) (A) (A) (A) (A) (A) (A)
                 (A) (A) (A) (A) (A) (A)
 The electronic state is 1-A.
 Alpha  occ. eigenvalues --  -19.18700 -19.18145 -19.17809 -19.17696 -19.17598
 Alpha  occ. eigenvalues --  -19.17094 -19.15930 -19.15754 -19.15201 -19.14913
 Alpha  occ. eigenvalues --  -19.14154 -10.30521 -10.29919 -10.26061 -10.25673
 Alpha  occ. eigenvalues --  -10.25177 -10.24982 -10.24909 -10.24854 -10.24568
 Alpha  occ. eigenvalues --  -10.24478 -10.24089 -10.23673  -1.09786  -1.09029
 Alpha  occ. eigenvalues --   -1.05308  -1.04558  -1.03950  -1.03500  -1.02917
 Alpha  occ. eigenvalues --   -1.02428  -1.01972  -1.01011  -1.00336  -0.81526
 Alpha  occ. eigenvalues --   -0.80648  -0.79034  -0.78243  -0.71726  -0.70124
 Alpha  occ. eigenvalues --   -0.67113  -0.64963  -0.63095  -0.62388  -0.61360
 Alpha  occ. eigenvalues --   -0.60384  -0.56170  -0.55384  -0.54814  -0.54285
 Alpha  occ. eigenvalues --   -0.54038  -0.53141  -0.53014  -0.52038  -0.51704
 Alpha  occ. eigenvalues --   -0.50245  -0.49562  -0.49301  -0.48903  -0.46164
 Alpha  occ. eigenvalues --   -0.45670  -0.45022  -0.44339  -0.43815  -0.43061
 Alpha  occ. eigenvalues --   -0.42766  -0.41906  -0.41416  -0.39874  -0.39347
 Alpha  occ. eigenvalues --   -0.38923  -0.37675  -0.36583  -0.36000  -0.35508
 Alpha  occ. eigenvalues --   -0.35165  -0.34819  -0.34489  -0.34050  -0.33824
 Alpha  occ. eigenvalues --   -0.32803  -0.31719  -0.30899  -0.30219  -0.29944
 Alpha  occ. eigenvalues --   -0.29165  -0.28644  -0.28344  -0.27904  -0.26764
 Alpha  occ. eigenvalues --   -0.26310
 Alpha virt. eigenvalues --   -0.02161  -0.01907  -0.01759  -0.00035   0.00680
 Alpha virt. eigenvalues --    0.01089   0.02034   0.02403   0.03076   0.03678
 Alpha virt. eigenvalues --    0.03838   0.04445   0.05092   0.05351   0.05630
 Alpha virt. eigenvalues --    0.06391   0.06475   0.07529   0.07687   0.08124
 Alpha virt. eigenvalues --    0.08529   0.08766   0.09250   0.09724   0.09992
 Alpha virt. eigenvalues --    0.10791   0.11458   0.11546   0.11849   0.12313
 Alpha virt. eigenvalues --    0.12578   0.12862   0.13200   0.13351   0.13540
 Alpha virt. eigenvalues --    0.14044   0.14424   0.14789   0.14997   0.15025
 Alpha virt. eigenvalues --    0.15999   0.16082   0.16661   0.16934   0.17059
 Alpha virt. eigenvalues --    0.17241   0.17716   0.17806   0.18250   0.18793
 Alpha virt. eigenvalues --    0.18918   0.19198   0.19232   0.19520   0.20222
 Alpha virt. eigenvalues --    0.20944   0.21276   0.21367   0.21434   0.21816
 Alpha virt. eigenvalues --    0.21955   0.22092   0.22427   0.22637   0.23200
 Alpha virt. eigenvalues --    0.23660   0.23911   0.23990   0.24339   0.24539
 Alpha virt. eigenvalues --    0.24859   0.25220   0.25793   0.26114   0.26447
 Alpha virt. eigenvalues --    0.26622   0.26738   0.27073   0.27215   0.27322
 Alpha virt. eigenvalues --    0.27668   0.28127   0.28187   0.28359   0.28527
 Alpha virt. eigenvalues --    0.28911   0.29171   0.29545   0.30392   0.30758
 Alpha virt. eigenvalues --    0.30969   0.31707   0.32092   0.32273   0.32470
 Alpha virt. eigenvalues --    0.32673   0.32810   0.33205   0.33594   0.33915
 Alpha virt. eigenvalues --    0.34147   0.34217   0.34668   0.35414   0.35907
 Alpha virt. eigenvalues --    0.36333   0.36506   0.36861   0.37255   0.37378
 Alpha virt. eigenvalues --    0.37933   0.38087   0.38561   0.38628   0.39575
 Alpha virt. eigenvalues --    0.39803   0.39963   0.40572   0.40970   0.41740
 Alpha virt. eigenvalues --    0.42228   0.42597   0.43073   0.43449   0.43948
 Alpha virt. eigenvalues --    0.44493   0.45228   0.45267   0.45636   0.47125
 Alpha virt. eigenvalues --    0.47585   0.48303   0.48516   0.49163   0.49910
 Alpha virt. eigenvalues --    0.50927   0.51616   0.53461   0.58021   0.58711
 Alpha virt. eigenvalues --    0.59079   0.59874   0.61276   0.62257   0.62619
 Alpha virt. eigenvalues --    0.63547   0.64000   0.64960   0.66137   0.67218
 Alpha virt. eigenvalues --    0.68108   0.68430   0.68976   0.69648   0.69978
 Alpha virt. eigenvalues --    0.71189   0.71466   0.72411   0.73425   0.73779
 Alpha virt. eigenvalues --    0.74479   0.75300   0.75919   0.76608   0.77651
 Alpha virt. eigenvalues --    0.78757   0.79517   0.79870   0.81081   0.81540
 Alpha virt. eigenvalues --    0.82618   0.82949   0.84114   0.85051   0.85833
 Alpha virt. eigenvalues --    0.86642   0.87935   0.88426   0.88781   0.89221
 Alpha virt. eigenvalues --    0.89713   0.90311   0.91200   0.91611   0.92277
 Alpha virt. eigenvalues --    0.92788   0.92899   0.93458   0.93850   0.94309
 Alpha virt. eigenvalues --    0.94979   0.95308   0.95830   0.96054   0.97110
 Alpha virt. eigenvalues --    0.97402   0.97943   0.98657   0.98947   0.99416
 Alpha virt. eigenvalues --    0.99610   1.00677   1.01043   1.02467   1.03286
 Alpha virt. eigenvalues --    1.03626   1.04374   1.05468   1.05829   1.06415
 Alpha virt. eigenvalues --    1.06754   1.07305   1.07463   1.08755   1.08955
 Alpha virt. eigenvalues --    1.09673   1.09973   1.10048   1.11117   1.11421
 Alpha virt. eigenvalues --    1.12120   1.12657   1.13291   1.14446   1.14924
 Alpha virt. eigenvalues --    1.15321   1.15631   1.16228   1.16783   1.16945
 Alpha virt. eigenvalues --    1.17390   1.17749   1.18749   1.19017   1.19530
 Alpha virt. eigenvalues --    1.19639   1.20567   1.21002   1.21585   1.22603
 Alpha virt. eigenvalues --    1.22918   1.23613   1.24386   1.24683   1.25193
 Alpha virt. eigenvalues --    1.26177   1.26634   1.27004   1.27833   1.28462
 Alpha virt. eigenvalues --    1.28777   1.29384   1.30419   1.30765   1.31404
 Alpha virt. eigenvalues --    1.32700   1.32872   1.33457   1.34343   1.35078
 Alpha virt. eigenvalues --    1.35334   1.35932   1.36211   1.37126   1.37696
 Alpha virt. eigenvalues --    1.38168   1.38687   1.39597   1.40294   1.40847
 Alpha virt. eigenvalues --    1.41111   1.42223   1.42911   1.44005   1.44400
 Alpha virt. eigenvalues --    1.44992   1.45737   1.45897   1.46343   1.47449
 Alpha virt. eigenvalues --    1.47654   1.49006   1.50161   1.50542   1.50739
 Alpha virt. eigenvalues --    1.53311   1.54131   1.54846   1.55981   1.57394
 Alpha virt. eigenvalues --    1.57599   1.58432   1.59259   1.60018   1.61014
 Alpha virt. eigenvalues --    1.61289   1.62589   1.63029   1.64612   1.65677
 Alpha virt. eigenvalues --    1.66031   1.66465   1.67138   1.68379   1.68909
 Alpha virt. eigenvalues --    1.70071   1.70677   1.72595   1.73186   1.73320
 Alpha virt. eigenvalues --    1.73888   1.76408   1.77354   1.78485   1.78761
 Alpha virt. eigenvalues --    1.80241   1.81232   1.82122   1.82607   1.83274
 Alpha virt. eigenvalues --    1.84218   1.84938   1.85701   1.86464   1.88519
 Alpha virt. eigenvalues --    1.89091   1.90287   1.91329   1.92559   1.94260
 Alpha virt. eigenvalues --    1.95717   1.96382   1.97549   1.98253   1.99574
 Alpha virt. eigenvalues --    2.00407   2.02054   2.02719   2.03739   2.04308
 Alpha virt. eigenvalues --    2.05408   2.06251   2.07684   2.08103   2.10062
 Alpha virt. eigenvalues --    2.11387   2.12006   2.13804   2.16450   2.17287
 Alpha virt. eigenvalues --    2.19716   2.23103   2.24013   2.24751   2.25553
 Alpha virt. eigenvalues --    2.25858   2.26900   2.28308   2.29590   2.30219
 Alpha virt. eigenvalues --    2.32609   2.32776   2.35390   2.35880   2.35914
 Alpha virt. eigenvalues --    2.37350   2.39502   2.42109   2.46757   2.52705
 Alpha virt. eigenvalues --    2.53165   2.55252   2.56039   2.56207   2.57620
 Alpha virt. eigenvalues --    2.62612   2.64458   2.65859   2.67062   2.67615
 Alpha virt. eigenvalues --    2.68579   2.69095   2.70737   2.71779   2.72998
 Alpha virt. eigenvalues --    2.74041   2.74613   2.77129   2.78204   2.78447
 Alpha virt. eigenvalues --    2.79425   2.80491   2.81345   2.83581   2.84908
 Alpha virt. eigenvalues --    2.86693   2.89103   2.90746   2.91464   2.92927
 Alpha virt. eigenvalues --    2.94168   2.94646   2.95054   2.95546   2.96310
 Alpha virt. eigenvalues --    2.98389   2.99462   3.00470   3.01360   3.01793
 Alpha virt. eigenvalues --    3.02847   3.03292   3.03800   3.04210   3.04943
 Alpha virt. eigenvalues --    3.05823   3.06895   3.08531   3.09551   3.10988
 Alpha virt. eigenvalues --    3.11284   3.12407   3.13122   3.13504   3.14417
 Alpha virt. eigenvalues --    3.15811   3.17720   3.18472   3.20912   3.22034
 Alpha virt. eigenvalues --    3.23707   3.25696   3.28612   3.71493   3.80596
 Alpha virt. eigenvalues --    3.93757   3.98209   4.06811   4.09015   4.10668
 Alpha virt. eigenvalues --    4.12336   4.14362   4.15154   4.15691   4.15757
 Alpha virt. eigenvalues --    4.18440   4.19578   4.20775   4.21009   4.21569
 Alpha virt. eigenvalues --    4.22212   4.23375   4.23981   4.25991   4.26508
 Alpha virt. eigenvalues --    4.27161   4.27552   4.28887   4.29494   4.29781
 Alpha virt. eigenvalues --    4.30086   4.30404   4.30932   4.32389   4.33014
 Alpha virt. eigenvalues --    4.33556   4.34216   4.35089   4.35343   4.35484
 Alpha virt. eigenvalues --    4.36624   4.36931   4.37682   4.38268   4.38640
 Alpha virt. eigenvalues --    4.39509   4.39956   4.41300   4.42077   4.42945
 Alpha virt. eigenvalues --    4.43752   4.44972   4.45249   4.48015   4.49360
 Alpha virt. eigenvalues --    4.50571   4.50996   4.52275   4.54288   4.54865
 Alpha virt. eigenvalues --    4.55237   4.56753   4.57617   4.58852   4.59887
 Alpha virt. eigenvalues --    4.59975   4.61851   4.62165   4.62701   4.63362
 Alpha virt. eigenvalues --    4.64173   4.65025   4.65451   4.66093   4.66757
 Alpha virt. eigenvalues --    4.68278   4.68555   4.69462   4.70375   4.71016
 Alpha virt. eigenvalues --    4.71567   4.72018   4.72847   4.73820   4.74243
 Alpha virt. eigenvalues --    4.75061   4.75655   4.76615   4.77013   4.77561
 Alpha virt. eigenvalues --    4.78029   4.79149   4.79478   4.79659   4.80088
 Alpha virt. eigenvalues --    4.81939   4.82512   4.82736   4.83588   4.84809
 Alpha virt. eigenvalues --    4.86959   4.88312   4.89071   4.89799   4.91257
 Alpha virt. eigenvalues --    4.91714   4.93453   4.95521   4.95925   4.96151
 Alpha virt. eigenvalues --    4.97894   4.98851   5.00193   5.01752   5.03202
 Alpha virt. eigenvalues --    5.05073   5.07777   5.10518   5.12062   5.15747
 Alpha virt. eigenvalues --    5.24096   5.26169   5.27101   5.29584   5.37286
 Alpha virt. eigenvalues --    5.39824   5.73832   6.15010   6.24652   6.56346
 Alpha virt. eigenvalues --    6.72753   6.74276   6.76227   6.77527   6.81073
 Alpha virt. eigenvalues --    6.84838   6.88096   6.89936   6.98512   7.01813
 Alpha virt. eigenvalues --    7.06132  11.83775  11.94631  12.00624  12.08281
 Alpha virt. eigenvalues --   12.28025  12.40227  12.60420  12.76027  12.84065
 Alpha virt. eigenvalues --   12.97246  13.12908  13.15793  13.17994  13.23422
 Alpha virt. eigenvalues --   13.26739  13.30299  13.37958  13.42573  13.45814
 Alpha virt. eigenvalues --   13.49247  13.65260  13.68473  13.74499
          Condensed to atoms (all electrons):
              1          2          3          4          5          6
     1  O    8.202089   0.316755  -0.092629  -0.011875   0.018959  -0.006288
     2  C    0.316755   6.494983  -0.163924   0.051978  -0.068389  -0.730642
     3  C   -0.092629  -0.163924   6.299447   0.114026   0.024664  -0.030117
     4  O   -0.011875   0.051978   0.114026   8.221224   0.238362  -0.051308
     5  H    0.018959  -0.068389   0.024664   0.238362   0.420538   0.007181
     6  C   -0.006288  -0.730642  -0.030117  -0.051308   0.007181   8.990481
     7  O    0.000227   0.000888  -0.090665   0.005325  -0.000297   0.262625
     8  H    0.000002  -0.002085   0.012443  -0.000488   0.000013   0.070698
     9  C   -0.013314  -0.143853  -0.352862   0.007045  -0.001036   0.374390
    10  O   -0.034385  -0.002568   0.024894  -0.000215   0.000007  -0.013857
    11  H    0.002068  -0.007630  -0.002589   0.000001   0.000000   0.000979
    12  C   -0.114405  -0.225069  -0.443190   0.011671   0.009978   0.373192
    13  O    0.002333  -0.044514   0.002533  -0.001810  -0.000025   0.048389
    14  C    0.017166   0.349165   0.146044   0.000059   0.007497  -2.656393
    15  O    0.000100   0.001969  -0.026149   0.000264   0.000012  -0.022929
    16  C    0.000451  -0.038336   0.247363  -0.002164   0.000264  -0.543788
    17  C   -0.000203  -0.011365  -0.030747   0.000823   0.000006  -0.044451
    18  O    0.000008   0.002139  -0.000883  -0.000009   0.000000   0.002038
    19  H   -0.000034   0.000375   0.001169   0.000004   0.000000   0.002741
    20  C    0.000015   0.001043   0.007715   0.000040   0.000000  -0.116238
    21  O    0.000000  -0.000011  -0.000009   0.000000   0.000000   0.000809
    22  H    0.000000  -0.000001   0.000001   0.000000   0.000000  -0.000078
    23  C   -0.000077   0.014059  -0.007332   0.000319  -0.000034  -0.151348
    24  O    0.000004   0.000551  -0.018722   0.000029   0.000000   0.014499
    25  H    0.000000  -0.000185   0.001978  -0.000003   0.000000   0.000639
    26  C    0.000072  -0.060222  -0.004850  -0.000960   0.000067   0.250920
    27  O    0.000000   0.000004  -0.000078   0.000001   0.000000   0.002204
    28  C    0.000007  -0.000601   0.001289   0.000002   0.000000   0.007230
    29  O    0.000000   0.000004   0.000002   0.000000   0.000000  -0.000152
    30  H    0.000000   0.000000   0.000000   0.000000   0.000000   0.000005
    31  H    0.267063   0.009631  -0.010207   0.000577  -0.001962  -0.000829
    32  H   -0.000666  -0.019228   0.005832   0.000011   0.000000  -0.010933
    33  H    0.002556  -0.000648  -0.011818  -0.000010   0.000000   0.020599
    34  H    0.004960   0.051111  -0.025794   0.000374   0.000012  -0.040400
    35  H   -0.016355   0.373632  -0.073118   0.001671   0.000029  -0.010851
    36  H    0.001658   0.030897   0.238891  -0.023185  -0.002469  -0.149398
    37  H   -0.000042   0.024240  -0.121833   0.002584  -0.000137   0.429922
    38  H    0.000070  -0.052395  -0.020556   0.000129  -0.000001   0.022281
    39  H    0.000000   0.000034  -0.000249   0.000000   0.000000  -0.002292
    40  H    0.000000   0.000126   0.000238   0.000000   0.000000  -0.006225
    41  H    0.000000   0.000176  -0.000512   0.000000   0.000000  -0.005848
    42  H    0.000000  -0.001997  -0.002979   0.000014   0.000000  -0.000174
    43  H    0.000000   0.000513  -0.000228   0.000000   0.000000   0.005703
    44  H    0.000000   0.000046   0.000065   0.000000   0.000000   0.000474
    45  H    0.000000  -0.000001   0.000019   0.000000   0.000000   0.000085
              7          8          9         10         11         12
     1  O    0.000227   0.000002  -0.013314  -0.034385   0.002068  -0.114405
     2  C    0.000888  -0.002085  -0.143853  -0.002568  -0.007630  -0.225069
     3  C   -0.090665   0.012443  -0.352862   0.024894  -0.002589  -0.443190
     4  O    0.005325  -0.000488   0.007045  -0.000215   0.000001   0.011671
     5  H   -0.000297   0.000013  -0.001036   0.000007   0.000000   0.009978
     6  C    0.262625   0.070698   0.374390  -0.013857   0.000979   0.373192
     7  O    8.132997   0.250953   0.000398   0.000004   0.000000   0.015500
     8  H    0.250953   0.376527   0.000049   0.000000   0.000000  -0.001686
     9  C    0.000398   0.000049   6.959473   0.058954  -0.014368  -0.913556
    10  O    0.000004   0.000000   0.058954   8.290439   0.230029   0.055954
    11  H    0.000000   0.000000  -0.014368   0.230029   0.433330   0.026241
    12  C    0.015500  -0.001686  -0.913556   0.055954   0.026241   8.006020
    13  O    0.004464  -0.000619  -0.066283  -0.001395  -0.000408  -0.006335
    14  C   -0.043732  -0.081655  -0.696883   0.020133  -0.003066  -0.941921
    15  O    0.013020   0.002717   0.002679   0.000071  -0.000001  -0.008883
    16  C    0.006363   0.003320  -0.082139   0.000207  -0.000228  -0.063028
    17  C    0.004753  -0.000491   0.048522   0.000167  -0.000001  -0.086427
    18  O    0.000080  -0.000022  -0.004043  -0.000146   0.000000   0.010052
    19  H   -0.000107   0.000001  -0.000628   0.000017  -0.000001  -0.003701
    20  C    0.004272  -0.000562  -0.014390  -0.000107  -0.000005   0.035868
    21  O    0.000004   0.000000   0.000239  -0.000001   0.000000  -0.000670
    22  H    0.000000   0.000000  -0.000006   0.000000   0.000000   0.000037
    23  C    0.024160  -0.012633   0.000090   0.000004   0.000000   0.030482
    24  O   -0.055727   0.018092  -0.000409   0.000000   0.000000  -0.004329
    25  H    0.000794  -0.001992  -0.000009   0.000000   0.000000  -0.000180
    26  C   -0.027182   0.005411   0.015497  -0.000011  -0.000002   0.034974
    27  O    0.000176  -0.000022   0.000138   0.000000   0.000000   0.000211
    28  C   -0.000976   0.000402  -0.000300   0.000004   0.000000  -0.010904
    29  O    0.000001   0.000000  -0.000002   0.000000   0.000000   0.000075
    30  H    0.000000   0.000000   0.000000   0.000000   0.000000   0.000000
    31  H   -0.000013   0.000000  -0.000347   0.001071  -0.000050  -0.006922
    32  H   -0.000004   0.000000   0.394364  -0.026247  -0.008445  -0.021985
    33  H    0.000006   0.000000   0.636830  -0.057205  -0.001554  -0.270912
    34  H    0.000599   0.000000   0.042308   0.000726  -0.000198   0.073930
    35  H    0.000976   0.000002  -0.040236  -0.001379  -0.000011  -0.065481
    36  H    0.006405  -0.000048   0.016137  -0.000235   0.000000   0.038026
    37  H   -0.024940  -0.010106   0.016686   0.000015   0.000000   0.053323
    38  H   -0.000518  -0.000106   0.031395   0.000119   0.000000   0.100007
    39  H   -0.000535   0.000143  -0.000004   0.000000   0.000000  -0.000037
    40  H    0.001107   0.000102   0.000028   0.000000   0.000000   0.000718
    41  H    0.000079  -0.000020   0.000076   0.000000   0.000000   0.001366
    42  H   -0.001998   0.000023   0.000728   0.000001   0.000000   0.016528
    43  H   -0.000012   0.000000   0.000015   0.000000   0.000000   0.001366
    44  H    0.000004   0.000000  -0.000138   0.000000   0.000000   0.000526
    45  H    0.000003   0.000000  -0.000009   0.000000   0.000000  -0.000012
             13         14         15         16         17         18
     1  O    0.002333   0.017166   0.000100   0.000451  -0.000203   0.000008
     2  C   -0.044514   0.349165   0.001969  -0.038336  -0.011365   0.002139
     3  C    0.002533   0.146044  -0.026149   0.247363  -0.030747  -0.000883
     4  O   -0.001810   0.000059   0.000264  -0.002164   0.000823  -0.000009
     5  H   -0.000025   0.007497   0.000012   0.000264   0.000006   0.000000
     6  C    0.048389  -2.656393  -0.022929  -0.543788  -0.044451   0.002038
     7  O    0.004464  -0.043732   0.013020   0.006363   0.004753   0.000080
     8  H   -0.000619  -0.081655   0.002717   0.003320  -0.000491  -0.000022
     9  C   -0.066283  -0.696883   0.002679  -0.082139   0.048522  -0.004043
    10  O   -0.001395   0.020133   0.000071   0.000207   0.000167  -0.000146
    11  H   -0.000408  -0.003066  -0.000001  -0.000228  -0.000001   0.000000
    12  C   -0.006335  -0.941921  -0.008883  -0.063028  -0.086427   0.010052
    13  O    8.155213   0.250702   0.008994   0.012277   0.011194  -0.020817
    14  C    0.250702  10.120434   0.252064  -1.273155   0.724441  -0.014296
    15  O    0.008994   0.252064   8.034995   0.168697  -0.066739  -0.001870
    16  C    0.012277  -1.273155   0.168697  11.811500  -2.069758  -0.078487
    17  C    0.011194   0.724441  -0.066739  -2.069758   8.610473   0.204028
    18  O   -0.020817  -0.014296  -0.001870  -0.078487   0.204028   8.232529
    19  H    0.022038   0.010980   0.010316  -0.060191   0.031080   0.232273
    20  C   -0.012255  -0.487815   0.017426  -0.691752  -1.297441  -0.004595
    21  O   -0.000062   0.004942  -0.000710   0.095780   0.137754   0.004745
    22  H    0.000004  -0.000713   0.000000  -0.010391  -0.035854  -0.000218
    23  C    0.003426   0.159617   0.000761  -0.170387  -0.225669   0.010378
    24  O   -0.000061   0.060883  -0.013936   0.020846   0.006783   0.000064
    25  H   -0.000007  -0.008563   0.000963  -0.016501  -0.002304  -0.000001
    26  C   -0.018900  -0.787350  -0.032206  -2.521092  -0.150009   0.034412
    27  O    0.000034   0.008369   0.001007   0.108511  -0.078608  -0.002510
    28  C    0.000858  -0.004486  -0.003621   0.896277   0.022970  -0.013859
    29  O    0.000019   0.001004   0.000081  -0.024354  -0.006279   0.000092
    30  H    0.000000   0.000108   0.000001  -0.002152   0.007138  -0.000026
    31  H   -0.000552   0.000281  -0.000003   0.000246  -0.000039   0.000000
    32  H    0.001717   0.002724   0.000017   0.009697  -0.000209   0.000201
    33  H   -0.003815  -0.005659  -0.000173  -0.004896   0.001573  -0.000119
    34  H   -0.030811   0.163721   0.000137  -0.000122   0.008547  -0.000505
    35  H    0.004439   0.088202  -0.000320  -0.007841   0.002115   0.000010
    36  H    0.002302   0.085138   0.000072  -0.018344   0.004814   0.000049
    37  H    0.007025  -0.104301  -0.008477  -0.015341   0.006109   0.000087
    38  H   -0.041868   0.164992  -0.037496   0.008794   0.015140  -0.001183
    39  H    0.000005   0.010112   0.000346   0.011920   0.004160   0.000011
    40  H    0.000061   0.010820   0.001602   0.045393   0.005261   0.000038
    41  H    0.000126   0.052247   0.001266  -0.033570  -0.005086   0.000186
    42  H    0.002540  -0.001913  -0.041470   0.053395   0.029663  -0.001945
    43  H    0.000277   0.012362  -0.007307  -0.171104   0.396880  -0.030997
    44  H    0.000113  -0.011341  -0.000133   0.085987  -0.156428   0.007833
    45  H    0.000024  -0.001575   0.000617   0.039487   0.009396   0.000286
             19         20         21         22         23         24
     1  O   -0.000034   0.000015   0.000000   0.000000  -0.000077   0.000004
     2  C    0.000375   0.001043  -0.000011  -0.000001   0.014059   0.000551
     3  C    0.001169   0.007715  -0.000009   0.000001  -0.007332  -0.018722
     4  O    0.000004   0.000040   0.000000   0.000000   0.000319   0.000029
     5  H    0.000000   0.000000   0.000000   0.000000  -0.000034   0.000000
     6  C    0.002741  -0.116238   0.000809  -0.000078  -0.151348   0.014499
     7  O   -0.000107   0.004272   0.000004   0.000000   0.024160  -0.055727
     8  H    0.000001  -0.000562   0.000000   0.000000  -0.012633   0.018092
     9  C   -0.000628  -0.014390   0.000239  -0.000006   0.000090  -0.000409
    10  O    0.000017  -0.000107  -0.000001   0.000000   0.000004   0.000000
    11  H   -0.000001  -0.000005   0.000000   0.000000   0.000000   0.000000
    12  C   -0.003701   0.035868  -0.000670   0.000037   0.030482  -0.004329
    13  O    0.022038  -0.012255  -0.000062   0.000004   0.003426  -0.000061
    14  C    0.010980  -0.487815   0.004942  -0.000713   0.159617   0.060883
    15  O    0.010316   0.017426  -0.000710   0.000000   0.000761  -0.013936
    16  C   -0.060191  -0.691752   0.095780  -0.010391  -0.170387   0.020846
    17  C    0.031080  -1.297441   0.137754  -0.035854  -0.225669   0.006783
    18  O    0.232273  -0.004595   0.004745  -0.000218   0.010378   0.000064
    19  H    0.382164   0.016045  -0.000189   0.000021  -0.002834  -0.000009
    20  C    0.016045   7.848564  -0.192728   0.054954   0.168741  -0.006590
    21  O   -0.000189  -0.192728   8.282364   0.213360  -0.002007   0.000003
    22  H    0.000021   0.054954   0.213360   0.450510  -0.000038   0.000000
    23  C   -0.002834   0.168741  -0.002007  -0.000038   6.225253   0.011212
    24  O   -0.000009  -0.006590   0.000003   0.000000   0.011212   8.309669
    25  H    0.000000   0.001180   0.000000   0.000000  -0.021496   0.247889
    26  C   -0.012320   0.993660  -0.043614   0.002299  -0.579344   0.042124
    27  O   -0.000026  -0.091495   0.004770  -0.000888  -0.062366   0.002073
    28  C    0.004525  -0.621094   0.063894  -0.004895  -0.216719   0.009315
    29  O   -0.000004  -0.037380  -0.002132   0.008753   0.019421  -0.000014
    30  H    0.000000  -0.019875  -0.000871  -0.001156  -0.000959  -0.000002
    31  H    0.000000   0.000002   0.000000   0.000000   0.000002   0.000000
    32  H    0.000600   0.000663   0.000003   0.000000   0.000011   0.000000
    33  H   -0.000015  -0.000298   0.000000   0.000000  -0.000037   0.000000
    34  H   -0.000253   0.000111   0.000000   0.000000  -0.000354   0.000003
    35  H   -0.000011  -0.000004   0.000000   0.000000  -0.000020   0.000005
    36  H   -0.000001   0.000024   0.000000   0.000000   0.000390   0.000025
    37  H   -0.000010   0.000228   0.000000   0.000000   0.003101   0.000326
    38  H   -0.000536   0.012577  -0.000001   0.000000   0.003048  -0.000215
    39  H    0.000000  -0.006533   0.000000   0.000000   0.408202  -0.036161
    40  H    0.000000  -0.001684  -0.000002   0.000000   0.573475  -0.050853
    41  H    0.000013  -0.024241  -0.000381   0.000018   0.088816   0.001528
    42  H    0.000263   0.055575  -0.000518   0.000009   0.013409   0.000389
    43  H   -0.004636  -0.041388  -0.006610  -0.000090   0.018514  -0.000041
    44  H   -0.000140   0.321864  -0.019805  -0.004487   0.004107   0.000001
    45  H    0.000003  -0.145257   0.001836  -0.000675  -0.009587   0.000015
             25         26         27         28         29         30
     1  O    0.000000   0.000072   0.000000   0.000007   0.000000   0.000000
     2  C   -0.000185  -0.060222   0.000004  -0.000601   0.000004   0.000000
     3  C    0.001978  -0.004850  -0.000078   0.001289   0.000002   0.000000
     4  O   -0.000003  -0.000960   0.000001   0.000002   0.000000   0.000000
     5  H    0.000000   0.000067   0.000000   0.000000   0.000000   0.000000
     6  C    0.000639   0.250920   0.002204   0.007230  -0.000152   0.000005
     7  O    0.000794  -0.027182   0.000176  -0.000976   0.000001   0.000000
     8  H   -0.001992   0.005411  -0.000022   0.000402   0.000000   0.000000
     9  C   -0.000009   0.015497   0.000138  -0.000300  -0.000002   0.000000
    10  O    0.000000  -0.000011   0.000000   0.000004   0.000000   0.000000
    11  H    0.000000  -0.000002   0.000000   0.000000   0.000000   0.000000
    12  C   -0.000180   0.034974   0.000211  -0.010904   0.000075   0.000000
    13  O   -0.000007  -0.018900   0.000034   0.000858   0.000019   0.000000
    14  C   -0.008563  -0.787350   0.008369  -0.004486   0.001004   0.000108
    15  O    0.000963  -0.032206   0.001007  -0.003621   0.000081   0.000001
    16  C   -0.016501  -2.521092   0.108511   0.896277  -0.024354  -0.002152
    17  C   -0.002304  -0.150009  -0.078608   0.022970  -0.006279   0.007138
    18  O   -0.000001   0.034412  -0.002510  -0.013859   0.000092  -0.000026
    19  H    0.000000  -0.012320  -0.000026   0.004525  -0.000004   0.000000
    20  C    0.001180   0.993660  -0.091495  -0.621094  -0.037380  -0.019875
    21  O    0.000000  -0.043614   0.004770   0.063894  -0.002132  -0.000871
    22  H    0.000000   0.002299  -0.000888  -0.004895   0.008753  -0.001156
    23  C   -0.021496  -0.579344  -0.062366  -0.216719   0.019421  -0.000959
    24  O    0.247889   0.042124   0.002073   0.009315  -0.000014  -0.000002
    25  H    0.418487   0.040691  -0.000678  -0.001780  -0.000002   0.000000
    26  C    0.040691   9.910514   0.050599  -1.103276  -0.043617   0.005307
    27  O   -0.000678   0.050599   8.127301   0.247729  -0.022109   0.003012
    28  C   -0.001780  -1.103276   0.247729   5.932119   0.277295  -0.001546
    29  O   -0.000002  -0.043617  -0.022109   0.277295   8.137642   0.262388
    30  H    0.000000   0.005307   0.003012  -0.001546   0.262388   0.424544
    31  H    0.000000  -0.000005   0.000000   0.000000   0.000000   0.000000
    32  H    0.000000   0.000288   0.000000   0.000042   0.000000   0.000000
    33  H    0.000000  -0.000015   0.000000   0.000016   0.000000   0.000000
    34  H    0.000000  -0.001129   0.000001   0.000189   0.000000   0.000000
    35  H    0.000000  -0.000401   0.000000   0.000004   0.000000   0.000000
    36  H    0.000000  -0.003079   0.000000  -0.000005   0.000000   0.000000
    37  H   -0.000001  -0.009635   0.000012  -0.000103   0.000000   0.000000
    38  H    0.000007   0.032326   0.000614  -0.001605  -0.000004   0.000000
    39  H   -0.006317  -0.058715  -0.003041   0.006055   0.000084  -0.000002
    40  H   -0.004188  -0.273873   0.001718   0.005687  -0.000014   0.000000
    41  H   -0.000231   0.135538  -0.021014   0.052911   0.000918  -0.000019
    42  H   -0.000019   0.134867   0.003257  -0.009997  -0.000184   0.000001
    43  H    0.000000   0.107685   0.001174  -0.042673   0.000267   0.000013
    44  H    0.000000   0.005239   0.002688   0.031996  -0.001063  -0.000053
    45  H    0.000000  -0.037443  -0.036242   0.473029  -0.027530  -0.009623
             31         32         33         34         35         36
     1  O    0.267063  -0.000666   0.002556   0.004960  -0.016355   0.001658
     2  C    0.009631  -0.019228  -0.000648   0.051111   0.373632   0.030897
     3  C   -0.010207   0.005832  -0.011818  -0.025794  -0.073118   0.238891
     4  O    0.000577   0.000011  -0.000010   0.000374   0.001671  -0.023185
     5  H   -0.001962   0.000000   0.000000   0.000012   0.000029  -0.002469
     6  C   -0.000829  -0.010933   0.020599  -0.040400  -0.010851  -0.149398
     7  O   -0.000013  -0.000004   0.000006   0.000599   0.000976   0.006405
     8  H    0.000000   0.000000   0.000000   0.000000   0.000002  -0.000048
     9  C   -0.000347   0.394364   0.636830   0.042308  -0.040236   0.016137
    10  O    0.001071  -0.026247  -0.057205   0.000726  -0.001379  -0.000235
    11  H   -0.000050  -0.008445  -0.001554  -0.000198  -0.000011   0.000000
    12  C   -0.006922  -0.021985  -0.270912   0.073930  -0.065481   0.038026
    13  O   -0.000552   0.001717  -0.003815  -0.030811   0.004439   0.002302
    14  C    0.000281   0.002724  -0.005659   0.163721   0.088202   0.085138
    15  O   -0.000003   0.000017  -0.000173   0.000137  -0.000320   0.000072
    16  C    0.000246   0.009697  -0.004896  -0.000122  -0.007841  -0.018344
    17  C   -0.000039  -0.000209   0.001573   0.008547   0.002115   0.004814
    18  O    0.000000   0.000201  -0.000119  -0.000505   0.000010   0.000049
    19  H    0.000000   0.000600  -0.000015  -0.000253  -0.000011  -0.000001
    20  C    0.000002   0.000663  -0.000298   0.000111  -0.000004   0.000024
    21  O    0.000000   0.000003   0.000000   0.000000   0.000000   0.000000
    22  H    0.000000   0.000000   0.000000   0.000000   0.000000   0.000000
    23  C    0.000002   0.000011  -0.000037  -0.000354  -0.000020   0.000390
    24  O    0.000000   0.000000   0.000000   0.000003   0.000005   0.000025
    25  H    0.000000   0.000000   0.000000   0.000000   0.000000   0.000000
    26  C   -0.000005   0.000288  -0.000015  -0.001129  -0.000401  -0.003079
    27  O    0.000000   0.000000   0.000000   0.000001   0.000000   0.000000
    28  C    0.000000   0.000042   0.000016   0.000189   0.000004  -0.000005
    29  O    0.000000   0.000000   0.000000   0.000000   0.000000   0.000000
    30  H    0.000000   0.000000   0.000000   0.000000   0.000000   0.000000
    31  H    0.410766   0.000024  -0.000258  -0.000227  -0.014432  -0.000221
    32  H    0.000024   0.579073  -0.048516  -0.006799  -0.000013   0.000005
    33  H   -0.000258  -0.048516   0.593019   0.006485   0.002574  -0.000002
    34  H   -0.000227  -0.006799   0.006485   0.623609   0.006663   0.003364
    35  H   -0.014432  -0.000013   0.002574   0.006663   0.625970   0.007019
    36  H   -0.000221   0.000005  -0.000002   0.003364   0.007019   0.635672
    37  H    0.000016   0.000001  -0.000015  -0.000051   0.002600   0.007019
    38  H    0.000004   0.000005  -0.000023   0.004736   0.000037   0.002451
    39  H    0.000000   0.000000   0.000000   0.000000   0.000000   0.000000
    40  H    0.000000   0.000000   0.000000   0.000000   0.000000   0.000000
    41  H    0.000000   0.000000   0.000000   0.000000   0.000000   0.000000
    42  H    0.000000   0.000000   0.000000  -0.000024   0.000000  -0.000001
    43  H    0.000000   0.000000   0.000000  -0.000003   0.000000   0.000000
    44  H    0.000000   0.000000   0.000000   0.000000   0.000000   0.000000
    45  H    0.000000   0.000000   0.000000   0.000000   0.000000   0.000000
             37         38         39         40         41         42
     1  O   -0.000042   0.000070   0.000000   0.000000   0.000000   0.000000
     2  C    0.024240  -0.052395   0.000034   0.000126   0.000176  -0.001997
     3  C   -0.121833  -0.020556  -0.000249   0.000238  -0.000512  -0.002979
     4  O    0.002584   0.000129   0.000000   0.000000   0.000000   0.000014
     5  H   -0.000137  -0.000001   0.000000   0.000000   0.000000   0.000000
     6  C    0.429922   0.022281  -0.002292  -0.006225  -0.005848  -0.000174
     7  O   -0.024940  -0.000518  -0.000535   0.001107   0.000079  -0.001998
     8  H   -0.010106  -0.000106   0.000143   0.000102  -0.000020   0.000023
     9  C    0.016686   0.031395  -0.000004   0.000028   0.000076   0.000728
    10  O    0.000015   0.000119   0.000000   0.000000   0.000000   0.000001
    11  H    0.000000   0.000000   0.000000   0.000000   0.000000   0.000000
    12  C    0.053323   0.100007  -0.000037   0.000718   0.001366   0.016528
    13  O    0.007025  -0.041868   0.000005   0.000061   0.000126   0.002540
    14  C   -0.104301   0.164992   0.010112   0.010820   0.052247  -0.001913
    15  O   -0.008477  -0.037496   0.000346   0.001602   0.001266  -0.041470
    16  C   -0.015341   0.008794   0.011920   0.045393  -0.033570   0.053395
    17  C    0.006109   0.015140   0.004160   0.005261  -0.005086   0.029663
    18  O    0.000087  -0.001183   0.000011   0.000038   0.000186  -0.001945
    19  H   -0.000010  -0.000536   0.000000   0.000000   0.000013   0.000263
    20  C    0.000228   0.012577  -0.006533  -0.001684  -0.024241   0.055575
    21  O    0.000000  -0.000001   0.000000  -0.000002  -0.000381  -0.000518
    22  H    0.000000   0.000000   0.000000   0.000000   0.000018   0.000009
    23  C    0.003101   0.003048   0.408202   0.573475   0.088816   0.013409
    24  O    0.000326  -0.000215  -0.036161  -0.050853   0.001528   0.000389
    25  H   -0.000001   0.000007  -0.006317  -0.004188  -0.000231  -0.000019
    26  C   -0.009635   0.032326  -0.058715  -0.273873   0.135538   0.134867
    27  O    0.000012   0.000614  -0.003041   0.001718  -0.021014   0.003257
    28  C   -0.000103  -0.001605   0.006055   0.005687   0.052911  -0.009997
    29  O    0.000000  -0.000004   0.000084  -0.000014   0.000918  -0.000184
    30  H    0.000000   0.000000  -0.000002   0.000000  -0.000019   0.000001
    31  H    0.000016   0.000004   0.000000   0.000000   0.000000   0.000000
    32  H    0.000001   0.000005   0.000000   0.000000   0.000000   0.000000
    33  H   -0.000015  -0.000023   0.000000   0.000000   0.000000   0.000000
    34  H   -0.000051   0.004736   0.000000   0.000000   0.000000  -0.000024
    35  H    0.002600   0.000037   0.000000   0.000000   0.000000   0.000000
    36  H    0.007019   0.002451   0.000000   0.000000   0.000000  -0.000001
    37  H    0.609321   0.006402   0.000000   0.000001   0.000000  -0.000019
    38  H    0.006402   0.643113  -0.000001   0.000003  -0.000004   0.011377
    39  H    0.000000  -0.000001   0.578763  -0.046025  -0.006722  -0.000033
    40  H    0.000001   0.000003  -0.046025   0.571131   0.006312   0.002226
    41  H    0.000000  -0.000004  -0.006722   0.006312   0.629071   0.006260
    42  H   -0.000019   0.011377  -0.000033   0.002226   0.006260   0.611494
    43  H   -0.000002  -0.000029   0.000003  -0.000005   0.003135   0.006651
    44  H    0.000000  -0.000007   0.000001  -0.000006  -0.000064   0.000341
    45  H    0.000000   0.000000   0.000032  -0.000017   0.004623  -0.000071
             43         44         45
     1  O    0.000000   0.000000   0.000000
     2  C    0.000513   0.000046  -0.000001
     3  C   -0.000228   0.000065   0.000019
     4  O    0.000000   0.000000   0.000000
     5  H    0.000000   0.000000   0.000000
     6  C    0.005703   0.000474   0.000085
     7  O   -0.000012   0.000004   0.000003
     8  H    0.000000   0.000000   0.000000
     9  C    0.000015  -0.000138  -0.000009
    10  O    0.000000   0.000000   0.000000
    11  H    0.000000   0.000000   0.000000
    12  C    0.001366   0.000526  -0.000012
    13  O    0.000277   0.000113   0.000024
    14  C    0.012362  -0.011341  -0.001575
    15  O   -0.007307  -0.000133   0.000617
    16  C   -0.171104   0.085987   0.039487
    17  C    0.396880  -0.156428   0.009396
    18  O   -0.030997   0.007833   0.000286
    19  H   -0.004636  -0.000140   0.000003
    20  C   -0.041388   0.321864  -0.145257
    21  O   -0.006610  -0.019805   0.001836
    22  H   -0.000090  -0.004487  -0.000675
    23  C    0.018514   0.004107  -0.009587
    24  O   -0.000041   0.000001   0.000015
[...]
 00726,-0.00000635,0.00000066,0.00000633,-0.00011749,0.00009862,0.00013
 772,0.00067633,-0.00019044,0.00006322,-0.00113013,-0.00027854,-0.00676
 277,-0.02514487,-0.00023966,0.00884060,-0.32485267,0.02954455,-0.08141
 517,-0.00516074,0.00088116,-0.00385295,0.00133261,-0.00002736,0.001014
 09,-0.00037364,0.00007689,-0.00003562,-0.00055464,0.00044516,0.0003570
 0,0.00025014,0.00003333,-0.00019400,-0.00002268,0.00008248,-0.00006525
 ,0.00032861,0.00024933,0.00021070,0.00016525,0.00002304,0.00000995,0.0
 0001149,-0.00003339,-0.00002550,-0.00792537,0.00091338,-0.00249757,0.0
 0220681,0.00047443,0.00040177,-0.00000891,0.00006442,-0.00005000,0.000
 07493,-0.00001444,-0.00001659,-0.00001055,-0.00000725,0.00000766,-0.00
 000342,-0.00000072,0.00000115,-0.00000610,0.00000692,-0.00000295,0.000
 01026,-0.00000408,-0.00001182,0.00005594,0.00002391,0.00002392,0.00001
 067,0.00000470,-0.00001159,0.00003966,0.00000682,0.00002419,0.00004960
 ,0.00026848,-0.00033295,0.00287205,0.00054279,0.00112926,0.00020879,0.
 00000186,0.00005360,0.00026010,-0.00080242,-0.00010444,0.00041269,-0.0
 0061116,-0.00033617,0.35437859,0.00000612,-0.00003004,0.00002589,-0.00
 001933,0.00005257,-0.00002944,0.00001826,0.00003214,-0.00001726,0.0000
 0012,-0.00004164,-0.00000862,-0.00000502,0.00001255,-0.00000252,-0.000
 24977,0.00021504,0.00008638,0.00011271,-0.00020969,-0.00033523,-0.0000
 6863,0.00004707,0.00000166,0.00000695,-0.00002678,-0.00001506,-0.00000
 635,0.00002499,0.00003424,0.00000652,-0.00000446,-0.00000394,0.0000192
 1,0.00002073,-0.00008208,0.00008795,-0.00002124,0.00027250,-0.00016751
 ,0.00130320,-0.00082170,-0.00740997,0.00083427,0.00139064,0.03165750,-
 0.04800236,0.00776626,0.03367794,-0.00439660,0.01152808,-0.00244945,0.
 00398074,-0.00065306,0.00043832,-0.00032962,-0.00025984,0.00067218,0.0
 0071290,-0.00092846,-0.00032747,-0.00038201,0.00030679,-0.00022008,-0.
 00013424,0.00016411,-0.00098338,0.00157248,0.00071831,0.00023184,-0.00
 006865,0.00001151,-0.00003217,-0.00005341,0.00001016,-0.02489274,0.002
 03898,-0.01012608,0.00060696,0.00049171,0.00236206,0.00013664,-0.00050
 626,0.00015964,0.00004670,0.00012719,0.00008556,-0.00002525,-0.0000081
 3,0.00001765,0.00000134,0.00000088,-0.00000487,0.00000769,-0.00001696,
 0.00000097,-0.00001003,0.00000069,0.00000831,-0.00002322,0.00001653,-0
 .00000989,-0.00000145,-0.00000899,0.00000546,-0.00000062,0.00000966,0.
 00000940,0.00004418,-0.00006032,-0.00000868,0.00018260,0.00064999,-0.0
 0028356,0.00033947,0.00020943,0.00012552,0.00073459,-0.00020116,0.0000
 9768,-0.00078845,-0.00246503,-0.00377310,-0.03199921,0.05035735,-0.000
 00505,-0.00000219,-0.00001428,0.00000472,-0.00000978,0.00000252,0.0000
 3820,0.00005573,-0.00000727,-0.00002987,-0.00000130,0.00000305,-0.0000
 0525,0.00000041,-0.00000341,0.00022345,0.00003504,-0.00037328,-0.00013
 546,0.00005306,0.00007548,0.00000690,-0.00017133,0.00002964,-0.0000522
 3,0.00002222,-0.00001728,0.00000500,-0.00002022,-0.00000093,-0.0000010
 4,-0.00000061,-0.00000553,-0.00002051,-0.00005593,-0.00010177,-0.00098
 710,-0.00027731,-0.00017739,0.01001533,0.00065127,0.00134318,0.0321131
 0,-0.00055301,-0.00966384,-0.09026308,0.00813500,-0.06494932,-0.013766
 46,0.00050585,-0.00200429,0.00159077,-0.00025410,0.00105096,0.00015175
 ,0.00013752,-0.00008176,-0.00043413,-0.00033198,0.00032450,0.00027137,
 0.00005229,-0.00000169,0.00006754,-0.00001859,-0.00003574,0.00007258,0
 .00106274,0.00083098,0.00013541,-0.00014658,0.00005329,-0.00004227,-0.
 00000878,0.00003849,-0.02306233,0.00163908,-0.00743918,0.00036128,0.00
 020538,0.00197597,-0.00046266,0.00051567,-0.00028801,0.00007900,-0.000
 03856,-0.00014227,0.00000707,-0.00001011,0.00001852,-0.00000015,0.0000
 0235,0.00000108,-0.00000277,-0.00000568,-0.00000154,0.00000100,0.00001
 393,0.00000497,-0.00004710,-0.00003035,-0.00007445,-0.00000604,0.00000
 464,0.00001377,-0.00004804,-0.00000522,-0.00004077,-0.00019128,-0.0000
 6204,0.00000697,-0.00029047,-0.00009294,-0.00180473,0.00020089,0.00014
 875,0.00005793,0.00051907,-0.00052067,0.00019666,-0.00044327,-0.002603
 53,-0.00319421,0.08399168,-0.01047730,0.08492394,-0.00000294,0.0000322
 0,-0.00003793,0.00000010,-0.00003877,0.00002845,-0.00002777,-0.0000780
 9,0.00001231,0.00001699,0.00005344,0.00000522,-0.00000124,-0.00001857,
 0.00000844,0.00012903,0.00000273,0.00006923,0.00004252,0.00009486,0.00
 006757,-0.00003591,-0.00000782,-0.00007387,-0.00001745,-0.00004080,0.0
 0013202,0.00000374,-0.00001093,-0.00009944,-0.00001223,0.00001196,0.00
 002591,-0.00001537,0.00001795,0.00007084,-0.00001197,0.00048650,-0.000
 18721,0.00011005,-0.00069639,-0.00040682,0.00218636,-0.00101961,0.0009
 3472,-0.01110967,0.00298799,-0.00031020,-0.34540741,0.02458188,-0.0265
 1868,-0.00627462,-0.01014587,-0.01179438,0.00011226,-0.00082629,0.0007
 2537,-0.01840311,0.00150144,0.00192977,0.00214418,0.00161813,-0.002155
 56,0.00074231,0.00033709,-0.00048425,0.00052728,0.00019839,0.00025995,
 0.00000796,-0.00005445,0.00005985,-0.00000478,0.00000507,-0.00001518,-
 0.00054608,-0.00062762,-0.00069497,0.00050911,0.00039248,0.00012542,-0
 .00129249,-0.00112276,-0.00090538,0.00058258,0.00011760,0.00030216,-0.
 00004741,0.00007847,0.00015166,-0.00000531,-0.00000576,0.00000991,0.00
 001170,0.00006180,-0.00000756,0.00001291,0.00000503,-0.00001538,0.0000
 2736,-0.00002310,0.00002198,0.00000426,0.00000456,-0.00000927,0.000012
 59,0.00000057,0.00000045,-0.00000083,0.00002471,-0.00002945,0.00008256
 ,0.00000072,0.00030733,-0.00001980,0.00011665,0.00000308,0.00004324,-0
 .00027252,-0.00000666,0.00082099,0.00063522,0.00074851,0.00060870,0.00
 104696,-0.00006490,0.37383714,-0.00001020,0.00002618,-0.00005109,0.000
 00201,-0.00003851,0.00003472,0.00003657,0.00002720,-0.00001329,-0.0000
 2060,0.00004044,-0.00003475,0.00000489,-0.00000831,-0.00000135,-0.0001
 3962,-0.00015062,-0.00019276,-0.00007062,0.00003772,0.00014076,0.00003
 355,-0.00001064,-0.00002765,-0.00002036,-0.00002801,0.00012777,0.00000
 234,-0.00002656,-0.00009700,-0.00001330,0.00001290,0.00001936,0.000051
 25,0.00003980,0.00006812,-0.00004901,0.00042680,-0.00017940,0.00043039
 ,0.00014839,0.00010332,-0.00059725,0.00207552,-0.00227435,0.03510564,-
 0.00992246,0.00613274,0.02668816,-0.03792793,0.00594441,-0.03269124,-0
 .01221284,-0.01961747,-0.00053826,0.00027078,0.00123269,-0.00777345,0.
 00147179,0.00176673,-0.00123206,-0.00023755,0.00072008,-0.00001132,-0.
 00010702,-0.00020264,-0.00014952,-0.00003528,-0.00004126,-0.00005754,-
 0.00001087,0.00003354,0.00000473,0.00001578,0.00000049,0.00206442,0.00
 216305,0.00131524,-0.00031078,-0.00048815,-0.00052735,0.00050938,-0.00
 030166,-0.00008511,0.00005204,-0.00000190,0.00020277,-0.00000156,0.000
 07826,0.00003965,-0.00000466,-0.00000142,0.00000933,-0.00000542,0.0000
 6494,-0.00000022,0.00001620,0.00001496,-0.00002574,0.00001326,-0.00003
 537,0.00001660,-0.00000181,0.00000500,-0.00000649,-0.00000827,-0.00000
 251,-0.00000539,-0.00001611,-0.00002399,0.00004325,-0.00032553,-0.0000
 7964,-0.00010109,-0.00007831,-0.00005434,0.00000727,-0.00017180,0.0001
 6099,-0.00002923,-0.00069766,-0.00039006,-0.00052895,0.00032371,-0.005
 45468,0.00232487,-0.01985450,0.06052928,0.00000283,0.00001429,-0.00000
 876,0.00000522,-0.00000989,0.00001722,-0.00001536,-0.00004997,-0.00000
 114,0.00001522,0.00002259,0.00001082,-0.00000085,-0.00000932,0.0000063
 2,0.00002009,0.00003982,0.00010798,0.00004251,0.00002452,-0.00002865,-
 0.00002900,0.00001689,-0.00000339,-0.00003448,-0.00005510,0.00009981,0
 .00002401,0.00000685,-0.00006006,-0.00001451,0.00000532,0.00002003,-0.
 00005578,-0.00001361,0.00003405,0.00024345,0.00031901,-0.00017032,-0.0
 0051408,-0.00034580,-0.00065745,-0.00058598,-0.00094449,0.00136570,-0.
 01398951,0.00623875,-0.00070350,-0.02596356,0.00632873,-0.04244679,-0.
 02944450,-0.01618657,-0.01371825,-0.00136549,-0.00021297,0.00092872,0.
 03414894,0.00062659,-0.00208625,0.00029815,-0.00105133,0.00112871,0.00
 005621,-0.00025177,0.00046811,0.00013147,0.00012318,0.00012036,0.00001
 627,-0.00002567,-0.00000024,0.00000061,-0.00001087,-0.00000509,0.00056
 431,-0.00079125,-0.00028617,-0.00016606,-0.00047471,-0.00042521,0.0010
 4714,0.00072662,0.00144308,-0.00046661,-0.00002713,-0.00020588,-0.0000
 2497,-0.00011881,-0.00007992,-0.00000394,-0.00000404,0.00000423,-0.000
 00630,0.00005465,-0.00000093,0.00002422,0.00000876,-0.00003275,0.00004
 187,-0.00002187,0.00003589,0.00000676,0.00000499,-0.00001474,0.0000113
 7,0.00000037,0.00000606,0.00001595,0.00002862,-0.00002911,0.00023532,-
 0.00000245,0.00002621,0.00003041,0.00007986,0.00000093,0.00003257,-0.0
 0009615,-0.00003257,0.00024957,-0.00012691,0.00041842,-0.00044336,0.00
 212880,-0.00049951,0.03507171,0.00266307,0.06058766,0.00000271,0.00000
 164,-0.00000638,0.00000098,-0.00000480,0.00000479,-0.00001632,-0.00002
 195,0.00000565,0.00001069,0.00000744,0.00000005,-0.00000259,-0.0000024
 4,0.00000333,0.00002533,0.00002168,0.00003401,0.00001540,0.00000183,-0
 .00000140,-0.00000725,0.00000500,-0.00000175,-0.00001020,-0.00000327,0
 .00001336,0.00001365,-0.00000020,-0.00000918,-0.00000772,0.00000137,0.
 00000417,-0.00002830,0.00000760,0.00000603,0.00002581,0.00004750,-0.00
 004070,-0.00013858,-0.00011353,-0.00007311,0.00027846,-0.00025263,0.00
 033895,-0.00073816,0.00078304,0.00016653,-0.01111786,-0.00454563,0.000
 05036,0.00151636,0.00042000,-0.00064766,0.00025883,-0.00000571,-0.0000
 5151,-0.33535100,-0.08241843,-0.01359904,-0.01797893,0.00872126,-0.005
 58616,-0.00006806,0.00018696,0.00039655,0.00001552,-0.00001878,-0.0000
 0547,0.00003016,0.00002304,-0.00000904,-0.00000687,-0.00000475,-0.0000
 0591,0.00000646,0.00012839,-0.00005102,0.00114997,-0.00139408,0.000225
 46,-0.00490591,-0.00050217,0.00109738,0.00119136,0.00015827,-0.0002341
 5,0.00020277,0.00023490,0.00020823,-0.00000186,0.00000032,0.00000195,-
 0.00000559,0.00000649,-0.00000121,0.00000787,0.00000117,-0.00000663,0.
 00001136,-0.00000586,0.00000444,0.00000369,0.00000137,-0.00000430,0.00
 000731,0.00000063,0.00000102,0.00000471,0.00000756,-0.00000874,0.00003
 117,-0.00000346,0.00002761,0.00000018,-0.00000685,0.00001237,0.0000129
 9,-0.00002836,0.00000741,0.00007952,0.00009341,-0.00000089,0.00030649,
 -0.00039458,0.00021058,0.00002315,-0.00053738,0.00113374,0.36463430,0.
 00000405,-0.00000227,0.00001944,0.00000266,0.00000163,-0.00001404,-0.0
 0001539,0.00000070,-0.00000788,0.00000647,-0.00000976,0.00001423,-0.00
 000220,0.00000214,-0.00000101,0.00000842,0.00001814,0.00000563,0.00001
 424,-0.00000859,0.00001329,-0.00000494,0.00000295,-0.00002189,0.000002
 73,0.00000021,-0.00002308,0.00000254,0.00000933,0.00002317,0.00000294,
 -0.00000261,-0.00000531,-0.00002859,-0.00000597,-0.00002590,0.00002410
 ,-0.00002064,0.00006034,-0.00005932,0.00000419,-0.00006550,0.00022257,
 -0.00002103,0.00015943,-0.00038509,0.00031420,-0.00054615,-0.00848876,
 -0.00031822,-0.00177284,0.00121690,0.00052397,0.00006906,0.00002145,-0
 .00012099,-0.00011748,-0.08499912,-0.06385383,-0.00499895,0.03753728,-
 0.00360212,0.00585026,0.00031004,0.00118708,-0.00070956,0.00001895,0.0
 0009800,-0.00008827,0.00000673,-0.00002289,0.00002240,-0.00000758,0.00
 000794,-0.00000590,-0.00017308,0.00009657,0.00005843,0.00157220,0.0014
 7385,0.00048194,-0.02801558,-0.00582464,-0.00125517,0.00185022,0.00165
 164,0.00171514,0.00009455,0.00012872,0.00043734,0.00000158,0.00000033,
 -0.00000335,-0.00000017,-0.00000816,0.00000143,-0.00000070,-0.00000291
 ,0.00000286,0.00000384,0.00000344,0.00000132,0.00000152,-0.00000067,-0
 .00000010,0.00000250,0.00000097,0.00000160,0.00000122,0.00000127,-0.00
 000265,0.00001581,0.00000398,0.00002047,0.00000194,-0.00002508,0.00000
 156,0.00001856,-0.00005282,0.00001671,0.00022966,0.00009566,-0.0000262
 8,0.00010374,-0.00015357,0.00016996,-0.00008706,-0.00020961,0.00165459
 ,0.07935349,0.07203386,-0.00000285,-0.00001351,-0.00000703,-0.00000299
 ,0.00001602,0.00000481,0.00002688,0.00004167,0.00001272,-0.00001274,-0
 .00000935,-0.00002822,0.00000079,0.00000804,-0.00000369,-0.00005931,-0
 .00006193,-0.00007312,-0.00001094,0.00000878,-0.00001213,0.00000044,-0
 .00002464,0.00000079,0.00000742,0.00002563,-0.00003122,-0.00001075,-0.
 00001330,0.00001654,0.00000577,-0.00000140,-0.00001016,0.00004619,-0.0
 0000080,0.00001321,-0.00002921,-0.00020674,0.00002048,0.00018535,0.000
 35225,0.00029321,-0.00053099,0.00035557,-0.00094572,0.00061953,-0.0014
 3877,0.00079471,0.03209426,0.00861101,0.00155194,-0.00224735,-0.000047
 07,0.00330281,-0.00017783,0.00025719,0.00019528,-0.01189696,-0.0056226
 1,-0.04495035,-0.01363407,0.00380547,0.00043322,-0.00098986,-0.0005199
 9,0.00018157,0.00008331,-0.00000075,0.00003257,-0.00001855,-0.00000339
 ,0.00002987,-0.00000649,0.00000035,-0.00000019,0.00038405,0.00025899,-
 0.00047350,0.00134408,0.00009503,0.00039574,-0.02301011,-0.00849086,-0
 .00201782,0.00067127,0.00152962,0.00249510,-0.00003417,0.00022812,0.00
 041538,-0.00000008,0.00000320,-0.00000087,0.00000005,-0.00001604,0.000
 00370,-0.00000603,-0.00000134,0.00000672,-0.00001390,0.00000929,-0.000
 01002,-0.00000257,-0.00000218,0.00000441,-0.00000603,-0.00000003,-0.00
 000230,-0.00000153,-0.00000883,0.00000895,-0.00004247,0.00000451,-0.00
 004484,-0.00000930,0.00004243,0.00000978,-0.00001177,0.00000815,-0.000
 00132,-0.00004057,0.00000195,-0.00014224,-0.00030092,0.00046998,-0.000
 18056,0.00220680,0.00114874,-0.00506352,0.01632245,0.00202745,0.046240
 94,0.00000098,-0.00000434,-0.00001602,-0.00000294,0.00000433,0.0000113
 1,-0.00000344,-0.00000319,0.00001429,0.00000527,0.00000583,-0.00001911
 ,-0.00000231,0.00000066,0.00000299,-0.00002006,-0.00000360,0.00000372,
 0.00001122,0.00000345,-0.00002681,-0.00000987,-0.00000564,0.00001644,-
 0.00000760,0.00000871,0.00000533,0.00000580,-0.00000913,-0.00000890,-0
 .00000420,0.00000140,0.00000137,0.00000093,-0.00000024,0.00001578,0.00
 000913,-0.00003156,-0.00005390,0.00003710,0.00003614,0.00008037,0.0001
 0980,-0.00003588,-0.00032255,0.00007611,0.00022758,0.00009011,-0.00066
 706,-0.00019031,0.00037920,0.00039619,0.00001536,0.00001200,-0.0000281
 3,-0.00003148,-0.00006405,-0.00802224,0.00093902,-0.00268608,0.0026830
 4,0.00040608,0.00177976,-0.00040829,-0.00046193,-0.00001225,0.00097622
 ,-0.00033620,0.00016961,0.00005371,0.00023567,-0.00009056,-0.00000905,
 0.00000314,-0.00004001,0.00047420,-0.00158246,0.00260130,-0.01111879,0
 .00996447,-0.00792973,-0.33686595,-0.03546428,-0.06274692,-0.01570398,
 -0.00366545,0.00729234,0.00064539,0.00014749,0.00070141,-0.00000288,0.
 00000129,0.00000327,-0.00000246,0.00000133,-0.00000019,0.00000420,-0.0
 0000012,-0.00000310,0.00000386,-0.00000151,-0.00000152,0.00000294,0.00
 000001,-0.00000259,0.00000470,0.00000065,0.00000024,0.00000530,-0.0000
 0039,-0.00000321,0.00000441,0.00000017,0.00000492,-0.00005656,0.000028
 54,-0.00002115,0.00004978,-0.00040746,0.00010494,0.00151485,0.00012296
 ,-0.00068423,0.00001164,-0.00000807,0.00029476,0.00063732,0.00004960,-
 0.00034557,0.00051796,-0.00038532,-0.00088830,0.36469374,0.00000185,0.
 00001146,0.00000474,-0.00000017,-0.00001338,-0.00000094,-0.00000326,-0
 .00000026,-0.00000751,0.00000079,0.00000743,0.00000894,0.00000015,-0.0
 0000323,-0.00000133,0.00001107,-0.00003387,-0.00001953,0.00000020,0.00
 003679,0.00005630,-0.00000409,-0.00000982,-0.00005592,-0.00000300,-0.0
 0001420,0.00001665,0.00000533,0.00000770,-0.00000890,-0.00000381,0.000
 00030,0.00000503,-0.00000973,0.00001075,0.00000492,0.00001758,0.000108
 78,0.00000149,-0.00008624,-0.00005203,-0.00009877,-0.00000782,0.000292
 40,0.00027345,-0.00041655,-0.00041322,0.00000312,-0.00113553,-0.000029
 30,0.00115031,0.00051556,-0.00000861,-0.00042197,0.00009671,-0.0001145
 8,0.00003378,-0.02590530,-0.00313985,-0.00837169,0.00046902,0.00319994
 ,0.00093568,-0.00049917,-0.00055562,0.00007902,0.00049897,-0.00001245,
 -0.00011370,-0.00025108,-0.00009615,0.00011569,0.00001936,0.00003918,0
 .00000044,0.00589006,0.00093417,-0.00276757,0.03304336,-0.01132257,0.0
 1870879,-0.03774116,-0.04655624,-0.01054309,-0.00341357,0.00373317,0.0
 0194217,-0.00050730,0.00047695,-0.00015042,-0.00000009,-0.00000207,-0.
 00000041,0.00000147,0.00000894,-0.00000170,0.00000204,0.00000148,-0.00
 000169,0.00000292,-0.00000490,0.00000365,0.00000024,0.00000076,-0.0000
 0116,0.00000047,-0.00000126,0.,-0.00000252,0.00000463,0.00000039,0.000
 00729,-0.00000625,-0.00000642,-0.00000240,-0.00006273,-0.00002238,-0.0
 0027467,-0.00002178,-0.00001791,-0.00119798,0.00028822,0.00010547,-0.0
 0011070,-0.00013525,-0.00003761,0.00051651,0.00015015,-0.00028620,0.00
 005049,-0.00339440,-0.00282590,0.03042467,0.05669082,-0.00000206,-0.00
 000188,-0.00002159,-0.00000083,0.00000220,0.00001631,0.00000338,-0.000
 00599,0.00001436,0.00000085,0.00001021,-0.00002007,-0.00000004,-0.0000
 0108,0.00000296,-0.00001532,-0.00000778,0.00000230,0.00000526,0.000003
 73,-0.00002616,-0.00000641,-0.00000097,0.00002302,-0.00000320,0.000007
 10,0.00001702,-0.00000020,-0.00001195,-0.00001804,-0.00000211,0.000002
 92,0.00000349,0.00000752,0.00000643,0.00002211,-0.00000074,-0.00000566
 ,-0.00006212,0.00003835,0.00001288,0.00005861,0.00010174,0.00003673,-0
 .00028847,0.00025013,-0.00031991,-0.00013433,-0.00124536,0.00040620,0.
 00115242,0.00047959,-0.00000895,-0.00004719,0.00004727,0.00000187,0.00
 002252,-0.02384672,-0.00482369,-0.00259213,0.00173968,0.00179764,0.001
 29788,0.00014124,-0.00024096,-0.00000745,-0.00000134,0.00010660,-0.000
 10733,0.00010420,0.00016043,-0.00011406,-0.00000698,-0.00001280,-0.000
 02539,-0.00485107,0.00100624,0.00184004,-0.01240494,0.00936422,-0.0061
 8571,-0.06711144,-0.01218383,-0.05924152,0.03997028,0.00485721,-0.0102
 8807,0.00248033,0.00022091,0.00353537,-0.00000211,0.00000060,0.0000042
 1,-0.00000056,0.00000481,-0.00000120,0.00000210,-0.00000005,-0.0000029
 3,0.00000233,-0.00000228,0.00000109,0.00000131,0.00000030,-0.00000256,
 0.00000298,0.00000019,-0.00000007,0.00000361,0.00000055,-0.00000349,0.
 00000264,-0.00000297,0.00001309,0.00002688,-0.00002153,-0.00002344,0.0
 0018128,-0.00005972,0.00000361,0.00079030,0.00052590,-0.00028149,0.000
 13062,0.00005310,0.00015112,0.00053842,-0.00005292,-0.00027011,0.00006
 784,-0.00313674,-0.00246563,0.06238129,0.00231269,0.07404899\\0.013109
 68,-0.01618287,-0.01273335,-0.01694229,0.00700852,0.00081081,0.0108839
 8,-0.01566143,0.02216701,0.00362543,0.01364854,0.01490139,-0.00962568,
 -0.01137868,-0.02415337,-0.01299478,-0.00471096,-0.00434825,-0.0209559
 1,0.00782637,0.00260085,0.02724081,0.00739918,0.00704166,-0.00758962,0
 .02891326,0.00559909,0.01159342,0.00601330,0.01211598,-0.00221704,-0.0
 3487981,-0.01415853,0.00315550,0.01138490,0.01855496,-0.00296388,-0.00
 967869,0.01081021,-0.00030269,0.01338892,-0.02993121,0.00866895,-0.011
 27135,0.02640583,-0.00803348,0.00699589,0.00902174,-0.00399572,0.00864
 220,0.00860527,0.00303682,-0.01530974,0.01197561,0.00940629,0.00279328
 ,-0.02306014,-0.02039853,0.01468611,-0.00101809,0.00609485,0.01162667,
 -0.03368125,0.00058684,-0.01113311,0.02987222,0.01063776,-0.01636632,0
 .00791124,-0.01101867,-0.01596826,0.00585633,-0.00305756,0.03392913,-0
 .00564711,0.00432871,-0.00190093,0.00853101,-0.00892809,0.00301535,-0.
 00830186,0.02895534,-0.00958734,-0.00953810,-0.00389773,0.00360811,0.0
 2212312,-0.00240594,-0.00358609,-0.00101326,-0.00111024,0.00254324,-0.
 00152157,0.00216322,0.00751032,-0.01827563,-0.02140835,-0.00119398,-0.
 00065974,0.02027043,-0.00090629,-0.00645972,-0.02099108,0.00011385,0.0
 0071880,0.02297131,-0.00061565,-0.00573217,-0.01948199,-0.00270394,0.0
 0662762,0.02037317,0.00026370,-0.00304565,-0.00362171,-0.00417836,-0.0
 1800879,0.02029133,-0.00061069,0.00022769,-0.02043744,0.00254026,-0.00
 424677,0.01700893,-0.00527764,0.00342146,-0.02154269,-0.00155889,-0.00
 554043,0.01832324,0.00259149,-0.00091365,-0.01880496,-0.00178157,-0.00
 391129\\\@


 EDUCATION WITHOUT COMMON SENSE IS A LOAD OF BOOKS ON THE BACK OF AN ASS.
 Job cpu time:  1 days  7 hours  5 minutes 28.2 seconds.
 File lengths (MBytes):  RWF=   1769 Int=      0 D2E=      0 Chk=     28 Scr=      1
 Normal termination of Gaussian 09 at Wed Mar 23 06:05:59 2016.
Gaussian '09 finished on node020 at Wed Mar 23 06:05:59 EDT 2016.
