Gaussian '09 started on node015 at Mon Feb  8 13:54:04 EST 2016.
 Entering Gaussian System, Link 0=/usr/local/gaussian/g09/g09
 Initial command:
 /usr/local/gaussian/g09/l1.exe /home/srmcgrat/thesis/gaussian/cellobiose/310/8000/1/2dfp/gaussian2916/Gau-2996.inp -scrdir=/home/srmcgrat/thesis/gaussian/cellobiose/310/8000/1/2dfp/gaussian2916/
 Entering Link 1 = /usr/local/gaussian/g09/l1.exe PID=      2998.
  
 Copyright (c) 1988,1990,1992,1993,1995,1998,2003,2009,2010,
            Gaussian, Inc.  All Rights Reserved.
  
 This is part of the Gaussian(R) 09 program.  It is based on
 the Gaussian(R) 03 system (copyright 2003, Gaussian, Inc.),
 the Gaussian(R) 98 system (copyright 1998, Gaussian, Inc.),
 the Gaussian(R) 94 system (copyright 1995, Gaussian, Inc.),
 the Gaussian 92(TM) system (copyright 1992, Gaussian, Inc.),
 the Gaussian 90(TM) system (copyright 1990, Gaussian, Inc.),
 the Gaussian 88(TM) system (copyright 1988, Gaussian, Inc.),
 the Gaussian 86(TM) system (copyright 1986, Carnegie Mellon
 University), and the Gaussian 82(TM) system (copyright 1983,
 Carnegie Mellon University). Gaussian is a federally registered
 trademark of Gaussian, Inc.
  
 This software contains proprietary and confidential information,
 including trade secrets, belonging to Gaussian, Inc.
  
 This software is provided under written license and may be
 used, copied, transmitted, or stored only in accord with that
 written license.
  
 The following legend is applicable only to US Government
 contracts under FAR:
  
                    RESTRICTED RIGHTS LEGEND
  
 Use, reproduction and disclosure by the US Government is
 subject to restrictions as set forth in subparagraphs (a)
 and (c) of the Commercial Computer Software - Restricted
 Rights clause in FAR 52.227-19.
  
 Gaussian, Inc.
 340 Quinnipiac St., Bldg. 40, Wallingford CT 06492
  
  
 ---------------------------------------------------------------
 Warning -- This program may not be used in any manner that
 competes with the business of Gaussian, Inc. or will provide
 assistance to any competitor of Gaussian, Inc.  The licensee
 of this program is prohibited from giving any competitor of
 Gaussian, Inc. access to this program.  By using this program,
 the user acknowledges that Gaussian, Inc. is engaged in the
 business of creating and licensing software in the field of
 computational chemistry and represents and warrants to the
 licensee that it is not a competitor of Gaussian, Inc. and that
 it will not use this program in any manner prohibited above.
 ---------------------------------------------------------------
  

 Cite this work as:
 Gaussian 09, Revision B.01,
 M. J. Frisch, G. W. Trucks, H. B. Schlegel, G. E. Scuseria, 
 M. A. Robb, J. R. Cheeseman, G. Scalmani, V. Barone, B. Mennucci, 
 G. A. Petersson, H. Nakatsuji, M. Caricato, X. Li, H. P. Hratchian, 
 A. F. Izmaylov, J. Bloino, G. Zheng, J. L. Sonnenberg, M. Hada, 
 M. Ehara, K. Toyota, R. Fukuda, J. Hasegawa, M. Ishida, T. Nakajima, 
 Y. Honda, O. Kitao, H. Nakai, T. Vreven, J. A. Montgomery, Jr., 
 J. E. Peralta, F. Ogliaro, M. Bearpark, J. J. Heyd, E. Brothers, 
 K. N. Kudin, V. N. Staroverov, T. Keith, R. Kobayashi, J. Normand, 
 K. Raghavachari, A. Rendell, J. C. Burant, S. S. Iyengar, J. Tomasi, 
 M. Cossi, N. Rega, J. M. Millam, M. Klene, J. E. Knox, J. B. Cross, 
 V. Bakken, C. Adamo, J. Jaramillo, R. Gomperts, R. E. Stratmann, 
 O. Yazyev, A. J. Austin, R. Cammi, C. Pomelli, J. W. Ochterski, 
 R. L. Martin, K. Morokuma, V. G. Zakrzewski, G. A. Voth, 
 P. Salvador, J. J. Dannenberg, S. Dapprich, A. D. Daniels, 
 O. Farkas, J. B. Foresman, J. V. Ortiz, J. Cioslowski, 
 and D. J. Fox, Gaussian, Inc., Wallingford CT, 2010.
 
 ******************************************
 Gaussian 09:  EM64L-G09RevB.01 12-Aug-2010
                 8-Feb-2016 
 ******************************************
 --------------------------------------------------
 # freq=raman b3lyp/6-31+g(2df,p) geom=connectivity
 --------------------------------------------------
 1/10=4,30=1,38=1,57=2/1,3;
 2/12=2,17=6,18=5,40=1/2;
 3/5=1,6=6,7=114,11=2,16=1,25=1,30=1,71=2,74=-5/1,2,3;
 4//1;
 5/5=2,38=5,98=1/2;
 8/6=4,10=90,11=11/1;
 10/13=10,15=4/2;
 11/6=3,8=1,9=11,15=111,16=1/1,2,10;
 10/6=1/2;
 6/7=2,8=2,9=2,10=2,18=1,28=1/1;
 7/8=1,10=1,25=1/1,2,3,16;
 1/10=4,30=1/3;
 99//99;
 ------------
 310 8000.com
 ------------
 Symbolic Z-matrix:
 Charge =  0 Multiplicity = 1
 O                     8.116     7.619     12.359 
 C                     8.602     7.96      13.665 
 C                     8.155     9.363     14.042 
 O                     8.384     10.328    13.004 
 H                     8.551     9.842     12.146 
 C                     8.557     9.747     15.457 
 O                     7.835     10.92     15.858 
 H                     8.156     11.283    16.733 
 C                     8.304     5.526     14.451 
 O                     7.696     4.909     13.306 
 H                     7.871     3.925     13.337 
 C                     8.056     7.002     14.712 
 O                     8.792     7.288     15.91 
 C                     8.392     8.573     16.408 
 O                     9.059     8.611     17.678 
 C                     8.225     8.278     18.798 
 C                     8.699     6.942     19.345 
 O                     8.405     5.964     18.336 
 H                     8.838     6.342     17.517 
 C                     8.181     6.516     20.709 
 O                     8.98      5.492     21.318 
 H                     8.421     5.083     22.039 
 C                     7.728     10.721    19.518 
 O                     8.19      11.461    18.378 
 H                     8.165     12.443    18.563 
 C                     8.383     9.385     19.828 
 O                     7.799     8.904     21.047 
 C                     8.384     7.722     21.612 
 O                     7.551     7.545     22.767 
 H                     8.10224   7.42594   23.54389 
 H                     8.85917   7.46548   11.77102 
 H                     7.97632   4.9884    15.31616 
 H                     9.36171   5.38948   14.36439 
 H                     7.0127    7.18019   14.86905 
 H                     9.67109   7.91603   13.66775 
 H                     7.08855   9.29104   14.09108 
 H                     9.59634   10.00065   15.4388 
 H                     7.34466   8.50723   16.61696 
 H                     7.84727   11.34604   20.37823 
 H                     6.68118   10.54387   19.38496 
 H                     9.42757   9.54938   19.99158 
 H                     7.20351   8.20716   18.48746 
 H                     9.76444   6.99988   19.42486 
 H                     7.14986   6.23355   20.66565 
 H                     9.41089   7.86589   21.87601 
 

 GradGradGradGradGradGradGradGradGradGradGradGradGradGradGradGradGradGrad
 Berny optimization.
 Initialization pass.
 Trust Radius=3.00D-01 FncErr=1.00D-07 GrdErr=1.00D-07
 Number of steps in this run=      2 maximum allowed number of steps=      2.
 GradGradGradGradGradGradGradGradGradGradGradGradGradGradGradGradGradGrad

                          Input orientation:                          
 ---------------------------------------------------------------------
 Center     Atomic      Atomic             Coordinates (Angstroms)
 Number     Number       Type             X           Y           Z
 ---------------------------------------------------------------------
      1          8           0        8.116000    7.619000   12.359000
      2          6           0        8.602000    7.960000   13.665000
      3          6           0        8.155000    9.363000   14.042000
      4          8           0        8.384000   10.328000   13.004000
      5          1           0        8.551000    9.842000   12.146000
      6          6           0        8.557000    9.747000   15.457000
      7          8           0        7.835000   10.920000   15.858000
      8          1           0        8.156000   11.283000   16.733000
      9          6           0        8.304000    5.526000   14.451000
     10          8           0        7.696000    4.909000   13.306000
     11          1           0        7.871000    3.925000   13.337000
     12          6           0        8.056000    7.002000   14.712000
     13          8           0        8.792000    7.288000   15.910000
     14          6           0        8.392000    8.573000   16.408000
     15          8           0        9.059000    8.611000   17.678000
     16          6           0        8.225000    8.278000   18.798000
     17          6           0        8.699000    6.942000   19.345000
     18          8           0        8.405000    5.964000   18.336000
     19          1           0        8.838000    6.342000   17.517000
     20          6           0        8.181000    6.516000   20.709000
     21          8           0        8.980000    5.492000   21.318000
     22          1           0        8.421000    5.083000   22.039000
     23          6           0        7.728000   10.721000   19.518000
     24          8           0        8.190000   11.461000   18.378000
     25          1           0        8.165000   12.443000   18.563000
     26          6           0        8.383000    9.385000   19.828000
     27          8           0        7.799000    8.904000   21.047000
     28          6           0        8.384000    7.722000   21.612000
     29          8           0        7.551000    7.545000   22.767000
     30          1           0        8.102238    7.425944   23.543892
     31          1           0        8.859173    7.465476   11.771017
     32          1           0        7.976319    4.988399   15.316165
     33          1           0        9.361714    5.389478   14.364386
     34          1           0        7.012697    7.180195   14.869053
     35          1           0        9.671092    7.916025   13.667747
     36          1           0        7.088551    9.291041   14.091080
     37          1           0        9.596341   10.000650   15.438800
     38          1           0        7.344665    8.507227   16.616957
     39          1           0        7.847267   11.346037   20.378235
     40          1           0        6.681184   10.543866   19.384957
     41          1           0        9.427568    9.549375   19.991582
     42          1           0        7.203508    8.207163   18.487459
     43          1           0        9.764445    6.999878   19.424863
     44          1           0        7.149863    6.233550   20.665651
     45          1           0        9.410887    7.865887   21.876005
 ---------------------------------------------------------------------
                    Distance matrix (angstroms):
                    1          2          3          4          5
     1  O    0.000000
     2  C    1.434612   0.000000
     3  C    2.423953   1.519983   0.000000
     4  O    2.797594   2.468171   1.435657   0.000000
     5  H    2.275153   2.419067   1.995263   1.000124   0.000000
     6  C    3.784240   2.531138   1.520291   2.526796   3.312368
     7  O    4.818564   3.762863   2.413401   2.966004   3.931117
     8  H    5.705994   4.544653   3.305735   3.856093   4.824218
     9  C    2.965208   2.575064   3.861612   5.015916   4.899172
    10  O    2.901260   3.202861   4.537675   5.470842   5.139174
    11  H    3.829118   4.113778   5.490858   6.432143   6.073860
    12  C    2.433290   1.520555   2.456221   3.753282   3.859402
    13  O    3.629895   2.351108   2.863707   4.225269   4.555073
    14  C    4.169016   2.818496   2.505639   3.829792   4.449751
    15  O    5.492274   4.091066   3.821415   5.024937   5.690031
    16  C    6.473553   5.156641   4.878695   6.148025   6.841160
    17  C    7.042898   5.771320   5.854826   7.195311   7.762571
    18  O    6.208629   5.083411   5.482165   6.890222   7.305909
    19  H    5.362553   4.184677   4.654950   6.038334   6.417165
    20  C    8.422787   7.202799   7.249481   8.598813   9.193701
    21  O    9.248476   8.049989   8.282840   9.636634  10.160321
    22  H   10.011330   8.856284   9.074203  10.447134  10.978908
    23  C    7.811801   6.530284   5.658009   6.558733   7.469696
    24  O    7.141064   5.885500   4.817024   5.495562   6.448977
    25  H    7.858944   6.654221   5.470461   5.951778   6.934846
    26  C    7.679584   6.329388   5.790532   6.888848   7.697415
    27  O    8.788234   7.485310   7.029043   8.189008   8.981823
    28  C    9.257453   7.953551   7.749208   8.993826   9.701930
    29  O   10.423587   9.171872   8.932836  10.186027  10.912463
    30  H   11.186567   9.905932   9.697470  10.935751  11.659788
    31  H    0.960000   1.974301   3.042010   3.152789   2.425582
    32  H    3.960353   3.456622   4.559886   5.832979   5.825603
    33  H    3.247176   2.770179   4.165210   5.214938   5.040184
    34  H    2.776723   2.140963   2.598752   3.907374   4.106897
    35  H    2.054107   1.070000   2.128929   2.813324   2.698092
    36  H    2.617532   2.060034   1.070000   1.983737   2.495125
    37  H    4.165193   2.880856   2.105971   2.739559   3.458387
    38  H    4.417477   3.254904   2.831854   4.177187   4.819369
    39  H    8.847098   7.556612   6.646428   7.463499   8.398039
    40  H    7.744521   6.563826   5.666901   6.607783   7.509416
    41  H    7.981408   6.575205   6.087010   7.107854   7.899820
    42  H    6.223872   5.027224   4.690778   5.996652   6.685995
    43  H    7.281971   5.953917   6.095069   7.362710   7.907714
    44  H    8.476635   7.355165   7.394357   8.774310   9.357807
    45  H    9.607866   8.251289   8.074047   9.264393   9.965813
                    6          7          8          9         10
     6  C    0.000000
     7  O    1.434578   0.000000
     8  H    2.036731   1.000217   0.000000
     9  C    4.346595   5.594180   6.194552   0.000000
    10  O    5.364174   6.531780   7.251469   1.435750   0.000000
    11  H    6.233833   7.435507   8.108897   1.997920   0.999921
    12  C    2.888088   4.088139   4.735124   1.519276   2.546976
    13  O    2.511397   3.756325   4.128178   2.339117   3.693464
    14  C    1.519836   2.474097   2.739602   3.622403   4.850950
    15  O    2.544669   3.184660   2.974562   4.527779   5.888714
    16  C    3.664760   3.971884   3.646781   5.145498   6.464678
    17  C    4.796325   5.360051   5.095260   5.110021   6.450474
    18  O    4.756347   5.570217   5.560879   3.910917   5.188122
    19  H    3.989560   4.971556   5.049085   3.217354   4.592404
    20  C    6.177721   6.561031   6.207535   6.337018   7.590921
    21  O    7.255017   7.783689   7.432152   6.900277   8.135151
    22  H    8.068092   8.521662   8.164794   7.601821   8.764770
    23  C    4.257656   3.666967   2.873196   7.279718   8.507015
    24  O    3.406571   2.601751   1.654952   7.117482   8.300477
    25  H    4.131503   3.121771   2.166698   8.048152   9.198759
    26  C    4.389415   4.291553   3.637713   6.618931   7.939964
    27  O    5.703798   5.566981   4.939401   7.427861   8.711700
    28  C    6.481865   6.605840   6.044613   7.490577   8.796360
    29  O    7.700451   7.694515   7.123751   8.590648   9.822425
    30  H    8.425671   8.447058   7.827390   9.291458  10.550568
    31  H    4.345473   5.448495   6.299938   3.354414   3.200737
    32  H    4.795968   5.957973   6.454588   1.070000   2.031168
    33  H    4.563921   5.928610   6.465113   1.070000   2.031168
    34  H    3.052711   3.954787   4.649134   2.139764   2.840486
    35  H    2.791970   4.146361   4.798729   2.862629   3.615806
    36  H    2.056691   2.516486   3.476649   3.972706   4.493064
    37  H    1.070000   2.030580   2.322490   4.761133   5.838239
    38  H    2.086215   2.576416   2.894243   3.807809   4.902358
    39  H    5.222949   4.540284   3.658829   8.319468   9.564248
    40  H    4.425215   3.729905   3.123184   7.221942   8.350766
    41  H    4.621621   4.636958   3.903933   6.938876   8.320362
    42  H    3.658787   3.830447   3.666898   4.969177   6.161814
    43  H    4.974790   5.640268   5.308328   5.389297   6.789014
    44  H    6.438510   6.748758   6.478812   6.360389   7.497811
    45  H    6.743244   6.930181   6.300945   7.863268   9.226539
                   11         12         13         14         15
    11  H    0.000000
    12  C    3.375319   0.000000
    13  O    4.333398   1.434816   0.000000
    14  C    5.595211   2.336098   1.435001   0.000000
    15  O    6.497247   3.520234   2.224285   1.435003   0.000000
    16  C    6.992599   4.283939   3.105178   2.413921   1.435564
    17  C    6.773768   4.677792   3.453634   3.373482   2.386221
    18  O    5.425189   3.785845   2.790738   3.244108   2.804869
    19  H    4.924366   2.985825   1.865337   2.531039   2.285415
    20  C    7.820215   6.017959   4.898949   4.772250   3.787726
    21  O    8.208638   6.839087   5.701528   5.826354   4.794163
    22  H    8.795923   7.582923   6.524133   6.624885   5.645542
    23  C    9.187536   6.085736   5.092666   3.837564   3.099881
    24  O    9.072196   5.774097   4.885423   3.501749   3.060663
    25  H    9.997692   6.666826   5.831429   4.435364   4.033198
    26  C    8.497460   5.653236   4.462669   3.515085   2.382971
    27  O    9.178220   6.619356   5.475972   4.688447   3.608824
    28  C    9.118991   6.945213   5.733029   5.273128   4.089291
    29  O   10.106023   8.089060   6.973133   6.496226   5.413718
    30  H   10.793087   8.842182   7.666232   7.233302   6.060400
    31  H    3.995467   3.083712   4.143331   4.790248   6.020350
    32  H    2.249223   2.103795   2.511203   3.770180   4.457993
    33  H    2.328615   2.103795   2.513540   3.905319   4.631401
    34  H    3.698670   1.070000   2.064246   2.492136   3.758290
    35  H    4.390673   2.129420   2.488959   3.094621   4.115796
    36  H    5.474966   2.561485   3.197246   2.753667   4.148629
    37  H    6.656417   3.448593   2.868355   2.104274   2.689587
    38  H    5.659678   2.529935   2.020169   1.070000   2.018793
    39  H   10.229924   7.142860   6.109444   4.873319   4.029888
    40  H    9.044492   6.022580   5.208794   3.958974   3.507661
    41  H    8.850987   6.020324   4.709254   3.855875   2.523698
    42  H    6.731248   4.053795   3.164090   2.422911   2.064258
    43  H    7.078282   5.012969   3.658268   3.668757   2.478890
    44  H    7.717420   6.071043   5.140496   5.014332   4.268856
    45  H    9.529767   7.342002   6.025794   5.606891   4.278115
                   16         17         18         19         20
    16  C    0.000000
    17  C    1.519467   0.000000
    18  O    2.366525   1.435619   0.000000
    19  H    2.401005   1.928965   1.000567   0.000000
    20  C    2.599712   1.519966   2.446632   3.263555   0.000000
    21  O    3.831739   2.464587   3.073391   3.897469   1.434524
    22  H    4.555274   3.284935   3.806393   4.712479   1.969769
    23  C    2.594929   3.905587   4.948182   4.940824   4.393827
    24  O    3.210781   4.649251   5.501363   5.231194   5.466870
    25  H    4.172056   5.581907   6.487416   6.226495   6.303563
    26  C    1.520300   2.510258   3.732263   3.848064   3.008010
    27  O    2.373047   2.748863   4.044794   4.483778   2.441866
    28  C    2.872806   2.418039   3.717954   4.345059   1.520215
    29  O    4.092008   3.659453   4.781489   5.537696   2.385604
    30  H    4.823335   4.268609   5.417664   6.167634   2.978391
    31  H    7.102173   7.593741   6.749793   5.854825   9.013821
    32  H    4.796509   4.535454   3.202338   2.723675   5.608755
    33  H    5.412265   5.258900   4.125420   3.334749   6.551127
    34  H    4.255758   4.788993   3.929040   3.323541   5.992584
    35  H    5.342444   5.841651   5.215935   4.241267   7.332100
    36  H    4.947006   5.976221   5.551719   4.847096   7.258868
    37  H    4.016506   5.041722   5.109560   4.275478   6.474641
    38  H    2.363151   3.424380   3.247680   2.779988   4.627014
    39  H    3.471697   4.603104   5.783434   5.848812   4.852839
    40  H    2.803932   4.128755   5.004701   5.079055   4.497360
    41  H    2.118302   2.783395   4.079401   4.093703   3.357080
    42  H    1.070000   2.138343   2.549177   2.663116   2.958170
    43  H    2.096769   1.070000   2.026513   2.220595   2.095338
    44  H    2.970491   2.155422   2.659944   3.574293   1.070000
    45  H    3.324197   2.786815   4.142538   4.653102   2.167192
                   21         22         23         24         25
    21  O    0.000000
    22  H    0.999801   0.000000
    23  C    5.670092   6.214719   0.000000
    24  O    6.700497   7.357660   1.435494   0.000000
    25  H    7.521346   8.143569   2.016997   0.999587   0.000000
    26  C    4.210933   4.837062   1.519875   2.539592   3.316491
    27  O    3.620766   3.996372   2.375789   3.716812   4.339209
    28  C    2.326919   2.673578   3.716070   4.947374   5.624251
    29  O    2.890753   2.710780   4.546901   5.916646   6.483904
    30  H    3.076557   2.802801   5.215866   6.555595   7.069942
    31  H    9.749569  10.549866   8.479018   7.750112   8.449181
    32  H    6.105982   6.738190   7.111947   7.163453   8.133180
    33  H    6.964837   7.738124   7.593016   7.371933   8.295340
    34  H    6.950482   7.601953   5.887416   5.658979   6.532240
    35  H    8.054805   8.925617   6.772662   6.078402   6.835592
    36  H    8.380851   9.091340   5.648464   4.929462   5.575990
    37  H    7.434567   8.314286   4.544169   3.570618   4.215974
    38  H    5.819426   6.502490   3.669303   3.541276   4.466580
    39  H    6.036224   6.504840   1.070000   2.032639   2.144612
    40  H    5.877292   6.316009   1.070000   2.032639   2.546376
    41  H    4.292085   5.015337   2.117903   2.790973   3.465254
    42  H    4.305810   4.884273   2.767035   3.401853   4.344248
    43  H    2.544213   3.508985   4.242939   4.845246   5.738345
    44  H    2.079629   2.196734   4.667821   5.800127   6.633922
    45  H    2.476363   2.958193   4.067428   5.162504   5.786035
                   26         27         28         29         30
    26  C    0.000000
    27  O    1.434705   0.000000
    28  C    2.438899   1.434773   0.000000
    29  O    3.565886   2.206079   1.435006   0.000000
    30  H    4.210058   2.917375   1.974651   0.960000   0.000000
    31  H    8.296161   9.446544   9.855788  11.073811  11.797250
    32  H    6.312856   6.943043   6.875778   7.888729   8.582132
    33  H    6.839090   7.710465   7.676229   8.861652   9.486664
    34  H    5.597325   6.461951   6.902272   7.924672   8.746447
    35  H    6.462646   7.676861   8.050181   9.350340  10.011979
    36  H    5.881894   7.002811   7.791298   8.861947   9.688231
    37  H    4.595247   5.990407   6.691070   7.994758   8.634464
    38  H    3.487036   4.470920   5.162098   6.228281   7.051633
    39  H    2.106047   2.532414   3.865735   4.499095   5.045149
    40  H    2.106047   2.588641   3.977717   4.603042   5.388653
    41  H    1.070000   2.045153   2.655953   3.904097   4.345615
    42  H    2.139054   2.718721   3.375160   4.344385   5.194761
    43  H    2.785626   3.181192   2.685267   4.045538   4.462159
    44  H    3.486248   2.774547   2.152708   2.509278   3.257774
    45  H    2.749288   2.088806   1.070000   2.087108   2.165169
                   31         32         33         34         35
    31  H    0.000000
    32  H    4.414002   0.000000
    33  H    3.359745   1.728024   0.000000
    34  H    3.617829   2.435661   2.996538   0.000000
    35  H    2.111822   3.763049   2.639027   3.008596   0.000000
    36  H    3.442453   4.560887   4.523733   2.250926   2.956247
    37  H    4.519199   5.268982   4.740498   3.867143   2.736399
    38  H    5.182868   3.804366   4.343147   2.219547   3.802582
    39  H    9.495626   8.127778   8.598868   6.957143   7.753836
    40  H    8.496600   7.006830   7.678483   5.640707   6.966462
    41  H    8.499612   6.690901   6.998172   6.138804   6.535903
    42  H    6.957149   4.584189   5.440306   3.766157   5.422487
    43  H    7.721247   4.911705   5.325786   5.325414   5.830302
    44  H    9.140783   5.554317   6.731321   5.874990   7.626138
    45  H   10.127957   7.305439   7.909453   7.437666   8.212535
                   36         37         38         39         40
    36  H    0.000000
    37  H    2.934094   0.000000
    38  H    2.657069   2.947611   0.000000
    39  H    6.657851   5.409930   4.739057   0.000000
    40  H    5.455333   4.936130   3.499990   1.729112   0.000000
    41  H    6.352453   4.578204   4.100323   2.423808   2.983224
    42  H    4.529477   4.270429   1.899668   3.720482   2.557050
    43  H    6.392110   4.992152   4.001471   4.844955   4.697653
    44  H    7.251000   6.891754   4.647524   5.167834   4.520914
    45  H    8.247992   6.784483   5.686667   4.098740   4.563789
                   41         42         43         44         45
    41  H    0.000000
    42  H    3.001727   0.000000
    43  H    2.633361   2.982392   0.000000
    44  H    4.078849   2.939821   2.993802   0.000000
    45  H    2.526947   4.058478   2.623562   3.040018   0.000000
 Stoichiometry    C12H22O11
 Framework group  C1[X(C12H22O11)]
 Deg. of freedom   129
 Full point group                 C1      NOp   1
 Largest Abelian subgroup         C1      NOp   1
 Largest concise Abelian subgroup C1      NOp   1
                         Standard orientation:                         
 ---------------------------------------------------------------------
 Center     Atomic      Atomic             Coordinates (Angstroms)
 Number     Number       Type             X           Y           Z
 ---------------------------------------------------------------------
      1          8           0        4.946208   -0.560427   -0.213719
      2          6           0        3.648207   -0.219522    0.293321
      3          6           0        3.289846    1.205398   -0.095944
      4          8           0        4.343488    2.145181    0.164357
      5          1           0        5.195006    1.640348    0.306869
      6          6           0        1.883037    1.594182    0.329521
      7          8           0        1.495691    2.800477   -0.343405
      8          1           0        0.628046    3.163476   -0.003025
      9          6           0        2.824076   -2.628022   -0.095129
     10          8           0        3.956271   -3.237503   -0.733913
     11          1           0        3.911465   -4.227058   -0.597478
     12          6           0        2.583906   -1.139710   -0.283400
     13          8           0        1.394457   -0.865187    0.470619
     14          6           0        0.913600    0.441779    0.124432
     15          8           0       -0.351950    0.472299    0.800216
     16          6           0       -1.481456    0.188968   -0.039299
     17          6           0       -2.045819   -1.156403    0.385262
     18          8           0       -1.053281   -2.136903    0.046900
     19          1           0       -0.226295   -1.788386    0.489351
     20          6           0       -3.418930   -1.541472   -0.140649
     21          8           0       -4.038787   -2.586985    0.621282
     22          1           0       -4.768954   -2.962969    0.051111
     23          6           0       -2.167425    2.660010   -0.435597
     24          8           0       -1.013879    3.364319    0.048062
     25          1           0       -1.184240    4.349172    0.062760
     26          6           0       -2.493810    1.304014    0.168363
     27          8           0       -3.723134    0.864444   -0.426548
     28          6           0       -4.302563   -0.331162    0.115080
     29          8           0       -5.464715   -0.458153   -0.717098
     30          1           0       -6.240225   -0.587292   -0.166184
     31          1           0        5.535949   -0.751746    0.519222
     32          1           0        1.949119   -3.139459   -0.438323
     33          1           0        2.914519   -2.807308    0.955859
     34          1           0        2.423738   -0.918312   -1.317919
     35          1           0        3.650755   -0.305468    1.359860
     36          1           0        3.233751    1.176175   -1.164073
     37          1           0        1.910835    1.806457    1.377885
     38          1           0        0.697847    0.420350   -0.923371
     39          1           0       -3.017494    3.292531   -0.286598
     40          1           0       -2.042892    2.522239   -1.489357
     41          1           0       -2.649083    1.429578    1.219564
     42          1           0       -1.177710    0.153777   -1.064677
     43          1           0       -2.118867   -1.139302    1.452629
     44          1           0       -3.385575   -1.783756   -1.182324
     45          1           0       -4.558652   -0.223887    1.148429
 ---------------------------------------------------------------------
 Rotational constants (GHZ):      0.4055790      0.1482596      0.1119896
 Standard basis: 6-31+G(2df,p) (6D, 7F)
 There are   846 symmetry adapted basis functions of A   symmetry.
 Integral buffers will be    131072 words long.
 Raffenetti 2 integral format.
 Two-electron integral symmetry is turned on.
   846 basis functions,  1258 primitive gaussians,   915 cartesian basis functions
    91 alpha electrons       91 beta electrons
       nuclear repulsion energy      2293.2143990260 Hartrees.
 NAtoms=   45 NActive=   45 NUniq=   45 SFac= 1.00D+00 NAtFMM=   50 NAOKFM=F Big=F
 One-electron integrals computed using PRISM.
 NBasis=   846 RedAO= T  NBF=   846
 NBsUse=   846 1.00D-06 NBFU=   846
 Harris functional with IExCor=  402 diagonalized for initial guess.
 ExpMin= 4.38D-02 ExpMax= 5.48D+03 ExpMxC= 8.25D+02 IAcc=2 IRadAn=         0 AccDes= 0.00D+00
 HarFok:  IExCor=  402 AccDes= 0.00D+00 IRadAn=         0 IDoV= 1
 ScaDFX=  1.000000  1.000000  1.000000  1.000000
 FoFCou: FMM=F IPFlag=           0 FMFlag=      100000 FMFlg1=           0
         NFxFlg=           0 DoJE=T BraDBF=F KetDBF=T FulRan=T
         Omega=  0.000000  0.000000  1.000000  0.000000  0.000000 ICntrl=     500 IOpCl=  0
         NMat0=    1 NMatS0=    1 NMatT0=    0 NMatD0=    1 NMtDS0=    0 NMtDT0=    0
         I1Cent=           4 NGrid=           0.
 Petite list used in FoFCou.
 Initial guess orbital symmetries:
       Occupied  (A) (A) (A) (A) (A) (A) (A) (A) (A) (A) (A) (A)
                 (A) (A) (A) (A) (A) (A) (A) (A) (A) (A) (A) (A)
                 (A) (A) (A) (A) (A) (A) (A) (A) (A) (A) (A) (A)
                 (A) (A) (A) (A) (A) (A) (A) (A) (A) (A) (A) (A)
                 (A) (A) (A) (A) (A) (A) (A) (A) (A) (A) (A) (A)
                 (A) (A) (A) (A) (A) (A) (A) (A) (A) (A) (A) (A)
                 (A) (A) (A) (A) (A) (A) (A) (A) (A) (A) (A) (A)
                 (A) (A) (A) (A) (A) (A) (A)
       Virtual   (A) (A) (A) (A) (A) (A) (A) (A) (A) (A) (A) (A)
                 (A) (A) (A) (A) (A) (A) (A) (A) (A) (A) (A) (A)
                 (A) (A) (A) (A) (A) (A) (A) (A) (A) (A) (A) (A)
                 (A) (A) (A) (A) (A) (A) (A) (A) (A) (A) (A) (A)
                 (A) (A) (A) (A) (A) (A) (A) (A) (A) (A) (A) (A)
                 (A) (A) (A) (A) (A) (A) (A) (A) (A) (A) (A) (A)
                 (A) (A) (A) (A) (A) (A) (A) (A) (A) (A) (A) (A)
                 (A) (A) (A) (A) (A) (A) (A) (A) (A) (A) (A) (A)
                 (A) (A) (A) (A) (A) (A) (A) (A) (A) (A) (A) (A)
                 (A) (A) (A) (A) (A) (A) (A) (A) (A) (A) (A) (A)
                 (A) (A) (A) (A) (A) (A) (A) (A) (A) (A) (A) (A)
                 (A) (A) (A) (A) (A) (A) (A) (A) (A) (A) (A) (A)
                 (A) (A) (A) (A) (A) (A) (A) (A) (A) (A) (A) (A)
                 (A) (A) (A) (A) (A) (A) (A) (A) (A) (A) (A) (A)
                 (A) (A) (A) (A) (A) (A) (A) (A) (A) (A) (A) (A)
                 (A) (A) (A) (A) (A) (A) (A) (A) (A) (A) (A) (A)
                 (A) (A) (A) (A) (A) (A) (A) (A) (A) (A) (A) (A)
                 (A) (A) (A) (A) (A) (A) (A) (A) (A) (A) (A) (A)
                 (A) (A) (A) (A) (A) (A) (A) (A) (A) (A) (A) (A)
                 (A) (A) (A) (A) (A) (A) (A) (A) (A) (A) (A) (A)
                 (A) (A) (A) (A) (A) (A) (A) (A) (A) (A) (A) (A)
                 (A) (A) (A) (A) (A) (A) (A) (A) (A) (A) (A) (A)
                 (A) (A) (A) (A) (A) (A) (A) (A) (A) (A) (A) (A)
                 (A) (A) (A) (A) (A) (A) (A) (A) (A) (A) (A) (A)
                 (A) (A) (A) (A) (A) (A) (A) (A) (A) (A) (A) (A)
                 (A) (A) (A) (A) (A) (A) (A) (A) (A) (A) (A) (A)
                 (A) (A) (A) (A) (A) (A) (A) (A) (A) (A) (A) (A)
                 (A) (A) (A) (A) (A) (A) (A) (A) (A) (A) (A) (A)
                 (A) (A) (A) (A) (A) (A) (A) (A) (A) (A) (A) (A)
                 (A) (A) (A) (A) (A) (A) (A) (A) (A) (A) (A) (A)
                 (A) (A) (A) (A) (A) (A) (A) (A) (A) (A) (A) (A)
                 (A) (A) (A) (A) (A) (A) (A) (A) (A) (A) (A) (A)
                 (A) (A) (A) (A) (A) (A) (A) (A) (A) (A) (A) (A)
                 (A) (A) (A) (A) (A) (A) (A) (A) (A) (A) (A) (A)
                 (A) (A) (A) (A) (A) (A) (A) (A) (A) (A) (A) (A)
                 (A) (A) (A) (A) (A) (A) (A) (A) (A) (A) (A) (A)
                 (A) (A) (A) (A) (A) (A) (A) (A) (A) (A) (A) (A)
                 (A) (A) (A) (A) (A) (A) (A) (A) (A) (A) (A) (A)
                 (A) (A) (A) (A) (A) (A) (A) (A) (A) (A) (A) (A)
                 (A) (A) (A) (A) (A) (A) (A) (A) (A) (A) (A) (A)
                 (A) (A) (A) (A) (A) (A) (A) (A) (A) (A) (A) (A)
                 (A) (A) (A) (A) (A) (A) (A) (A) (A) (A) (A) (A)
                 (A) (A) (A) (A) (A) (A) (A) (A) (A) (A) (A) (A)
                 (A) (A) (A) (A) (A) (A) (A) (A) (A) (A) (A) (A)
                 (A) (A) (A) (A) (A) (A) (A) (A) (A) (A) (A) (A)
                 (A) (A) (A) (A) (A) (A) (A) (A) (A) (A) (A) (A)
                 (A) (A) (A) (A) (A) (A) (A) (A) (A) (A) (A) (A)
                 (A) (A) (A) (A) (A) (A) (A) (A) (A) (A) (A) (A)
                 (A) (A) (A) (A) (A) (A) (A) (A) (A) (A) (A) (A)
                 (A) (A) (A) (A) (A) (A) (A) (A) (A) (A) (A) (A)
                 (A) (A) (A) (A) (A) (A) (A) (A) (A) (A) (A) (A)
                 (A) (A) (A) (A) (A) (A) (A) (A) (A) (A) (A) (A)
                 (A) (A) (A) (A) (A) (A) (A) (A) (A) (A) (A) (A)
                 (A) (A) (A) (A) (A) (A) (A) (A) (A) (A) (A) (A)
                 (A) (A) (A) (A) (A) (A) (A) (A) (A) (A) (A) (A)
                 (A) (A) (A) (A) (A) (A) (A) (A) (A) (A) (A) (A)
                 (A) (A) (A) (A) (A) (A) (A) (A) (A) (A) (A) (A)
                 (A) (A) (A) (A) (A) (A) (A) (A) (A) (A) (A) (A)
                 (A) (A) (A) (A) (A) (A) (A) (A) (A) (A) (A) (A)
                 (A) (A) (A) (A) (A) (A) (A) (A) (A) (A) (A) (A)
                 (A) (A) (A) (A) (A) (A) (A) (A) (A) (A) (A) (A)
                 (A) (A) (A) (A) (A) (A) (A) (A) (A) (A) (A) (A)
                 (A) (A) (A) (A) (A) (A) (A) (A) (A) (A) (A)
 The electronic state of the initial guess is 1-A.
 Requested convergence on RMS density matrix=1.00D-08 within 128 cycles.
 Requested convergence on MAX density matrix=1.00D-06.
 Requested convergence on             energy=1.00D-06.
 No special actions if energy rises.
 SCF Done:  E(RB3LYP) =  -1298.01352756     A.U. after   13 cycles
             Convg  =    0.4364D-08             -V/T =  2.0065
 Range of M.O.s used for correlation:     1   846
 NBasis=   846 NAE=    91 NBE=    91 NFC=     0 NFV=     0
 NROrb=    846 NOA=    91 NOB=    91 NVA=   755 NVB=   755

 **** Warning!!: The largest alpha MO coefficient is  0.75076760D+02

          Differentiating once with respect to electric field.
                with respect to dipole field.
          Electric field/nuclear overlap derivatives assumed to be zero.
          There are     3 degrees of freedom in the 1st order CPHF.  IDoFFX=0.
      3 vectors produced by pass  0 Test12= 2.29D-12 3.33D-08 XBig12= 1.22D+02 1.15D+00.
 AX will form     3 AO Fock derivatives at one time.
      3 vectors produced by pass  1 Test12= 2.29D-12 3.33D-08 XBig12= 2.68D+01 4.03D-01.
      3 vectors produced by pass  2 Test12= 2.29D-12 3.33D-08 XBig12= 1.10D+01 2.38D-01.
      3 vectors produced by pass  3 Test12= 2.29D-12 3.33D-08 XBig12= 1.15D+00 1.03D-01.
      3 vectors produced by pass  4 Test12= 2.29D-12 3.33D-08 XBig12= 3.16D-01 4.46D-02.
      3 vectors produced by pass  5 Test12= 2.29D-12 3.33D-08 XBig12= 6.64D-02 2.01D-02.
      3 vectors produced by pass  6 Test12= 2.29D-12 3.33D-08 XBig12= 2.05D-02 1.48D-02.
      3 vectors produced by pass  7 Test12= 2.29D-12 3.33D-08 XBig12= 2.87D-03 7.11D-03.
      3 vectors produced by pass  8 Test12= 2.29D-12 3.33D-08 XBig12= 5.38D-04 1.75D-03.
      3 vectors produced by pass  9 Test12= 2.29D-12 3.33D-08 XBig12= 1.38D-04 1.27D-03.
      3 vectors produced by pass 10 Test12= 2.29D-12 3.33D-08 XBig12= 3.13D-05 4.13D-04.
      3 vectors produced by pass 11 Test12= 2.29D-12 3.33D-08 XBig12= 8.20D-06 3.12D-04.
      3 vectors produced by pass 12 Test12= 2.29D-12 3.33D-08 XBig12= 1.19D-06 1.00D-04.
      3 vectors produced by pass 13 Test12= 2.29D-12 3.33D-08 XBig12= 2.93D-07 5.58D-05.
      3 vectors produced by pass 14 Test12= 2.29D-12 3.33D-08 XBig12= 6.63D-08 2.24D-05.
      3 vectors produced by pass 15 Test12= 2.29D-12 3.33D-08 XBig12= 1.24D-08 7.97D-06.
      3 vectors produced by pass 16 Test12= 2.29D-12 3.33D-08 XBig12= 2.07D-09 2.85D-06.
      3 vectors produced by pass 17 Test12= 2.29D-12 3.33D-08 XBig12= 1.63D-10 1.14D-06.
      3 vectors produced by pass 18 Test12= 2.29D-12 3.33D-08 XBig12= 2.73D-11 3.70D-07.
      3 vectors produced by pass 19 Test12= 2.29D-12 3.33D-08 XBig12= 1.25D-11 2.49D-07.
      3 vectors produced by pass 20 Test12= 2.29D-12 3.33D-08 XBig12= 8.08D-12 2.20D-07.
      2 vectors produced by pass 21 Test12= 2.29D-12 3.33D-08 XBig12= 3.34D-12 1.96D-07.
      1 vectors produced by pass 22 Test12= 2.29D-12 3.33D-08 XBig12= 1.08D-12 5.70D-08.
 Inverted reduced A of dimension    66 with in-core refinement.
 End of Minotr Frequency-dependent properties file   721 does not exist.
 End of Minotr Frequency-dependent properties file   722 does not exist.
 Symmetrizing basis deriv contribution to polar:
 IMax=3 JMax=2 DiffMx= 0.00D+00
 G2DrvN: will do     8 centers at a time, making    6 passes doing MaxLOS=3.
 Calling FoFCou, ICntrl=  3107 FMM=F I1Cent=   0 AccDes= 0.00D+00.
 Calling FoFCou, ICntrl=  3107 FMM=F I1Cent=   0 AccDes= 0.00D+00.
 Calling FoFCou, ICntrl=  3107 FMM=F I1Cent=   0 AccDes= 0.00D+00.
 Calling FoFCou, ICntrl=  3107 FMM=F I1Cent=   0 AccDes= 0.00D+00.
 Calling FoFCou, ICntrl=  3107 FMM=F I1Cent=   0 AccDes= 0.00D+00.
 Calling FoFCou, ICntrl=  3107 FMM=F I1Cent=   0 AccDes= 0.00D+00.
 FoFDir/FoFCou used for L=0 through L=3.
 End of G2Drv Frequency-dependent properties file   721 does not exist.
 End of G2Drv Frequency-dependent properties file   722 does not exist.
          IDoAtm=111111111111111111111111111111111111111111111
          Differentiating once with respect to electric field.
                with respect to dipole field.
          Differentiating once with respect to nuclear coordinates.
          There are   138 degrees of freedom in the 1st order CPHF.  IDoFFX=5.
 Will reuse    3 saved solutions.
    135 vectors produced by pass  0 Test12= 6.87D-14 1.00D-09 XBig12= 2.07D-01 6.56D-02.
 AX will form    27 AO Fock derivatives at one time.
    135 vectors produced by pass  1 Test12= 6.87D-14 1.00D-09 XBig12= 2.01D-02 1.18D-02.
    132 vectors produced by pass  2 Test12= 6.87D-14 1.00D-09 XBig12= 1.48D-04 1.13D-03.
    132 vectors produced by pass  3 Test12= 6.87D-14 1.00D-09 XBig12= 8.59D-07 6.85D-05.
    132 vectors produced by pass  4 Test12= 6.87D-14 1.00D-09 XBig12= 2.31D-09 2.96D-06.
    132 vectors produced by pass  5 Test12= 6.87D-14 1.00D-09 XBig12= 6.53D-12 1.45D-07.
     94 vectors produced by pass  6 Test12= 6.87D-14 1.00D-09 XBig12= 2.68D-13 2.71D-08.
      1 vectors produced by pass  7 Test12= 6.87D-14 1.00D-09 XBig12= 8.68D-16 1.48D-09.
 Inverted reduced A of dimension   893 with in-core refinement.
 Isotropic polarizability for W=    0.000000      191.27 Bohr**3.
 End of Minotr Frequency-dependent properties file   721 does not exist.
 End of Minotr Frequency-dependent properties file   722 does not exist.

 **********************************************************************

            Population analysis using the SCF density.

 **********************************************************************

 Orbital symmetries:
       Occupied  (A) (A) (A) (A) (A) (A) (A) (A) (A) (A) (A) (A)
                 (A) (A) (A) (A) (A) (A) (A) (A) (A) (A) (A) (A)
                 (A) (A) (A) (A) (A) (A) (A) (A) (A) (A) (A) (A)
                 (A) (A) (A) (A) (A) (A) (A) (A) (A) (A) (A) (A)
                 (A) (A) (A) (A) (A) (A) (A) (A) (A) (A) (A) (A)
                 (A) (A) (A) (A) (A) (A) (A) (A) (A) (A) (A) (A)
                 (A) (A) (A) (A) (A) (A) (A) (A) (A) (A) (A) (A)
                 (A) (A) (A) (A) (A) (A) (A)
       Virtual   (A) (A) (A) (A) (A) (A) (A) (A) (A) (A) (A) (A)
                 (A) (A) (A) (A) (A) (A) (A) (A) (A) (A) (A) (A)
                 (A) (A) (A) (A) (A) (A) (A) (A) (A) (A) (A) (A)
                 (A) (A) (A) (A) (A) (A) (A) (A) (A) (A) (A) (A)
                 (A) (A) (A) (A) (A) (A) (A) (A) (A) (A) (A) (A)
                 (A) (A) (A) (A) (A) (A) (A) (A) (A) (A) (A) (A)
                 (A) (A) (A) (A) (A) (A) (A) (A) (A) (A) (A) (A)
                 (A) (A) (A) (A) (A) (A) (A) (A) (A) (A) (A) (A)
                 (A) (A) (A) (A) (A) (A) (A) (A) (A) (A) (A) (A)
                 (A) (A) (A) (A) (A) (A) (A) (A) (A) (A) (A) (A)
                 (A) (A) (A) (A) (A) (A) (A) (A) (A) (A) (A) (A)
                 (A) (A) (A) (A) (A) (A) (A) (A) (A) (A) (A) (A)
                 (A) (A) (A) (A) (A) (A) (A) (A) (A) (A) (A) (A)
                 (A) (A) (A) (A) (A) (A) (A) (A) (A) (A) (A) (A)
                 (A) (A) (A) (A) (A) (A) (A) (A) (A) (A) (A) (A)
                 (A) (A) (A) (A) (A) (A) (A) (A) (A) (A) (A) (A)
                 (A) (A) (A) (A) (A) (A) (A) (A) (A) (A) (A) (A)
                 (A) (A) (A) (A) (A) (A) (A) (A) (A) (A) (A) (A)
                 (A) (A) (A) (A) (A) (A) (A) (A) (A) (A) (A) (A)
                 (A) (A) (A) (A) (A) (A) (A) (A) (A) (A) (A) (A)
                 (A) (A) (A) (A) (A) (A) (A) (A) (A) (A) (A) (A)
                 (A) (A) (A) (A) (A) (A) (A) (A) (A) (A) (A) (A)
                 (A) (A) (A) (A) (A) (A) (A) (A) (A) (A) (A) (A)
                 (A) (A) (A) (A) (A) (A) (A) (A) (A) (A) (A) (A)
                 (A) (A) (A) (A) (A) (A) (A) (A) (A) (A) (A) (A)
                 (A) (A) (A) (A) (A) (A) (A) (A) (A) (A) (A) (A)
                 (A) (A) (A) (A) (A) (A) (A) (A) (A) (A) (A) (A)
                 (A) (A) (A) (A) (A) (A) (A) (A) (A) (A) (A) (A)
                 (A) (A) (A) (A) (A) (A) (A) (A) (A) (A) (A) (A)
                 (A) (A) (A) (A) (A) (A) (A) (A) (A) (A) (A) (A)
                 (A) (A) (A) (A) (A) (A) (A) (A) (A) (A) (A) (A)
                 (A) (A) (A) (A) (A) (A) (A) (A) (A) (A) (A) (A)
                 (A) (A) (A) (A) (A) (A) (A) (A) (A) (A) (A) (A)
                 (A) (A) (A) (A) (A) (A) (A) (A) (A) (A) (A) (A)
                 (A) (A) (A) (A) (A) (A) (A) (A) (A) (A) (A) (A)
                 (A) (A) (A) (A) (A) (A) (A) (A) (A) (A) (A) (A)
                 (A) (A) (A) (A) (A) (A) (A) (A) (A) (A) (A) (A)
                 (A) (A) (A) (A) (A) (A) (A) (A) (A) (A) (A) (A)
                 (A) (A) (A) (A) (A) (A) (A) (A) (A) (A) (A) (A)
                 (A) (A) (A) (A) (A) (A) (A) (A) (A) (A) (A) (A)
                 (A) (A) (A) (A) (A) (A) (A) (A) (A) (A) (A) (A)
                 (A) (A) (A) (A) (A) (A) (A) (A) (A) (A) (A) (A)
                 (A) (A) (A) (A) (A) (A) (A) (A) (A) (A) (A) (A)
                 (A) (A) (A) (A) (A) (A) (A) (A) (A) (A) (A) (A)
                 (A) (A) (A) (A) (A) (A) (A) (A) (A) (A) (A) (A)
                 (A) (A) (A) (A) (A) (A) (A) (A) (A) (A) (A) (A)
                 (A) (A) (A) (A) (A) (A) (A) (A) (A) (A) (A) (A)
                 (A) (A) (A) (A) (A) (A) (A) (A) (A) (A) (A) (A)
                 (A) (A) (A) (A) (A) (A) (A) (A) (A) (A) (A) (A)
                 (A) (A) (A) (A) (A) (A) (A) (A) (A) (A) (A) (A)
                 (A) (A) (A) (A) (A) (A) (A) (A) (A) (A) (A) (A)
                 (A) (A) (A) (A) (A) (A) (A) (A) (A) (A) (A) (A)
                 (A) (A) (A) (A) (A) (A) (A) (A) (A) (A) (A) (A)
                 (A) (A) (A) (A) (A) (A) (A) (A) (A) (A) (A) (A)
                 (A) (A) (A) (A) (A) (A) (A) (A) (A) (A) (A) (A)
                 (A) (A) (A) (A) (A) (A) (A) (A) (A) (A) (A) (A)
                 (A) (A) (A) (A) (A) (A) (A) (A) (A) (A) (A) (A)
                 (A) (A) (A) (A) (A) (A) (A) (A) (A) (A) (A) (A)
                 (A) (A) (A) (A) (A) (A) (A) (A) (A) (A) (A) (A)
                 (A) (A) (A) (A) (A) (A) (A) (A) (A) (A) (A) (A)
                 (A) (A) (A) (A) (A) (A) (A) (A) (A) (A) (A) (A)
                 (A) (A) (A) (A) (A) (A) (A) (A) (A) (A) (A) (A)
                 (A) (A) (A) (A) (A) (A) (A) (A) (A) (A) (A)
 The electronic state is 1-A.
 Alpha  occ. eigenvalues --  -19.19181 -19.18444 -19.17870 -19.17238 -19.17042
 Alpha  occ. eigenvalues --  -19.16722 -19.16681 -19.15678 -19.14860 -19.13831
 Alpha  occ. eigenvalues --  -19.13346 -10.30071 -10.29987 -10.25628 -10.25593
 Alpha  occ. eigenvalues --  -10.25371 -10.25209 -10.25011 -10.24777 -10.24562
 Alpha  occ. eigenvalues --  -10.24038 -10.23830 -10.23768  -1.10120  -1.08624
 Alpha  occ. eigenvalues --   -1.05809  -1.05146  -1.03931  -1.03564  -1.02160
 Alpha  occ. eigenvalues --   -1.01938  -1.01426  -1.00757  -0.99815  -0.81451
 Alpha  occ. eigenvalues --   -0.80259  -0.79334  -0.77903  -0.71996  -0.69953
 Alpha  occ. eigenvalues --   -0.66851  -0.64776  -0.63387  -0.62163  -0.61244
 Alpha  occ. eigenvalues --   -0.60249  -0.56324  -0.55707  -0.55047  -0.54285
 Alpha  occ. eigenvalues --   -0.53488  -0.53050  -0.52755  -0.52007  -0.50912
 Alpha  occ. eigenvalues --   -0.50253  -0.49934  -0.49333  -0.48784  -0.46768
 Alpha  occ. eigenvalues --   -0.46197  -0.45011  -0.43982  -0.43417  -0.43075
 Alpha  occ. eigenvalues --   -0.42851  -0.41775  -0.40916  -0.39541  -0.38928
 Alpha  occ. eigenvalues --   -0.38632  -0.37966  -0.37497  -0.36117  -0.35431
 Alpha  occ. eigenvalues --   -0.35183  -0.35028  -0.34281  -0.33823  -0.33562
 Alpha  occ. eigenvalues --   -0.32412  -0.31704  -0.31225  -0.31042  -0.29982
 Alpha  occ. eigenvalues --   -0.29013  -0.28157  -0.27742  -0.27236  -0.26566
 Alpha  occ. eigenvalues --   -0.26350
 Alpha virt. eigenvalues --   -0.02292  -0.01934  -0.01506  -0.00174   0.00223
 Alpha virt. eigenvalues --    0.01037   0.01996   0.02539   0.02695   0.03710
 Alpha virt. eigenvalues --    0.03860   0.04282   0.05098   0.05280   0.05809
 Alpha virt. eigenvalues --    0.06213   0.06569   0.07385   0.07684   0.07759
 Alpha virt. eigenvalues --    0.08302   0.08712   0.09116   0.09830   0.10140
 Alpha virt. eigenvalues --    0.10671   0.10815   0.11826   0.12020   0.12115
 Alpha virt. eigenvalues --    0.12446   0.12831   0.13304   0.13603   0.13716
 Alpha virt. eigenvalues --    0.14223   0.14439   0.14654   0.14989   0.15342
 Alpha virt. eigenvalues --    0.15707   0.16198   0.16818   0.16967   0.17039
 Alpha virt. eigenvalues --    0.17536   0.17659   0.17846   0.17994   0.18386
 Alpha virt. eigenvalues --    0.19074   0.19267   0.19414   0.19628   0.20342
 Alpha virt. eigenvalues --    0.20588   0.20993   0.21469   0.21572   0.21767
 Alpha virt. eigenvalues --    0.21873   0.22189   0.22294   0.22701   0.23234
 Alpha virt. eigenvalues --    0.23636   0.24211   0.24398   0.24661   0.24861
 Alpha virt. eigenvalues --    0.25090   0.25354   0.25759   0.25838   0.26222
 Alpha virt. eigenvalues --    0.26328   0.26634   0.26953   0.27398   0.27740
 Alpha virt. eigenvalues --    0.27864   0.28422   0.28586   0.28747   0.28833
 Alpha virt. eigenvalues --    0.29123   0.29375   0.29748   0.30440   0.30558
 Alpha virt. eigenvalues --    0.31035   0.31730   0.31853   0.32090   0.32272
 Alpha virt. eigenvalues --    0.32575   0.32823   0.33044   0.33495   0.33956
 Alpha virt. eigenvalues --    0.34183   0.34833   0.35196   0.35377   0.35423
 Alpha virt. eigenvalues --    0.36078   0.36711   0.37067   0.37256   0.37479
 Alpha virt. eigenvalues --    0.37794   0.37892   0.38339   0.39373   0.39821
 Alpha virt. eigenvalues --    0.40181   0.40432   0.40787   0.41207   0.41420
 Alpha virt. eigenvalues --    0.41822   0.42362   0.42979   0.43610   0.43947
 Alpha virt. eigenvalues --    0.44116   0.44696   0.45182   0.45889   0.46598
 Alpha virt. eigenvalues --    0.46865   0.47628   0.48221   0.48937   0.50294
 Alpha virt. eigenvalues --    0.50405   0.51957   0.52844   0.57685   0.57899
 Alpha virt. eigenvalues --    0.59002   0.59422   0.60618   0.60969   0.61373
 Alpha virt. eigenvalues --    0.61706   0.63008   0.64000   0.65204   0.66039
 Alpha virt. eigenvalues --    0.66543   0.67507   0.67951   0.69035   0.69284
 Alpha virt. eigenvalues --    0.70134   0.70556   0.72095   0.72980   0.73335
 Alpha virt. eigenvalues --    0.73937   0.74547   0.74732   0.75799   0.76561
 Alpha virt. eigenvalues --    0.77346   0.77949   0.78756   0.80435   0.80822
 Alpha virt. eigenvalues --    0.81318   0.81374   0.83405   0.84549   0.84967
 Alpha virt. eigenvalues --    0.87082   0.87374   0.87917   0.88759   0.89036
 Alpha virt. eigenvalues --    0.89637   0.90007   0.90246   0.90696   0.90864
 Alpha virt. eigenvalues --    0.92026   0.92508   0.92942   0.93071   0.93467
 Alpha virt. eigenvalues --    0.93786   0.94478   0.94807   0.95114   0.95656
 Alpha virt. eigenvalues --    0.96185   0.96839   0.97666   0.98710   0.99189
 Alpha virt. eigenvalues --    0.99564   1.00259   1.00494   1.01274   1.02051
 Alpha virt. eigenvalues --    1.02759   1.03165   1.03489   1.04540   1.04700
 Alpha virt. eigenvalues --    1.05665   1.06616   1.06976   1.07532   1.07794
 Alpha virt. eigenvalues --    1.08413   1.09196   1.09745   1.10292   1.10714
 Alpha virt. eigenvalues --    1.10923   1.11907   1.13444   1.13823   1.14296
 Alpha virt. eigenvalues --    1.14382   1.14857   1.15818   1.15870   1.16499
 Alpha virt. eigenvalues --    1.16731   1.17379   1.18104   1.18314   1.19063
 Alpha virt. eigenvalues --    1.19714   1.20067   1.20234   1.21521   1.21771
 Alpha virt. eigenvalues --    1.22423   1.23701   1.23843   1.24235   1.24329
 Alpha virt. eigenvalues --    1.25099   1.25696   1.26501   1.27333   1.27579
 Alpha virt. eigenvalues --    1.28074   1.28377   1.29038   1.29654   1.30650
 Alpha virt. eigenvalues --    1.31675   1.32479   1.32756   1.33794   1.34090
 Alpha virt. eigenvalues --    1.34646   1.35317   1.35879   1.36350   1.37161
 Alpha virt. eigenvalues --    1.37704   1.38373   1.39517   1.40228   1.40552
 Alpha virt. eigenvalues --    1.41446   1.41829   1.41889   1.43224   1.44209
 Alpha virt. eigenvalues --    1.44370   1.44559   1.45351   1.46499   1.47156
 Alpha virt. eigenvalues --    1.47405   1.48077   1.49131   1.49975   1.50352
 Alpha virt. eigenvalues --    1.51558   1.52064   1.53872   1.54237   1.54859
 Alpha virt. eigenvalues --    1.57141   1.57255   1.58349   1.58776   1.59648
 Alpha virt. eigenvalues --    1.60804   1.60998   1.62467   1.63227   1.63362
 Alpha virt. eigenvalues --    1.63876   1.64594   1.65909   1.66211   1.67315
 Alpha virt. eigenvalues --    1.68240   1.69617   1.70065   1.70448   1.71016
 Alpha virt. eigenvalues --    1.71521   1.74202   1.74942   1.75638   1.76061
 Alpha virt. eigenvalues --    1.77012   1.77788   1.78121   1.80439   1.80909
 Alpha virt. eigenvalues --    1.81568   1.81670   1.83103   1.83529   1.86039
 Alpha virt. eigenvalues --    1.86836   1.88314   1.88713   1.89655   1.90145
 Alpha virt. eigenvalues --    1.90574   1.91998   1.93279   1.94174   1.95402
 Alpha virt. eigenvalues --    1.96517   1.96749   1.97702   1.98240   2.00717
 Alpha virt. eigenvalues --    2.01229   2.02653   2.03829   2.03970   2.05584
 Alpha virt. eigenvalues --    2.06337   2.07797   2.08376   2.09543   2.11075
 Alpha virt. eigenvalues --    2.14890   2.16705   2.16964   2.19294   2.19531
 Alpha virt. eigenvalues --    2.20489   2.21120   2.24341   2.25542   2.25835
 Alpha virt. eigenvalues --    2.26810   2.28509   2.29109   2.29936   2.31000
 Alpha virt. eigenvalues --    2.32305   2.33383   2.34609   2.39729   2.42820
 Alpha virt. eigenvalues --    2.44506   2.46162   2.46891   2.48028   2.50253
 Alpha virt. eigenvalues --    2.51413   2.52962   2.53373   2.54486   2.55573
 Alpha virt. eigenvalues --    2.56204   2.57032   2.59519   2.59986   2.61329
 Alpha virt. eigenvalues --    2.61663   2.62367   2.63698   2.65060   2.66739
 Alpha virt. eigenvalues --    2.67254   2.68277   2.70623   2.71990   2.72533
 Alpha virt. eigenvalues --    2.73194   2.74677   2.75247   2.76523   2.77803
 Alpha virt. eigenvalues --    2.79153   2.80444   2.81219   2.82637   2.83242
 Alpha virt. eigenvalues --    2.84801   2.86215   2.87121   2.87845   2.88836
 Alpha virt. eigenvalues --    2.89399   2.90317   2.91112   2.92412   2.93086
 Alpha virt. eigenvalues --    2.93941   2.95181   2.96154   2.98200   2.98719
 Alpha virt. eigenvalues --    2.99961   3.00375   3.01464   3.01782   3.02203
 Alpha virt. eigenvalues --    3.03623   3.03848   3.04633   3.06134   3.08131
 Alpha virt. eigenvalues --    3.08530   3.09280   3.09975   3.10581   3.12241
 Alpha virt. eigenvalues --    3.12396   3.14131   3.15221   3.16901   3.17255
 Alpha virt. eigenvalues --    3.19465   3.20111   3.21834   3.22809   3.23364
 Alpha virt. eigenvalues --    3.24695   3.25015   3.25785   3.26709   3.27826
 Alpha virt. eigenvalues --    3.28463   3.29944   3.31673   3.32324   3.33424
 Alpha virt. eigenvalues --    3.34287   3.36439   3.36797   3.39024   3.39994
 Alpha virt. eigenvalues --    3.40936   3.41737   3.42618   3.42867   3.44885
 Alpha virt. eigenvalues --    3.45622   3.47782   3.49248   3.53059   3.53843
 Alpha virt. eigenvalues --    3.54434   3.55204   3.57744   3.60144   3.61127
 Alpha virt. eigenvalues --    3.62638   3.64112   3.64501   3.65682   3.68061
 Alpha virt. eigenvalues --    3.68213   3.69484   3.71213   3.72126   3.72204
 Alpha virt. eigenvalues --    3.75271   3.75643   3.77698   3.78431   3.80047
 Alpha virt. eigenvalues --    3.80863   3.82289   3.83409   3.84733   3.85346
 Alpha virt. eigenvalues --    3.86429   3.87201   3.89629   3.90383   3.91306
 Alpha virt. eigenvalues --    3.93074   3.95667   3.97630   4.00718   4.02141
 Alpha virt. eigenvalues --    4.04351   4.04876   4.06209   4.09908   4.14749
 Alpha virt. eigenvalues --    4.16206   4.16393   4.17553   4.18035   4.19263
 Alpha virt. eigenvalues --    4.20533   4.22138   4.23512   4.24663   4.26392
 Alpha virt. eigenvalues --    4.27668   4.28174   4.28909   4.29822   4.30980
 Alpha virt. eigenvalues --    4.31137   4.32277   4.33504   4.34420   4.35800
 Alpha virt. eigenvalues --    4.36208   4.36931   4.37759   4.38860   4.39724
 Alpha virt. eigenvalues --    4.40670   4.41783   4.42130   4.43306   4.44699
 Alpha virt. eigenvalues --    4.45516   4.45850   4.46754   4.47175   4.47683
 Alpha virt. eigenvalues --    4.49086   4.49774   4.50559   4.50868   4.51433
 Alpha virt. eigenvalues --    4.52246   4.53591   4.54191   4.54577   4.55236
 Alpha virt. eigenvalues --    4.55991   4.56453   4.56648   4.57763   4.58698
 Alpha virt. eigenvalues --    4.59106   4.60408   4.60719   4.61146   4.62005
 Alpha virt. eigenvalues --    4.62204   4.62747   4.63895   4.64694   4.64891
 Alpha virt. eigenvalues --    4.66103   4.67326   4.68369   4.68609   4.68682
 Alpha virt. eigenvalues --    4.69946   4.70637   4.70997   4.71398   4.72128
 Alpha virt. eigenvalues --    4.73004   4.73453   4.74330   4.75297   4.75607
 Alpha virt. eigenvalues --    4.76681   4.77397   4.77942   4.78478   4.79168
 Alpha virt. eigenvalues --    4.79792   4.80462   4.81099   4.81683   4.82072
 Alpha virt. eigenvalues --    4.83066   4.83685   4.84004   4.85020   4.85633
 Alpha virt. eigenvalues --    4.86432   4.87659   4.87988   4.89719   4.90070
 Alpha virt. eigenvalues --    4.91071   4.91654   4.92214   4.94396   4.95811
 Alpha virt. eigenvalues --    4.98181   4.98448   4.98987   5.00543   5.01928
 Alpha virt. eigenvalues --    5.03706   5.03836   5.05099   5.08693   5.09465
 Alpha virt. eigenvalues --    5.12066   5.12515   5.16993   5.17524   5.18045
 Alpha virt. eigenvalues --    5.19813   5.22166   5.23377   5.23555   5.24197
 Alpha virt. eigenvalues --    5.24716   5.24858   5.26956   5.28684   5.29561
 Alpha virt. eigenvalues --    5.31327   5.32703   5.33379   5.34001   5.34257
 Alpha virt. eigenvalues --    5.35612   5.37847   5.38591   5.39142   5.40382
 Alpha virt. eigenvalues --    5.40960   5.41249   5.41978   5.43780   5.43922
 Alpha virt. eigenvalues --    5.44439   5.45582   5.45830   5.48016   5.49036
 Alpha virt. eigenvalues --    5.49621   5.50364   5.51317   5.51827   5.52161
 Alpha virt. eigenvalues --    5.53015   5.53428   5.54278   5.55908   5.57144
 Alpha virt. eigenvalues --    5.58622   5.60268   5.61830   5.65239   5.66539
 Alpha virt. eigenvalues --    5.67278   5.69786   5.70152   5.72190   5.75667
 Alpha virt. eigenvalues --    5.77715   5.77963   5.80400   5.81810   5.83046
 Alpha virt. eigenvalues --    5.83981   5.85547   5.86526   5.88246   5.89097
 Alpha virt. eigenvalues --    5.90646   5.91310   5.91900   5.93232   5.94481
 Alpha virt. eigenvalues --    5.94734   5.96089   5.97027   5.97780   6.00059
 Alpha virt. eigenvalues --    6.00187   6.02555   6.04433   6.05589   6.08188
 Alpha virt. eigenvalues --    6.08617   6.09903   6.11507   6.12805   6.13633
 Alpha virt. eigenvalues --    6.14194   6.16285   6.17603   6.18731   6.20038
 Alpha virt. eigenvalues --    6.22788   6.23964   6.30414   6.33515   6.39322
 Alpha virt. eigenvalues --    6.58052   6.67407   6.96307   7.02356   7.09433
 Alpha virt. eigenvalues --    7.12866   7.16861   7.23809   7.25856   7.32026
 Alpha virt. eigenvalues --    7.32699   7.37343   7.43090   7.51536   7.60678
 Alpha virt. eigenvalues --    7.82651   8.26614  12.06566  12.16157  12.24009
 Alpha virt. eigenvalues --   12.25744  12.46655  12.55879  12.78067  12.90213
 Alpha virt. eigenvalues --   13.01646  13.05745  13.20307  13.37686  13.46062
 Alpha virt. eigenvalues --   13.46741  13.51695  13.56842  13.58950  13.62641
 Alpha virt. eigenvalues --   13.72765  13.76428  13.97230  14.16394  14.21071
          Condensed to atoms (all electrons):
              1          2          3          4          5          6
     1  O    8.084494   0.302307  -0.115457  -0.024569   0.024022   0.088791
     2  C    0.302307   7.204524   0.199839   0.021673  -0.054100  -1.049982
     3  C   -0.115457   0.199839   6.956072   0.311209  -0.019640  -1.652402
     4  O   -0.024569   0.021673   0.311209   8.097512   0.243422  -0.198661
     5  H    0.024022  -0.054100  -0.019640   0.243422   0.419760   0.011601
     6  C    0.088791  -1.049982  -1.652402  -0.198661   0.011601  12.325038
     7  O   -0.000285   0.015681  -0.072102   0.010281  -0.000309   0.194252
     8  H    0.000013  -0.006284   0.006581  -0.000350   0.000011   0.058501
     9  C   -0.037796  -0.119383  -0.429468   0.002315   0.001422   0.578929
    10  O   -0.030049  -0.036752   0.011201  -0.000192   0.000037  -0.002853
    11  H    0.000832  -0.004040  -0.002810   0.000000   0.000000   0.001415
    12  C   -0.106853  -0.705200  -0.797804  -0.017813   0.028990   0.916592
    13  O    0.003844  -0.060018  -0.006883  -0.001923  -0.000006  -0.002750
    14  C   -0.023242   0.274967   1.342489   0.050396   0.000046  -4.627230
    15  O    0.000019  -0.022278   0.006881   0.000605   0.000023  -0.057193
    16  C    0.000612  -0.052523   0.116310   0.001181   0.000298  -0.626168
    17  C   -0.000194  -0.002346  -0.025065   0.000154  -0.000012   0.238619
    18  O    0.000015   0.007095   0.001162  -0.000014   0.000000  -0.014866
    19  H   -0.000035  -0.002991  -0.001844   0.000005   0.000000   0.015838
    20  C    0.000057   0.006694  -0.002431   0.000017   0.000000  -0.025388
    21  O    0.000000   0.000031   0.000022   0.000000   0.000000  -0.000252
    22  H    0.000000   0.000000   0.000000   0.000000   0.000000  -0.000024
    23  C   -0.000068   0.011417  -0.009237   0.000380  -0.000029  -0.187829
    24  O    0.000002   0.002659  -0.012329  -0.000080  -0.000002  -0.001315
    25  H    0.000000  -0.000201   0.002459   0.000001   0.000000  -0.000083
    26  C    0.000230  -0.040835   0.002277  -0.000211   0.000060  -0.007291
    27  O    0.000000   0.000134  -0.000442   0.000000   0.000000   0.005322
    28  C    0.000005  -0.000380  -0.000776  -0.000001   0.000000  -0.002628
    29  O    0.000000   0.000000   0.000020   0.000000   0.000000  -0.000165
    30  H    0.000000   0.000000   0.000000   0.000000   0.000000   0.000003
    31  H    0.271405   0.033165  -0.039062   0.001652  -0.002731  -0.006786
    32  H   -0.000864  -0.020586   0.003857   0.000012   0.000000  -0.010203
    33  H    0.003786   0.003617  -0.004048   0.000039  -0.000002   0.015110
    34  H    0.006837   0.015680   0.008006   0.000852   0.000001  -0.056808
    35  H   -0.009824   0.272785   0.020668  -0.000274   0.000616  -0.054879
    36  H   -0.003132  -0.052250   0.381709  -0.032119   0.002539  -0.234791
    37  H   -0.000163   0.018468  -0.127458   0.002251  -0.000085   0.446029
    38  H    0.000164  -0.022948  -0.080538  -0.000264   0.000000   0.201644
    39  H    0.000000   0.000025  -0.000203   0.000000   0.000000   0.001035
    40  H    0.000000   0.000137   0.000227  -0.000001   0.000000  -0.011653
    41  H    0.000000   0.000335  -0.000286   0.000000   0.000000  -0.002517
    42  H   -0.000003   0.000153  -0.004087   0.000000   0.000000   0.027021
    43  H    0.000000   0.000489   0.000237   0.000000   0.000000   0.001720
    44  H    0.000000   0.000019   0.000034   0.000000   0.000000  -0.000487
    45  H    0.000000   0.000002   0.000010   0.000000   0.000000  -0.000116
              7          8          9         10         11         12
     1  O   -0.000285   0.000013  -0.037796  -0.030049   0.000832  -0.106853
     2  C    0.015681  -0.006284  -0.119383  -0.036752  -0.004040  -0.705200
     3  C   -0.072102   0.006581  -0.429468   0.011201  -0.002810  -0.797804
     4  O    0.010281  -0.000350   0.002315  -0.000192   0.000000  -0.017813
     5  H   -0.000309   0.000011   0.001422   0.000037   0.000000   0.028990
     6  C    0.194252   0.058501   0.578929  -0.002853   0.001415   0.916592
     7  O    8.088915   0.262407  -0.002544  -0.000014   0.000000  -0.016264
     8  H    0.262407   0.346296   0.000489   0.000000   0.000000   0.003863
     9  C   -0.002544   0.000489   7.127726   0.084215  -0.010866  -0.885823
    10  O   -0.000014   0.000000   0.084215   8.131191   0.235550   0.102192
    11  H    0.000000   0.000000  -0.010866   0.235550   0.437661   0.017065
    12  C   -0.016264   0.003863  -0.885823   0.102192   0.017065   8.773052
    13  O    0.002721  -0.000467  -0.043023   0.001777  -0.000656   0.011840
    14  C    0.044237  -0.081084  -0.910105   0.015838  -0.004423  -1.311825
    15  O    0.003364   0.004006   0.001191   0.000147  -0.000001  -0.013895
    16  C    0.001677   0.007473  -0.092903   0.000153  -0.000490  -0.043252
    17  C   -0.002216   0.000455   0.035548  -0.000246   0.000144  -0.014696
    18  O    0.000076  -0.000020  -0.010766  -0.000175   0.000003   0.001216
    19  H   -0.000049   0.000001   0.013390   0.000037  -0.000001  -0.009123
    20  C    0.001433  -0.000030  -0.003334  -0.000059  -0.000008  -0.007165
    21  O    0.000000   0.000000  -0.000036   0.000000   0.000000  -0.000226
    22  H    0.000000   0.000000  -0.000003   0.000000   0.000000   0.000016
    23  C    0.037133  -0.000324   0.006980   0.000010   0.000000   0.032789
    24  O   -0.051549  -0.009686  -0.000821  -0.000001   0.000000  -0.004953
    25  H    0.003923  -0.001128  -0.000007   0.000000   0.000000  -0.000343
    26  C   -0.025659  -0.006123  -0.004223  -0.000004  -0.000008  -0.029319
    27  O   -0.000027  -0.000062   0.000211   0.000000   0.000000   0.000449
    28  C   -0.000155  -0.000113  -0.000628  -0.000008   0.000000  -0.001226
    29  O   -0.000001   0.000000  -0.000008   0.000000   0.000000   0.000070
    30  H    0.000000   0.000000   0.000000   0.000000   0.000000   0.000000
    31  H   -0.000006   0.000000   0.000154   0.000670  -0.000020  -0.002470
    32  H   -0.000005   0.000000   0.412151  -0.027318  -0.006859  -0.030096
    33  H    0.000003   0.000000   0.554493  -0.046203  -0.003437  -0.215685
    34  H    0.000312   0.000008   0.017622  -0.000231  -0.000188   0.091871
    35  H    0.000491   0.000006  -0.060599  -0.000820  -0.000010  -0.008026
    36  H    0.003979  -0.000063   0.011080  -0.000460   0.000000   0.060728
    37  H   -0.028788  -0.006160   0.015782   0.000002   0.000000   0.055646
    38  H   -0.001251  -0.000454   0.040692   0.000130   0.000000   0.093233
    39  H   -0.000474   0.000195   0.000000   0.000000   0.000000   0.000095
    40  H    0.000704  -0.000023   0.000020   0.000000   0.000000   0.000666
    41  H   -0.000050  -0.000023   0.000099   0.000000   0.000000   0.001273
    42  H   -0.001167  -0.000045   0.001801   0.000004   0.000000   0.018669
    43  H   -0.000017   0.000000  -0.000161   0.000000   0.000000   0.001673
    44  H    0.000000   0.000000  -0.000166   0.000000   0.000000   0.000644
    45  H    0.000000   0.000000  -0.000010   0.000000   0.000000  -0.000026
             13         14         15         16         17         18
     1  O    0.003844  -0.023242   0.000019   0.000612  -0.000194   0.000015
     2  C   -0.060018   0.274967  -0.022278  -0.052523  -0.002346   0.007095
     3  C   -0.006883   1.342489   0.006881   0.116310  -0.025065   0.001162
     4  O   -0.001923   0.050396   0.000605   0.001181   0.000154  -0.000014
     5  H   -0.000006   0.000046   0.000023   0.000298  -0.000012   0.000000
     6  C   -0.002750  -4.627230  -0.057193  -0.626168   0.238619  -0.014866
     7  O    0.002721   0.044237   0.003364   0.001677  -0.002216   0.000076
     8  H   -0.000467  -0.081084   0.004006   0.007473   0.000455  -0.000020
     9  C   -0.043023  -0.910105   0.001191  -0.092903   0.035548  -0.010766
    10  O    0.001777   0.015838   0.000147   0.000153  -0.000246  -0.000175
    11  H   -0.000656  -0.004423  -0.000001  -0.000490   0.000144   0.000003
    12  C    0.011840  -1.311825  -0.013895  -0.043252  -0.014696   0.001216
    13  O    7.911089   0.300766  -0.013051   0.021406   0.005955  -0.015648
    14  C    0.300766  11.161430   0.280883  -0.988062   0.175620   0.003717
    15  O   -0.013051   0.280883   7.784855   0.315172  -0.104880  -0.015430
    16  C    0.021406  -0.988062   0.315172  10.294705  -2.046209  -0.076766
    17  C    0.005955   0.175620  -0.104880  -2.046209   8.257659   0.271886
    18  O   -0.015648   0.003717  -0.015430  -0.076766   0.271886   8.094718
    19  H    0.020710  -0.013285   0.015107  -0.059740   0.029287   0.240013
    20  C   -0.012108  -0.207165   0.015822  -0.383130  -0.605987  -0.046955
    21  O   -0.000036  -0.000150   0.000278   0.048962  -0.052971   0.005573
    22  H    0.000000   0.000192   0.000011  -0.010982   0.013466  -0.000633
    23  C    0.004239   0.163651  -0.007540  -0.110246  -0.184909   0.008066
    24  O    0.001157   0.071819  -0.014498   0.026645  -0.001013   0.000096
    25  H   -0.000042  -0.010596   0.001616   0.000077  -0.001443   0.000000
    26  C   -0.011595  -0.296044  -0.091278  -1.265479  -0.247752   0.041829
    27  O   -0.000148   0.017612   0.003553   0.084308   0.002051  -0.001649
    28  C   -0.000887   0.004068   0.000017   0.475363   0.062077  -0.012888
    29  O    0.000030   0.001006  -0.000007  -0.009211  -0.012352   0.000451
    30  H    0.000000  -0.000064   0.000004  -0.003226   0.005614  -0.000022
    31  H   -0.000799   0.005385  -0.000001   0.000218  -0.000015   0.000000
    32  H   -0.001682  -0.000384  -0.000063   0.011830  -0.001474  -0.000066
    33  H   -0.002239  -0.000556  -0.000187  -0.003642   0.000602  -0.000144
    34  H   -0.017220   0.179290   0.000703  -0.004678   0.006379  -0.000632
    35  H    0.000933   0.102218  -0.000291  -0.006853   0.001983   0.000000
    36  H    0.003617   0.089219  -0.000267  -0.010234   0.001933   0.000047
    37  H    0.006079  -0.101513  -0.014399  -0.029188   0.004455   0.000128
    38  H   -0.033719   0.105515  -0.045523  -0.069197   0.042785  -0.002034
    39  H    0.000024   0.008847   0.000859   0.006936   0.010702   0.000001
    40  H   -0.000006   0.009308   0.000402   0.032766  -0.004312   0.000044
    41  H   -0.000226   0.058902   0.000071  -0.026406  -0.035078   0.000202
    42  H   -0.001626   0.014252  -0.031509   0.098637   0.058847  -0.001399
    43  H    0.000063   0.004303  -0.002822  -0.116802   0.351607  -0.024342
    44  H    0.000122  -0.009143   0.000384   0.048052  -0.125066   0.005103
    45  H    0.000017  -0.001685   0.000411   0.033899  -0.038552   0.000538
             19         20         21         22         23         24
     1  O   -0.000035   0.000057   0.000000   0.000000  -0.000068   0.000002
     2  C   -0.002991   0.006694   0.000031   0.000000   0.011417   0.002659
     3  C   -0.001844  -0.002431   0.000022   0.000000  -0.009237  -0.012329
     4  O    0.000005   0.000017   0.000000   0.000000   0.000380  -0.000080
     5  H    0.000000   0.000000   0.000000   0.000000  -0.000029  -0.000002
     6  C    0.015838  -0.025388  -0.000252  -0.000024  -0.187829  -0.001315
     7  O   -0.000049   0.001433   0.000000   0.000000   0.037133  -0.051549
     8  H    0.000001  -0.000030   0.000000   0.000000  -0.000324  -0.009686
     9  C    0.013390  -0.003334  -0.000036  -0.000003   0.006980  -0.000821
    10  O    0.000037  -0.000059   0.000000   0.000000   0.000010  -0.000001
    11  H   -0.000001  -0.000008   0.000000   0.000000   0.000000   0.000000
    12  C   -0.009123  -0.007165  -0.000226   0.000016   0.032789  -0.004953
    13  O    0.020710  -0.012108  -0.000036   0.000000   0.004239   0.001157
    14  C   -0.013285  -0.207165  -0.000150   0.000192   0.163651   0.071819
    15  O    0.015107   0.015822   0.000278   0.000011  -0.007540  -0.014498
    16  C   -0.059740  -0.383130   0.048962  -0.010982  -0.110246   0.026645
    17  C    0.029287  -0.605987  -0.052971   0.013466  -0.184909  -0.001013
    18  O    0.240013  -0.046955   0.005573  -0.000633   0.008066   0.000096
    19  H    0.366915   0.010742  -0.000505   0.000013  -0.003444  -0.000043
    20  C    0.010742   6.962129   0.133122   0.005239   0.084060  -0.003172
    21  O   -0.000505   0.133122   8.086476   0.251293  -0.000862   0.000018
    22  H    0.000013   0.005239   0.251293   0.417364   0.000122   0.000000
    23  C   -0.003444   0.084060  -0.000862   0.000122   6.686668   0.082060
    24  O   -0.000043  -0.003172   0.000018   0.000000   0.082060   8.241643
    25  H    0.000000   0.000690   0.000000   0.000000  -0.022125   0.245449
    26  C   -0.007255   0.473913  -0.023306   0.005234  -1.126624  -0.017353
    27  O    0.000159  -0.127342   0.003830  -0.000879  -0.085606   0.004995
    28  C    0.004270  -0.326031  -0.006359  -0.021636  -0.102407   0.002269
    29  O    0.000003  -0.048755   0.019114   0.005114   0.012583   0.000020
    30  H    0.000000  -0.027763  -0.004018  -0.000566  -0.000468  -0.000001
    31  H    0.000000   0.000001   0.000000   0.000000   0.000002   0.000000
    32  H    0.000507  -0.000164   0.000000   0.000000   0.000033   0.000000
    33  H    0.000007   0.000109   0.000000   0.000000  -0.000004   0.000000
    34  H    0.000051   0.000579   0.000000   0.000000  -0.000321   0.000018
    35  H   -0.000021   0.000011   0.000000   0.000000  -0.000025   0.000007
    36  H   -0.000001   0.000039   0.000000   0.000000   0.000641   0.000041
    37  H   -0.000019   0.000008   0.000000   0.000000   0.005195   0.000800
    38  H    0.000256   0.005236  -0.000004   0.000000   0.006512   0.000323
    39  H    0.000000  -0.004732  -0.000003   0.000000   0.370569  -0.011340
    40  H    0.000000   0.000700   0.000002   0.000000   0.614769  -0.056549
    41  H    0.000029  -0.019767   0.000128   0.000001   0.089731   0.002329
    42  H    0.000118   0.019251  -0.000306   0.000007   0.015025  -0.000321
    43  H   -0.006282  -0.022057  -0.003338  -0.000087   0.009631  -0.000061
    44  H   -0.000110   0.345073  -0.013677  -0.008978   0.003158   0.000008
    45  H    0.000006  -0.071091   0.000222   0.000024  -0.002896   0.000048
             25         26         27         28         29         30
     1  O    0.000000   0.000230   0.000000   0.000005   0.000000   0.000000
     2  C   -0.000201  -0.040835   0.000134  -0.000380   0.000000   0.000000
     3  C    0.002459   0.002277  -0.000442  -0.000776   0.000020   0.000000
     4  O    0.000001  -0.000211   0.000000  -0.000001   0.000000   0.000000
     5  H    0.000000   0.000060   0.000000   0.000000   0.000000   0.000000
     6  C   -0.000083  -0.007291   0.005322  -0.002628  -0.000165   0.000003
     7  O    0.003923  -0.025659  -0.000027  -0.000155  -0.000001   0.000000
     8  H   -0.001128  -0.006123  -0.000062  -0.000113   0.000000   0.000000
     9  C   -0.000007  -0.004223   0.000211  -0.000628  -0.000008   0.000000
    10  O    0.000000  -0.000004   0.000000  -0.000008   0.000000   0.000000
    11  H    0.000000  -0.000008   0.000000   0.000000   0.000000   0.000000
    12  C   -0.000343  -0.029319   0.000449  -0.001226   0.000070   0.000000
    13  O   -0.000042  -0.011595  -0.000148  -0.000887   0.000030   0.000000
    14  C   -0.010596  -0.296044   0.017612   0.004068   0.001006  -0.000064
    15  O    0.001616  -0.091278   0.003553   0.000017  -0.000007   0.000004
    16  C    0.000077  -1.265479   0.084308   0.475363  -0.009211  -0.003226
    17  C   -0.001443  -0.247752   0.002051   0.062077  -0.012352   0.005614
    18  O    0.000000   0.041829  -0.001649  -0.012888   0.000451  -0.000022
    19  H    0.000000  -0.007255   0.000159   0.004270   0.000003   0.000000
    20  C    0.000690   0.473913  -0.127342  -0.326031  -0.048755  -0.027763
    21  O    0.000000  -0.023306   0.003830  -0.006359   0.019114  -0.004018
    22  H    0.000000   0.005234  -0.000879  -0.021636   0.005114  -0.000566
    23  C   -0.022125  -1.126624  -0.085606  -0.102407   0.012583  -0.000468
    24  O    0.245449  -0.017353   0.004995   0.002269   0.000020  -0.000001
    25  H    0.399504   0.018937  -0.000893  -0.000760  -0.000004   0.000000
    26  C    0.018937   9.508870   0.066847  -0.599271  -0.022098   0.000419
    27  O   -0.000893   0.066847   7.925488   0.241868  -0.049450   0.003243
    28  C   -0.000760  -0.599271   0.241868   5.556143   0.292878   0.014386
    29  O   -0.000004  -0.022098  -0.049450   0.292878   8.038372   0.265950
    30  H    0.000000   0.000419   0.003243   0.014386   0.265950   0.410700
    31  H    0.000000  -0.000011   0.000000   0.000000   0.000000   0.000000
    32  H    0.000000   0.000196   0.000001   0.000099   0.000000   0.000000
    33  H    0.000000   0.000167   0.000000  -0.000023   0.000000   0.000000
    34  H    0.000000   0.000137  -0.000002  -0.000010   0.000000   0.000000
    35  H    0.000000   0.000107   0.000000  -0.000006   0.000000   0.000000
    36  H    0.000000  -0.000644   0.000000  -0.000018   0.000000   0.000000
    37  H    0.000015  -0.008258   0.000010  -0.000068   0.000000   0.000000
    38  H    0.000009  -0.008467   0.000477  -0.000808  -0.000004   0.000000
    39  H   -0.012990  -0.043476  -0.002645   0.002264  -0.000018   0.000000
    40  H    0.001805  -0.283201   0.000546   0.001033  -0.000158   0.000000
    41  H   -0.000276   0.162633  -0.020878   0.033379  -0.000331   0.000016
    42  H   -0.000030   0.032210   0.003450  -0.001250  -0.000132   0.000001
    43  H    0.000000   0.077462   0.000682  -0.027558   0.000586   0.000012
    44  H    0.000000   0.039340   0.000636  -0.013750  -0.000444   0.000025
    45  H    0.000000   0.006249  -0.034500   0.407706  -0.019012  -0.008479
             31         32         33         34         35         36
     1  O    0.271405  -0.000864   0.003786   0.006837  -0.009824  -0.003132
     2  C    0.033165  -0.020586   0.003617   0.015680   0.272785  -0.052250
     3  C   -0.039062   0.003857  -0.004048   0.008006   0.020668   0.381709
     4  O    0.001652   0.000012   0.000039   0.000852  -0.000274  -0.032119
     5  H   -0.002731   0.000000  -0.000002   0.000001   0.000616   0.002539
     6  C   -0.006786  -0.010203   0.015110  -0.056808  -0.054879  -0.234791
     7  O   -0.000006  -0.000005   0.000003   0.000312   0.000491   0.003979
     8  H    0.000000   0.000000   0.000000   0.000008   0.000006  -0.000063
     9  C    0.000154   0.412151   0.554493   0.017622  -0.060599   0.011080
    10  O    0.000670  -0.027318  -0.046203  -0.000231  -0.000820  -0.000460
    11  H   -0.000020  -0.006859  -0.003437  -0.000188  -0.000010   0.000000
    12  C   -0.002470  -0.030096  -0.215685   0.091871  -0.008026   0.060728
    13  O   -0.000799  -0.001682  -0.002239  -0.017220   0.000933   0.003617
    14  C    0.005385  -0.000384  -0.000556   0.179290   0.102218   0.089219
    15  O   -0.000001  -0.000063  -0.000187   0.000703  -0.000291  -0.000267
    16  C    0.000218   0.011830  -0.003642  -0.004678  -0.006853  -0.010234
    17  C   -0.000015  -0.001474   0.000602   0.006379   0.001983   0.001933
    18  O    0.000000  -0.000066  -0.000144  -0.000632   0.000000   0.000047
    19  H    0.000000   0.000507   0.000007   0.000051  -0.000021  -0.000001
    20  C    0.000001  -0.000164   0.000109   0.000579   0.000011   0.000039
    21  O    0.000000   0.000000   0.000000   0.000000   0.000000   0.000000
    22  H    0.000000   0.000000   0.000000   0.000000   0.000000   0.000000
    23  C    0.000002   0.000033  -0.000004  -0.000321  -0.000025   0.000641
    24  O    0.000000   0.000000   0.000000   0.000018   0.000007   0.000041
    25  H    0.000000   0.000000   0.000000   0.000000   0.000000   0.000000
    26  C   -0.000011   0.000196   0.000167   0.000137   0.000107  -0.000644
    27  O    0.000000   0.000001   0.000000  -0.000002   0.000000   0.000000
    28  C    0.000000   0.000099  -0.000023  -0.000010  -0.000006  -0.000018
    29  O    0.000000   0.000000   0.000000   0.000000   0.000000   0.000000
    30  H    0.000000   0.000000   0.000000   0.000000   0.000000   0.000000
    31  H    0.405572   0.000026  -0.000317  -0.000261  -0.013491   0.000033
    32  H    0.000026   0.565966  -0.049643  -0.005456   0.000007   0.000003
    33  H   -0.000317  -0.049643   0.596724   0.006251   0.002480  -0.000002
    34  H   -0.000261  -0.005456   0.006251   0.613608   0.005912   0.004374
    35  H   -0.013491   0.000007   0.002480   0.005912   0.610095   0.006980
    36  H    0.000033   0.000003  -0.000002   0.004374   0.006980   0.635378
    37  H    0.000019   0.000001  -0.000007  -0.000053   0.001949   0.007631
    38  H    0.000003  -0.000001  -0.000031   0.003526  -0.000062   0.002059
    39  H    0.000000   0.000000   0.000000   0.000000   0.000000   0.000000
    40  H    0.000000   0.000000   0.000000   0.000000   0.000000   0.000000
    41  H    0.000000   0.000000   0.000000   0.000000   0.000000   0.000000
    42  H    0.000000  -0.000002   0.000000  -0.000052   0.000000   0.000001
    43  H    0.000000   0.000000   0.000000  -0.000001   0.000000   0.000000
    44  H    0.000000   0.000000   0.000000   0.000000   0.000000   0.000000
    45  H    0.000000   0.000000   0.000000   0.000000   0.000000   0.000000
             37         38         39         40         41         42
[...]
 00001268,-0.00000760,0.00000370,0.00001119,-0.00008667,0.00014228,0.00
 016062,0.00057135,0.00002928,0.00018827,-0.00078518,0.00028574,-0.0065
 5925,-0.02481231,-0.00475921,0.00676916,-0.32232113,-0.01721323,-0.088
 22730,-0.00939167,-0.00012901,-0.00551144,0.00230863,-0.00141410,0.000
 87668,-0.00063260,0.00004992,0.00006281,-0.00055872,0.00025165,0.00055
 241,0.00028238,0.00010350,-0.00014962,-0.00003421,0.00004630,-0.000087
 83,0.00075636,0.00031740,0.00022161,0.00006272,0.00002690,-0.00002205,
 0.00004324,-0.00001261,-0.00000817,-0.00270004,-0.00041411,-0.00086566
 ,0.00119244,0.00043754,-0.00092425,-0.00011434,-0.00000450,-0.00002035
 ,0.00005626,0.00000206,-0.00004593,0.00000145,-0.00000304,0.00000341,-
 0.00000395,-0.00000282,-0.00000044,-0.00000140,0.00002488,-0.00000677,
 0.00001197,-0.00000159,-0.00001322,0.00004706,0.00001338,0.00004102,0.
 00001112,0.00000044,-0.00001168,0.00003021,0.00000992,0.00002807,0.000
 06368,0.00027116,-0.00032146,0.00281848,0.00029416,0.00130713,0.000219
 89,0.00008577,0.00001479,0.00028906,-0.00067329,-0.00002738,0.00063288
 ,0.00017832,0.00038068,0.35068078,0.00000290,-0.00003084,0.00002160,-0
 .00001192,0.00005096,-0.00002248,0.00001064,0.00001049,0.00002260,0.00
 000922,-0.00002607,-0.00001882,-0.00000238,0.00001019,-0.00000324,-0.0
 0005999,0.00009535,0.00011352,0.00015882,-0.00004057,-0.00020858,-0.00
 012571,-0.00006105,0.00009602,0.00002635,-0.00000912,-0.00003506,-0.00
 000975,0.00001818,0.00003983,0.00000907,-0.00000448,-0.00000771,-0.000
 00743,0.00002644,-0.00001240,0.00027752,-0.00010699,0.00024707,-0.0015
 8279,0.00117885,-0.00098199,-0.00844474,-0.00069022,0.00233431,-0.0165
 8550,-0.04338374,-0.00675598,0.03009827,-0.00109081,0.01063595,-0.0017
 4839,0.00382775,0.00073968,0.00048409,-0.00014884,-0.00024012,0.000631
 60,0.00099835,-0.00099155,-0.00032915,-0.00039061,0.00019608,-0.000055
 36,-0.00008612,0.00010707,-0.00180606,0.00171017,0.00080646,0.00029465
 ,-0.00012538,-0.00020128,0.00000334,-0.00003572,0.00003477,-0.02593800
 ,-0.00379768,-0.01024534,0.00126855,0.00094030,0.00113232,0.00034928,-
 0.00075262,0.00002939,-0.00002398,0.00016754,0.00008524,-0.00002081,0.
 00000604,-0.00000225,0.00000071,0.00000244,-0.00000296,0.00000454,-0.0
 0003057,0.00000061,-0.00001212,-0.00000727,0.00000983,-0.00000517,0.00
 003344,-0.00001202,0.00000186,-0.00000852,0.00000343,0.00000820,0.0000
 0873,0.00001302,0.00006825,0.00001971,-0.00004348,0.00053253,0.0006103
 5,0.00039076,0.00028883,0.00040395,0.00008180,0.00091841,-0.00025864,0
 .00010171,-0.00065290,-0.00298535,-0.00350030,0.02085487,0.04909535,-0
 .00000180,-0.00000812,-0.00001172,-0.00000200,-0.00000029,0.00000358,0
 .00001885,0.00006633,-0.00000169,-0.00001198,-0.00000732,-0.00001557,-
 0.00000465,0.00000273,-0.00000222,-0.00001597,0.00003778,-0.00032560,-
 0.00012957,0.00000160,0.00003227,0.00004163,-0.00006768,-0.00002029,-0
 .00004085,0.00001127,-0.00001469,0.00000474,-0.00000951,0.00000156,-0.
 00000239,-0.00000227,-0.00000166,0.00000476,-0.00001130,-0.00013227,-0
 .00073667,-0.00028009,-0.00014400,0.00920761,0.00135734,0.00198835,0.0
 3129708,0.00565073,-0.00716582,-0.09859680,-0.00611410,-0.07171361,-0.
 01443270,-0.00180292,-0.00313163,0.00224818,-0.00147468,0.00088913,0.0
 0011008,0.00012060,0.00000577,-0.00059947,-0.00055489,0.00063256,0.000
 23766,0.00017113,-0.00003256,0.00001866,0.00001052,-0.00004532,-0.0004
 0601,0.00137226,0.00084258,0.00012217,-0.00011037,0.00003640,-0.000003
 57,0.00000051,0.00003348,-0.02229876,-0.00326744,-0.00614656,0.0010793
 6,0.00043092,0.00202926,-0.00035547,0.00022256,-0.00006875,0.00009050,
 0.00000966,-0.00019510,0.00001442,-0.00001096,0.00001295,-0.00000020,0
 .00000260,0.00000045,-0.00000001,-0.00001070,-0.00000468,-0.00000228,0
 .00001414,0.00000388,-0.00003884,-0.00002230,-0.00007767,-0.00000521,0
 .00000236,0.00001245,-0.00003296,-0.00000703,-0.00004123,-0.00022812,-
 0.00011313,0.00001688,-0.00040651,0.00036377,-0.00134872,0.00016990,0.
 00024747,-0.00000182,0.00076889,-0.00035570,0.00023077,0.00000228,-0.0
 0270225,-0.00281092,0.09295097,0.00418650,0.08730011,0.00000574,0.0000
 2860,-0.00003991,-0.00001681,-0.00002919,0.00002766,-0.00001680,-0.000
 06519,0.00000782,0.00001000,0.00004820,-0.00000210,-0.00000326,-0.0000
 1685,0.00000794,0.00010731,0.00003845,0.00007979,0.00002752,0.00007883
 ,0.00002329,-0.00003349,-0.00001803,-0.00005845,-0.00002321,-0.0000319
 7,0.00013372,0.00000037,-0.00001588,-0.00010065,-0.00001154,0.00001319
 ,0.00002473,0.00000181,0.00002759,0.00006944,-0.00006218,0.00043133,-0
 .00022856,0.00025318,-0.00067720,-0.00036243,0.00215279,-0.00104325,0.
 00143416,-0.01523096,0.00134279,-0.00073313,-0.34980948,-0.00826014,-0
 .01452742,-0.00341081,-0.00790278,-0.00994474,0.00054699,-0.00105940,0
 .00054029,-0.01567822,-0.00051759,0.00147222,0.00179723,0.00031118,-0.
 00051273,0.00038147,0.00016540,-0.00034334,0.00033931,0.00034192,0.000
 25311,0.00002642,-0.00003971,0.00003066,-0.00000848,-0.00000198,-0.000
 00568,-0.00068087,-0.00065778,-0.00054255,0.00027667,0.00045954,0.0003
 7631,-0.00141386,-0.00087519,-0.00093375,0.00061479,0.00020178,0.00025
 817,-0.00004204,0.00002095,0.00014941,-0.00000615,-0.00000478,0.000006
 53,0.00002388,0.00005582,-0.00000501,0.00000892,0.00000407,-0.00001052
 ,0.00000916,-0.00001624,0.00001318,0.00000403,0.00000159,-0.00000801,0
 .00001264,0.00000167,0.00000048,0.00000896,0.00002224,-0.00003289,0.00
 010143,-0.00000631,0.00035735,-0.00002599,0.00012780,-0.00001129,0.000
 13525,-0.00022602,0.00000633,0.00064923,0.00065175,0.00043465,0.000190
 96,0.00152515,-0.00045121,0.37775034,0.00000112,0.00002557,-0.00005730
 ,-0.00002079,-0.00003183,0.00003874,0.00002190,0.00002272,-0.00001242,
 -0.00000373,0.00003456,-0.00003528,-0.00000193,-0.00000853,0.00000356,
 -0.00017916,-0.00013932,-0.00014870,-0.00004905,0.00006975,0.00010429,
 0.00003531,-0.00000378,-0.00008202,-0.00003589,-0.00003260,0.00016035,
 0.00000002,-0.00003147,-0.00011762,-0.00001567,0.00001501,0.00002320,0
 .00006826,0.00004158,0.00006964,-0.00004459,0.00048077,-0.00024327,0.0
 0042497,0.00004192,0.00013835,-0.00057799,0.00191208,-0.00211542,0.034
 01089,-0.00337786,0.00457196,-0.00762840,-0.03878901,0.00366799,-0.030
 16166,-0.01096775,-0.01693500,-0.00010247,-0.00003992,0.00173574,-0.01
 120816,0.00069012,0.00203770,-0.00008045,0.00054597,-0.00123550,0.0001
 0710,0.00003173,-0.00027086,-0.00001867,-0.00006596,-0.00001932,-0.000
 04243,-0.00002574,0.00007407,-0.00000320,0.00001693,-0.00000721,0.0006
 9879,0.00224507,0.00069655,-0.00026908,-0.00035713,-0.00051727,0.00062
 394,-0.00029669,-0.00024003,0.00008623,0.00004912,0.00026435,-0.000002
 44,0.00008234,0.00005577,-0.00000566,-0.00000113,0.00000659,0.00001235
 ,0.00007314,0.00000456,0.00001954,0.00001563,-0.00002810,-0.00000361,-
 0.00002760,0.00000238,-0.00000139,0.00000212,-0.00000520,-0.00000246,-
 0.00000258,-0.00000496,-0.00001347,-0.00004063,0.00004935,-0.00039448,
 -0.00005551,-0.00001146,-0.00008395,-0.00008720,0.00000800,-0.00021923
 ,0.00007643,-0.00002868,-0.00043796,-0.00028094,-0.00042063,0.00106952
 ,-0.00484438,0.00244801,0.01507475,0.05288954,0.00000947,0.00001943,-0
 .00001456,-0.00002015,-0.00001062,0.00001689,-0.00000447,-0.00004447,-
 0.00000120,0.00000880,0.00002635,0.00000653,-0.00000281,-0.00000958,0.
 00000470,0.00000890,0.00004168,0.00008400,0.00003147,0.00002402,-0.000
 01562,-0.00002456,0.00000386,0.00000596,-0.00004782,-0.00006310,0.0001
 3648,0.00001999,-0.00000090,-0.00008680,-0.00001596,0.00000906,0.00002
 392,-0.00002228,-0.00000612,0.00004194,0.00022543,0.00034990,-0.000205
 76,-0.00042471,-0.00031396,-0.00063261,-0.00054996,-0.00083648,0.00099
 016,-0.01244367,0.00396406,-0.00016259,-0.01095014,0.00392779,-0.04058
 796,-0.02904089,-0.01575818,-0.01376569,-0.00162640,-0.00071973,0.0012
 9178,0.03409392,0.00345729,-0.00114609,-0.00160316,-0.00125174,0.00234
 204,0.00002650,-0.00037614,0.00055726,0.00006626,0.00016740,0.00015494
 ,0.00001650,-0.00002630,-0.00000630,0.00000223,-0.00001106,0.00000134,
 0.00032225,-0.00030891,-0.00027728,-0.00020968,-0.00032784,-0.00020725
 ,0.00085552,0.00065883,0.00108241,-0.00041925,-0.00012573,-0.00014488,
 -0.00005175,-0.00011354,-0.00004755,-0.00000526,-0.00000462,0.00000169
 ,0.00001055,0.00006905,0.00000176,0.00002723,0.00000784,-0.00003569,0.
 00002572,-0.00001784,0.00003407,0.00000847,0.00000246,-0.00001386,0.00
 001121,0.00000078,0.00000622,0.00002005,0.00003633,-0.00002918,0.00025
 481,0.00001196,-0.00000986,0.00000398,0.00009690,-0.00000750,0.0000541
 1,-0.00007138,-0.00001737,0.00016524,-0.00007216,0.00022234,-0.0006792
 8,0.00150558,-0.00052644,0.02076733,0.00478905,0.05666677,0.00000288,0
 .00000300,-0.00001003,-0.00000482,-0.00000416,0.00000691,-0.00000720,-
 0.00001846,0.00000397,0.00000553,0.00000914,-0.00000228,-0.00000159,-0
 .00000315,0.00000214,0.00000942,0.00002175,0.00002970,0.00001149,-0.00
 000022,-0.00001415,-0.00000689,0.00000252,0.00001607,-0.00001199,-0.00
 000445,0.00002209,0.00001033,-0.00000133,-0.00001539,-0.00000715,0.000
 00167,0.00000648,-0.00001017,0.00001067,0.00000747,0.00000212,0.000049
 81,-0.00006067,-0.00006889,-0.00011992,-0.00004037,0.00026001,-0.00012
 982,0.00025983,-0.00061683,0.00052566,0.00009578,-0.00984156,-0.005090
 43,-0.00005403,0.00133122,0.00072610,-0.00050231,0.00021192,0.00002941
 ,-0.00002918,-0.33420025,-0.08694089,-0.00893614,-0.01833638,0.0042744
 8,-0.00692110,0.00059868,0.00062582,0.00045205,-0.00001468,-0.00004437
 ,0.00001021,0.00002698,0.00003667,-0.00003486,-0.00000531,-0.00000594,
 -0.00000370,-0.00000229,-0.00000475,0.00003288,0.00105461,-0.00077842,
 0.00021244,-0.00359605,-0.00036325,0.00093800,0.00139198,0.00063173,0.
 00060542,0.00019633,0.00032653,0.00028594,-0.00000214,-0.00000011,0.00
 000162,-0.00000257,0.00000709,-0.00000226,0.00000659,0.00000139,-0.000
 00564,0.00000469,-0.00000576,0.00000363,0.00000262,0.00000061,-0.00000
 282,0.00000484,0.00000089,0.00000062,0.00000538,0.00000503,-0.00000592
 ,0.00001884,-0.00000397,0.00002655,0.00000249,-0.00000438,0.00000715,0
 .00002105,-0.00001738,0.00000794,0.00003980,0.00008671,-0.00002114,0.0
 0029221,-0.00033859,0.00025077,0.00031602,-0.00075939,0.00124433,0.360
 51413,0.00000252,-0.00000280,0.00002404,0.00000472,0.00000145,-0.00001
 705,-0.00000847,0.00000312,-0.00001410,0.00000197,-0.00001169,0.000016
 81,-0.00000021,0.00000279,-0.00000300,0.00000046,0.00002572,0.00000718
 ,0.00001545,-0.00002070,-0.00000123,-0.00000619,0.00000637,-0.00000360
 ,0.00000087,-0.00000136,-0.00003227,0.00000612,0.00001260,0.00003015,0
 .00000258,-0.00000372,-0.00000693,-0.00002739,-0.00000680,-0.00003061,
 0.00002635,-0.00004147,0.00007566,-0.00004083,0.00003423,-0.00005838,0
 .00019569,-0.00001157,0.00009997,-0.00046265,0.00030567,-0.00048194,-0
 .00845992,-0.00104475,-0.00158123,0.00114033,0.00053144,0.00044828,0.0
 0000959,-0.00002230,-0.00015564,-0.09095937,-0.06949848,-0.00326332,0.
 03532233,-0.00129183,0.00804830,0.00092463,0.00212579,-0.00145478,-0.0
 0006002,0.00002074,-0.00004270,0.00002653,-0.00001060,-0.00000963,-0.0
 0000361,0.00000417,0.00000127,-0.00011175,-0.00007937,0.00006325,0.001
 45679,0.00157027,0.00035312,-0.02758676,-0.00735140,-0.00058644,0.0010
 3436,0.00190972,0.00250774,0.00011115,0.00014366,0.00036462,0.00000126
 ,0.,-0.00000356,-0.00000501,-0.00000900,0.00000185,0.00000034,-0.00000
 241,0.00000177,0.00000488,0.00000091,0.00000400,0.00000193,-0.00000017
 ,-0.00000002,0.00000144,0.00000094,0.00000128,0.00000244,0.00000128,-0
 .00000326,0.00001866,0.00000304,0.00002294,0.00000864,-0.00002023,0.00
 000908,0.00003693,-0.00003365,0.00002078,0.00013863,0.00009610,-0.0000
 5323,0.00015407,-0.00019870,0.00023800,-0.00000396,-0.00006642,0.00169
 242,0.08703786,0.07616558,-0.00000409,-0.00001571,-0.00001099,0.000001
 89,0.00001536,0.00000835,0.00001704,0.00003357,0.00002207,-0.00000242,
 -0.00000863,-0.00002866,-0.00000090,0.00000696,-0.00000158,-0.00003038
 ,-0.00006686,-0.00006375,-0.00001176,0.00000700,-0.00000603,0.00000530
 ,-0.00001506,0.00000539,0.00001303,0.00002824,-0.00003497,-0.00001305,
 -0.00001612,0.00001674,0.00000682,-0.00000092,-0.00001128,0.00003243,-
 0.00000306,0.00002383,-0.00000349,-0.00020625,0.00003763,0.00008984,0.
 00032101,0.00027251,-0.00049986,0.00020193,-0.00077723,0.00067327,-0.0
 0108388,0.00096358,0.03178304,0.00995402,0.00071027,-0.00218397,-0.000
 51203,0.00320150,-0.00011408,0.00027913,0.00025439,-0.00446621,-0.0022
 5198,-0.04245892,-0.01660597,0.00413062,-0.00327058,-0.00173563,-0.000
 23634,0.00116646,0.00004644,0.00001116,0.00008164,-0.00000899,-0.00000
 508,0.00000476,-0.00000556,-0.00000346,0.00000503,0.00033092,0.0002349
 2,-0.00043454,0.00117877,0.00042377,0.00041037,-0.02083080,-0.00882188
 ,-0.00237985,-0.00027367,0.00112622,0.00213493,-0.00010210,0.00010778,
 0.00030923,0.00000026,0.00000389,0.00000043,-0.00000157,-0.00001391,0.
 00000459,-0.00000571,-0.00000188,0.00000665,-0.00000692,0.00000855,-0.
 00000899,-0.00000265,-0.00000135,0.00000355,-0.00000546,-0.00000161,-0
 .00000190,-0.00000388,-0.00000652,0.00000820,-0.00003558,-0.00000164,-
 0.00005056,-0.00001739,0.00003534,0.00000242,-0.00001256,0.00001486,-0
 .00000221,-0.00007383,0.00001331,-0.00010285,-0.00037581,0.00032437,-0
 .00019477,0.00183810,0.00169423,-0.00528132,0.01187796,-0.00333357,0.0
 4771069,0.00000240,-0.00000804,-0.00001281,-0.00000604,0.00000868,0.00
 000724,-0.00000110,-0.00000592,0.00001565,0.00000790,0.00000235,-0.000
 01618,-0.00000343,0.00000074,0.00000151,-0.00003055,0.00002229,0.00000
 955,0.00001946,-0.00003173,-0.00006717,-0.00000909,0.00001102,0.000090
 61,-0.00000822,0.00000903,-0.00000208,0.00000659,-0.00000728,-0.000001
 76,-0.00000373,0.00000053,-0.00000024,-0.00000088,-0.00000139,0.000008
 28,0.00001314,-0.00005331,-0.00003841,0.00001782,0.00004274,0.00007820
 ,0.00011980,-0.00006984,-0.00026006,-0.00010003,0.00035910,0.00004747,
 -0.00071638,-0.00042013,0.00016786,0.00043843,0.00003568,0.00005192,-0
 .00005601,0.00001049,-0.00012163,-0.00460978,0.00185247,-0.00149827,0.
 00215842,0.00066922,0.00162505,-0.00005087,0.00005869,-0.00002816,0.00
 047134,-0.00015717,-0.00005924,0.00000927,0.00025143,-0.00016497,-0.00
 001258,-0.00001330,-0.00003442,0.00014518,-0.00049013,0.00110006,-0.00
 975329,0.00916758,-0.00741724,-0.32915517,-0.05260479,-0.07624208,-0.0
 1702228,-0.00482248,0.00476835,0.00035649,0.00031786,0.00031117,-0.000
 00249,0.00000178,0.00000140,-0.00000328,-0.00000103,-0.00000016,0.0000
 0447,-0.00000069,-0.00000293,0.00000362,-0.00000100,-0.00000024,0.0000
 0324,-0.00000046,-0.00000194,0.00000329,0.00000075,0.00000062,0.000007
 96,-0.00000083,-0.00000167,0.00000872,0.00000225,0.00000389,-0.0000099
 2,-0.00002485,0.00000076,0.00007657,-0.00019800,0.00011078,0.00042113,
 0.00070159,-0.00121893,0.00002903,-0.00006689,0.00016552,0.00072173,0.
 00011270,-0.00013808,0.00039459,0.00004660,-0.00046084,0.35611452,0.00
 000237,0.00001507,0.00000637,-0.00000261,-0.00001632,-0.00000172,-0.00
 000345,0.00000276,-0.00001429,-0.00000181,0.00000726,0.00001222,0.0000
 0049,-0.00000348,-0.00000120,0.00002517,-0.00004481,-0.00001602,-0.000
 01050,0.00006067,0.00009119,-0.00000042,-0.00002231,-0.00013333,-0.000
 00552,-0.00001694,0.00002247,0.00000523,0.00000921,-0.00001230,-0.0000
 0424,0.00000048,0.00000646,-0.00000371,0.00001234,0.00000400,0.0000025
 4,0.00013519,-0.00000798,-0.00006574,-0.00006074,-0.00012424,-0.000057
 80,0.00032340,0.00030156,-0.00021171,-0.00076514,0.00005412,-0.0010164
 3,-0.00027151,0.00141121,0.00055445,0.00012828,-0.00059743,0.00005690,
 -0.00015483,0.00003617,-0.02320677,-0.00378560,-0.00786221,-0.00029331
 ,0.00266485,0.00033811,-0.00020998,-0.00003067,-0.00008352,0.00006606,
 0.00017307,-0.00003131,-0.00015016,-0.00029495,0.00019071,-0.00001275,
 0.00002261,0.00003963,0.00367707,0.00259521,-0.00377010,0.03296430,-0.
 00726706,0.01606244,-0.05192725,-0.05065028,-0.01508286,-0.00408384,0.
 00256887,0.00147569,-0.00045652,0.00061997,-0.00020912,-0.00000014,-0.
 00000270,-0.00000085,0.00000455,0.00000946,-0.00000173,0.00000154,0.00
 000177,-0.00000096,-0.00000051,-0.00000424,0.00000138,-0.00000021,0.00
 000053,-0.00000050,0.00000088,-0.00000088,0.00000062,-0.00000314,0.000
 00482,-0.00000251,0.00000515,-0.00000358,0.00000089,0.00002636,0.00000
 730,-0.00000279,-0.00021850,0.00006120,-0.00002493,-0.00145325,0.00013
 052,-0.00026325,-0.00000594,-0.00010029,-0.00003575,0.00049484,0.00021
 186,-0.00039166,0.00022462,-0.00323618,-0.00236849,0.04529369,0.056965
 82,0.00000011,-0.00000498,-0.00002826,-0.00000662,0.00000571,0.0000196
 0,0.00000389,-0.00000526,0.00002476,0.00000539,0.00001076,-0.00002756,
 -0.00000265,-0.00000102,0.00000324,-0.00002461,-0.00001073,-0.00000599
 ,0.00001032,-0.00000376,-0.00004633,-0.00000819,0.00000157,0.00006205,
 -0.00000482,0.00001251,0.00001793,-0.00000098,-0.00001592,-0.00002004,
 -0.00000244,0.00000312,0.00000353,0.00001356,0.00000786,0.00003026,-0.
 00000243,-0.00002578,-0.00008550,0.00005687,0.00003582,0.00010896,0.00
 013422,0.00000296,-0.00036090,-0.00000433,-0.00000408,-0.00006576,-0.0
 0132742,0.00013361,0.00121442,0.00052024,0.00000988,-0.00011549,0.0000
 3143,-0.00000067,0.00001437,-0.02156477,-0.00372525,-0.00192953,0.0017
 2567,0.00215375,0.00143566,0.00019435,0.00003817,-0.00009401,0.0000978
 5,-0.00001944,0.00004181,0.00007508,0.00018916,-0.00014056,-0.00000222
 ,-0.00001521,-0.00001953,-0.00242479,-0.00120499,0.00295820,-0.0143763
 0,0.00750436,-0.00452564,-0.08264434,-0.01916540,-0.06881938,0.0367641
 1,0.00608129,-0.00447317,0.00145323,0.00006275,0.00366138,-0.00000276,
 0.00000153,0.00000372,0.00000020,0.00000439,-0.00000126,0.00000256,-0.
 00000072,-0.00000311,0.00000141,-0.00000176,-0.00000012,0.00000182,-0.
 00000040,-0.00000268,0.00000215,-0.00000010,0.00000055,0.00000590,0.00
 000148,-0.00000219,0.00000637,-0.00000373,0.00000930,0.00000028,-0.000
 01826,-0.00000653,0.00016303,-0.00009019,0.00001498,0.00102615,0.00004
 936,-0.00005279,0.00008411,0.00002605,0.00010289,0.00054165,-0.0001082
 2,-0.00044981,0.00025408,-0.00289601,-0.00224422,0.07922362,0.01098579
 ,0.07379276\\0.00098109,-0.01041979,-0.00266040,0.00824376,0.00088903,
 0.01202736,0.02283424,-0.00005800,0.01870674,-0.02282750,0.01094117,0.
 00727306,0.00929554,-0.01103853,-0.02948051,-0.02448127,-0.03046397,-0
 .00028273,-0.00240434,0.01150917,-0.00274427,0.00666268,0.01963781,0.0
 1827409,-0.00059758,0.01823065,0.00951341,0.00195863,0.01467640,0.0024
 8634,0.00457251,-0.03417557,-0.00325075,-0.01838987,0.01218444,0.01288
 131,0.00661650,-0.01156442,0.01503031,-0.00103089,0.02536109,-0.032032
 01,0.01064560,-0.01761569,0.02322844,-0.01609754,-0.01640381,-0.009229
 11,0.00413987,0.02993430,0.01964257,-0.01296497,-0.01014543,0.00838969
 ,0.01436728,0.01657902,-0.01530859,-0.02517799,-0.01623165,-0.00374209
 ,0.02038615,0.01846221,-0.00979562,-0.01812041,-0.01258233,0.02411214,
 0.00877153,-0.00694286,0.00096108,-0.01387499,-0.02758244,-0.01042593,
 0.00015266,0.03448204,0.00108048,-0.00126186,0.01351917,-0.00302602,-0
 .00292340,-0.01021595,0.00203854,0.06169364,-0.01576785,-0.00803957,-0
 .01509070,0.00544087,0.00358470,-0.00128304,-0.00234824,-0.00238829,0.
 00008714,0.00408490,-0.00058019,0.00424937,0.00549317,-0.01865509,-0.0
 2140617,0.00031785,-0.00160421,0.01918332,-0.00273642,-0.00247529,-0.0
 1919765,0.00457263,-0.00130100,0.02431049,0.00159591,-0.00109235,-0.02
 291385,-0.00397761,0.00046141,0.02123771,0.00019280,-0.00212955,-0.001
 32394,-0.00655797,-0.01612340,0.01967760,0.00278476,0.00109470,-0.0218
 0177,-0.00283607,-0.00076515,0.01673383,0.00234012,0.00342064,-0.02197
 768,-0.00324856,-0.00428005,0.01611742,0.00216045,0.00002313,-0.017771
 13,-0.00247678,-0.00281797\\\@


 THE DIFFERENCE BETWEEN A NOOSE AND A HALO IS ONLY 12 INCHES.
 Job cpu time:  3 days 22 hours 49 minutes 29.4 seconds.
 File lengths (MBytes):  RWF=   2340 Int=      0 D2E=      0 Chk=     43 Scr=      1
 Normal termination of Gaussian 09 at Fri Feb 12 12:45:38 2016.
Gaussian '09 finished on node015 at Fri Feb 12 12:45:38 EST 2016.
