Gaussian '09 started on node029 at Fri Feb 12 12:54:07 EST 2016.
 Entering Gaussian System, Link 0=/usr/local/gaussian/g09/g09
 Initial command:
 /usr/local/gaussian/g09/l1.exe /home/srmcgrat/thesis/gaussian/cellobiose/550/9000/1/2dfp/gaussian7575/Gau-7611.inp -scrdir=/home/srmcgrat/thesis/gaussian/cellobiose/550/9000/1/2dfp/gaussian7575/
 Entering Link 1 = /usr/local/gaussian/g09/l1.exe PID=      7613.
  
 Copyright (c) 1988,1990,1992,1993,1995,1998,2003,2009,2010,
            Gaussian, Inc.  All Rights Reserved.
  
 This is part of the Gaussian(R) 09 program.  It is based on
 the Gaussian(R) 03 system (copyright 2003, Gaussian, Inc.),
 the Gaussian(R) 98 system (copyright 1998, Gaussian, Inc.),
 the Gaussian(R) 94 system (copyright 1995, Gaussian, Inc.),
 the Gaussian 92(TM) system (copyright 1992, Gaussian, Inc.),
 the Gaussian 90(TM) system (copyright 1990, Gaussian, Inc.),
 the Gaussian 88(TM) system (copyright 1988, Gaussian, Inc.),
 the Gaussian 86(TM) system (copyright 1986, Carnegie Mellon
 University), and the Gaussian 82(TM) system (copyright 1983,
 Carnegie Mellon University). Gaussian is a federally registered
 trademark of Gaussian, Inc.
  
 This software contains proprietary and confidential information,
 including trade secrets, belonging to Gaussian, Inc.
  
 This software is provided under written license and may be
 used, copied, transmitted, or stored only in accord with that
 written license.
  
 The following legend is applicable only to US Government
 contracts under FAR:
  
                    RESTRICTED RIGHTS LEGEND
  
 Use, reproduction and disclosure by the US Government is
 subject to restrictions as set forth in subparagraphs (a)
 and (c) of the Commercial Computer Software - Restricted
 Rights clause in FAR 52.227-19.
  
 Gaussian, Inc.
 340 Quinnipiac St., Bldg. 40, Wallingford CT 06492
  
  
 ---------------------------------------------------------------
 Warning -- This program may not be used in any manner that
 competes with the business of Gaussian, Inc. or will provide
 assistance to any competitor of Gaussian, Inc.  The licensee
 of this program is prohibited from giving any competitor of
 Gaussian, Inc. access to this program.  By using this program,
 the user acknowledges that Gaussian, Inc. is engaged in the
 business of creating and licensing software in the field of
 computational chemistry and represents and warrants to the
 licensee that it is not a competitor of Gaussian, Inc. and that
 it will not use this program in any manner prohibited above.
 ---------------------------------------------------------------
  

 Cite this work as:
 Gaussian 09, Revision B.01,
 M. J. Frisch, G. W. Trucks, H. B. Schlegel, G. E. Scuseria, 
 M. A. Robb, J. R. Cheeseman, G. Scalmani, V. Barone, B. Mennucci, 
 G. A. Petersson, H. Nakatsuji, M. Caricato, X. Li, H. P. Hratchian, 
 A. F. Izmaylov, J. Bloino, G. Zheng, J. L. Sonnenberg, M. Hada, 
 M. Ehara, K. Toyota, R. Fukuda, J. Hasegawa, M. Ishida, T. Nakajima, 
 Y. Honda, O. Kitao, H. Nakai, T. Vreven, J. A. Montgomery, Jr., 
 J. E. Peralta, F. Ogliaro, M. Bearpark, J. J. Heyd, E. Brothers, 
 K. N. Kudin, V. N. Staroverov, T. Keith, R. Kobayashi, J. Normand, 
 K. Raghavachari, A. Rendell, J. C. Burant, S. S. Iyengar, J. Tomasi, 
 M. Cossi, N. Rega, J. M. Millam, M. Klene, J. E. Knox, J. B. Cross, 
 V. Bakken, C. Adamo, J. Jaramillo, R. Gomperts, R. E. Stratmann, 
 O. Yazyev, A. J. Austin, R. Cammi, C. Pomelli, J. W. Ochterski, 
 R. L. Martin, K. Morokuma, V. G. Zakrzewski, G. A. Voth, 
 P. Salvador, J. J. Dannenberg, S. Dapprich, A. D. Daniels, 
 O. Farkas, J. B. Foresman, J. V. Ortiz, J. Cioslowski, 
 and D. J. Fox, Gaussian, Inc., Wallingford CT, 2010.
 
 ******************************************
 Gaussian 09:  EM64L-G09RevB.01 12-Aug-2010
                12-Feb-2016 
 ******************************************
 --------------------------------------------------
 # freq=raman b3lyp/6-31+g(2df,p) geom=connectivity
 --------------------------------------------------
 1/10=4,30=1,38=1,57=2/1,3;
 2/12=2,17=6,18=5,40=1/2;
 3/5=1,6=6,7=114,11=2,16=1,25=1,30=1,71=2,74=-5/1,2,3;
 4//1;
 5/5=2,38=5,98=1/2;
 8/6=4,10=90,11=11/1;
 10/13=10,15=4/2;
 11/6=3,8=1,9=11,15=111,16=1/1,2,10;
 10/6=1/2;
 6/7=2,8=2,9=2,10=2,18=1,28=1/1;
 7/8=1,10=1,25=1/1,2,3,16;
 1/10=4,30=1/3;
 99//99;
 ------------
 550 9000.com
 ------------
 Symbolic Z-matrix:
 Charge =  0 Multiplicity = 1
 O                     9.503     7.57      12.088 
 C                     10.196    7.468     13.34 
 C                     10.544    8.836     13.904 
 O                     11.329    9.546     12.935 
 H                     10.946    9.362     12.03 
 C                     11.251    8.774     15.249 
 O                     11.48     10.045    15.874 
 H                     11.814    10.521    15.06 
 C                     8.514     5.575     14.112 
 O                     9.253     4.616     13.342 
 H                     9.254     4.862     12.373 
 C                     9.301     6.844     14.399 
 O                     10.192    6.536     15.481 
 C                     10.391    7.828     16.071 
 O                     11.01     7.43      17.304 
 C                     10.135    7.692     18.411 
 C                     9.61      6.344     18.877 
 O                     8.833     5.651     17.889 
 H                     9.348     5.376     17.078 
 C                     8.927     6.352     20.235 
 O                     8.449     5.088     20.715 
 H                     7.844     4.594     20.09 
 C                     11.743    9.57      19.049 
 O                     11.188    10.853    18.724 
 H                     11.305    10.809    17.732 
 C                     10.942    8.363     19.51 
 O                     10.22     8.36      20.75 
 C                     9.859     7.05      21.212 
 O                     9.141     7.245     22.44 
 H                     10.14092   7.62825   11.37297 
 H                     8.23446   5.12643   15.04235 
 H                     7.62596   5.83566   13.57503 
 H                     8.61244   7.59172   14.73322 
 H                     11.08462   6.88393   13.22114 
 H                     9.62954   9.37423   14.04177 
 H                     12.20262   8.30824   15.09936 
 H                     9.44372   8.28282   16.27276 
 H                     9.76478   7.35944   23.1607 
 H                     10.73456   6.45877   21.38153 
 H                     8.0655    6.97882   20.13592 
 H                     10.48434   5.74229   19.01257 
 H                     9.32578   8.3216    18.10495 
 H                     11.71535   7.64878   19.70162 
 H                     12.27937   9.25252   18.17928 
 H                     12.471    9.74911   19.81243 
 

 GradGradGradGradGradGradGradGradGradGradGradGradGradGradGradGradGradGrad
 Berny optimization.
 Initialization pass.
 Trust Radius=3.00D-01 FncErr=1.00D-07 GrdErr=1.00D-07
 Number of steps in this run=      2 maximum allowed number of steps=      2.
 GradGradGradGradGradGradGradGradGradGradGradGradGradGradGradGradGradGrad

                          Input orientation:                          
 ---------------------------------------------------------------------
 Center     Atomic      Atomic             Coordinates (Angstroms)
 Number     Number       Type             X           Y           Z
 ---------------------------------------------------------------------
      1          8           0        9.503000    7.570000   12.088000
      2          6           0       10.196000    7.468000   13.340000
      3          6           0       10.544000    8.836000   13.904000
      4          8           0       11.329000    9.546000   12.935000
      5          1           0       10.946000    9.362000   12.030000
      6          6           0       11.251000    8.774000   15.249000
      7          8           0       11.480000   10.045000   15.874000
      8          1           0       11.814000   10.521000   15.060000
      9          6           0        8.514000    5.575000   14.112000
     10          8           0        9.253000    4.616000   13.342000
     11          1           0        9.254000    4.862000   12.373000
     12          6           0        9.301000    6.844000   14.399000
     13          8           0       10.192000    6.536000   15.481000
     14          6           0       10.391000    7.828000   16.071000
     15          8           0       11.010000    7.430000   17.304000
     16          6           0       10.135000    7.692000   18.411000
     17          6           0        9.610000    6.344000   18.877000
     18          8           0        8.833000    5.651000   17.889000
     19          1           0        9.348000    5.376000   17.078000
     20          6           0        8.927000    6.352000   20.235000
     21          8           0        8.449000    5.088000   20.715000
     22          1           0        7.844000    4.594000   20.090000
     23          6           0       11.743000    9.570000   19.049000
     24          8           0       11.188000   10.853000   18.724000
     25          1           0       11.305000   10.809000   17.732000
     26          6           0       10.942000    8.363000   19.510000
     27          8           0       10.220000    8.360000   20.750000
     28          6           0        9.859000    7.050000   21.212000
     29          8           0        9.141000    7.245000   22.440000
     30          1           0       10.140918    7.628253   11.372971
     31          1           0        8.234458    5.126434   15.042347
     32          1           0        7.625957    5.835662   13.575032
     33          1           0        8.612440    7.591719   14.733216
     34          1           0       11.084616    6.883934   13.221137
     35          1           0        9.629542    9.374225   14.041766
     36          1           0       12.202618    8.308240   15.099364
     37          1           0        9.443724    8.282822   16.272757
     38          1           0        9.764779    7.359443   23.160696
     39          1           0       10.734561    6.458771   21.381532
     40          1           0        8.065503    6.978821   20.135918
     41          1           0       10.484337    5.742290   19.012571
     42          1           0        9.325783    8.321602   18.104946
     43          1           0       11.715352    7.648781   19.701618
     44          1           0       12.279373    9.252518   18.179282
     45          1           0       12.471003    9.749111   19.812434
 ---------------------------------------------------------------------
                    Distance matrix (angstroms):
                    1          2          3          4          5
     1  O    0.000000
     2  C    1.434628   0.000000
     3  C    2.446281   1.520074   0.000000
     4  O    2.820684   2.401208   1.435021   0.000000
     5  H    2.301495   2.421949   1.987500   0.999785   0.000000
     6  C    3.807498   2.542232   1.520762   2.440628   3.286446
     7  O    4.936390   3.835458   2.493728   2.984882   3.940556
     8  H    4.783504   3.859680   2.405922   2.387776   3.358215
     9  C    3.009107   2.647368   3.846854   5.007833   4.958903
    10  O    3.218871   3.003857   4.448699   5.364730   5.206929
    11  H    2.734317   2.934909   4.449802   5.153768   4.819804
    12  C    2.430761   1.520487   2.399612   3.681967   3.828643
    13  O    3.613354   2.335063   2.810842   4.103046   4.523737
    14  C    4.088936   2.761519   2.394862   3.696737   4.357851
    15  O    5.431142   4.046892   3.708637   4.864913   5.617099
    16  C    6.355678   5.076311   4.667876   5.903349   6.645584
    17  C    6.899641   5.680241   5.640315   6.965280   7.600962
    18  O    6.146793   5.084551   5.380704   6.778138   7.250115
    19  H    5.453234   4.366716   4.845234   6.203040   6.627526
    20  C    8.257658   7.099073   6.990458   8.322334   8.969865
    21  O    9.038604   7.943994   8.051475   9.417885   9.996565
    22  H    8.697175   7.704173   7.971898   9.373449   9.865081
    23  C    7.581103   6.277284   5.333609   6.128048   7.067166
    24  O    7.593011   6.436594   5.264544   5.936384   6.862309
    25  H    6.752263   5.628661   4.373264   4.960540   5.893683
    26  C    7.601688   6.279048   5.639980   6.691777   7.546417
    27  O    8.727453   7.463534   6.870172   7.981898   8.807354
    28  C    9.145737   7.890290   7.554197   8.769244   9.530794
    29  O   10.363425   9.163665   8.795623  10.021326  10.775334
    30  H    0.960000   1.974315   2.833238   2.743944   2.021317
    31  H    4.038363   3.496936   4.515606   5.792207   5.862313
    32  H    2.956769   3.053669   4.198241   5.280983   5.083785
    33  H    2.791189   2.112823   2.442695   3.799012   3.985822
    34  H    2.063055   1.070000   2.137553   2.688530   2.752968
    35  H    2.662413   2.108802   1.070000   2.035337   2.404249
    36  H    4.111112   2.797835   2.111501   2.641918   3.480013
    37  H    4.245447   3.135429   2.669760   4.036149   4.628438
    38  H   11.077791   9.830758   9.406052  10.573205  11.370924
    39  H    9.440408   8.122489   7.848631   9.012671   9.794110
    40  H    8.196638   7.138825   6.959085   8.312283   8.926518
    41  H    7.228639   5.936268   5.972612   7.219316   7.878561
    42  H    6.066297   4.918397   4.404158   5.678061   6.372794
    43  H    7.928928   6.543035   6.032739   7.038170   7.898149
    44  H    6.902379   5.562697   4.632822   5.337774   6.293134
    45  H    8.557128   7.229904   6.281457   6.974562   7.939884
                    6          7          8          9         10
     6  C    0.000000
     7  O    1.434750   0.000000
     8  H    1.845183   1.000364   0.000000
     9  C    4.360910   5.646477   6.020932   0.000000
    10  O    4.991755   6.390978   6.661777   1.434818   0.000000
    11  H    5.250060   6.638943   6.767411   2.019923   0.999739
    12  C    2.872264   4.143678   4.502490   1.520559   2.466483
    13  O    2.486755   3.758520   4.323002   2.369254   3.023812
    14  C    1.519934   2.477866   3.209252   3.526587   4.365711
    15  O    2.467274   3.017288   3.903362   4.456445   5.167503
    16  C    3.523411   3.712412   4.695901   5.058728   5.994536
    17  C    4.664779   5.119796   6.072432   4.949525   5.809446
    18  O    4.750732   5.511268   6.372323   3.791209   4.682183
    19  H    4.302680   5.272059   6.051818   3.087444   3.813702
    20  C    6.010595   6.258944   7.245409   6.185906   7.115716
    21  O    7.163446   7.562678   8.533448   6.621254   7.431711
    22  H    7.246746   7.791569   8.728753   6.094895   6.893567
    23  C    3.913525   3.221090   4.101410   7.124636   7.956888
    24  O    4.049918   2.976681   3.731889   7.501873   8.462288
    25  H    3.210830   2.016553   2.735253   6.949017   7.863590
    26  C    4.291914   4.042161   5.021937   6.542670   7.411947
    27  O    5.612073   5.310574   6.291809   7.397953   8.356500
    28  C    6.361384   6.331817   7.329186   7.375273   8.260054
    29  O    7.648557   7.511543   8.505381   8.516902   9.470892
    30  H    4.191494   5.281389   4.976080   3.790118   3.706635
    31  H    4.737823   5.951259   6.474162   1.070000   2.046741
    32  H    4.957513   6.152839   6.457339   1.070000   2.046741
    33  H    2.936975   3.942445   4.351719   2.112524   3.346746
    34  H    2.777097   4.145643   4.140250   3.019107   2.917695
    35  H    2.108747   2.689092   2.669036   3.960237   4.824123
    36  H    1.070000   2.034348   2.246971   4.695891   5.041945
    37  H    2.134380   2.722260   3.478279   3.586859   4.698009
    38  H    8.173418   7.952995   8.933981   9.307394  10.207604
    39  H    6.575328   6.614350   7.591354   7.652322   8.380030
    40  H    6.103444   6.262922   7.236243   6.201569   7.290432
    41  H    4.893210   5.418052   6.342467   5.284488   5.911015
    42  H    3.473839   3.547940   4.505583   4.913902   6.035101
    43  H    4.616010   4.521937   5.459303   6.767057   7.463624
    44  H    3.142146   2.565414   3.399344   6.651688   7.352247
    45  H    4.823295   4.071965   4.859330   8.097902   8.864022
                   11         12         13         14         15
    11  H    0.000000
    12  C    2.834644   0.000000
    13  O    3.652641   1.435085   0.000000
    14  C    4.874949   2.225295   1.434212   0.000000
    15  O    5.830345   3.420980   2.188993   1.435916   0.000000
    16  C    6.726255   4.184591   3.150315   2.357887   1.435172
    17  C    6.680200   4.516411   3.450856   3.268922   2.369330
    18  O    5.588025   3.717845   2.903200   3.236019   2.871654
    19  H    4.733926   3.055204   2.146706   2.848544   2.651836
    20  C    8.008625   5.868632   4.922865   4.654113   3.753896
    21  O    8.383798   6.610696   5.703465   5.731117   4.866067
    22  H    7.849332   6.290694   5.525156   5.753114   5.082150
    23  C    8.539869   5.917511   4.933699   3.705530   2.856906
    24  O    8.942463   6.191807   5.490497   4.101737   3.710123
    25  H    8.263915   5.553929   4.956238   3.532800   3.418750
    26  C    8.126691   5.578760   4.487011   3.523712   2.396153
    27  O    9.129255   6.593786   5.575852   4.712251   3.655669
    28  C    9.125858   6.838916   5.763631   5.226680   4.091658
    29  O   10.345818   8.052582   7.073540   6.516636   5.468627
    30  H    3.072269   3.236876   4.251062   4.708919   5.997642
    31  H    2.869634   2.121660   2.451788   3.606558   4.257361
    32  H    2.245757   2.121660   3.272272   4.224303   5.281938
    33  H    3.665186   1.070000   2.041748   2.238028   3.519003
    34  H    2.856345   2.137812   2.454547   3.081247   4.119894
    35  H    4.825556   2.576353   3.231606   2.662409   4.040774
    36  H    5.291878   3.324740   2.707225   2.111082   2.655949
    37  H    5.190965   2.366758   2.058685   1.070000   2.060094
    38  H   11.084787   8.789089   7.735522   7.132705   5.988025
    39  H    9.267976   7.138575   5.925927   5.494959   4.200645
    40  H    8.133656   5.869997   5.136764   4.759475   4.110157
    41  H    6.809739   4.888669   3.631450   3.607178   2.458434
    42  H    6.695462   3.989732   3.289954   2.348461   2.067137
    43  H    8.217850   5.881712   4.623041   3.868775   2.508777
    44  H    7.883048   5.381654   4.360886   3.168605   2.387258
    45  H    9.464573   6.913310   5.854849   4.692058   3.715514
                   16         17         18         19         20
    16  C    0.000000
    17  C    1.519831   0.000000
    18  O    2.476564   1.435313   0.000000
    19  H    2.785698   2.059628   0.999285   0.000000
    20  C    2.565510   1.520104   2.450297   3.331136   0.000000
    21  O    3.864172   2.510717   2.907009   3.757514   1.434078
    22  H    4.203014   2.766338   2.634345   3.456253   2.069898
    23  C    2.553349   3.871221   5.017197   5.216369   4.437564
    24  O    3.346446   4.779600   5.770966   6.007699   5.258730
    25  H    3.397886   4.911240   5.721922   5.811631   5.637796
    26  C    1.519635   2.500255   3.798745   4.168648   2.937681
    27  O    2.434003   2.818596   4.177053   4.811260   2.443182
    28  C    2.886857   2.452073   3.748627   4.489249   1.519986
    29  O    4.173810   3.704960   4.831904   5.682170   2.388571
    30  H    7.038320   7.631621   6.933889   6.184555   9.035374
    31  H    4.641337   4.251958   2.955817   2.333697   5.380081
    32  H    5.755682   5.683810   4.483455   3.930332   6.805475
    33  H    3.981751   4.441044   3.711336   3.308848   5.648494
    34  H    5.337548   5.869822   5.327180   4.490556   7.357482
    35  H    4.709095   5.706324   5.412772   5.028299   6.927017
    36  H    3.952433   4.985022   5.118332   4.545534   6.397758
    37  H    2.323579   3.250963   3.148287   3.017813   4.437843
    38  H    4.775696   4.405125   5.619410   6.411469   3.205700
    39  H    3.271756   2.747815   4.057857   4.649229   2.143178
    40  H    2.786895   2.091255   2.720442   3.683029   1.070000
    41  H    2.070095   1.070000   1.999415   2.273322   2.071564
    42  H    1.070000   2.141905   2.724258   3.119564   2.928393
    43  H    2.040852   2.610548   3.947743   4.201579   3.121065
    44  H    2.662188   4.008970   4.993264   4.983289   4.886450
    45  H    3.413595   4.544794   5.807683   6.029459   4.927361
                   21         22         23         24         25
    21  O    0.000000
    22  H    1.000343   0.000000
    23  C    5.806403   6.406751   0.000000
    24  O    6.685913   7.226574   1.435179   0.000000
    25  H    7.055839   7.494325   1.860498   0.999844   0.000000
    26  C    4.288671   4.913183   1.520188   2.622673   3.045648
    27  O    3.720706   4.501526   2.583995   3.355108   4.035239
    28  C    2.466689   3.369131   3.818170   4.734891   5.322725
    29  O    2.847304   3.772600   4.865687   5.569249   6.288899
    30  H    9.827969   9.511526   8.078271   8.095246   7.204824
    31  H    5.676839   5.090653   6.936023   7.421020   6.996715
    32  H    7.226032   6.635817   7.801260   8.023323   7.453176
    33  H    6.486684   6.186433   5.686826   5.761581   5.156887
    34  H    8.144313   7.932633   6.450769   6.785697   5.983528
    35  H    8.018570   7.913271   5.438514   5.151591   4.299252
    36  H    7.482978   7.596024   4.171680   4.543483   3.740360
    37  H    5.561465   5.544175   3.827666   3.956881   3.460537
    38  H    3.587779   4.556999   5.070105   5.823639   6.613809
    39  H    2.747192   3.674339   4.017138   5.155321   5.706924
    40  H    2.014351   2.395526   4.628130   5.172307   5.562682
    41  H    2.732940   3.074216   4.029506   5.166988   5.290075
    42  H    4.247035   4.475615   2.879701   3.202976   3.200553
    43  H    4.272423   4.946706   2.029226   3.391291   3.746301
    44  H    6.200390   6.710080   1.070000   2.012301   1.890000
    45  H    6.222306   6.932631   1.070000   2.012301   2.609814
                   26         27         28         29         30
    26  C    0.000000
    27  O    1.434884   0.000000
    28  C    2.407003   1.435223   0.000000
    29  O    3.616411   2.294246   1.435804   0.000000
    30  H    8.209314   9.405870   9.860038  11.118716   0.000000
    31  H    6.145410   6.853877   6.663622   7.748252   4.833012
    32  H    7.253098   8.036262   8.048874   9.103255   3.793085
    33  H    5.370232   6.275045   6.619820   7.732665   3.691724
    34  H    6.462026   7.720759   8.086013   9.428439   2.204607
    35  H    5.713730   6.810118   7.541017   8.677708   3.229921
    36  H    4.587578   5.988584   6.666336   8.024271   4.312655
    37  H    3.568053   4.544697   5.107683   6.261278   4.992238
    38  H    3.964916   2.649490   1.975360   0.960000  11.796788
    39  H    2.678012   2.068400   1.070000   2.068320  10.094127
    40  H    3.252993   2.631845   2.092762   2.556626   9.028752
    41  H    2.706476   3.152926   2.634130   3.976174   7.876438
    42  H    2.141973   2.792384   3.399276   4.470560   6.816500
    43  H    1.070000   1.959851   2.466949   3.780088   8.476180
    44  H    2.085814   3.412653   4.461689   5.659791   7.316905
    45  H    2.085814   2.806363   4.008310   4.925809   9.008433
                   31         32         33         34         35
    31  H    0.000000
    32  H    1.739624   0.000000
    33  H    2.513178   2.323419   0.000000
    34  H    3.811694   3.631314   2.983119   0.000000
    35  H    4.581610   4.093119   2.165624   2.998704   0.000000
    36  H    5.086593   5.420614   3.679245   2.608891   2.979188
    37  H    3.597085   4.070699   1.881181   3.736549   2.490584
    38  H    8.557792   9.938884   8.509069  10.038073   9.339835
    39  H    6.943407   8.425742   7.070154   8.178958   7.974529
    40  H    5.422579   6.674222   5.464794   7.545744   6.732227
    41  H    4.604771   6.143768   5.023671   5.933329   6.215347
    42  H    4.558465   5.439617   3.522805   5.386277   4.208292
    43  H    6.339375   7.585883   5.858016   6.555873   6.273890
    44  H    6.574669   7.384329   5.299059   5.623242   4.914821
    45  H    7.878527   8.814462   6.733595   7.319598   6.443217
                   36         37         38         39         40
    36  H    0.000000
    37  H    2.998165   0.000000
    38  H    8.475161   6.956969   0.000000
    39  H    6.711286   5.576110   2.217456   0.000000
    40  H    6.652064   4.303944   3.490228   2.990966   0.000000
    41  H    4.984955   3.878629   4.509976   2.487556   2.939674
    42  H    4.160515   1.836391   5.165179   4.023780   2.741571
    43  H    4.674726   4.161658   3.981667   2.280392   3.736157
    44  H    3.222336   3.551909   5.892487   4.521711   5.172507
    45  H    4.935704   4.883005   4.923923   4.037777   5.214171
                   41         42         43         44         45
    41  H    0.000000
    42  H    2.969660   0.000000
    43  H    2.371686   2.951626   0.000000
    44  H    4.029668   3.097713   2.282017   0.000000
    45  H    4.543263   3.853013   2.234877   1.717705   0.000000
 Stoichiometry    C12H22O11
 Framework group  C1[X(C12H22O11)]
 Deg. of freedom   129
 Full point group                 C1      NOp   1
 Largest Abelian subgroup         C1      NOp   1
 Largest concise Abelian subgroup C1      NOp   1
                         Standard orientation:                         
 ---------------------------------------------------------------------
 Center     Atomic      Atomic             Coordinates (Angstroms)
 Number     Number       Type             X           Y           Z
 ---------------------------------------------------------------------
      1          8           0        4.875653   -0.532810   -0.631587
      2          6           0        3.654982   -0.208117    0.048630
      3          6           0        3.154812    1.178307   -0.323235
      4          8           0        4.183307    2.133134   -0.023589
      5          1           0        5.062467    1.734606   -0.284015
      6          6           0        1.843317    1.549507    0.351235
      7          8           0        1.273344    2.795821   -0.073430
      8          1           0        2.117886    3.331110   -0.042726
      9          6           0        2.740674   -2.644468   -0.437978
     10          8           0        3.511646   -3.144807    0.663823
     11          1           0        4.487411   -2.983042    0.518248
     12          6           0        2.534374   -1.138827   -0.387140
     13          8           0        1.485755   -0.902227    0.563591
     14          6           0        0.950021    0.345384    0.101617
     15          8           0       -0.265225    0.376204    0.865869
     16          6           0       -1.402715    0.223915    0.004102
     17          6           0       -1.938471   -1.179096    0.237365
     18          8           0       -1.012319   -2.219002   -0.110428
     19          1           0       -0.187746   -2.242242    0.453585
     20          6           0       -3.326111   -1.441645   -0.324988
     21          8           0       -3.870773   -2.747804   -0.092885
     22          1           0       -3.292138   -3.510447   -0.383128
     23          6           0       -1.900023    2.685071    0.467770
     24          8           0       -1.558163    3.499411   -0.663477
     25          1           0       -0.563817    3.467269   -0.563818
     26          6           0       -2.439012    1.265689    0.391512
     27          8           0       -3.711064    0.967875   -0.201855
     28          6           0       -4.233803   -0.320506    0.154072
     29          8           0       -5.486961   -0.445800   -0.535442
     30          1           0        5.621533   -0.201434   -0.126163
     31          1           0        1.783482   -3.122646   -0.432583
     32          1           0        3.243713   -2.891609   -1.349445
     33          1           0        2.193651   -0.819015   -1.349703
     34          1           0        3.795708   -0.275024    1.107223
     35          1           0        2.992440    1.193670   -1.380732
     36          1           0        2.021754    1.614733    1.404233
     37          1           0        0.719386    0.275638   -0.940900
     38          1           0       -6.173137    0.003209   -0.036290
     39          1           0       -4.381843   -0.384839    1.211827
     40          1           0       -3.246529   -1.335778   -1.386760
     41          1           0       -2.053022   -1.254902    1.298511
     42          1           0       -1.113951    0.347348   -1.018776
     43          1           0       -2.618100    1.045111    1.423100
     44          1           0       -1.017266    2.632681    1.070179
     45          1           0       -2.621754    3.244356    1.025628
 ---------------------------------------------------------------------
 Rotational constants (GHZ):      0.4004645      0.1553239      0.1159264
 Standard basis: 6-31+G(2df,p) (6D, 7F)
 There are   846 symmetry adapted basis functions of A   symmetry.
 Integral buffers will be    131072 words long.
 Raffenetti 2 integral format.
 Two-electron integral symmetry is turned on.
   846 basis functions,  1258 primitive gaussians,   915 cartesian basis functions
    91 alpha electrons       91 beta electrons
       nuclear repulsion energy      2307.4398488895 Hartrees.
 NAtoms=   45 NActive=   45 NUniq=   45 SFac= 1.00D+00 NAtFMM=   50 NAOKFM=F Big=F
 One-electron integrals computed using PRISM.
 NBasis=   846 RedAO= T  NBF=   846
 NBsUse=   846 1.00D-06 NBFU=   846
 Harris functional with IExCor=  402 diagonalized for initial guess.
 ExpMin= 4.38D-02 ExpMax= 5.48D+03 ExpMxC= 8.25D+02 IAcc=2 IRadAn=         0 AccDes= 0.00D+00
 HarFok:  IExCor=  402 AccDes= 0.00D+00 IRadAn=         0 IDoV= 1
 ScaDFX=  1.000000  1.000000  1.000000  1.000000
 FoFCou: FMM=F IPFlag=           0 FMFlag=      100000 FMFlg1=           0
         NFxFlg=           0 DoJE=T BraDBF=F KetDBF=T FulRan=T
         Omega=  0.000000  0.000000  1.000000  0.000000  0.000000 ICntrl=     500 IOpCl=  0
         NMat0=    1 NMatS0=    1 NMatT0=    0 NMatD0=    1 NMtDS0=    0 NMtDT0=    0
         I1Cent=           4 NGrid=           0.
 Petite list used in FoFCou.
 Initial guess orbital symmetries:
       Occupied  (A) (A) (A) (A) (A) (A) (A) (A) (A) (A) (A) (A)
                 (A) (A) (A) (A) (A) (A) (A) (A) (A) (A) (A) (A)
                 (A) (A) (A) (A) (A) (A) (A) (A) (A) (A) (A) (A)
                 (A) (A) (A) (A) (A) (A) (A) (A) (A) (A) (A) (A)
                 (A) (A) (A) (A) (A) (A) (A) (A) (A) (A) (A) (A)
                 (A) (A) (A) (A) (A) (A) (A) (A) (A) (A) (A) (A)
                 (A) (A) (A) (A) (A) (A) (A) (A) (A) (A) (A) (A)
                 (A) (A) (A) (A) (A) (A) (A)
       Virtual   (A) (A) (A) (A) (A) (A) (A) (A) (A) (A) (A) (A)
                 (A) (A) (A) (A) (A) (A) (A) (A) (A) (A) (A) (A)
                 (A) (A) (A) (A) (A) (A) (A) (A) (A) (A) (A) (A)
                 (A) (A) (A) (A) (A) (A) (A) (A) (A) (A) (A) (A)
                 (A) (A) (A) (A) (A) (A) (A) (A) (A) (A) (A) (A)
                 (A) (A) (A) (A) (A) (A) (A) (A) (A) (A) (A) (A)
                 (A) (A) (A) (A) (A) (A) (A) (A) (A) (A) (A) (A)
                 (A) (A) (A) (A) (A) (A) (A) (A) (A) (A) (A) (A)
                 (A) (A) (A) (A) (A) (A) (A) (A) (A) (A) (A) (A)
                 (A) (A) (A) (A) (A) (A) (A) (A) (A) (A) (A) (A)
                 (A) (A) (A) (A) (A) (A) (A) (A) (A) (A) (A) (A)
                 (A) (A) (A) (A) (A) (A) (A) (A) (A) (A) (A) (A)
                 (A) (A) (A) (A) (A) (A) (A) (A) (A) (A) (A) (A)
                 (A) (A) (A) (A) (A) (A) (A) (A) (A) (A) (A) (A)
                 (A) (A) (A) (A) (A) (A) (A) (A) (A) (A) (A) (A)
                 (A) (A) (A) (A) (A) (A) (A) (A) (A) (A) (A) (A)
                 (A) (A) (A) (A) (A) (A) (A) (A) (A) (A) (A) (A)
                 (A) (A) (A) (A) (A) (A) (A) (A) (A) (A) (A) (A)
                 (A) (A) (A) (A) (A) (A) (A) (A) (A) (A) (A) (A)
                 (A) (A) (A) (A) (A) (A) (A) (A) (A) (A) (A) (A)
                 (A) (A) (A) (A) (A) (A) (A) (A) (A) (A) (A) (A)
                 (A) (A) (A) (A) (A) (A) (A) (A) (A) (A) (A) (A)
                 (A) (A) (A) (A) (A) (A) (A) (A) (A) (A) (A) (A)
                 (A) (A) (A) (A) (A) (A) (A) (A) (A) (A) (A) (A)
                 (A) (A) (A) (A) (A) (A) (A) (A) (A) (A) (A) (A)
                 (A) (A) (A) (A) (A) (A) (A) (A) (A) (A) (A) (A)
                 (A) (A) (A) (A) (A) (A) (A) (A) (A) (A) (A) (A)
                 (A) (A) (A) (A) (A) (A) (A) (A) (A) (A) (A) (A)
                 (A) (A) (A) (A) (A) (A) (A) (A) (A) (A) (A) (A)
                 (A) (A) (A) (A) (A) (A) (A) (A) (A) (A) (A) (A)
                 (A) (A) (A) (A) (A) (A) (A) (A) (A) (A) (A) (A)
                 (A) (A) (A) (A) (A) (A) (A) (A) (A) (A) (A) (A)
                 (A) (A) (A) (A) (A) (A) (A) (A) (A) (A) (A) (A)
                 (A) (A) (A) (A) (A) (A) (A) (A) (A) (A) (A) (A)
                 (A) (A) (A) (A) (A) (A) (A) (A) (A) (A) (A) (A)
                 (A) (A) (A) (A) (A) (A) (A) (A) (A) (A) (A) (A)
                 (A) (A) (A) (A) (A) (A) (A) (A) (A) (A) (A) (A)
                 (A) (A) (A) (A) (A) (A) (A) (A) (A) (A) (A) (A)
                 (A) (A) (A) (A) (A) (A) (A) (A) (A) (A) (A) (A)
                 (A) (A) (A) (A) (A) (A) (A) (A) (A) (A) (A) (A)
                 (A) (A) (A) (A) (A) (A) (A) (A) (A) (A) (A) (A)
                 (A) (A) (A) (A) (A) (A) (A) (A) (A) (A) (A) (A)
                 (A) (A) (A) (A) (A) (A) (A) (A) (A) (A) (A) (A)
                 (A) (A) (A) (A) (A) (A) (A) (A) (A) (A) (A) (A)
                 (A) (A) (A) (A) (A) (A) (A) (A) (A) (A) (A) (A)
                 (A) (A) (A) (A) (A) (A) (A) (A) (A) (A) (A) (A)
                 (A) (A) (A) (A) (A) (A) (A) (A) (A) (A) (A) (A)
                 (A) (A) (A) (A) (A) (A) (A) (A) (A) (A) (A) (A)
                 (A) (A) (A) (A) (A) (A) (A) (A) (A) (A) (A) (A)
                 (A) (A) (A) (A) (A) (A) (A) (A) (A) (A) (A) (A)
                 (A) (A) (A) (A) (A) (A) (A) (A) (A) (A) (A) (A)
                 (A) (A) (A) (A) (A) (A) (A) (A) (A) (A) (A) (A)
                 (A) (A) (A) (A) (A) (A) (A) (A) (A) (A) (A) (A)
                 (A) (A) (A) (A) (A) (A) (A) (A) (A) (A) (A) (A)
                 (A) (A) (A) (A) (A) (A) (A) (A) (A) (A) (A) (A)
                 (A) (A) (A) (A) (A) (A) (A) (A) (A) (A) (A) (A)
                 (A) (A) (A) (A) (A) (A) (A) (A) (A) (A) (A) (A)
                 (A) (A) (A) (A) (A) (A) (A) (A) (A) (A) (A) (A)
                 (A) (A) (A) (A) (A) (A) (A) (A) (A) (A) (A) (A)
                 (A) (A) (A) (A) (A) (A) (A) (A) (A) (A) (A) (A)
                 (A) (A) (A) (A) (A) (A) (A) (A) (A) (A) (A) (A)
                 (A) (A) (A) (A) (A) (A) (A) (A) (A) (A) (A) (A)
                 (A) (A) (A) (A) (A) (A) (A) (A) (A) (A) (A)
 The electronic state of the initial guess is 1-A.
 Requested convergence on RMS density matrix=1.00D-08 within 128 cycles.
 Requested convergence on MAX density matrix=1.00D-06.
 Requested convergence on             energy=1.00D-06.
 No special actions if energy rises.
 SCF Done:  E(RB3LYP) =  -1298.00189578     A.U. after   13 cycles
             Convg  =    0.4748D-08             -V/T =  2.0065
 Range of M.O.s used for correlation:     1   846
 NBasis=   846 NAE=    91 NBE=    91 NFC=     0 NFV=     0
 NROrb=    846 NOA=    91 NOB=    91 NVA=   755 NVB=   755

 **** Warning!!: The largest alpha MO coefficient is  0.70496967D+02

          Differentiating once with respect to electric field.
                with respect to dipole field.
          Electric field/nuclear overlap derivatives assumed to be zero.
          There are     3 degrees of freedom in the 1st order CPHF.  IDoFFX=0.
      3 vectors produced by pass  0 Test12= 2.29D-12 3.33D-08 XBig12= 1.23D+02 1.42D+00.
 AX will form     3 AO Fock derivatives at one time.
      3 vectors produced by pass  1 Test12= 2.29D-12 3.33D-08 XBig12= 2.82D+01 5.08D-01.
      3 vectors produced by pass  2 Test12= 2.29D-12 3.33D-08 XBig12= 1.10D+01 2.31D-01.
      3 vectors produced by pass  3 Test12= 2.29D-12 3.33D-08 XBig12= 1.16D+00 7.87D-02.
      3 vectors produced by pass  4 Test12= 2.29D-12 3.33D-08 XBig12= 3.20D-01 3.45D-02.
      3 vectors produced by pass  5 Test12= 2.29D-12 3.33D-08 XBig12= 5.89D-02 1.77D-02.
      3 vectors produced by pass  6 Test12= 2.29D-12 3.33D-08 XBig12= 1.87D-02 1.09D-02.
      3 vectors produced by pass  7 Test12= 2.29D-12 3.33D-08 XBig12= 3.49D-03 4.83D-03.
      3 vectors produced by pass  8 Test12= 2.29D-12 3.33D-08 XBig12= 7.02D-04 1.99D-03.
      3 vectors produced by pass  9 Test12= 2.29D-12 3.33D-08 XBig12= 1.41D-04 8.13D-04.
      3 vectors produced by pass 10 Test12= 2.29D-12 3.33D-08 XBig12= 2.78D-05 4.49D-04.
      3 vectors produced by pass 11 Test12= 2.29D-12 3.33D-08 XBig12= 9.71D-06 2.33D-04.
      3 vectors produced by pass 12 Test12= 2.29D-12 3.33D-08 XBig12= 1.22D-06 1.03D-04.
      3 vectors produced by pass 13 Test12= 2.29D-12 3.33D-08 XBig12= 2.31D-07 4.17D-05.
      3 vectors produced by pass 14 Test12= 2.29D-12 3.33D-08 XBig12= 5.28D-08 2.08D-05.
      3 vectors produced by pass 15 Test12= 2.29D-12 3.33D-08 XBig12= 6.97D-09 7.10D-06.
      3 vectors produced by pass 16 Test12= 2.29D-12 3.33D-08 XBig12= 2.18D-09 3.10D-06.
      3 vectors produced by pass 17 Test12= 2.29D-12 3.33D-08 XBig12= 2.16D-10 1.02D-06.
      3 vectors produced by pass 18 Test12= 2.29D-12 3.33D-08 XBig12= 2.61D-11 4.03D-07.
      3 vectors produced by pass 19 Test12= 2.29D-12 3.33D-08 XBig12= 7.97D-12 2.15D-07.
      3 vectors produced by pass 20 Test12= 2.29D-12 3.33D-08 XBig12= 6.41D-12 2.18D-07.
      2 vectors produced by pass 21 Test12= 2.29D-12 3.33D-08 XBig12= 2.39D-12 1.02D-07.
      1 vectors produced by pass 22 Test12= 2.29D-12 3.33D-08 XBig12= 8.01D-13 4.79D-08.
 Inverted reduced A of dimension    66 with in-core refinement.
 End of Minotr Frequency-dependent properties file   721 does not exist.
 End of Minotr Frequency-dependent properties file   722 does not exist.
 Symmetrizing basis deriv contribution to polar:
 IMax=3 JMax=2 DiffMx= 0.00D+00
 G2DrvN: will do     8 centers at a time, making    6 passes doing MaxLOS=3.
 Calling FoFCou, ICntrl=  3107 FMM=F I1Cent=   0 AccDes= 0.00D+00.
 Calling FoFCou, ICntrl=  3107 FMM=F I1Cent=   0 AccDes= 0.00D+00.
 Calling FoFCou, ICntrl=  3107 FMM=F I1Cent=   0 AccDes= 0.00D+00.
 Calling FoFCou, ICntrl=  3107 FMM=F I1Cent=   0 AccDes= 0.00D+00.
 Calling FoFCou, ICntrl=  3107 FMM=F I1Cent=   0 AccDes= 0.00D+00.
 Calling FoFCou, ICntrl=  3107 FMM=F I1Cent=   0 AccDes= 0.00D+00.
 FoFDir/FoFCou used for L=0 through L=3.
 End of G2Drv Frequency-dependent properties file   721 does not exist.
 End of G2Drv Frequency-dependent properties file   722 does not exist.
          IDoAtm=111111111111111111111111111111111111111111111
          Differentiating once with respect to electric field.
                with respect to dipole field.
          Differentiating once with respect to nuclear coordinates.
          There are   138 degrees of freedom in the 1st order CPHF.  IDoFFX=5.
 Will reuse    3 saved solutions.
    135 vectors produced by pass  0 Test12= 6.87D-14 1.00D-09 XBig12= 1.68D-01 5.36D-02.
 AX will form    27 AO Fock derivatives at one time.
    135 vectors produced by pass  1 Test12= 6.87D-14 1.00D-09 XBig12= 2.22D-02 1.42D-02.
    132 vectors produced by pass  2 Test12= 6.87D-14 1.00D-09 XBig12= 2.00D-04 1.41D-03.
    132 vectors produced by pass  3 Test12= 6.87D-14 1.00D-09 XBig12= 1.07D-06 1.03D-04.
    132 vectors produced by pass  4 Test12= 6.87D-14 1.00D-09 XBig12= 2.52D-09 3.56D-06.
    132 vectors produced by pass  5 Test12= 6.87D-14 1.00D-09 XBig12= 7.48D-12 1.64D-07.
     98 vectors produced by pass  6 Test12= 6.87D-14 1.00D-09 XBig12= 3.10D-13 2.71D-08.
      1 vectors produced by pass  7 Test12= 6.87D-14 1.00D-09 XBig12= 7.83D-16 1.36D-09.
 Inverted reduced A of dimension   897 with in-core refinement.
 Isotropic polarizability for W=    0.000000      189.66 Bohr**3.
 End of Minotr Frequency-dependent properties file   721 does not exist.
 End of Minotr Frequency-dependent properties file   722 does not exist.

 **********************************************************************

            Population analysis using the SCF density.

 **********************************************************************

 Orbital symmetries:
       Occupied  (A) (A) (A) (A) (A) (A) (A) (A) (A) (A) (A) (A)
                 (A) (A) (A) (A) (A) (A) (A) (A) (A) (A) (A) (A)
                 (A) (A) (A) (A) (A) (A) (A) (A) (A) (A) (A) (A)
                 (A) (A) (A) (A) (A) (A) (A) (A) (A) (A) (A) (A)
                 (A) (A) (A) (A) (A) (A) (A) (A) (A) (A) (A) (A)
                 (A) (A) (A) (A) (A) (A) (A) (A) (A) (A) (A) (A)
                 (A) (A) (A) (A) (A) (A) (A) (A) (A) (A) (A) (A)
                 (A) (A) (A) (A) (A) (A) (A)
       Virtual   (A) (A) (A) (A) (A) (A) (A) (A) (A) (A) (A) (A)
                 (A) (A) (A) (A) (A) (A) (A) (A) (A) (A) (A) (A)
                 (A) (A) (A) (A) (A) (A) (A) (A) (A) (A) (A) (A)
                 (A) (A) (A) (A) (A) (A) (A) (A) (A) (A) (A) (A)
                 (A) (A) (A) (A) (A) (A) (A) (A) (A) (A) (A) (A)
                 (A) (A) (A) (A) (A) (A) (A) (A) (A) (A) (A) (A)
                 (A) (A) (A) (A) (A) (A) (A) (A) (A) (A) (A) (A)
                 (A) (A) (A) (A) (A) (A) (A) (A) (A) (A) (A) (A)
                 (A) (A) (A) (A) (A) (A) (A) (A) (A) (A) (A) (A)
                 (A) (A) (A) (A) (A) (A) (A) (A) (A) (A) (A) (A)
                 (A) (A) (A) (A) (A) (A) (A) (A) (A) (A) (A) (A)
                 (A) (A) (A) (A) (A) (A) (A) (A) (A) (A) (A) (A)
                 (A) (A) (A) (A) (A) (A) (A) (A) (A) (A) (A) (A)
                 (A) (A) (A) (A) (A) (A) (A) (A) (A) (A) (A) (A)
                 (A) (A) (A) (A) (A) (A) (A) (A) (A) (A) (A) (A)
                 (A) (A) (A) (A) (A) (A) (A) (A) (A) (A) (A) (A)
                 (A) (A) (A) (A) (A) (A) (A) (A) (A) (A) (A) (A)
                 (A) (A) (A) (A) (A) (A) (A) (A) (A) (A) (A) (A)
                 (A) (A) (A) (A) (A) (A) (A) (A) (A) (A) (A) (A)
                 (A) (A) (A) (A) (A) (A) (A) (A) (A) (A) (A) (A)
                 (A) (A) (A) (A) (A) (A) (A) (A) (A) (A) (A) (A)
                 (A) (A) (A) (A) (A) (A) (A) (A) (A) (A) (A) (A)
                 (A) (A) (A) (A) (A) (A) (A) (A) (A) (A) (A) (A)
                 (A) (A) (A) (A) (A) (A) (A) (A) (A) (A) (A) (A)
                 (A) (A) (A) (A) (A) (A) (A) (A) (A) (A) (A) (A)
                 (A) (A) (A) (A) (A) (A) (A) (A) (A) (A) (A) (A)
                 (A) (A) (A) (A) (A) (A) (A) (A) (A) (A) (A) (A)
                 (A) (A) (A) (A) (A) (A) (A) (A) (A) (A) (A) (A)
                 (A) (A) (A) (A) (A) (A) (A) (A) (A) (A) (A) (A)
                 (A) (A) (A) (A) (A) (A) (A) (A) (A) (A) (A) (A)
                 (A) (A) (A) (A) (A) (A) (A) (A) (A) (A) (A) (A)
                 (A) (A) (A) (A) (A) (A) (A) (A) (A) (A) (A) (A)
                 (A) (A) (A) (A) (A) (A) (A) (A) (A) (A) (A) (A)
                 (A) (A) (A) (A) (A) (A) (A) (A) (A) (A) (A) (A)
                 (A) (A) (A) (A) (A) (A) (A) (A) (A) (A) (A) (A)
                 (A) (A) (A) (A) (A) (A) (A) (A) (A) (A) (A) (A)
                 (A) (A) (A) (A) (A) (A) (A) (A) (A) (A) (A) (A)
                 (A) (A) (A) (A) (A) (A) (A) (A) (A) (A) (A) (A)
                 (A) (A) (A) (A) (A) (A) (A) (A) (A) (A) (A) (A)
                 (A) (A) (A) (A) (A) (A) (A) (A) (A) (A) (A) (A)
                 (A) (A) (A) (A) (A) (A) (A) (A) (A) (A) (A) (A)
                 (A) (A) (A) (A) (A) (A) (A) (A) (A) (A) (A) (A)
                 (A) (A) (A) (A) (A) (A) (A) (A) (A) (A) (A) (A)
                 (A) (A) (A) (A) (A) (A) (A) (A) (A) (A) (A) (A)
                 (A) (A) (A) (A) (A) (A) (A) (A) (A) (A) (A) (A)
                 (A) (A) (A) (A) (A) (A) (A) (A) (A) (A) (A) (A)
                 (A) (A) (A) (A) (A) (A) (A) (A) (A) (A) (A) (A)
                 (A) (A) (A) (A) (A) (A) (A) (A) (A) (A) (A) (A)
                 (A) (A) (A) (A) (A) (A) (A) (A) (A) (A) (A) (A)
                 (A) (A) (A) (A) (A) (A) (A) (A) (A) (A) (A) (A)
                 (A) (A) (A) (A) (A) (A) (A) (A) (A) (A) (A) (A)
                 (A) (A) (A) (A) (A) (A) (A) (A) (A) (A) (A) (A)
                 (A) (A) (A) (A) (A) (A) (A) (A) (A) (A) (A) (A)
                 (A) (A) (A) (A) (A) (A) (A) (A) (A) (A) (A) (A)
                 (A) (A) (A) (A) (A) (A) (A) (A) (A) (A) (A) (A)
                 (A) (A) (A) (A) (A) (A) (A) (A) (A) (A) (A) (A)
                 (A) (A) (A) (A) (A) (A) (A) (A) (A) (A) (A) (A)
                 (A) (A) (A) (A) (A) (A) (A) (A) (A) (A) (A) (A)
                 (A) (A) (A) (A) (A) (A) (A) (A) (A) (A) (A) (A)
                 (A) (A) (A) (A) (A) (A) (A) (A) (A) (A) (A) (A)
                 (A) (A) (A) (A) (A) (A) (A) (A) (A) (A) (A) (A)
                 (A) (A) (A) (A) (A) (A) (A) (A) (A) (A) (A) (A)
                 (A) (A) (A) (A) (A) (A) (A) (A) (A) (A) (A)
 The electronic state is 1-A.
 Alpha  occ. eigenvalues --  -19.20661 -19.20447 -19.19464 -19.19432 -19.17878
 Alpha  occ. eigenvalues --  -19.16839 -19.16168 -19.15606 -19.15441 -19.14971
 Alpha  occ. eigenvalues --  -19.14097 -10.31553 -10.29370 -10.27736 -10.27729
 Alpha  occ. eigenvalues --  -10.27433 -10.26464 -10.25157 -10.24622 -10.24303
 Alpha  occ. eigenvalues --  -10.24091 -10.24016 -10.22517  -1.11474  -1.08814
 Alpha  occ. eigenvalues --   -1.07470  -1.07052  -1.05190  -1.04775  -1.03031
 Alpha  occ. eigenvalues --   -1.02394  -1.01217  -1.00683  -1.00171  -0.83612
 Alpha  occ. eigenvalues --   -0.81924  -0.78845  -0.77908  -0.73044  -0.70350
 Alpha  occ. eigenvalues --   -0.68178  -0.65420  -0.64633  -0.63134  -0.61643
 Alpha  occ. eigenvalues --   -0.59954  -0.58211  -0.57064  -0.55951  -0.54393
 Alpha  occ. eigenvalues --   -0.53849  -0.53242  -0.53221  -0.52529  -0.51828
 Alpha  occ. eigenvalues --   -0.51107  -0.50283  -0.49102  -0.48358  -0.47693
 Alpha  occ. eigenvalues --   -0.46825  -0.45745  -0.45410  -0.44798  -0.43279
 Alpha  occ. eigenvalues --   -0.42910  -0.42868  -0.41718  -0.41143  -0.40193
 Alpha  occ. eigenvalues --   -0.39767  -0.39391  -0.37696  -0.36894  -0.36245
 Alpha  occ. eigenvalues --   -0.35683  -0.35388  -0.34956  -0.34667  -0.33596
 Alpha  occ. eigenvalues --   -0.33119  -0.32603  -0.32260  -0.31194  -0.30769
 Alpha  occ. eigenvalues --   -0.30589  -0.29131  -0.28484  -0.27793  -0.27357
 Alpha  occ. eigenvalues --   -0.26166
 Alpha virt. eigenvalues --   -0.05014  -0.01763  -0.00975  -0.00101   0.00387
 Alpha virt. eigenvalues --    0.00586   0.02019   0.02124   0.02666   0.03040
 Alpha virt. eigenvalues --    0.03799   0.04372   0.04659   0.04945   0.05504
 Alpha virt. eigenvalues --    0.05910   0.06079   0.06712   0.07108   0.07353
 Alpha virt. eigenvalues --    0.08162   0.08350   0.09046   0.09440   0.09998
 Alpha virt. eigenvalues --    0.10159   0.10512   0.10736   0.11443   0.11814
 Alpha virt. eigenvalues --    0.11995   0.12212   0.12410   0.12812   0.13122
 Alpha virt. eigenvalues --    0.13736   0.13851   0.14407   0.14562   0.14735
 Alpha virt. eigenvalues --    0.15428   0.15787   0.16077   0.16212   0.16432
 Alpha virt. eigenvalues --    0.16969   0.17157   0.17553   0.18047   0.18419
 Alpha virt. eigenvalues --    0.18630   0.18795   0.19211   0.19588   0.19603
 Alpha virt. eigenvalues --    0.19861   0.20126   0.20526   0.20797   0.21066
 Alpha virt. eigenvalues --    0.21589   0.21682   0.22090   0.22243   0.22527
 Alpha virt. eigenvalues --    0.23083   0.23178   0.23270   0.23645   0.24035
 Alpha virt. eigenvalues --    0.24360   0.24596   0.24893   0.25251   0.25621
 Alpha virt. eigenvalues --    0.26115   0.26438   0.26696   0.27170   0.27542
 Alpha virt. eigenvalues --    0.27685   0.27917   0.28169   0.28320   0.28693
 Alpha virt. eigenvalues --    0.28837   0.29217   0.29467   0.29850   0.30046
 Alpha virt. eigenvalues --    0.30389   0.30822   0.30974   0.31204   0.31383
 Alpha virt. eigenvalues --    0.32067   0.32347   0.32426   0.32999   0.33536
 Alpha virt. eigenvalues --    0.33773   0.34190   0.34487   0.34808   0.35169
 Alpha virt. eigenvalues --    0.35462   0.35710   0.36563   0.36806   0.37122
 Alpha virt. eigenvalues --    0.37408   0.38059   0.38221   0.38468   0.38978
 Alpha virt. eigenvalues --    0.39435   0.39589   0.39696   0.39982   0.40488
 Alpha virt. eigenvalues --    0.40617   0.41255   0.41781   0.42144   0.42555
 Alpha virt. eigenvalues --    0.43555   0.43801   0.44331   0.45015   0.45340
 Alpha virt. eigenvalues --    0.46312   0.46784   0.47559   0.49063   0.49698
 Alpha virt. eigenvalues --    0.51243   0.51798   0.52364   0.56649   0.57494
 Alpha virt. eigenvalues --    0.57719   0.59174   0.59664   0.61292   0.61452
 Alpha virt. eigenvalues --    0.61873   0.63882   0.64459   0.64602   0.64899
 Alpha virt. eigenvalues --    0.65893   0.67046   0.68372   0.68768   0.69198
 Alpha virt. eigenvalues --    0.70293   0.70911   0.71654   0.71984   0.72874
 Alpha virt. eigenvalues --    0.73281   0.73523   0.74265   0.75301   0.75685
 Alpha virt. eigenvalues --    0.76345   0.77534   0.77693   0.79360   0.80188
 Alpha virt. eigenvalues --    0.80988   0.82182   0.82725   0.83017   0.83628
 Alpha virt. eigenvalues --    0.84435   0.85171   0.86513   0.87715   0.88325
 Alpha virt. eigenvalues --    0.88875   0.89137   0.89676   0.90020   0.91286
 Alpha virt. eigenvalues --    0.91703   0.91797   0.92778   0.93404   0.93508
 Alpha virt. eigenvalues --    0.94089   0.94305   0.94665   0.95316   0.95984
 Alpha virt. eigenvalues --    0.96517   0.96803   0.97518   0.97634   0.97722
 Alpha virt. eigenvalues --    0.98440   0.99185   1.00071   1.01117   1.01529
 Alpha virt. eigenvalues --    1.01734   1.02331   1.03175   1.03881   1.04240
 Alpha virt. eigenvalues --    1.05722   1.06397   1.06707   1.07039   1.07375
 Alpha virt. eigenvalues --    1.07626   1.08081   1.08783   1.09531   1.10469
 Alpha virt. eigenvalues --    1.10939   1.11626   1.12054   1.13121   1.13526
 Alpha virt. eigenvalues --    1.13884   1.14706   1.15131   1.15655   1.16118
 Alpha virt. eigenvalues --    1.16443   1.17013   1.17672   1.18270   1.18553
 Alpha virt. eigenvalues --    1.18684   1.19321   1.20301   1.21085   1.21676
 Alpha virt. eigenvalues --    1.22265   1.22356   1.22816   1.23264   1.24026
 Alpha virt. eigenvalues --    1.24575   1.25178   1.25567   1.26190   1.26377
 Alpha virt. eigenvalues --    1.27402   1.28147   1.28583   1.28640   1.29775
 Alpha virt. eigenvalues --    1.30292   1.30656   1.31265   1.32080   1.32503
 Alpha virt. eigenvalues --    1.33206   1.34689   1.35117   1.35890   1.36271
 Alpha virt. eigenvalues --    1.36634   1.37530   1.37937   1.38795   1.39063
 Alpha virt. eigenvalues --    1.39949   1.40603   1.41291   1.42110   1.42289
 Alpha virt. eigenvalues --    1.43317   1.43777   1.44706   1.45713   1.46853
 Alpha virt. eigenvalues --    1.47184   1.47825   1.49281   1.49469   1.50055
 Alpha virt. eigenvalues --    1.50163   1.51106   1.51560   1.53088   1.53896
 Alpha virt. eigenvalues --    1.54417   1.55754   1.56397   1.58028   1.59189
 Alpha virt. eigenvalues --    1.60072   1.61335   1.62016   1.62179   1.62725
 Alpha virt. eigenvalues --    1.63207   1.64286   1.64856   1.65277   1.66359
 Alpha virt. eigenvalues --    1.68147   1.69245   1.69881   1.70352   1.71029
 Alpha virt. eigenvalues --    1.72984   1.74571   1.75414   1.75865   1.76812
 Alpha virt. eigenvalues --    1.77101   1.78095   1.78574   1.79237   1.80726
 Alpha virt. eigenvalues --    1.81730   1.83585   1.84416   1.85750   1.86738
 Alpha virt. eigenvalues --    1.86877   1.87742   1.88355   1.89662   1.90189
 Alpha virt. eigenvalues --    1.91156   1.92332   1.93295   1.94356   1.95534
 Alpha virt. eigenvalues --    1.95751   1.97512   1.98637   2.00019   2.00217
 Alpha virt. eigenvalues --    2.01846   2.02553   2.03989   2.04429   2.05413
 Alpha virt. eigenvalues --    2.06450   2.08180   2.08789   2.10654   2.11709
 Alpha virt. eigenvalues --    2.12535   2.14112   2.15056   2.16663   2.18611
 Alpha virt. eigenvalues --    2.19631   2.20931   2.22562   2.23908   2.25361
 Alpha virt. eigenvalues --    2.25758   2.25973   2.26971   2.29348   2.30079
 Alpha virt. eigenvalues --    2.32666   2.32830   2.35737   2.37545   2.38641
 Alpha virt. eigenvalues --    2.43976   2.44708   2.47014   2.49044   2.49750
 Alpha virt. eigenvalues --    2.49774   2.50388   2.51489   2.51981   2.53751
 Alpha virt. eigenvalues --    2.54846   2.55421   2.56442   2.57744   2.58491
 Alpha virt. eigenvalues --    2.59817   2.60497   2.61722   2.62409   2.62917
 Alpha virt. eigenvalues --    2.64288   2.65007   2.65320   2.66868   2.68973
 Alpha virt. eigenvalues --    2.70640   2.73044   2.73923   2.74827   2.77069
 Alpha virt. eigenvalues --    2.79350   2.79590   2.81749   2.82062   2.83999
 Alpha virt. eigenvalues --    2.84745   2.85696   2.86762   2.87053   2.87644
 Alpha virt. eigenvalues --    2.89067   2.89910   2.91116   2.91875   2.92536
 Alpha virt. eigenvalues --    2.93754   2.94439   2.95048   2.96425   2.97301
 Alpha virt. eigenvalues --    2.99005   3.00217   3.01312   3.01856   3.02395
 Alpha virt. eigenvalues --    3.02885   3.04515   3.05703   3.06357   3.06939
 Alpha virt. eigenvalues --    3.07578   3.08541   3.09464   3.10154   3.10539
 Alpha virt. eigenvalues --    3.11480   3.12893   3.13270   3.15051   3.15935
 Alpha virt. eigenvalues --    3.17575   3.18339   3.19962   3.20838   3.22252
 Alpha virt. eigenvalues --    3.22747   3.24918   3.25102   3.27240   3.28069
 Alpha virt. eigenvalues --    3.28697   3.29462   3.30568   3.32055   3.32121
 Alpha virt. eigenvalues --    3.34119   3.35931   3.36085   3.37200   3.38242
 Alpha virt. eigenvalues --    3.39701   3.40965   3.42829   3.44377   3.45281
 Alpha virt. eigenvalues --    3.45597   3.48891   3.51532   3.51832   3.53121
 Alpha virt. eigenvalues --    3.54047   3.56505   3.57187   3.57875   3.58000
 Alpha virt. eigenvalues --    3.60049   3.60634   3.61454   3.63298   3.64897
 Alpha virt. eigenvalues --    3.67340   3.68883   3.70382   3.70916   3.72929
 Alpha virt. eigenvalues --    3.74339   3.74681   3.76997   3.78352   3.79400
 Alpha virt. eigenvalues --    3.80651   3.81669   3.81909   3.83032   3.84929
 Alpha virt. eigenvalues --    3.87191   3.87995   3.89062   3.91582   3.93239
 Alpha virt. eigenvalues --    3.93552   3.94981   3.97215   4.02020   4.02229
 Alpha virt. eigenvalues --    4.03792   4.04535   4.07637   4.10536   4.12414
 Alpha virt. eigenvalues --    4.13870   4.14225   4.16368   4.17173   4.18069
 Alpha virt. eigenvalues --    4.19207   4.21372   4.21698   4.22548   4.23493
 Alpha virt. eigenvalues --    4.24492   4.28047   4.28438   4.28967   4.30199
 Alpha virt. eigenvalues --    4.31511   4.31911   4.32869   4.33785   4.34612
 Alpha virt. eigenvalues --    4.35424   4.36060   4.36922   4.37723   4.38224
 Alpha virt. eigenvalues --    4.38901   4.39742   4.40330   4.41979   4.42477
 Alpha virt. eigenvalues --    4.43834   4.44102   4.44532   4.45466   4.45865
 Alpha virt. eigenvalues --    4.46626   4.47232   4.48695   4.49130   4.49953
 Alpha virt. eigenvalues --    4.50476   4.50728   4.52307   4.52755   4.53226
 Alpha virt. eigenvalues --    4.54604   4.55648   4.56680   4.57467   4.57658
 Alpha virt. eigenvalues --    4.58447   4.59182   4.59877   4.60546   4.60764
 Alpha virt. eigenvalues --    4.61263   4.62069   4.62732   4.64092   4.64986
 Alpha virt. eigenvalues --    4.65180   4.65956   4.66817   4.67353   4.68025
 Alpha virt. eigenvalues --    4.68768   4.69718   4.70054   4.71578   4.71738
 Alpha virt. eigenvalues --    4.72816   4.73241   4.74540   4.75360   4.75627
 Alpha virt. eigenvalues --    4.76144   4.77528   4.77763   4.78065   4.78257
 Alpha virt. eigenvalues --    4.79488   4.80056   4.80851   4.81573   4.81791
 Alpha virt. eigenvalues --    4.82605   4.83192   4.83790   4.84546   4.85057
 Alpha virt. eigenvalues --    4.85567   4.87055   4.89375   4.89624   4.90511
 Alpha virt. eigenvalues --    4.91269   4.92535   4.93183   4.93923   4.94600
 Alpha virt. eigenvalues --    4.95818   4.97685   4.98400   4.99001   5.01119
 Alpha virt. eigenvalues --    5.01449   5.03412   5.06489   5.07868   5.10250
 Alpha virt. eigenvalues --    5.11584   5.13837   5.14867   5.15886   5.17395
 Alpha virt. eigenvalues --    5.18428   5.18530   5.19288   5.21906   5.22690
 Alpha virt. eigenvalues --    5.24147   5.25195   5.26349   5.27755   5.28914
 Alpha virt. eigenvalues --    5.30829   5.31304   5.32179   5.33640   5.34327
 Alpha virt. eigenvalues --    5.35102   5.35724   5.36181   5.37379   5.39199
 Alpha virt. eigenvalues --    5.39947   5.40665   5.41708   5.41928   5.42840
 Alpha virt. eigenvalues --    5.44133   5.44300   5.44787   5.45611   5.47659
 Alpha virt. eigenvalues --    5.48572   5.50180   5.50871   5.52146   5.53741
 Alpha virt. eigenvalues --    5.55012   5.55309   5.56524   5.57126   5.58796
 Alpha virt. eigenvalues --    5.59502   5.60683   5.61697   5.63266   5.65735
 Alpha virt. eigenvalues --    5.66821   5.68258   5.71249   5.73234   5.73883
 Alpha virt. eigenvalues --    5.75351   5.77382   5.79063   5.79750   5.81124
 Alpha virt. eigenvalues --    5.83090   5.85203   5.87206   5.89569   5.90227
 Alpha virt. eigenvalues --    5.91496   5.91936   5.93162   5.93856   5.95379
 Alpha virt. eigenvalues --    5.96203   5.96847   5.97524   5.99000   6.00409
 Alpha virt. eigenvalues --    6.00682   6.01981   6.03237   6.03341   6.03831
 Alpha virt. eigenvalues --    6.05478   6.06002   6.06933   6.08844   6.11361
 Alpha virt. eigenvalues --    6.11556   6.11998   6.12893   6.16981   6.20382
 Alpha virt. eigenvalues --    6.22942   6.23925   6.25083   6.32746   6.38007
 Alpha virt. eigenvalues --    6.58006   6.65597   6.93600   7.03465   7.05757
 Alpha virt. eigenvalues --    7.09500   7.17453   7.19021   7.22402   7.26278
 Alpha virt. eigenvalues --    7.28601   7.34497   7.43098   7.55713   7.66148
 Alpha virt. eigenvalues --    7.93584   8.45618  12.11391  12.13838  12.17625
 Alpha virt. eigenvalues --   12.19457  12.50502  12.54772  12.85025  12.91371
 Alpha virt. eigenvalues --   12.96793  13.08923  13.22512  13.30571  13.36099
 Alpha virt. eigenvalues --   13.48390  13.52125  13.52746  13.57259  13.61917
 Alpha virt. eigenvalues --   13.65729  13.73431  13.84369  14.11209  14.26356
          Condensed to atoms (all electrons):
              1          2          3          4          5          6
     1  O    8.119739   0.204277   0.071159  -0.033673   0.027010  -0.009672
     2  C    0.204277   6.699351  -0.432579   0.087363  -0.057507  -0.632570
     3  C    0.071159  -0.432579   6.869664   0.096632   0.028147  -0.486667
     4  O   -0.033673   0.087363   0.096632   8.153080   0.232850  -0.035454
     5  H    0.027010  -0.057507   0.028147   0.232850   0.439399  -0.028506
     6  C   -0.009672  -0.632570  -0.486667  -0.035454  -0.028506   9.828544
     7  O    0.000280   0.013092   0.020872  -0.017673   0.000780   0.103571
     8  H   -0.000059   0.005609  -0.042440   0.014894  -0.000587  -0.007570
     9  C   -0.016639  -0.096477  -0.378184   0.003675  -0.004688   0.487822
    10  O   -0.004335   0.012131   0.012997   0.000249   0.000088  -0.009744
    11  H    0.007954   0.030417   0.005677  -0.000016  -0.000003   0.003199
    12  C   -0.139815  -0.387645  -0.358046  -0.000221   0.012222   0.555684
    13  O    0.004140  -0.071779  -0.007645  -0.002548   0.000061  -0.010987
    14  C    0.000829   0.484506   0.367922   0.003890   0.022177  -3.046437
    15  O   -0.000068  -0.000630   0.009761   0.000282   0.000008  -0.157812
    16  C    0.000059   0.022439   0.038427  -0.001797   0.000269  -0.221941
    17  C    0.000424  -0.035006  -0.061262   0.000644   0.000046   0.001632
    18  O    0.000041   0.001244  -0.000142   0.000005   0.000000   0.008703
    19  H   -0.000019  -0.000286  -0.000934   0.000005   0.000000  -0.004986
    20  C    0.000055  -0.003997   0.011674  -0.000001   0.000002  -0.018200
    21  O    0.000000   0.000027   0.000040   0.000000   0.000000  -0.000177
    22  H    0.000000   0.000036   0.000006   0.000000   0.000000   0.000183
    23  C    0.000060   0.014775  -0.028422   0.000559  -0.000084  -0.008294
    24  O   -0.000001   0.000343  -0.011777   0.000069   0.000000   0.015758
    25  H    0.000000  -0.000866  -0.009017   0.000012   0.000000   0.026985
    26  C   -0.000218  -0.029391   0.105168  -0.000302   0.000090  -0.231930
    27  O    0.000000   0.000006  -0.000037   0.000001   0.000000  -0.000811
    28  C   -0.000003   0.001270  -0.000702   0.000006   0.000000  -0.010144
    29  O    0.000000   0.000002  -0.000011   0.000000   0.000000  -0.000075
    30  H    0.253907   0.028969  -0.062260   0.001348   0.004306  -0.010250
    31  H   -0.000046   0.020057   0.002352   0.000004   0.000000   0.004582
    32  H    0.000546  -0.039634   0.000707   0.000007  -0.000001   0.006169
    33  H    0.007281   0.044224   0.020617   0.000844  -0.000012  -0.106836
    34  H   -0.015210   0.398750  -0.032144   0.001348   0.000381  -0.070034
    35  H    0.001031   0.030331   0.286041  -0.018593  -0.001455  -0.179047
    36  H    0.000186  -0.016866  -0.083180   0.002241  -0.000225   0.512946
    37  H    0.000343  -0.053755  -0.032256  -0.000013  -0.000002   0.063281
    38  H    0.000000   0.000000   0.000000   0.000000   0.000000   0.000024
    39  H    0.000000   0.000010  -0.000016   0.000000   0.000000  -0.000559
    40  H    0.000000   0.000083   0.000013   0.000000   0.000000  -0.001512
    41  H    0.000000   0.000694   0.000823   0.000000   0.000000   0.000942
    42  H   -0.000006   0.000582   0.002740   0.000007   0.000000  -0.001870
    43  H    0.000000   0.000354  -0.000790   0.000000   0.000000  -0.004979
    44  H    0.000000   0.001101   0.004776  -0.000013   0.000000  -0.031284
    45  H    0.000000   0.000003  -0.002022   0.000000   0.000000   0.004229
              7          8          9         10         11         12
     1  O    0.000280  -0.000059  -0.016639  -0.004335   0.007954  -0.139815
     2  C    0.013092   0.005609  -0.096477   0.012131   0.030417  -0.387645
     3  C    0.020872  -0.042440  -0.378184   0.012997   0.005677  -0.358046
     4  O   -0.017673   0.014894   0.003675   0.000249  -0.000016  -0.000221
     5  H    0.000780  -0.000587  -0.004688   0.000088  -0.000003   0.012222
     6  C    0.103571  -0.007570   0.487822  -0.009744   0.003199   0.555684
     7  O    8.127777   0.241896  -0.002069  -0.000004  -0.000001  -0.017351
     8  H    0.241896   0.389077   0.001009   0.000000   0.000000   0.004317
     9  C   -0.002069   0.001009   7.386921   0.126886   0.056887  -0.900813
    10  O   -0.000004   0.000000   0.126886   8.017372   0.270250   0.004585
    11  H   -0.000001   0.000000   0.056887   0.270250   0.412779  -0.124069
    12  C   -0.017351   0.004317  -0.900813   0.004585  -0.124069   7.953088
    13  O    0.001203  -0.000205  -0.066919   0.002845   0.000751   0.152373
    14  C    0.015919   0.016235  -0.928374   0.039705  -0.002729  -1.144265
    15  O    0.000613   0.000695  -0.010678   0.000212   0.000000  -0.032425
    16  C    0.022231  -0.003042  -0.056672   0.000557   0.000187  -0.038131
    17  C    0.007507  -0.000459   0.035883   0.000675  -0.000045  -0.055092
    18  O    0.000167  -0.000004  -0.009949  -0.000238   0.000011   0.003220
    19  H   -0.000020   0.000000   0.010278  -0.000290   0.000003  -0.011087
    20  C    0.000253  -0.000017  -0.005925   0.000635  -0.000012  -0.015583
    21  O   -0.000004   0.000000  -0.000109  -0.000002   0.000000   0.000704
    22  H    0.000000   0.000000   0.000024   0.000000   0.000000  -0.000087
    23  C    0.001957   0.001056   0.009985   0.000072   0.000003   0.003510
    24  O   -0.020742   0.001484   0.000613   0.000000   0.000000   0.005452
    25  H    0.021626  -0.000297   0.000062   0.000000   0.000000   0.001438
    26  C   -0.019926   0.001150  -0.003650  -0.000004  -0.000013   0.031114
    27  O   -0.000019   0.000000   0.000086   0.000000   0.000000   0.000638
    28  C   -0.000290  -0.000024  -0.001264  -0.000039   0.000000   0.000461
    29  O    0.000002   0.000000   0.000004   0.000000   0.000000   0.000090
    30  H    0.000017  -0.000001   0.008834  -0.000387  -0.000231   0.023720
    31  H    0.000002   0.000000   0.565680  -0.036983   0.005251  -0.235416
    32  H   -0.000004   0.000000   0.385194  -0.025011  -0.009044   0.004710
    33  H    0.000433   0.000005  -0.064349   0.007717  -0.000055   0.104600
    34  H    0.001044  -0.000001  -0.077503   0.003550  -0.000669  -0.064704
    35  H    0.010677  -0.000523   0.007662   0.000098  -0.000004   0.026563
    36  H   -0.033211  -0.002231   0.018173  -0.000041   0.000000   0.075000
    37  H    0.001574  -0.000385   0.041731  -0.000177   0.000002   0.093152
    38  H    0.000000   0.000000   0.000000   0.000000   0.000000  -0.000003
    39  H    0.000000   0.000000  -0.000008   0.000000   0.000000   0.000134
    40  H    0.000002   0.000000  -0.000375   0.000000   0.000000   0.002173
    41  H    0.000009   0.000000  -0.001422   0.000007   0.000000   0.002666
    42  H   -0.001254   0.000000   0.000769  -0.000001   0.000000   0.022384
    43  H    0.000124   0.000000   0.000308   0.000000   0.000000   0.002038
    44  H    0.003891  -0.000007  -0.000149   0.000000   0.000000  -0.001821
    45  H   -0.000354   0.000000   0.000024   0.000000   0.000000   0.000571
             13         14         15         16         17         18
     1  O    0.004140   0.000829  -0.000068   0.000059   0.000424   0.000041
     2  C   -0.071779   0.484506  -0.000630   0.022439  -0.035006   0.001244
     3  C   -0.007645   0.367922   0.009761   0.038427  -0.061262  -0.000142
     4  O   -0.002548   0.003890   0.000282  -0.001797   0.000644   0.000005
     5  H    0.000061   0.022177   0.000008   0.000269   0.000046   0.000000
     6  C   -0.010987  -3.046437  -0.157812  -0.221941   0.001632   0.008703
     7  O    0.001203   0.015919   0.000613   0.022231   0.007507   0.000167
     8  H   -0.000205   0.016235   0.000695  -0.003042  -0.000459  -0.000004
     9  C   -0.066919  -0.928374  -0.010678  -0.056672   0.035883  -0.009949
    10  O    0.002845   0.039705   0.000212   0.000557   0.000675  -0.000238
    11  H    0.000751  -0.002729   0.000000   0.000187  -0.000045   0.000011
    12  C    0.152373  -1.144265  -0.032425  -0.038131  -0.055092   0.003220
    13  O    7.867550   0.264622  -0.011748   0.000797   0.043742  -0.022200
    14  C    0.264622  10.860646   0.388881  -1.361102   0.187572   0.011043
    15  O   -0.011748   0.388881   7.829021   0.227747  -0.137322  -0.003632
    16  C    0.000797  -1.361102   0.227747  11.953048  -2.595078  -0.118496
    17  C    0.043742   0.187572  -0.137322  -2.595078   9.337341   0.265669
    18  O   -0.022200   0.011043  -0.003632  -0.118496   0.265669   8.116680
    19  H    0.015968  -0.007132   0.004281  -0.013505   0.012963   0.256065
    20  C   -0.014977  -0.376227   0.012392  -0.844709  -0.210806  -0.023128
    21  O    0.000145   0.001684   0.000622   0.041180  -0.104253  -0.000195
    22  H   -0.000029   0.002611   0.000084   0.009756  -0.067230   0.011222
    23  C   -0.004039  -0.301033  -0.117152   0.163465   0.018416   0.012798
    24  O    0.000050   0.011956   0.001578  -0.047101   0.019574   0.000033
    25  H   -0.000060   0.005890  -0.000731  -0.001901  -0.001013   0.000001
    26  C   -0.002163  -0.229190   0.086137  -2.404361  -0.455426   0.026588
    27  O    0.000088   0.000579   0.002123   0.067897  -0.032296  -0.001415
    28  C    0.000085   0.127782   0.012648   0.743866  -0.243085  -0.017071
    29  O    0.000014   0.000059  -0.000173  -0.020986   0.000693   0.000106
    30  H   -0.000514   0.003698   0.000012   0.000079  -0.000004   0.000000
    31  H    0.003622  -0.010997   0.000424   0.010104  -0.000962   0.001057
    32  H    0.000510  -0.008674   0.000069  -0.001709  -0.000311   0.000039
    33  H   -0.029138   0.218577   0.003314   0.021696   0.004449  -0.000786
    34  H   -0.000637   0.130021  -0.001003  -0.005644   0.001907  -0.000002
    35  H    0.003770   0.080429  -0.000108  -0.015360   0.003490   0.000061
    36  H    0.004696  -0.200857  -0.007325  -0.014284   0.005097   0.000112
    37  H   -0.022872   0.161531  -0.021558  -0.020543   0.015809  -0.001195
    38  H    0.000000   0.000281   0.000011   0.007000   0.003692  -0.000004
    39  H    0.000023   0.001008   0.000368   0.036867  -0.044720   0.000856
    40  H    0.000080  -0.019649   0.000478   0.024598  -0.157043   0.005360
    41  H    0.001064  -0.020888  -0.006693  -0.164811   0.319177  -0.024164
    42  H    0.002995   0.077481  -0.038444   0.058858   0.006844  -0.000660
    43  H   -0.000093   0.085673  -0.003523  -0.015994   0.015595   0.000210
    44  H   -0.000387   0.000659   0.004424  -0.031368  -0.001198  -0.000092
    45  H    0.000037  -0.000124  -0.003448   0.086942   0.013463   0.000031
             19         20         21         22         23         24
     1  O   -0.000019   0.000055   0.000000   0.000000   0.000060  -0.000001
     2  C   -0.000286  -0.003997   0.000027   0.000036   0.014775   0.000343
     3  C   -0.000934   0.011674   0.000040   0.000006  -0.028422  -0.011777
     4  O    0.000005  -0.000001   0.000000   0.000000   0.000559   0.000069
     5  H    0.000000   0.000002   0.000000   0.000000  -0.000084   0.000000
     6  C   -0.004986  -0.018200  -0.000177   0.000183  -0.008294   0.015758
     7  O   -0.000020   0.000253  -0.000004   0.000000   0.001957  -0.020742
     8  H    0.000000  -0.000017   0.000000   0.000000   0.001056   0.001484
     9  C    0.010278  -0.005925  -0.000109   0.000024   0.009985   0.000613
    10  O   -0.000290   0.000635  -0.000002   0.000000   0.000072   0.000000
    11  H    0.000003  -0.000012   0.000000   0.000000   0.000003   0.000000
    12  C   -0.011087  -0.015583   0.000704  -0.000087   0.003510   0.005452
    13  O    0.015968  -0.014977   0.000145  -0.000029  -0.004039   0.000050
    14  C   -0.007132  -0.376227   0.001684   0.002611  -0.301033   0.011956
    15  O    0.004281   0.012392   0.000622   0.000084  -0.117152   0.001578
    16  C   -0.013505  -0.844709   0.041180   0.009756   0.163465  -0.047101
    17  C    0.012963  -0.210806  -0.104253  -0.067230   0.018416   0.019574
    18  O    0.256065  -0.023128  -0.000195   0.011222   0.012798   0.000033
    19  H    0.373855   0.002772   0.000609  -0.000221  -0.002238  -0.000001
    20  C    0.002772   6.619933   0.323239   0.019378   0.102661  -0.001804
    21  O    0.000609   0.323239   8.066441   0.252094  -0.002867  -0.000009
    22  H   -0.000221   0.019378   0.252094   0.398610   0.000501   0.000000
    23  C   -0.002238   0.102661  -0.002867   0.000501   7.076423   0.350364
    24  O   -0.000001  -0.001804  -0.000009   0.000000   0.350364   8.018197
    25  H    0.000000  -0.001114   0.000000   0.000000  -0.074902   0.271783
    26  C   -0.008769   0.897664  -0.002638   0.000403  -1.271334  -0.136621
    27  O    0.000057  -0.061577  -0.000583  -0.000064  -0.098824   0.004668
    28  C    0.005485  -0.343315  -0.095107   0.015808  -0.192850   0.001134
    29  O   -0.000003  -0.060412  -0.009158  -0.000107   0.009302  -0.000003
    30  H    0.000000   0.000000   0.000000   0.000000  -0.000004   0.000000
    31  H    0.002697  -0.000488   0.000013   0.000000   0.000112   0.000000
    32  H    0.000019   0.000151   0.000000   0.000000   0.000001   0.000000
    33  H    0.000073   0.001540   0.000000   0.000000   0.001322  -0.000006
    34  H   -0.000006  -0.000019   0.000000   0.000000   0.000246   0.000000
    35  H   -0.000002  -0.000017   0.000000   0.000000   0.001674   0.000047
    36  H   -0.000006   0.000082   0.000000   0.000000   0.011890  -0.000305
    37  H    0.000158   0.010295   0.000017   0.000000   0.005900  -0.000316
    38  H    0.000000   0.006082  -0.000952   0.000026  -0.002051   0.000000
    39  H    0.000011  -0.080099   0.005216  -0.000281   0.017762  -0.000013
    40  H   -0.000121   0.369206  -0.033375  -0.002937   0.009980  -0.000030
    41  H   -0.007295   0.017294  -0.001421   0.000052   0.018189  -0.000006
    42  H    0.000048   0.006145  -0.000081   0.000004  -0.043798   0.002270
    43  H    0.000027  -0.082934   0.000232  -0.000002  -0.045483   0.004528
    44  H    0.000000   0.002938   0.000001   0.000000   0.467087  -0.027107
    45  H    0.000000  -0.001504  -0.000007   0.000000   0.539988  -0.048985
             25         26         27         28         29         30
     1  O    0.000000  -0.000218   0.000000  -0.000003   0.000000   0.253907
     2  C   -0.000866  -0.029391   0.000006   0.001270   0.000002   0.028969
     3  C   -0.009017   0.105168  -0.000037  -0.000702  -0.000011  -0.062260
     4  O    0.000012  -0.000302   0.000001   0.000006   0.000000   0.001348
     5  H    0.000000   0.000090   0.000000   0.000000   0.000000   0.004306
     6  C    0.026985  -0.231930  -0.000811  -0.010144  -0.000075  -0.010250
     7  O    0.021626  -0.019926  -0.000019  -0.000290   0.000002   0.000017
     8  H   -0.000297   0.001150   0.000000  -0.000024   0.000000  -0.000001
     9  C    0.000062  -0.003650   0.000086  -0.001264   0.000004   0.008834
    10  O    0.000000  -0.000004   0.000000  -0.000039   0.000000  -0.000387
    11  H    0.000000  -0.000013   0.000000   0.000000   0.000000  -0.000231
    12  C    0.001438   0.031114   0.000638   0.000461   0.000090   0.023720
    13  O   -0.000060  -0.002163   0.000088   0.000085   0.000014  -0.000514
    14  C    0.005890  -0.229190   0.000579   0.127782   0.000059   0.003698
    15  O   -0.000731   0.086137   0.002123   0.012648  -0.000173   0.000012
    16  C   -0.001901  -2.404361   0.067897   0.743866  -0.020986   0.000079
    17  C   -0.001013  -0.455426  -0.032296  -0.243085   0.000693  -0.000004
    18  O    0.000001   0.026588  -0.001415  -0.017071   0.000106   0.000000
    19  H    0.000000  -0.008769   0.000057   0.005485  -0.000003   0.000000
    20  C   -0.001114   0.897664  -0.061577  -0.343315  -0.060412   0.000000
    21  O    0.000000  -0.002638  -0.000583  -0.095107  -0.009158   0.000000
    22  H    0.000000   0.000403  -0.000064   0.015808  -0.000107   0.000000
    23  C   -0.074902  -1.271334  -0.098824  -0.192850   0.009302  -0.000004
    24  O    0.271783  -0.136621   0.004668   0.001134  -0.000003   0.000000
    25  H    0.372922   0.026816  -0.000163   0.000280   0.000000   0.000000
    26  C    0.026816  10.017593   0.217932  -0.863328  -0.006615   0.000003
    27  O   -0.000163   0.217932   7.928714   0.210843  -0.033070   0.000000
    28  C    0.000280  -0.863328   0.210843   5.772037   0.323403   0.000000
    29  O    0.000000  -0.006615  -0.033070   0.323403   7.992434   0.000000
    30  H    0.000000   0.000003   0.000000   0.000000   0.000000   0.420000
    31  H    0.000000   0.000765   0.000001  -0.000109   0.000000   0.000000
    32  H    0.000000  -0.000008   0.000000  -0.000007   0.000000   0.000021
    33  H    0.000000  -0.000913  -0.000001  -0.000049   0.000000  -0.000375
    34  H    0.000000  -0.000805   0.000000   0.000002   0.000000  -0.009842
    35  H    0.000003  -0.003157   0.000001   0.000000   0.000000   0.000074
    36  H    0.000044  -0.019663   0.000017  -0.000137   0.000000   0.000016
    37  H    0.000109   0.005720   0.000421  -0.000276  -0.000003   0.000001
    38  H    0.000000  -0.014039   0.001689  -0.011306   0.260891   0.000000
    39  H    0.000000   0.028862  -0.054687   0.368441  -0.018832   0.000000
    40  H    0.000000   0.102101  -0.002904  -0.059414   0.000802   0.000000
    41  H    0.000000   0.134574   0.000829  -0.043024   0.000883   0.000000
    42  H    0.000035   0.135193   0.001246   0.013182  -0.000219   0.000000
    43  H   -0.000114   0.239923  -0.047854   0.078871  -0.000100   0.000000
    44  H   -0.016459  -0.056319   0.002703   0.001517   0.000000   0.000000
    45  H    0.005629  -0.275913  -0.000466  -0.007350   0.000090   0.000000
             31         32         33         34         35         36
     1  O   -0.000046   0.000546   0.007281  -0.015210   0.001031   0.000186
     2  C    0.020057  -0.039634   0.044224   0.398750   0.030331  -0.016866
     3  C    0.002352   0.000707   0.020617  -0.032144   0.286041  -0.083180
     4  O    0.000004   0.000007   0.000844   0.001348  -0.018593   0.002241
     5  H    0.000000  -0.000001  -0.000012   0.000381  -0.001455  -0.000225
     6  C    0.004582   0.006169  -0.106836  -0.070034  -0.179047   0.512946
     7  O    0.000002  -0.000004   0.000433   0.001044   0.010677  -0.033211
     8  H    0.000000   0.000000   0.000005  -0.000001  -0.000523  -0.002231
     9  C    0.565680   0.385194  -0.064349  -0.077503   0.007662   0.018173
    10  O   -0.036983  -0.025011   0.007717   0.003550   0.000098  -0.000041
    11  H    0.005251  -0.009044  -0.000055  -0.000669  -0.000004   0.000000
    12  C   -0.235416   0.004710   0.104600  -0.064704   0.026563   0.075000
    13  O    0.003622   0.000510  -0.029138  -0.000637   0.003770   0.004696
    14  C   -0.010997  -0.008674   0.218577   0.130021   0.080429  -0.200857
    15  O    0.000424   0.000069   0.003314  -0.001003  -0.000108  -0.007325
    16  C    0.010104  -0.001709   0.021696  -0.005644  -0.015360  -0.014284
    17  C   -0.000962  -0.000311   0.004449   0.001907   0.003490   0.005097
    18  O    0.001057   0.000039  -0.000786  -0.000002   0.000061   0.000112
    19  H    0.002697   0.000019   0.000073  -0.000006  -0.000002  -0.000006
    20  C   -0.000488   0.000151   0.001540  -0.000019  -0.000017   0.000082
    21  O    0.000013   0.000000   0.000000   0.000000   0.000000   0.000000
    22  H    0.000000   0.000000   0.000000   0.000000   0.000000   0.000000
    23  C    0.000112   0.000001   0.001322   0.000246   0.001674   0.011890
    24  O    0.000000   0.000000  -0.000006   0.000000   0.000047  -0.000305
    25  H    0.000000   0.000000   0.000000   0.000000   0.000003   0.000044
    26  C    0.000765  -0.000008  -0.000913  -0.000805  -0.003157  -0.019663
    27  O    0.000001   0.000000  -0.000001   0.000000   0.000001   0.000017
    28  C   -0.000109  -0.000007  -0.000049   0.000002   0.000000  -0.000137
    29  O    0.000000   0.000000   0.000000   0.000000   0.000000   0.000000
    30  H    0.000000   0.000021  -0.000375  -0.009842   0.000074   0.000016
    31  H    0.537598  -0.032539   0.001338  -0.000073  -0.000009   0.000000
    32  H   -0.032539   0.569266  -0.001917  -0.000122  -0.000018   0.000001
    33  H    0.001338  -0.001917   0.645131   0.005783   0.004279  -0.000066
    34  H   -0.000073  -0.000122   0.005783   0.572456   0.005646   0.001684
    35  H   -0.000009  -0.000018   0.004279   0.005646   0.610161   0.006342
    36  H    0.000000   0.000001  -0.000066   0.001684   0.006342   0.585884
    37  H    0.000060  -0.000033   0.002929  -0.000137   0.002218   0.005611
    38  H    0.000000   0.000000   0.000000   0.000000   0.000000   0.000000
    39  H    0.000000   0.000000   0.000000   0.000000   0.000000   0.000000
    40  H    0.000000   0.000000   0.000000   0.000000   0.000000   0.000000
    41  H    0.000010   0.000000  -0.000003   0.000000   0.000000  -0.000003
    42  H   -0.000003   0.000000  -0.000187   0.000000  -0.000009  -0.000033
    43  H    0.000000   0.000000   0.000000   0.000000   0.000000  -0.000001
    44  H    0.000000   0.000000   0.000000   0.000000   0.000001   0.000018
    45  H    0.000000   0.000000   0.000000   0.000000   0.000000  -0.000002
             37         38         39         40         41         42
[...]
 0.00000178,-0.00000100,-0.00000331,-0.00000814,0.00011352,0.00014721,0
 .00059330,-0.00050539,0.00015212,-0.00135222,0.00187317,-0.00618660,-0
 .02133032,0.01333534,0.00641307,-0.21338436,0.13438435,-0.06784696,0.0
 0961613,-0.00859421,0.00369267,0.00097604,0.00172273,0.00060910,-0.000
 08676,-0.00002883,-0.00011883,0.00079916,0.00046276,-0.00058144,-0.000
 31927,-0.00008869,0.00000683,-0.00002118,0.00000054,0.00003700,0.00010
 452,0.00148727,-0.00030149,0.00103546,-0.00058149,0.00061513,-0.000485
 56,-0.00040647,0.00008011,-0.01469207,0.01069534,-0.00716173,0.0019613
 5,-0.00023036,-0.00058150,-0.00017201,-0.00075874,0.00012352,0.0001249
 1,0.00005746,-0.00004417,-0.00000142,0.00000475,0.00000746,-0.00000537
 ,0.00000342,-0.00000569,0.00001401,0.00001480,0.00000717,0.00009784,0.
 00000817,0.00007150,0.00000528,-0.00000458,-0.00000990,0.00004300,-0.0
 0001562,0.00003815,0.00020079,0.00016380,-0.00027791,0.00253895,-0.000
 87303,0.00087263,-0.00001199,0.00001490,0.00003108,-0.00012940,0.00002
 216,0.00012524,0.00006830,0.00007055,-0.00013821,-0.00039737,-0.002732
 21,0.00077057,0.23480051,-0.00001204,-0.00002253,0.00003319,-0.0000006
 8,0.00004440,-0.00002898,0.00012680,0.00011688,-0.00006825,-0.00004896
 ,-0.00004792,-0.00002544,0.00001124,0.00001850,-0.00001551,-0.00060587
 ,0.00044060,-0.00015093,-0.00002259,-0.00022491,-0.00010961,-0.0000040
 6,0.00000038,-0.00001829,0.00000193,-0.00005137,-0.00005285,-0.0000327
 9,0.00005415,0.00005839,0.00000018,0.00000031,-0.00000843,0.00001045,-
 0.00006375,-0.00024933,-0.00034988,0.00039641,0.00040679,0.00090087,0.
 00101817,0.00319247,0.00617570,-0.00224389,-0.00258656,0.13635505,-0.1
 5212357,0.05400884,0.02300394,-0.02036100,0.01337441,-0.00037067,0.004
 19356,-0.00102338,0.00011461,-0.00014368,0.00000205,0.00151430,-0.0003
 4242,-0.00162246,-0.00085999,0.00016987,0.00022387,0.00009402,-0.00005
 458,0.00007129,0.00020259,0.00085641,0.00042216,0.00036980,-0.00012077
 ,0.00027981,-0.00013529,-0.00014451,0.00006245,-0.01330241,0.01160452,
 -0.00615391,0.00077901,0.00016277,0.00155512,-0.00001311,-0.00040011,-
 0.00011077,0.00002585,0.00009085,0.00005969,0.00000328,0.00000117,-0.0
 0000101,-0.00000347,-0.00003189,-0.00000433,-0.00000349,0.00000454,-0.
 00000352,-0.00004754,0.00002641,-0.00007034,-0.00000744,-0.00000726,0.
 00001173,-0.00001323,0.00001562,-0.00000654,-0.00011206,-0.00017893,0.
 00016302,-0.00101999,0.00125200,-0.00072595,-0.00000838,0.00000654,0.0
 0001147,-0.00014372,-0.00003812,-0.00006135,-0.00073923,0.00046067,0.0
 0046319,-0.00192198,-0.00457814,0.00185089,-0.14775721,0.16109329,-0.0
 0001119,-0.00000912,-0.00003776,-0.00001492,0.00001471,0.00002087,0.00
 005347,0.00000723,0.00003318,-0.00001972,0.00001973,-0.00002783,-0.000
 00470,0.00000489,-0.00000472,0.00034773,-0.00021970,-0.00040916,-0.000
 03142,0.00013525,0.00007035,-0.00001242,-0.00002167,0.00000545,-0.0000
 5057,0.00001461,-0.00002872,-0.00000882,0.00000853,0.00001475,0.000000
 33,0.00000752,0.00000090,0.00007702,0.00003679,0.00001512,-0.00075192,
 -0.00022474,-0.00043580,0.00899490,-0.00447413,-0.00067080,0.02560106,
 -0.01623265,-0.00750334,-0.07745361,0.06181388,-0.07018464,-0.01057516
 ,0.00641170,-0.00292134,0.00117455,-0.00095921,0.00116748,0.00016093,0
 .00000730,-0.00015875,-0.00110018,0.00020680,0.00076654,0.00038805,-0.
 00018807,-0.00004532,-0.00006035,0.00002172,0.00001536,0.00074862,0.00
 102386,0.00026371,0.00050110,-0.00073750,0.00049457,-0.00011332,-0.000
 20684,-0.00001269,-0.02004202,0.01481613,-0.00689002,0.00166135,-0.000
 41951,0.00200852,-0.00029963,0.00027879,-0.00003721,0.00012451,-0.0001
 1479,-0.00021030,0.00000014,0.00000499,0.00000084,0.00000450,-0.000007
 73,-0.00000958,-0.00000798,-0.00001501,-0.00000673,-0.00007391,0.00005
 895,-0.00007185,-0.00000365,0.00000215,0.00001927,-0.00003700,0.000014
 79,-0.00004164,-0.00013969,0.00011731,-0.00004477,0.00085070,-0.000422
 82,-0.00293999,0.00001087,0.00004165,0.00001879,0.00017671,-0.00018728
 ,0.00011650,0.00044608,-0.00007223,-0.00016569,0.00096343,0.00203869,-
 0.00050981,0.07119084,-0.06036107,0.09151281,0.00000949,0.00000643,-0.
 00000303,-0.00000011,-0.00001587,0.00001416,-0.00002917,0.00001519,0.0
 0003906,0.00002302,0.00001572,-0.00001328,-0.00000347,0.00000011,0.000
 00042,0.00004233,-0.00016681,-0.00001417,0.00003298,0.00013065,0.00012
 689,-0.00000455,-0.00000344,0.00000367,-0.00000458,0.00001858,0.000017
 85,0.00001561,-0.00001870,-0.00001718,-0.00000242,-0.00000021,0.000002
 46,-0.00001896,0.00004651,0.00006666,0.00014423,-0.00011501,-0.0000002
 8,0.00006797,0.00030223,-0.00016451,0.00161878,-0.00088849,0.00128352,
 -0.02292924,0.01441157,-0.01124253,-0.00056233,0.00212888,-0.00015426,
 0.00085384,-0.00036538,0.00028364,-0.00005474,0.00004881,-0.00012116,-
 0.00012241,-0.00019198,0.00019916,-0.00009482,-0.00031213,-0.00004981,
 -0.00003151,-0.00002119,0.00003935,0.00751513,-0.01228713,0.00206517,-
 0.00090005,-0.00311086,0.00167551,0.00003771,-0.00040680,-0.00005189,-
 0.19079531,0.14275700,-0.05001993,-0.02526502,0.01202883,0.02063994,0.
 00007796,0.00404593,-0.00099985,0.00054876,-0.00072980,0.00024149,-0.0
 0000148,0.00000098,-0.00000038,-0.00000167,0.00000668,-0.00000265,0.00
 000332,-0.00000234,0.00000241,0.00001568,-0.00000660,0.00001192,0.0000
 0355,0.00000030,-0.00000578,0.00000652,-0.00000838,0.00000306,0.000023
 57,0.00004542,-0.00003421,0.00022857,-0.00013932,0.00024519,-0.0000312
 9,0.00013701,-0.00001099,0.00008387,-0.00147913,0.00054344,0.00029742,
 0.00007719,-0.00007924,0.00057190,-0.00115809,0.00023543,-0.00151966,-
 0.00239653,-0.00274862,0.22787061,0.00000160,0.00001924,-0.00000037,0.
 00000345,-0.00002522,0.00001464,0.00000127,0.00003461,0.00003516,-0.00
 000579,0.00002401,0.00000011,0.00000483,-0.00000376,-0.00000368,0.0000
 9120,-0.00027175,-0.00002355,-0.00004315,0.00025848,0.00019054,0.00001
 250,-0.00000960,0.00000093,0.00002191,-0.00000192,-0.00001151,-0.00001
 338,-0.00000128,0.00000193,0.00000284,-0.00000107,0.00000100,0.0000110
 5,-0.00000119,0.00003897,0.00002710,-0.00001468,0.00001537,-0.00045131
 ,0.00027558,0.00022965,-0.00043481,0.00040171,0.00127779,-0.01062952,0
 .00772894,-0.00534504,-0.00169028,0.00043179,-0.00087857,0.00003899,-0
 .00005124,0.00041392,0.00009016,-0.00000229,0.00002075,-0.00034721,-0.
 00024800,-0.00012075,0.00008418,0.00013691,0.00004812,0.00002258,-0.00
 001661,-0.00004036,0.02143473,-0.02494211,0.00768355,-0.00487279,-0.00
 304665,0.00252826,-0.00002561,-0.00086772,-0.00032717,0.14493652,-0.17
 884811,0.04334549,0.00729055,0.00091716,-0.00589771,-0.00353986,0.0015
 6527,0.00155922,-0.00006540,-0.00006002,-0.00024452,0.00000168,-0.0000
 0542,-0.00000237,0.00000124,-0.00000049,-0.00000083,-0.00000369,0.0000
 0050,-0.00000242,0.00000531,-0.00000255,0.00000047,-0.00000068,0.00000
 345,0.00000367,-0.00000972,-0.00000323,-0.00000792,0.00001024,0.000061
 52,0.00002327,0.00009249,-0.00004679,-0.00019795,0.00007925,-0.0000461
 4,0.00002952,0.00102442,0.00121501,-0.00072337,0.00005541,-0.00007510,
 0.00007142,-0.00002793,0.00043163,-0.00031241,-0.00144115,-0.00080076,
 -0.00212597,-0.15226494,0.19456910,-0.00000452,-0.00002110,-0.00001530
 ,0.00000872,0.00002237,0.00000503,-0.00004601,-0.00005442,0.00002591,0
 .00002084,-0.00001052,-0.00001394,-0.00000559,0.00000123,0.00000762,0.
 00013410,0.00006058,0.00009837,0.00004370,-0.00010088,-0.00011048,-0.0
 0000539,-0.00000992,0.00000393,0.00000554,0.00002289,0.00002118,0.0000
 1213,-0.00002880,-0.00001656,-0.00000008,0.00000431,0.00000278,-0.0000
 2359,0.00004503,0.00006686,0.00016459,-0.00012338,0.00012347,-0.000422
 22,0.00064083,-0.00019536,0.00059101,-0.00036538,0.00197009,-0.0253396
 7,0.01436649,-0.00892809,-0.00000410,0.00173741,0.00055825,0.00058193,
 -0.00027978,0.00014080,-0.00006107,0.00002424,-0.00008014,-0.00012411,
 0.00033829,-0.00032014,0.00007185,0.00009183,0.00023813,0.00000994,0.0
 0005857,-0.00001688,-0.00589004,0.00544591,-0.00198527,0.00132323,0.00
 136779,0.00073820,-0.00006712,-0.00014890,0.00030463,-0.05093821,0.045
 66062,-0.04670088,0.04256737,-0.02023902,-0.01598365,0.00234206,-0.005
 44141,0.00196739,-0.00056211,0.00053785,-0.00028763,-0.00000262,0.0000
 0594,0.00000437,-0.00000230,0.00000420,-0.00000231,0.00000504,-0.00000
 003,0.00000136,0.00002489,-0.00000826,0.00001921,0.00000318,-0.0000021
 2,-0.00000756,0.00001698,-0.00000710,0.00001260,0.00004837,0.00002882,
 -0.00007831,0.00037076,-0.00015117,0.00004658,0.00002873,-0.00002360,-
 0.00003012,-0.00126824,0.00063021,0.00011821,-0.00004039,-0.00001959,-
 0.00022418,0.00025692,-0.00070570,0.00039395,-0.00200564,-0.00289637,-
 0.00325412,0.03799421,-0.04055586,0.07083558,0.00004373,0.00001718,0.0
 0014881,-0.00000522,-0.00004949,-0.00009421,-0.00006566,0.00004369,-0.
 00011884,-0.00001807,-0.00004239,0.00019464,-0.00000009,0.00000997,-0.
 00000479,0.00002275,-0.00030337,-0.00053538,-0.00023248,-0.00063787,0.
 00047387,0.00026393,0.00011578,0.00024571,0.00000346,-0.00008535,-0.00
 002477,0.00000100,0.00008157,0.00005474,-0.00000703,-0.00002103,-0.000
 01819,-0.00013490,0.00006501,-0.00009259,0.00023478,0.00026956,0.00041
 422,-0.00072172,-0.00034317,-0.00155013,0.00159797,0.00060742,-0.00042
 666,-0.00115675,0.00074560,0.00131155,0.00005741,-0.00006150,0.0002851
 8,0.00014435,0.00016779,-0.00020380,-0.00007440,-0.00012745,0.00002352
 ,0.00003316,0.00009331,0.00024245,-0.00000156,-0.00005889,-0.00018537,
 -0.00003838,-0.00002554,0.00004236,-0.11880424,0.04045967,0.12326872,-
 0.00976952,0.01713691,0.00864864,0.00068993,0.00213357,0.00209781,-0.0
 1237650,0.00478193,0.01985914,-0.00045674,-0.00532845,0.00026163,-0.00
 006358,0.00120073,0.00028782,-0.00032535,-0.00032294,0.00053448,0.0000
 0212,-0.00001452,-0.00001889,-0.00001184,-0.00000045,0.00000088,0.0000
 1447,0.00001847,0.00001964,-0.00000118,-0.00000653,0.00000623,0.000006
 03,0.00000311,0.00000596,-0.00000129,0.00000146,0.00001040,0.00001564,
 0.00004477,-0.00000331,0.00003483,-0.00004849,0.00007184,-0.00004687,-
 0.00002157,-0.00005457,-0.00000767,-0.00013372,0.00002598,0.00000624,-
 0.00001102,-0.00001325,-0.00001807,-0.00000512,-0.00000037,-0.00004065
 ,-0.00009236,-0.00016276,0.00095023,0.00010862,-0.00042364,0.12725048,
 -0.00001424,-0.00003618,0.00002192,0.00000355,0.00005362,-0.00006887,-
 0.00000577,-0.00020029,-0.00011008,-0.00002906,-0.00004293,0.00006505,
 -0.00000233,-0.00000949,0.00000963,-0.00001804,0.00077606,0.00018327,-
 0.00044364,-0.00014910,-0.00050758,-0.00000708,-0.00006560,0.00000868,
 -0.00000103,-0.00003928,0.00000524,-0.00000014,0.00003277,0.00002489,-
 0.00000056,-0.00000423,-0.00000763,-0.00004903,0.00003967,-0.00007666,
 0.00008910,0.00008056,0.00026102,-0.00034981,-0.00005654,-0.00117982,-
 0.00108309,-0.00232724,-0.00133157,-0.00068870,0.00035019,0.00007642,0
 .00007576,-0.00007564,0.00027534,0.00010242,0.00012126,-0.00015091,-0.
 00005506,-0.00006866,0.00000823,0.00008768,0.00002043,0.00034729,-0.00
 008969,-0.00017080,-0.00022384,-0.00003472,-0.00003438,0.00004810,0.03
 973445,-0.06180637,-0.06881185,0.02439718,-0.03037346,-0.01499012,0.00
 332676,-0.00250982,-0.00457122,-0.01062095,0.00780014,0.01964769,-0.00
 342744,-0.00617192,0.00119450,-0.00034781,0.00189344,-0.00020650,-0.00
 043688,-0.00046257,0.00090195,-0.00000026,0.00000004,0.00000127,-0.000
 00723,-0.00000395,0.00000019,0.00000821,0.00000926,0.00000789,0.000002
 86,-0.00000065,0.00001010,-0.00000002,-0.00000302,-0.00000092,0.000009
 09,0.00000319,0.00002811,0.00006399,-0.00003078,-0.00006906,0.00007911
 ,-0.00006005,0.00006017,-0.00004892,-0.00002371,-0.00009586,0.00004214
 ,-0.00018244,0.00004072,0.00000797,-0.00001984,-0.00000983,-0.00000550
 ,-0.00000837,0.00001001,0.00003484,-0.00009614,-0.00011107,0.00033597,
 0.00111767,0.00088665,-0.05368604,0.09355969,0.00005101,0.00006691,0.0
 0008080,-0.00003668,-0.00011556,-0.00000260,0.00003727,0.00017342,-0.0
 0003421,-0.00000487,0.00001220,0.00008681,0.00000582,0.00000427,-0.000
 01048,-0.00020554,-0.00065007,-0.00050752,-0.00041409,0.00077732,-0.00
 069460,0.00013678,0.00018944,-0.00001171,0.00000262,-0.00001973,-0.000
 03158,-0.00000213,0.00002708,0.00001208,-0.00000357,-0.00001313,-0.000
 00522,-0.00002219,-0.00003345,-0.00001932,-0.00001738,0.00011597,-0.00
 019124,-0.00039205,-0.00060237,0.00050170,-0.00288958,-0.00311141,-0.0
 0146436,0.00059455,0.00000677,-0.00087876,0.00022414,-0.00005121,-0.00
 009073,-0.00004492,0.00003752,0.00008400,0.00002816,0.00000528,0.00002
 198,-0.00006559,0.00003502,-0.00010718,0.00004851,0.00009745,0.0000655
 0,0.00000512,0.00000603,-0.00001183,0.13297399,-0.07599297,-0.26150810
 ,-0.00796633,0.00919284,0.00859027,-0.00191942,0.00161622,0.00429568,0
 .00415361,-0.00244217,-0.00777928,-0.00022660,0.00182771,0.00072493,0.
 00012545,-0.00091854,0.00037363,0.00011960,0.00014499,-0.00025705,0.00
 000242,-0.00001150,-0.00001940,0.00000283,0.00000540,0.00000143,-0.000
 00236,0.00000027,0.00000306,-0.00000275,-0.00000836,-0.00000335,0.0000
 0197,0.00000473,0.00000324,0.00000206,-0.00000813,0.00000851,0.0000011
 1,0.00005579,-0.00001213,-0.00000084,0.00002548,-0.00009349,0.00001661
 ,-0.00002793,0.00005526,-0.00002745,0.00008217,-0.00002402,-0.00001405
 ,0.00000295,-0.00000817,-0.00002020,0.00001919,0.00000185,-0.00004099,
 0.00001829,0.00002643,-0.00005167,0.00057040,-0.00018724,-0.13551785,0
 .07467608,0.27716229,-0.00001237,-0.00000592,-0.00004498,0.00000558,0.
 00001254,0.00003186,-0.00001113,-0.00003599,0.00002672,0.00001768,0.00
 000967,-0.00004312,-0.00000348,-0.00000248,0.00000674,-0.00005500,0.00
 002608,-0.00012112,0.00007504,-0.00032717,-0.00004351,0.00005499,-0.00
 000549,0.00002722,-0.00001065,0.00002415,0.00003493,0.00000836,-0.0000
 3075,-0.00003329,0.00000265,0.00000734,0.00000718,0.00001993,-0.000008
 16,0.00005260,0.00001521,-0.00001331,-0.00006002,-0.00006059,-0.000015
 25,0.00001429,0.00084820,0.00087874,-0.00005338,-0.00058876,-0.0041045
 8,0.00360785,-0.00027400,0.00044895,-0.00123853,-0.00042321,-0.0007929
 2,-0.00019090,-0.00006183,0.00002319,0.00010215,0.00013961,0.00016224,
 -0.00033484,-0.00002202,-0.00001964,0.00020078,0.00004659,0.00003686,-
 0.00004283,-0.18179354,-0.04215997,-0.14572365,-0.00848851,0.01001402,
 -0.01590061,-0.00258111,0.00150182,0.00041558,-0.01826074,-0.01165375,
 -0.01810022,0.00100403,0.00189446,0.00001552,-0.00010967,-0.00035781,0
 .00013214,0.00007984,0.00008529,0.00008682,-0.00000014,0.00000523,0.00
 000829,0.00000762,0.00000734,0.00000368,-0.00000095,-0.00000240,-0.000
 00705,0.00000306,-0.00000217,0.00000010,-0.00000009,-0.00000132,-0.000
 00418,0.00001090,-0.00000048,0.00000643,0.00000825,-0.00003322,-0.0000
 3590,0.00001863,-0.00000958,0.00003509,-0.00004950,-0.00006929,0.00004
 744,-0.00001147,0.00001136,-0.00000358,-0.00001218,-0.00000559,0.00001
 827,0.00004605,-0.00007696,0.00002971,0.00020766,0.00033536,0.00024665
 ,0.00132973,0.00041313,0.00061059,0.01300724,0.00305202,0.01135548,0.1
 9587412,0.00001241,0.00004138,-0.00004029,-0.00002131,-0.00004154,0.00
 006042,0.00004098,0.00006312,0.00006516,0.00001542,0.00006069,-0.00005
 637,0.00000203,-0.00000646,-0.00000707,-0.00012900,-0.00034434,-0.0000
 1834,-0.00002704,0.00060362,0.00024418,-0.00002926,-0.00000550,-0.0000
 2192,-0.00002254,0.00002555,0.00003362,0.00001530,-0.00002740,-0.00004
 601,0.00000003,0.00000107,0.00000806,0.00005629,-0.00005311,0.00008936
 ,-0.00006485,0.00002172,-0.00028186,0.00029736,-0.00017058,0.00077327,
 -0.00029174,0.00020138,-0.00006046,-0.00262846,-0.00353673,0.00282379,
 -0.00016257,0.00071098,-0.00121325,-0.00046971,-0.00099381,-0.00026409
 ,-0.00005454,0.00003716,0.00013896,0.00015717,0.00011457,-0.00033880,-
 0.00007836,-0.00007863,0.00020059,0.00005538,0.00003836,-0.00004033,-0
 .04341091,-0.04691417,-0.04991944,0.02767577,-0.01042340,0.03176749,0.
 00412620,-0.00327585,0.00140395,-0.01971999,-0.01002887,-0.01748647,0.
 00115186,0.00102355,0.00046962,-0.00009938,-0.00020503,-0.00003428,0.0
 0004272,0.00003866,0.00009105,-0.00000127,-0.00000318,-0.00000270,0.00
 001485,0.00001566,0.00000397,-0.00000643,-0.00000826,-0.00001242,-0.00
 000346,-0.00000490,-0.00000177,-0.00000124,0.00000286,-0.00000218,-0.0
 0000980,-0.00000690,-0.00001113,-0.00000294,0.00007862,0.00003764,-0.0
 0001301,-0.00001791,-0.00001558,-0.00003286,-0.00000848,0.00002122,0.0
 0000134,-0.00000723,0.00000294,-0.00001014,0.00000106,0.00002705,0.000
 03209,-0.00011117,0.00005170,-0.00004106,0.00004824,0.00000312,-0.0004
 7086,0.00020113,-0.00078878,-0.00667884,-0.00082452,-0.00579064,0.0407
 8440,0.07376859,-0.00003611,-0.00003756,-0.00009375,0.00001745,0.00006
 171,0.00004345,-0.00001221,-0.00007455,0.00007338,0.00002381,0.0000004
 1,-0.00011103,-0.00000692,-0.00000260,0.00001187,0.00009806,0.00037111
 ,0.00030924,0.00002435,0.00002367,-0.00045417,-0.00015101,-0.00005404,
 -0.00004228,-0.00000277,0.00005399,0.00001804,0.00000289,-0.00005305,-
 0.00002902,0.00000354,0.00001596,0.00001075,0.00005935,-0.00001266,0.0
 0004079,-0.00009769,-0.00016762,-0.00013373,0.00022688,0.00025636,0.00
 044011,-0.00130638,-0.00108231,0.00018834,0.00234246,0.00172369,-0.001
 55751,0.00015694,-0.00009622,0.00045140,0.00011912,0.00029655,0.000180
 89,0.00004507,0.00006950,-0.00005509,-0.00000372,-0.00002879,0.0000338
 0,-0.00003549,-0.00007842,-0.00000775,-0.00000318,0.00000060,0.0000077
 2,-0.14747926,-0.04820215,-0.20389231,-0.00626534,0.01100170,-0.004768
 82,-0.00205895,0.00043350,0.00127466,0.00951540,0.00584598,0.00700192,
 -0.00098193,-0.00113614,0.00139061,-0.00009081,0.00036129,-0.00009230,
 -0.00006207,-0.00007229,0.00012974,-0.00000229,0.00001397,0.00001697,0
 .00000237,-0.00000304,-0.00000245,-0.00000443,-0.00000906,-0.00000765,
 0.00000558,0.00000379,-0.00000279,-0.00000263,-0.00000420,-0.00000496,
 0.00001151,0.00000260,-0.00000146,-0.00000025,-0.00005539,-0.00000466,
 0.00001770,0.00001986,-0.00002817,-0.00001890,0.00000470,-0.00002121,0
 .00003484,-0.00005290,0.00000572,0.00001775,-0.00000865,0.00000668,-0.
 00001666,0.00000645,-0.00000844,0.00009236,0.00008607,0.00005114,0.000
 05081,-0.00128182,0.00073363,-0.01908684,-0.00627702,-0.01814589,0.164
 85760,0.03813701,0.21704459\\0.00128774,-0.00417381,-0.00518874,0.0186
 3593,0.00157225,-0.00069417,-0.01284859,-0.01380882,0.02764913,0.00186
 419,0.00265397,0.01749580,-0.00941191,-0.01079820,-0.03103726,0.000822
 92,0.02000465,0.00481162,0.00076079,-0.00214898,0.04406788,0.00612542,
 -0.00259134,-0.03153183,-0.01899109,-0.00393732,0.03554301,-0.00117743
 ,-0.00314467,0.02063130,0.00340568,0.00350881,-0.03378021,-0.00690500,
 0.04138486,0.00650600,0.01079937,-0.04210824,0.01566973,-0.04088476,0.
 04011395,-0.05028559,0.01416353,-0.03512454,0.01136372,-0.00002182,0.0
 0936199,-0.00816541,-0.00875964,0.02742082,0.01181842,0.00662339,0.000
 64464,0.01124405,0.00560654,-0.01620372,-0.02988493,0.02797897,0.00238
 679,0.01720294,-0.00441900,0.01266913,0.00916046,-0.02380233,-0.026886
 22,-0.01118826,0.00035067,-0.01952534,-0.02129897,0.00451436,0.0209222
 7,0.03478779,0.01305836,-0.01543286,-0.02649872,0.00747489,0.01939996,
 -0.00173548,0.00743358,-0.01041417,0.00690928,0.02722325,-0.01813786,-
 0.02878940,-0.00920361,0.00631052,0.02333328,-0.00129813,0.00346874,0.
 00279208,0.00198416,0.00869284,-0.01206486,0.01732087,-0.00444791,0.00
 662004,0.01764637,-0.00904115,-0.00383752,-0.01229529,0.01134729,0.001
 75037,0.01863127,-0.01125484,-0.00147774,-0.01742053,0.01004620,0.0014
 2064,0.01415046,-0.00698120,-0.00347705,-0.00346349,-0.00172519,-0.000
 35543,-0.01910149,0.00957288,-0.00344715,0.01633141,-0.01591857,-0.001
 89439,-0.02108527,0.01117546,-0.00289204,0.01310756,-0.01035553,0.0033
 0436,-0.02526409,0.01204165,0.00214699,-0.00841231,0.01278320,0.008461
 15,-0.01253592,-0.00332239,-0.01516489\\\@


 SACRED COWS MAKE GREAT HAMBURGERS -- ROBERT REISNER
 Job cpu time:  4 days  1 hours 46 minutes 23.2 seconds.
 File lengths (MBytes):  RWF=   2340 Int=      0 D2E=      0 Chk=     43 Scr=      1
 Normal termination of Gaussian 09 at Tue Feb 16 14:42:11 2016.
Gaussian '09 finished on node029 at Tue Feb 16 14:42:11 EST 2016.
