Gaussian '09 started on node019 at Thu Mar 31 05:17:52 EDT 2016.
 Entering Gaussian System, Link 0=/usr/local/gaussian/g09/g09
 Initial command:
 /usr/local/gaussian/g09/l1.exe /home/srmcgrat/thesis/gaussian/cellobiose/500K/5928ps/1/2dp/gaussian2251/Gau-2290.inp -scrdir=/home/srmcgrat/thesis/gaussian/cellobiose/500K/5928ps/1/2dp/gaussian2251/
 Entering Link 1 = /usr/local/gaussian/g09/l1.exe PID=      2292.
  
 Copyright (c) 1988,1990,1992,1993,1995,1998,2003,2009,2010,
            Gaussian, Inc.  All Rights Reserved.
  
 This is part of the Gaussian(R) 09 program.  It is based on
 the Gaussian(R) 03 system (copyright 2003, Gaussian, Inc.),
 the Gaussian(R) 98 system (copyright 1998, Gaussian, Inc.),
 the Gaussian(R) 94 system (copyright 1995, Gaussian, Inc.),
 the Gaussian 92(TM) system (copyright 1992, Gaussian, Inc.),
 the Gaussian 90(TM) system (copyright 1990, Gaussian, Inc.),
 the Gaussian 88(TM) system (copyright 1988, Gaussian, Inc.),
 the Gaussian 86(TM) system (copyright 1986, Carnegie Mellon
 University), and the Gaussian 82(TM) system (copyright 1983,
 Carnegie Mellon University). Gaussian is a federally registered
 trademark of Gaussian, Inc.
  
 This software contains proprietary and confidential information,
 including trade secrets, belonging to Gaussian, Inc.
  
 This software is provided under written license and may be
 used, copied, transmitted, or stored only in accord with that
 written license.
  
 The following legend is applicable only to US Government
 contracts under FAR:
  
                    RESTRICTED RIGHTS LEGEND
  
 Use, reproduction and disclosure by the US Government is
 subject to restrictions as set forth in subparagraphs (a)
 and (c) of the Commercial Computer Software - Restricted
 Rights clause in FAR 52.227-19.
  
 Gaussian, Inc.
 340 Quinnipiac St., Bldg. 40, Wallingford CT 06492
  
  
 ---------------------------------------------------------------
 Warning -- This program may not be used in any manner that
 competes with the business of Gaussian, Inc. or will provide
 assistance to any competitor of Gaussian, Inc.  The licensee
 of this program is prohibited from giving any competitor of
 Gaussian, Inc. access to this program.  By using this program,
 the user acknowledges that Gaussian, Inc. is engaged in the
 business of creating and licensing software in the field of
 computational chemistry and represents and warrants to the
 licensee that it is not a competitor of Gaussian, Inc. and that
 it will not use this program in any manner prohibited above.
 ---------------------------------------------------------------
  

 Cite this work as:
 Gaussian 09, Revision B.01,
 M. J. Frisch, G. W. Trucks, H. B. Schlegel, G. E. Scuseria, 
 M. A. Robb, J. R. Cheeseman, G. Scalmani, V. Barone, B. Mennucci, 
 G. A. Petersson, H. Nakatsuji, M. Caricato, X. Li, H. P. Hratchian, 
 A. F. Izmaylov, J. Bloino, G. Zheng, J. L. Sonnenberg, M. Hada, 
 M. Ehara, K. Toyota, R. Fukuda, J. Hasegawa, M. Ishida, T. Nakajima, 
 Y. Honda, O. Kitao, H. Nakai, T. Vreven, J. A. Montgomery, Jr., 
 J. E. Peralta, F. Ogliaro, M. Bearpark, J. J. Heyd, E. Brothers, 
 K. N. Kudin, V. N. Staroverov, T. Keith, R. Kobayashi, J. Normand, 
 K. Raghavachari, A. Rendell, J. C. Burant, S. S. Iyengar, J. Tomasi, 
 M. Cossi, N. Rega, J. M. Millam, M. Klene, J. E. Knox, J. B. Cross, 
 V. Bakken, C. Adamo, J. Jaramillo, R. Gomperts, R. E. Stratmann, 
 O. Yazyev, A. J. Austin, R. Cammi, C. Pomelli, J. W. Ochterski, 
 R. L. Martin, K. Morokuma, V. G. Zakrzewski, G. A. Voth, 
 P. Salvador, J. J. Dannenberg, S. Dapprich, A. D. Daniels, 
 O. Farkas, J. B. Foresman, J. V. Ortiz, J. Cioslowski, 
 and D. J. Fox, Gaussian, Inc., Wallingford CT, 2010.
 
 ******************************************
 Gaussian 09:  EM64L-G09RevB.01 12-Aug-2010
                31-Mar-2016 
 ******************************************
 -------------------------------------------------
 # freq=raman b3lyp/6-31+g(2d,p) geom=connectivity
 -------------------------------------------------
 1/10=4,30=1,38=1,57=2/1,3;
 2/12=2,17=6,18=5,40=1/2;
 3/5=1,6=6,7=112,11=2,16=1,25=1,30=1,71=2,74=-5/1,2,3;
 4//1;
 5/5=2,38=5,98=1/2;
 8/6=4,10=90,11=11/1;
 10/13=10,15=4/2;
 11/6=3,8=1,9=11,15=111,16=1/1,2,10;
 10/6=1/2;
 6/7=2,8=2,9=2,10=2,18=1,28=1/1;
 7/8=1,10=1,25=1/1,2,3,16;
 1/10=4,30=1/3;
 99//99;
 -----------------
 500 5928/5928.com
 -----------------
 Symbolic Z-matrix:
 Charge =  0 Multiplicity = 1
 O                     8.689     7.348     12.302 
 C                     9.341     7.697     13.532 
 C                     9.076     9.128     13.971 
 O                     9.856     9.929     13.073 
 H                     9.804     9.619     12.124 
 C                     9.497     9.347     15.415 
 O                     9.14      10.685    15.793 
 H                     9.316     11.358    15.074 
 C                     9.307     5.323     14.142 
 O                     8.626     4.208     14.737 
 H                     8.846     3.323     14.327 
 C                     8.962     6.72      14.632 
 O                     9.382     6.99      15.978 
 C                     9.029     8.308     16.421 
 O                     10.061    8.308     17.418 
 C                     9.597     7.838     18.692 
 C                     9.251     6.392     19.009 
 O                     8.668     5.438     18.109 
 H                     8.651     5.832     17.19 
 C                     8.652     6.237     20.398 
 O                     8.521     4.841     20.704 
 H                     7.989     4.402     19.979 
 C                     10.398    9.922     19.882 
 O                     10.918    10.874    20.82 
 H                     10.571    11.735    20.448 
 C                     10.512    8.411     19.762 
 O                     10.       8.18      21.083 
 C                     9.596     6.846     21.422 
 O                     8.867     6.96      22.653 
 H                     9.4841    7.02781   23.38525 
 H                     10.45369   6.22038   21.55568 
 H                     7.69676   6.71684   20.44454 
 H                     10.22895   5.97699   19.13661 
 H                     8.66851   8.35229   18.82737 
 H                     11.52678   8.08776   19.65889 
 H                     9.3421    10.0929   19.90975 
 H                     10.75722   10.2768   18.93861 
 H                     9.34993   7.15795   11.63219 
 H                     10.35664   5.17794   14.29073 
 H                     9.11783   5.29342   13.08927 
 H                     7.89309   6.74855   14.67082 
 H                     10.3947   7.60366   13.37108 
 H                     8.03742   9.35785   13.85517 
 H                     10.5662   9.30664   15.42367 
 H                     8.03482   8.42107   16.80009 
 

 GradGradGradGradGradGradGradGradGradGradGradGradGradGradGradGradGradGrad
 Berny optimization.
 Initialization pass.
 Trust Radius=3.00D-01 FncErr=1.00D-07 GrdErr=1.00D-07
 Number of steps in this run=      2 maximum allowed number of steps=      2.
 GradGradGradGradGradGradGradGradGradGradGradGradGradGradGradGradGradGrad

                          Input orientation:                          
 ---------------------------------------------------------------------
 Center     Atomic      Atomic             Coordinates (Angstroms)
 Number     Number       Type             X           Y           Z
 ---------------------------------------------------------------------
      1          8           0        8.689000    7.348000   12.302000
      2          6           0        9.341000    7.697000   13.532000
      3          6           0        9.076000    9.128000   13.971000
      4          8           0        9.856000    9.929000   13.073000
      5          1           0        9.804000    9.619000   12.124000
      6          6           0        9.497000    9.347000   15.415000
      7          8           0        9.140000   10.685000   15.793000
      8          1           0        9.316000   11.358000   15.074000
      9          6           0        9.307000    5.323000   14.142000
     10          8           0        8.626000    4.208000   14.737000
     11          1           0        8.846000    3.323000   14.327000
     12          6           0        8.962000    6.720000   14.632000
     13          8           0        9.382000    6.990000   15.978000
     14          6           0        9.029000    8.308000   16.421000
     15          8           0       10.061000    8.308000   17.418000
     16          6           0        9.597000    7.838000   18.692000
     17          6           0        9.251000    6.392000   19.009000
     18          8           0        8.668000    5.438000   18.109000
     19          1           0        8.651000    5.832000   17.190000
     20          6           0        8.652000    6.237000   20.398000
     21          8           0        8.521000    4.841000   20.704000
     22          1           0        7.989000    4.402000   19.979000
     23          6           0       10.398000    9.922000   19.882000
     24          8           0       10.918000   10.874000   20.820000
     25          1           0       10.571000   11.735000   20.448000
     26          6           0       10.512000    8.411000   19.762000
     27          8           0       10.000000    8.180000   21.083000
     28          6           0        9.596000    6.846000   21.422000
     29          8           0        8.867000    6.960000   22.653000
     30          1           0        9.484100    7.027812   23.385249
     31          1           0       10.453692    6.220385   21.555683
     32          1           0        7.696757    6.716839   20.444541
     33          1           0       10.228949    5.976991   19.136608
     34          1           0        8.668515    8.352287   18.827367
     35          1           0       11.526784    8.087764   19.658893
     36          1           0        9.342102   10.092904   19.909750
     37          1           0       10.757221   10.276796   18.938612
     38          1           0        9.349935    7.157948   11.632190
     39          1           0       10.356636    5.177936   14.290727
     40          1           0        9.117830    5.293416   13.089270
     41          1           0        7.893085    6.748545   14.670816
     42          1           0       10.394705    7.603663   13.371084
     43          1           0        8.037418    9.357846   13.855167
     44          1           0       10.566203    9.306639   15.423668
     45          1           0        8.034816    8.421073   16.800095
 ---------------------------------------------------------------------
                    Distance matrix (angstroms):
                    1          2          3          4          5
     1  O    0.000000
     2  C    1.435202   0.000000
     3  C    2.470573   1.520101   0.000000
     4  O    2.935624   2.336179   1.434017   0.000000
     5  H    2.536208   2.427121   2.045110   0.999702   0.000000
     6  C    3.786771   2.508491   1.519980   2.439789   3.316461
     7  O    4.850366   3.752421   2.397505   2.912489   3.877991
     8  H    4.914999   3.972570   2.499422   2.517467   3.459012
     9  C    2.805022   2.451353   3.815839   4.760189   4.772311
    10  O    3.974015   3.759837   4.999566   6.083719   6.123265
    11  H    4.508425   4.473134   5.820452   6.799401   6.738738
    12  C    2.428541   1.519266   2.499676   3.677961   3.924695
    13  O    3.757844   2.546458   2.948343   4.159498   4.684340
    14  C    4.243037   2.969341   2.584010   3.810600   4.558898
    15  O    5.383070   3.999090   3.677558   4.642057   5.459964
    16  C    6.472763   5.168270   4.921726   6.001043   6.808336
    17  C    6.798061   5.631044   5.735657   6.936317   7.623816
    18  O    6.113084   5.148295   5.559281   6.851403   7.388605
    19  H    5.117836   4.163567   4.626684   5.931873   6.429241
    20  C    8.171959   7.053246   7.060027   8.290724   9.012442
    21  O    8.769657   7.763164   8.001230   9.268340   9.904129
    22  H    8.252590   7.365374   7.720927   9.040257   9.602726
    23  C    8.185509   6.811048   6.108849   6.830541   7.786604
    24  O    9.484590   8.105258   7.304128   7.876349   8.856435
    25  H    9.441663   8.102432   7.140238   7.626499   8.622918
    26  C    7.752735   6.379180   6.009315   6.890383   7.765280
    27  O    8.917225   7.595075   7.234157   8.199990   9.075947
    28  C    9.178728   7.939857   7.809950   8.903836   9.704926
    29  O   10.359799   9.162995   8.951035  10.078169  10.899912
    30  H   11.116345   9.876984   9.654296  10.719034  11.559945
    31  H    9.487692   8.233952   8.238912   9.277228  10.046359
    32  H    8.227022   7.172690   7.044341   8.325859   9.060597
    33  H    7.138835   5.929461   6.159679   7.247400   7.913373
    34  H    6.602229   5.377969   4.934782   6.083493   6.915853
    35  H    7.919858   6.516838   6.280172   7.039578   7.879549
    36  H    8.114117   6.812933   6.022508   6.857996   7.813823
    37  H    7.543209   6.155687   5.368744   5.944625   6.912327
    38  H    0.960000   1.974825   3.070208   3.163979   2.550456
    39  H    3.383079   2.820083   4.164764   4.930123   4.972240
    40  H    2.241653   2.454186   3.934874   4.694018   4.484780
    41  H    2.569847   2.071937   2.747878   4.064645   4.286884
    42  H    2.029220   1.070000   2.102970   2.405462   2.442485
    43  H    2.622283   2.135925   1.070000   2.060399   2.487158
    44  H    4.135816   2.769561   2.088747   2.533252   3.400931
    45  H    4.670364   3.593166   3.096383   4.413818   5.141099
                    6          7          8          9         10
     6  C    0.000000
     7  O    1.435471   0.000000
     8  H    2.047721   1.000433   0.000000
     9  C    4.224832   5.612908   6.106548   0.000000
    10  O    5.256201   6.582618   7.191117   1.435622   0.000000
    11  H    6.155983   7.512299   8.083324   2.060763   0.999862
    12  C    2.792927   4.135315   4.672443   1.520110   2.536546
    13  O    2.426034   3.707535   4.461053   2.481010   3.138653
    14  C    1.520060   2.461064   3.346532   3.765813   4.450648
    15  O    2.325860   3.023077   3.918145   4.495655   5.104604
    16  C    3.609129   4.088821   5.055619   5.206902   5.455435
    17  C    4.659332   5.365149   6.336372   4.983331   4.838436
    18  O    4.819249   5.754794   6.684125   4.019780   3.589575
    19  H    4.027601   5.073691   5.954524   3.159070   2.941974
    20  C    5.934342   6.420971   7.416907   6.356253   6.013688
    21  O    7.016419   7.658552   8.648712   6.626459   6.001400
    22  H    6.896172   7.636981   8.614284   6.054414   5.284124
    23  C    4.593094   4.345648   5.133194   7.435636   7.890552
    24  O    5.793530   5.335516   5.984745   8.832022   9.310838
    25  H    5.673368   4.981896   5.531458   9.081689   9.646464
    26  C    4.561001   4.775607   5.665030   6.524735   6.817098
    27  O    5.808711   5.915972   6.831956   7.537916   7.611595
    28  C    6.507599   6.828726   7.793180   7.443215   7.251839
    29  O    7.647438   7.810874   8.774124   8.678162   8.384190
    30  H    8.300824   8.434197   9.373135   9.400820   9.136733
    31  H    6.956936   7.407232   8.348751   7.555322   7.340612
    32  H    5.954402   6.282204   7.280456   6.652646   6.303474
    33  H    5.073763   5.876297   6.803934   5.120918   5.005529
    34  H    3.649670   3.856324   4.851939   5.615773   5.823060
    35  H    4.869942   5.233308   6.050063   6.558008   6.905950
    36  H    4.558853   4.164019   4.998562   7.484661   7.867798
    37  H    3.855972   3.560465   4.263959   7.046327   7.682834
    38  H    4.373011   5.458618   5.430252   3.109345   4.343515
    39  H    4.402733   5.836504   6.315824   1.070000   2.033479
    40  H    4.688745   6.031569   6.384168   1.070000   2.033479
    41  H    3.142979   4.278991   4.840900   2.076290   2.644979
    42  H    2.832435   4.115167   4.261288   2.641749   4.065043
    43  H    2.136253   2.594652   2.668509   4.239587   5.257849
    44  H    1.070000   2.017509   2.427624   4.370086   5.498365
    45  H    2.216712   2.713123   3.639557   4.275743   4.728196
                   11         12         13         14         15
    11  H    0.000000
    12  C    3.412637   0.000000
    13  O    4.057091   1.435624   0.000000
    14  C    5.410042   2.393064   1.434567   0.000000
    15  O    5.990053   3.389888   2.066825   1.434933   0.000000
    16  C    6.324749   4.258726   2.851513   2.387669   1.435016
    17  C    5.612834   4.398776   3.092204   3.227706   2.618862
    18  O    4.336869   3.717457   2.731238   3.349114   3.264174
    19  H    3.811807   2.725551   1.828734   2.620080   2.858437
    20  C    6.736919   5.794493   4.542720   4.499744   3.892907
    21  O    6.563237   6.371366   5.262566   5.533737   5.018913
    22  H    5.817542   5.908491   4.964493   5.384961   5.109671
    23  C    8.764333   6.314856   4.986993   4.056806   2.964770
    24  O   10.172012   7.705387   6.394507   5.431747   4.346540
    25  H   10.545331   7.846334   6.626435   5.508069   4.602752
    26  C    7.629058   5.619509   4.196999   3.656799   2.389215
    27  O    8.400339   6.695106   5.278167   4.763766   3.667742
    28  C    7.956950   6.820699   5.450107   5.241081   4.287853
    29  O    9.085730   8.025152   6.694905   6.378179   5.536060
    30  H    9.807379   8.774207   7.408050   7.095546   6.130233
    31  H    7.951941   7.100151   5.731612   5.723010   4.651103
    32  H    7.089655   5.948654   4.781699   4.527201   4.157089
    33  H    5.664675   4.738007   3.423494   3.774653   2.900935
    34  H    6.751187   4.511274   3.237866   2.433621   1.981740
    35  H    7.636666   5.806768   4.399336   4.095288   2.686751
    36  H    8.788903   6.274998   5.008819   3.931322   3.148256
    37  H    8.560082   5.866901   4.632438   3.633356   2.583243
    38  H    4.714104   3.056330   4.349172   4.935415   5.941703
    39  H    2.392514   2.106998   2.660899   4.012229   4.434472
    40  H    2.342734   2.106998   3.360497   4.493999   5.358655
    41  H    3.572201   1.070000   1.995970   2.604869   3.831289
    42  H    4.651488   2.103192   2.863244   3.415147   4.121284
    43  H    6.107029   2.901130   3.452682   2.944301   4.229756
    44  H    6.321845   3.144982   2.660157   2.086850   2.286891
    45  H    5.724034   2.907568   2.130426   1.070000   2.121324
                   16         17         18         19         20
    16  C    0.000000
    17  C    1.520237   0.000000
    18  O    2.638736   1.435272   0.000000
    19  H    2.678611   1.995585   1.000043   0.000000
    20  C    2.523225   1.520575   2.424495   3.233464   0.000000
    21  O    3.766687   2.410711   2.666841   3.653379   1.435135
    22  H    4.006012   2.548263   2.243042   3.203383   1.995584
    23  C    2.529972   3.812957   5.122761   5.198747   4.110231
    24  O    3.935825   5.113407   6.477817   6.613468   5.178282
    25  H    4.383928   5.688653   6.981729   7.010447   5.823493
    26  C    1.520018   2.496696   3.869299   4.090201   2.930934
    27  O    2.448725   2.838912   4.258810   4.742189   2.462027
    28  C    2.904645   2.479458   3.717475   4.453206   1.520063
    29  O    4.122294   3.707940   4.796251   5.582420   2.377810
    30  H    4.764005   4.428335   5.570667   6.364365   3.200224
    31  H    3.398717   2.821615   3.959854   4.739169   2.141634
    32  H    2.817681   2.140553   2.834342   3.505076   1.070000
    33  H    2.015041   1.070000   1.945006   2.510025   2.036046
    34  H    1.070000   2.053048   3.001519   3.005515   2.634692
    35  H    2.172863   2.911558   4.194766   4.410673   3.497998
    36  H    2.575360   3.810032   5.036392   5.101957   3.947484
    37  H    2.711947   4.167169   5.335452   5.220155   4.783484
    38  H    7.096790   7.417128   6.735898   5.756379   8.841645
    39  H    5.198480   4.995846   4.183101   3.426774   6.428544
    40  H    6.172122   6.022277   5.041918   4.162209   7.384096
    41  H    4.501129   4.559704   3.760204   2.785817   5.799851
    42  H    5.385480   5.878970   5.488120   4.556690   7.367655
    43  H    5.304449   6.068856   5.818756   4.891746   7.275029
    44  H    3.711906   4.804111   5.077455   4.342931   6.150677
    45  H    2.521844   3.236588   3.318566   2.689797   4.253941
                   21         22         23         24         25
    21  O    0.000000
    22  H    1.000685   0.000000
    23  C    5.478629   6.023545   0.000000
    24  O    6.492777   7.153538   1.434067   0.000000
    25  H    7.196893   7.788426   1.907159   1.000057   0.000000
    26  C    4.194800   4.741803   1.520038   2.711193   3.394562
    27  O    3.671512   4.419980   2.152991   2.858239   3.656131
    28  C    2.385618   3.261569   3.532220   4.281924   5.079530
    29  O    2.899738   3.803225   4.335418   4.783920   5.528677
    30  H    3.591491   4.553323   4.635115   4.840427   5.653884
    31  H    2.522571   3.444874   4.062791   4.734231   5.625985
    32  H    2.065301   2.379204   4.229211   5.272510   5.783012
    33  H    2.581527   2.864890   4.018368   5.223916   5.915354
    34  H    3.984049   4.170463   2.562688   3.922985   4.205788
    35  H    4.546258   5.118910   2.165261   3.079269   3.852083
    36  H    5.374713   5.849963   1.070000   1.980435   2.120468
    37  H    6.137194   6.577133   1.070000   1.980435   2.106962
    38  H    9.399634   8.894753   8.763435  10.034128  10.007942
    39  H    6.679308   6.210010   7.332816   8.682838   8.997391
    40  H    7.651470   7.038271   8.318882   9.702974   9.887194
    41  H    6.358641   5.804506   6.595593   7.998872   8.087757
    42  H    8.056969   7.726747   6.911348   8.152012   8.196448
    43  H    8.218410   7.878076   6.497179   7.688002   7.452204
    44  H    7.211566   7.172762   4.503741   5.630344   5.580400
    45  H    5.319189   5.124498   4.163600   5.521706   5.542703
                   26         27         28         29         30
    26  C    0.000000
    27  O    1.435460   0.000000
    28  C    2.458431   1.434466   0.000000
    29  O    3.628954   2.288447   1.435200   0.000000
    30  H    4.012197   2.625651   1.974823   0.960000   0.000000
    31  H    2.831871   2.066242   1.070000   2.066089   2.222467
    32  H    3.355836   2.802391   2.139914   2.511152   3.455295
    33  H    2.528959   2.948577   2.525632   3.896951   4.439592
    34  H    2.067710   2.624960   3.140263   4.075945   4.815985
    35  H    1.070000   2.089894   2.894555   4.160646   4.379702
    36  H    2.054092   2.338493   3.590787   4.191209   4.636168
    37  H    2.054092   3.093273   4.391584   5.326420   5.652373
    38  H    8.307487   9.528115   9.797869  11.033162  11.754546
    39  H    6.357017   7.434685   7.363155   8.678846   9.321679
    40  H    7.495890   8.544607   8.489614   9.711094  10.447462
    41  H    5.961764   6.899584   6.963326   8.044159   8.862882
    42  H    6.442776   7.743488   8.125838   9.428794  10.071957
    43  H    6.473851   7.581597   8.123762   9.156404   9.916875
    44  H    4.430150   5.798098   6.555610   7.788276   8.351693
    45  H    3.861272   4.718405   5.126418   6.089644   6.885191
                   31         32         33         34         35
    31  H    0.000000
    32  H    3.013601   0.000000
    33  H    2.441654   2.944496   0.000000
    34  H    3.895583   2.496849   2.858778   0.000000
    35  H    2.869920   4.143161   2.532295   2.988497   0.000000
    36  H    4.352141   3.793544   4.280770   2.157550   2.975963
    37  H    4.836906   4.930269   4.336657   2.842324   2.429587
    38  H   10.028610   8.976921   7.647458   7.325391   8.368464
    39  H    7.340007   6.878416   4.912978   5.788554   6.217198
    40  H    8.621133   7.625325   6.186449   6.518000   7.534679
    41  H    7.364581   5.777149   5.098515   4.522189   6.314918
    42  H    8.300880   7.622282   5.992896   5.771585   6.407223
    43  H    8.659098   7.107096   6.642786   5.111967   6.889995
    44  H    6.865801   6.336399   4.998621   4.012128   4.510599
    45  H    5.771447   4.037411   4.030762   2.125121   4.525226
                   36         37         38         39         40
    36  H    0.000000
    37  H    1.726119   0.000000
    38  H    8.782484   8.067929   0.000000
    39  H    7.533897   6.910983   3.464349   0.000000
    40  H    8.342921   7.857257   2.377696   1.729588   0.000000
    41  H    6.382070   6.234253   3.394594   2.946246   2.473598
    42  H    7.075200   6.186633   2.077007   2.594484   2.654632
    43  H    6.237025   5.838083   3.391737   4.800015   4.274749
    44  H    4.716096   3.651373   4.524543   4.286451   4.863451
    45  H    3.764833   3.927907   5.480170   4.712294   4.972462
                   41         42         43         44         45
    41  H    0.000000
    42  H    2.945952   0.000000
    43  H    2.737620   2.977969   0.000000
    44  H    3.775737   2.672572   2.976168   0.000000
    45  H    2.711321   4.242093   3.090332   3.014415   0.000000
 Stoichiometry    C12H22O11
 Framework group  C1[X(C12H22O11)]
 Deg. of freedom   129
 Full point group                 C1      NOp   1
 Largest Abelian subgroup         C1      NOp   1
 Largest concise Abelian subgroup C1      NOp   1
                         Standard orientation:                         
 ---------------------------------------------------------------------
 Center     Atomic      Atomic             Coordinates (Angstroms)
 Number     Number       Type             X           Y           Z
 ---------------------------------------------------------------------
      1          8           0       -5.077714   -0.503191    0.316328
      2          6           0       -3.823257    0.004973   -0.161073
      3          6           0       -3.431626    1.333005    0.466352
      4          8           0       -4.305184    2.290857   -0.146690
      5          1           0       -5.248289    1.968667   -0.225127
      6          6           0       -1.972766    1.661026    0.193464
      7          8           0       -1.644775    2.875958    0.884072
      8          1           0       -2.368631    3.564816    0.835364
      9          6           0       -3.161921   -2.300600   -0.667138
     10          8           0       -2.578467   -3.541877   -0.243082
     11          1           0       -2.955976   -4.350880   -0.693333
     12          6           0       -2.722827   -1.024478    0.032464
     13          8           0       -1.363020   -0.648138   -0.232698
     14          6           0       -0.969470    0.548968    0.452895
     15          8           0        0.080416    0.808556   -0.490178
     16          6           0        1.338502    0.251953   -0.081908
     17          6           0        1.669670   -1.231770   -0.078140
     18          8           0        0.762110   -2.307032    0.204972
     19          1           0       -0.165251   -1.937504    0.264447
     20          6           0        3.028247   -1.514462    0.543552
     21          8           0        3.358655   -2.897639    0.350506
     22          1           0        2.616754   -3.459299    0.718598
     23          6           0        2.521330    2.479001   -0.286676
     24          8           0        3.463543    3.537397   -0.507085
     25          1           0        3.054185    4.285025    0.015976
     26          6           0        2.442015    1.039713   -0.769039
     27          8           0        3.739035    0.703759   -0.253850
     28          6           0        4.086548   -0.685175   -0.165584
     29          8           0        5.274381   -0.739913    0.638066
     30          1           0        6.036482   -0.517635    0.098257
     31          1           0        4.279604   -1.082818   -1.140011
     32          1           0        3.013285   -1.280215    1.587489
     33          1           0        1.858213   -1.395996   -1.118516
     34          1           0        1.412847    0.526936    0.949478
     35          1           0        2.400080    0.971298   -1.836025
     36          1           0        2.489334    2.388965    0.779049
     37          1           0        1.590398    2.901516   -0.602505
     38          1           0       -5.707150   -0.533506   -0.407890
     39          1           0       -2.954661   -2.185369   -1.710529
     40          1           0       -4.222228   -2.384994   -0.550830
     41          1           0       -2.741216   -1.255671    1.077027
     42          1           0       -3.926092    0.168484   -1.213493
     43          1           0       -3.607395    1.303009    1.521390
     44          1           0       -1.906687    1.881269   -0.851537
     45          1           0       -0.646122    0.421072    1.464818
 ---------------------------------------------------------------------
 Rotational constants (GHZ):      0.3779670      0.1504417      0.1114628
 Standard basis: 6-31+G(2d,p) (6D, 7F)
 There are   685 symmetry adapted basis functions of A   symmetry.
 Integral buffers will be    131072 words long.
 Raffenetti 2 integral format.
 Two-electron integral symmetry is turned on.
   685 basis functions,  1028 primitive gaussians,   685 cartesian basis functions
    91 alpha electrons       91 beta electrons
       nuclear repulsion energy      2276.8878335160 Hartrees.
 NAtoms=   45 NActive=   45 NUniq=   45 SFac= 1.00D+00 NAtFMM=   50 NAOKFM=F Big=F
 One-electron integrals computed using PRISM.
 NBasis=   685 RedAO= T  NBF=   685
 NBsUse=   685 1.00D-06 NBFU=   685
 Harris functional with IExCor=  402 diagonalized for initial guess.
 ExpMin= 4.38D-02 ExpMax= 5.48D+03 ExpMxC= 8.25D+02 IAcc=2 IRadAn=         0 AccDes= 0.00D+00
 HarFok:  IExCor=  402 AccDes= 0.00D+00 IRadAn=         0 IDoV= 1
 ScaDFX=  1.000000  1.000000  1.000000  1.000000
 FoFCou: FMM=F IPFlag=           0 FMFlag=      100000 FMFlg1=           0
         NFxFlg=           0 DoJE=T BraDBF=F KetDBF=T FulRan=T
         Omega=  0.000000  0.000000  1.000000  0.000000  0.000000 ICntrl=     500 IOpCl=  0
         NMat0=    1 NMatS0=    1 NMatT0=    0 NMatD0=    1 NMtDS0=    0 NMtDT0=    0
         I1Cent=           4 NGrid=           0.
 Petite list used in FoFCou.
 Initial guess orbital symmetries:
       Occupied  (A) (A) (A) (A) (A) (A) (A) (A) (A) (A) (A) (A)
                 (A) (A) (A) (A) (A) (A) (A) (A) (A) (A) (A) (A)
                 (A) (A) (A) (A) (A) (A) (A) (A) (A) (A) (A) (A)
                 (A) (A) (A) (A) (A) (A) (A) (A) (A) (A) (A) (A)
                 (A) (A) (A) (A) (A) (A) (A) (A) (A) (A) (A) (A)
                 (A) (A) (A) (A) (A) (A) (A) (A) (A) (A) (A) (A)
                 (A) (A) (A) (A) (A) (A) (A) (A) (A) (A) (A) (A)
                 (A) (A) (A) (A) (A) (A) (A)
       Virtual   (A) (A) (A) (A) (A) (A) (A) (A) (A) (A) (A) (A)
                 (A) (A) (A) (A) (A) (A) (A) (A) (A) (A) (A) (A)
                 (A) (A) (A) (A) (A) (A) (A) (A) (A) (A) (A) (A)
                 (A) (A) (A) (A) (A) (A) (A) (A) (A) (A) (A) (A)
                 (A) (A) (A) (A) (A) (A) (A) (A) (A) (A) (A) (A)
                 (A) (A) (A) (A) (A) (A) (A) (A) (A) (A) (A) (A)
                 (A) (A) (A) (A) (A) (A) (A) (A) (A) (A) (A) (A)
                 (A) (A) (A) (A) (A) (A) (A) (A) (A) (A) (A) (A)
                 (A) (A) (A) (A) (A) (A) (A) (A) (A) (A) (A) (A)
                 (A) (A) (A) (A) (A) (A) (A) (A) (A) (A) (A) (A)
                 (A) (A) (A) (A) (A) (A) (A) (A) (A) (A) (A) (A)
                 (A) (A) (A) (A) (A) (A) (A) (A) (A) (A) (A) (A)
                 (A) (A) (A) (A) (A) (A) (A) (A) (A) (A) (A) (A)
                 (A) (A) (A) (A) (A) (A) (A) (A) (A) (A) (A) (A)
                 (A) (A) (A) (A) (A) (A) (A) (A) (A) (A) (A) (A)
                 (A) (A) (A) (A) (A) (A) (A) (A) (A) (A) (A) (A)
                 (A) (A) (A) (A) (A) (A) (A) (A) (A) (A) (A) (A)
                 (A) (A) (A) (A) (A) (A) (A) (A) (A) (A) (A) (A)
                 (A) (A) (A) (A) (A) (A) (A) (A) (A) (A) (A) (A)
                 (A) (A) (A) (A) (A) (A) (A) (A) (A) (A) (A) (A)
                 (A) (A) (A) (A) (A) (A) (A) (A) (A) (A) (A) (A)
                 (A) (A) (A) (A) (A) (A) (A) (A) (A) (A) (A) (A)
                 (A) (A) (A) (A) (A) (A) (A) (A) (A) (A) (A) (A)
                 (A) (A) (A) (A) (A) (A) (A) (A) (A) (A) (A) (A)
                 (A) (A) (A) (A) (A) (A) (A) (A) (A) (A) (A) (A)
                 (A) (A) (A) (A) (A) (A) (A) (A) (A) (A) (A) (A)
                 (A) (A) (A) (A) (A) (A) (A) (A) (A) (A) (A) (A)
                 (A) (A) (A) (A) (A) (A) (A) (A) (A) (A) (A) (A)
                 (A) (A) (A) (A) (A) (A) (A) (A) (A) (A) (A) (A)
                 (A) (A) (A) (A) (A) (A) (A) (A) (A) (A) (A) (A)
                 (A) (A) (A) (A) (A) (A) (A) (A) (A) (A) (A) (A)
                 (A) (A) (A) (A) (A) (A) (A) (A) (A) (A) (A) (A)
                 (A) (A) (A) (A) (A) (A) (A) (A) (A) (A) (A) (A)
                 (A) (A) (A) (A) (A) (A) (A) (A) (A) (A) (A) (A)
                 (A) (A) (A) (A) (A) (A) (A) (A) (A) (A) (A) (A)
                 (A) (A) (A) (A) (A) (A) (A) (A) (A) (A) (A) (A)
                 (A) (A) (A) (A) (A) (A) (A) (A) (A) (A) (A) (A)
                 (A) (A) (A) (A) (A) (A) (A) (A) (A) (A) (A) (A)
                 (A) (A) (A) (A) (A) (A) (A) (A) (A) (A) (A) (A)
                 (A) (A) (A) (A) (A) (A) (A) (A) (A) (A) (A) (A)
                 (A) (A) (A) (A) (A) (A) (A) (A) (A) (A) (A) (A)
                 (A) (A) (A) (A) (A) (A) (A) (A) (A) (A) (A) (A)
                 (A) (A) (A) (A) (A) (A) (A) (A) (A) (A) (A) (A)
                 (A) (A) (A) (A) (A) (A) (A) (A) (A) (A) (A) (A)
                 (A) (A) (A) (A) (A) (A) (A) (A) (A) (A) (A) (A)
                 (A) (A) (A) (A) (A) (A) (A) (A) (A) (A) (A) (A)
                 (A) (A) (A) (A) (A) (A) (A) (A) (A) (A) (A) (A)
                 (A) (A) (A) (A) (A) (A) (A) (A) (A) (A) (A) (A)
                 (A) (A) (A) (A) (A) (A) (A) (A) (A) (A) (A) (A)
                 (A) (A) (A) (A) (A) (A)
 The electronic state of the initial guess is 1-A.
 Requested convergence on RMS density matrix=1.00D-08 within 128 cycles.
 Requested convergence on MAX density matrix=1.00D-06.
 Requested convergence on             energy=1.00D-06.
 No special actions if energy rises.
 SCF Done:  E(RB3LYP) =  -1297.91863948     A.U. after   14 cycles
             Convg  =    0.1333D-08             -V/T =  2.0063
 Range of M.O.s used for correlation:     1   685
 NBasis=   685 NAE=    91 NBE=    91 NFC=     0 NFV=     0
 NROrb=    685 NOA=    91 NOB=    91 NVA=   594 NVB=   594

 **** Warning!!: The largest alpha MO coefficient is  0.76492275D+02

          Differentiating once with respect to electric field.
                with respect to dipole field.
          Electric field/nuclear overlap derivatives assumed to be zero.
          There are     3 degrees of freedom in the 1st order CPHF.  IDoFFX=0.
      3 vectors produced by pass  0 Test12= 1.80D-12 3.33D-08 XBig12= 1.21D+02 1.16D+00.
 AX will form     3 AO Fock derivatives at one time.
      3 vectors produced by pass  1 Test12= 1.80D-12 3.33D-08 XBig12= 2.44D+01 4.54D-01.
      3 vectors produced by pass  2 Test12= 1.80D-12 3.33D-08 XBig12= 9.71D+00 2.71D-01.
      3 vectors produced by pass  3 Test12= 1.80D-12 3.33D-08 XBig12= 1.24D+00 8.05D-02.
      3 vectors produced by pass  4 Test12= 1.80D-12 3.33D-08 XBig12= 4.50D-01 3.90D-02.
      3 vectors produced by pass  5 Test12= 1.80D-12 3.33D-08 XBig12= 7.27D-02 1.73D-02.
      3 vectors produced by pass  6 Test12= 1.80D-12 3.33D-08 XBig12= 2.66D-02 1.19D-02.
      3 vectors produced by pass  7 Test12= 1.80D-12 3.33D-08 XBig12= 4.63D-03 6.89D-03.
      3 vectors produced by pass  8 Test12= 1.80D-12 3.33D-08 XBig12= 9.68D-04 2.32D-03.
      3 vectors produced by pass  9 Test12= 1.80D-12 3.33D-08 XBig12= 2.14D-04 1.53D-03.
      3 vectors produced by pass 10 Test12= 1.80D-12 3.33D-08 XBig12= 6.89D-05 6.64D-04.
      3 vectors produced by pass 11 Test12= 1.80D-12 3.33D-08 XBig12= 1.45D-05 4.69D-04.
      3 vectors produced by pass 12 Test12= 1.80D-12 3.33D-08 XBig12= 1.30D-06 9.86D-05.
      3 vectors produced by pass 13 Test12= 1.80D-12 3.33D-08 XBig12= 2.33D-07 3.45D-05.
      3 vectors produced by pass 14 Test12= 1.80D-12 3.33D-08 XBig12= 4.46D-08 1.85D-05.
      3 vectors produced by pass 15 Test12= 1.80D-12 3.33D-08 XBig12= 1.34D-08 1.12D-05.
      3 vectors produced by pass 16 Test12= 1.80D-12 3.33D-08 XBig12= 2.33D-09 4.94D-06.
      3 vectors produced by pass 17 Test12= 1.80D-12 3.33D-08 XBig12= 3.91D-10 1.70D-06.
      3 vectors produced by pass 18 Test12= 1.80D-12 3.33D-08 XBig12= 3.86D-11 5.30D-07.
      3 vectors produced by pass 19 Test12= 1.80D-12 3.33D-08 XBig12= 1.09D-11 2.11D-07.
      3 vectors produced by pass 20 Test12= 1.80D-12 3.33D-08 XBig12= 1.81D-11 4.32D-07.
      2 vectors produced by pass 21 Test12= 1.80D-12 3.33D-08 XBig12= 1.27D-12 6.36D-08.
 Inverted reduced A of dimension    65 with in-core refinement.
 End of Minotr Frequency-dependent properties file   721 does not exist.
 End of Minotr Frequency-dependent properties file   722 does not exist.
 Symmetrizing basis deriv contribution to polar:
 IMax=3 JMax=2 DiffMx= 0.00D+00
 G2DrvN: will do    16 centers at a time, making    3 passes doing MaxLOS=2.
 Calling FoFCou, ICntrl=  3107 FMM=F I1Cent=   0 AccDes= 0.00D+00.
 Calling FoFCou, ICntrl=  3107 FMM=F I1Cent=   0 AccDes= 0.00D+00.
 Calling FoFCou, ICntrl=  3107 FMM=F I1Cent=   0 AccDes= 0.00D+00.
 FoFDir/FoFCou used for L=0 through L=2.
 End of G2Drv Frequency-dependent properties file   721 does not exist.
 End of G2Drv Frequency-dependent properties file   722 does not exist.
          IDoAtm=111111111111111111111111111111111111111111111
          Differentiating once with respect to electric field.
                with respect to dipole field.
          Differentiating once with respect to nuclear coordinates.
          There are   138 degrees of freedom in the 1st order CPHF.  IDoFFX=5.
 Will reuse    3 saved solutions.
    135 vectors produced by pass  0 Test12= 5.41D-14 1.00D-09 XBig12= 1.74D-01 5.83D-02.
 AX will form    45 AO Fock derivatives at one time.
