Gaussian '09 started on node014 at Fri Mar 25 22:05:25 EDT 2016.
 Entering Gaussian System, Link 0=/usr/local/gaussian/g09/g09
 Initial command:
 /usr/local/gaussian/g09/l1.exe /home/srmcgrat/thesis/gaussian/cellobiose/423K/7000ps/1/2dp/gaussian13953/Gau-13989.inp -scrdir=/home/srmcgrat/thesis/gaussian/cellobiose/423K/7000ps/1/2dp/gaussian13953/
 Entering Link 1 = /usr/local/gaussian/g09/l1.exe PID=     13991.
  
 Copyright (c) 1988,1990,1992,1993,1995,1998,2003,2009,2010,
            Gaussian, Inc.  All Rights Reserved.
  
 This is part of the Gaussian(R) 09 program.  It is based on
 the Gaussian(R) 03 system (copyright 2003, Gaussian, Inc.),
 the Gaussian(R) 98 system (copyright 1998, Gaussian, Inc.),
 the Gaussian(R) 94 system (copyright 1995, Gaussian, Inc.),
 the Gaussian 92(TM) system (copyright 1992, Gaussian, Inc.),
 the Gaussian 90(TM) system (copyright 1990, Gaussian, Inc.),
 the Gaussian 88(TM) system (copyright 1988, Gaussian, Inc.),
 the Gaussian 86(TM) system (copyright 1986, Carnegie Mellon
 University), and the Gaussian 82(TM) system (copyright 1983,
 Carnegie Mellon University). Gaussian is a federally registered
 trademark of Gaussian, Inc.
  
 This software contains proprietary and confidential information,
 including trade secrets, belonging to Gaussian, Inc.
  
 This software is provided under written license and may be
 used, copied, transmitted, or stored only in accord with that
 written license.
  
 The following legend is applicable only to US Government
 contracts under FAR:
  
                    RESTRICTED RIGHTS LEGEND
  
 Use, reproduction and disclosure by the US Government is
 subject to restrictions as set forth in subparagraphs (a)
 and (c) of the Commercial Computer Software - Restricted
 Rights clause in FAR 52.227-19.
  
 Gaussian, Inc.
 340 Quinnipiac St., Bldg. 40, Wallingford CT 06492
  
  
 ---------------------------------------------------------------
 Warning -- This program may not be used in any manner that
 competes with the business of Gaussian, Inc. or will provide
 assistance to any competitor of Gaussian, Inc.  The licensee
 of this program is prohibited from giving any competitor of
 Gaussian, Inc. access to this program.  By using this program,
 the user acknowledges that Gaussian, Inc. is engaged in the
 business of creating and licensing software in the field of
 computational chemistry and represents and warrants to the
 licensee that it is not a competitor of Gaussian, Inc. and that
 it will not use this program in any manner prohibited above.
 ---------------------------------------------------------------
  

 Cite this work as:
 Gaussian 09, Revision B.01,
 M. J. Frisch, G. W. Trucks, H. B. Schlegel, G. E. Scuseria, 
 M. A. Robb, J. R. Cheeseman, G. Scalmani, V. Barone, B. Mennucci, 
 G. A. Petersson, H. Nakatsuji, M. Caricato, X. Li, H. P. Hratchian, 
 A. F. Izmaylov, J. Bloino, G. Zheng, J. L. Sonnenberg, M. Hada, 
 M. Ehara, K. Toyota, R. Fukuda, J. Hasegawa, M. Ishida, T. Nakajima, 
 Y. Honda, O. Kitao, H. Nakai, T. Vreven, J. A. Montgomery, Jr., 
 J. E. Peralta, F. Ogliaro, M. Bearpark, J. J. Heyd, E. Brothers, 
 K. N. Kudin, V. N. Staroverov, T. Keith, R. Kobayashi, J. Normand, 
 K. Raghavachari, A. Rendell, J. C. Burant, S. S. Iyengar, J. Tomasi, 
 M. Cossi, N. Rega, J. M. Millam, M. Klene, J. E. Knox, J. B. Cross, 
 V. Bakken, C. Adamo, J. Jaramillo, R. Gomperts, R. E. Stratmann, 
 O. Yazyev, A. J. Austin, R. Cammi, C. Pomelli, J. W. Ochterski, 
 R. L. Martin, K. Morokuma, V. G. Zakrzewski, G. A. Voth, 
 P. Salvador, J. J. Dannenberg, S. Dapprich, A. D. Daniels, 
 O. Farkas, J. B. Foresman, J. V. Ortiz, J. Cioslowski, 
 and D. J. Fox, Gaussian, Inc., Wallingford CT, 2010.
 
 ******************************************
 Gaussian 09:  EM64L-G09RevB.01 12-Aug-2010
                25-Mar-2016 
 ******************************************
 -------------------------------------------------
 # freq=raman b3lyp/6-31+g(2d,p) geom=connectivity
 -------------------------------------------------
 1/10=4,30=1,38=1,57=2/1,3;
 2/12=2,17=6,18=5,40=1/2;
 3/5=1,6=6,7=112,11=2,16=1,25=1,30=1,71=2,74=-5/1,2,3;
 4//1;
 5/5=2,38=5,98=1/2;
 8/6=4,10=90,11=11/1;
 10/13=10,15=4/2;
 11/6=3,8=1,9=11,15=111,16=1/1,2,10;
 10/6=1/2;
 6/7=2,8=2,9=2,10=2,18=1,28=1/1;
 7/8=1,10=1,25=1/1,2,3,16;
 1/10=4,30=1/3;
 99//99;
 -----------------
 423 7000/7000.com
 -----------------
 Symbolic Z-matrix:
 Charge =  0 Multiplicity = 1
 O                     7.483     7.649     12.443 
 C                     8.014     8.004     13.727 
 C                     7.475     9.32      14.265 
 O                     7.73      10.321    13.269 
 H                     7.795     10.009    12.321 
 C                     8.034     9.615     15.647 
 O                     7.362     10.7      16.302 
 H                     7.776     10.842    17.201 
 C                     8.189     5.526     14.381 
 O                     7.701     4.822     13.23 
 H                     7.825     3.845     13.407 
 C                     7.772     6.933     14.778 
 O                     8.438     7.276     16.002 
 C                     7.843     8.44      16.593 
 O                     8.679     8.657     17.739 
 C                     7.957     8.399     18.952 
 C                     8.441     7.032     19.407 
 O                     8.113     5.944     18.53 
 H                     8.437     6.23      17.628 
 C                     8.031     6.655     20.822 
 O                     8.829     5.541     21.248 
 H                     8.78      5.364     22.231 
 C                     8.277     10.873    19.719 
 O                     8.665     11.593    18.54 
 H                     8.573     12.572    18.725 
 C                     8.357     9.388     20.034 
 O                     7.647     9.044     21.233 
 C                     8.279     7.853     21.724 
 O                     7.557     7.638     22.946 
 H                     8.17835   7.51119   23.66673 
 H                     9.32236   8.00534   21.90591 
 H                     6.99439   6.39065   20.84319 
 H                     9.50934   7.09087   19.41568 
 H                     6.89977   8.40347   18.78726 
 H                     9.38939   9.19335   20.23694 
 H                     7.24367   11.1172   19.85124 
 H                     8.82546   11.34195   20.50905 
 H                     8.20528   7.48048   11.83348 
 H                     7.96927   4.90377   15.22329 
 H                     9.25427   5.54983   14.28331 
 H                     6.72092   6.91183   14.9772 
 H                     9.07271   8.11202   13.61584 
 H                     6.41382   9.22207   14.36095 
 H                     9.07697   9.8402    15.567 
 H                     6.81796   8.28569   16.85828 
 

 GradGradGradGradGradGradGradGradGradGradGradGradGradGradGradGradGradGrad
 Berny optimization.
 Initialization pass.
 Trust Radius=3.00D-01 FncErr=1.00D-07 GrdErr=1.00D-07
 Number of steps in this run=      2 maximum allowed number of steps=      2.
 GradGradGradGradGradGradGradGradGradGradGradGradGradGradGradGradGradGrad

                          Input orientation:                          
 ---------------------------------------------------------------------
 Center     Atomic      Atomic             Coordinates (Angstroms)
 Number     Number       Type             X           Y           Z
 ---------------------------------------------------------------------
      1          8           0        7.483000    7.649000   12.443000
      2          6           0        8.014000    8.004000   13.727000
      3          6           0        7.475000    9.320000   14.265000
      4          8           0        7.730000   10.321000   13.269000
      5          1           0        7.795000   10.009000   12.321000
      6          6           0        8.034000    9.615000   15.647000
      7          8           0        7.362000   10.700000   16.302000
      8          1           0        7.776000   10.842000   17.201000
      9          6           0        8.189000    5.526000   14.381000
     10          8           0        7.701000    4.822000   13.230000
     11          1           0        7.825000    3.845000   13.407000
     12          6           0        7.772000    6.933000   14.778000
     13          8           0        8.438000    7.276000   16.002000
     14          6           0        7.843000    8.440000   16.593000
     15          8           0        8.679000    8.657000   17.739000
     16          6           0        7.957000    8.399000   18.952000
     17          6           0        8.441000    7.032000   19.407000
     18          8           0        8.113000    5.944000   18.530000
     19          1           0        8.437000    6.230000   17.628000
     20          6           0        8.031000    6.655000   20.822000
     21          8           0        8.829000    5.541000   21.248000
     22          1           0        8.780000    5.364000   22.231000
     23          6           0        8.277000   10.873000   19.719000
     24          8           0        8.665000   11.593000   18.540000
     25          1           0        8.573000   12.572000   18.725000
     26          6           0        8.357000    9.388000   20.034000
     27          8           0        7.647000    9.044000   21.233000
     28          6           0        8.279000    7.853000   21.724000
     29          8           0        7.557000    7.638000   22.946000
     30          1           0        8.178350    7.511195   23.666725
     31          1           0        9.322362    8.005338   21.905906
     32          1           0        6.994385    6.390651   20.843193
     33          1           0        9.509344    7.090875   19.415678
     34          1           0        6.899768    8.403470   18.787259
     35          1           0        9.389389    9.193347   20.236938
     36          1           0        7.243666   11.117200   19.851237
     37          1           0        8.825464   11.341950   20.509047
     38          1           0        8.205282    7.480481   11.833483
     39          1           0        7.969269    4.903769   15.223286
     40          1           0        9.254265    5.549833   14.283315
     41          1           0        6.720919    6.911829   14.977199
     42          1           0        9.072714    8.112023   13.615841
     43          1           0        6.413820    9.222073   14.360953
     44          1           0        9.076969    9.840201   15.566996
     45          1           0        6.817956    8.285687   16.858278
 ---------------------------------------------------------------------
                    Distance matrix (angstroms):
                    1          2          3          4          5
     1  O    0.000000
     2  C    1.434100   0.000000
     3  C    2.472244   1.520467   0.000000
     4  O    2.807645   2.378846   1.434936   0.000000
     5  H    2.383659   2.458622   2.087165   1.000136   0.000000
     6  C    3.799260   2.506416   1.519681   2.499147   3.357772
     7  O    4.920886   3.784725   2.463034   3.078661   4.063660
     8  H    5.737566   4.492167   3.320720   3.966633   4.950621
     9  C    2.959968   2.568818   3.862342   4.943607   4.949356
    10  O    2.942588   3.235754   4.621072   5.499215   5.266886
    11  H    3.939121   4.175572   5.552863   6.478167   6.259009
    12  C    2.459350   1.519936   2.459501   3.709095   3.936896
    13  O    3.703733   2.425981   2.849995   4.152418   4.629525
    14  C    4.240021   2.904013   2.515831   3.820982   4.551269
    15  O    5.522146   4.118832   3.736022   4.863167   5.653679
    16  C    6.569190   5.240219   4.800889   6.003507   6.825577
    17  C    7.056610   5.778366   5.710365   6.999863   7.713057
    18  O    6.352597   5.227065   5.476737   6.854410   7.428124
    19  H    5.459661   4.306252   4.667260   6.019719   6.546545
    20  C    8.455530   7.222127   7.099691   8.401069   9.141773
    21  O    9.153328   7.955881   8.054592   9.365930  10.036110
    22  H   10.134514   8.937246   8.989445  10.295232  10.988828
    23  C    7.997799   6.648639   5.727227   6.496646   7.463861
    24  O    7.357015   6.039014   4.985805   5.502331   6.476258
    25  H    8.055281   6.794050   5.627851   5.962012   6.941575
    26  C    7.836535   6.466170   5.836429   6.857758   7.758341
    27  O    8.901518   7.586588   6.975585   8.066159   8.965315
    28  C    9.317306   8.002814   7.644291   8.824933   9.659141
    29  O   10.503266   9.237574   8.842828  10.043543  10.888935
    30  H   11.246089   9.953291   9.599943  10.780015  11.623746
    31  H    9.646596   8.282893   7.970227   9.082623   9.910495
    32  H    8.507963   7.367680   7.216973   8.564880   9.293073
    33  H    7.282569   5.952386   5.969676   7.168083   7.860590
    34  H    6.415529   5.196856   4.649919   5.900626   6.722475
    35  H    8.170973   6.759107   6.272557   7.251023   8.115999
    36  H    8.183377   6.913155   5.872775   6.648030   7.631287
    37  H    8.972246   7.602404   6.700758   7.393284   8.359588
    38  H    0.960000   1.973845   3.135190   3.217942   2.607568
    39  H    3.937352   3.442718   4.545956   5.763929   5.875119
    40  H    3.306152   2.805473   4.168966   5.110406   5.085696
    41  H    2.747062   2.104256   2.622051   3.944443   4.219183
    42  H    2.029073   1.070000   2.105542   2.608210   2.628248
    43  H    2.701157   2.108595   1.070000   2.032814   2.586179
    44  H    4.135390   2.808403   2.128875   2.706710   3.494056
    45  H    4.510247   3.363743   2.868205   4.225783   4.950890
                    6          7          8          9         10
     6  C    0.000000
     7  O    1.434515   0.000000
     8  H    1.996750   0.999880   0.000000
     9  C    4.283305   5.580721   6.031818   0.000000
    10  O    5.378255   6.641008   7.212133   1.434769   0.000000
    11  H    6.193075   7.455630   7.959576   1.976596   1.000617
    12  C    2.831418   4.084234   4.599046   1.520246   2.618715
    13  O    2.400034   3.601604   3.819974   2.398362   3.774820
    14  C    1.520533   2.328871   2.478660   3.674787   4.941645
    15  O    2.389614   2.823704   2.424681   4.617296   5.999566
    16  C    3.522444   3.559653   3.011148   5.403887   6.752907
    17  C    4.579862   4.925392   4.452501   5.252829   6.602047
    18  O    4.668423   5.305424   5.086277   4.170696   5.433105
    19  H    3.942714   4.784851   4.678653   3.331686   4.676170
    20  C    5.961731   6.102457   5.541447   6.541107   7.817113
    21  O    6.971420   7.295909   6.751860   6.896776   8.128817
    22  H    7.872520   8.101646   7.504492   7.873882   9.081630
    23  C    4.268817   3.541616   2.567545   7.555951   8.891203
    24  O    3.560912   2.739325   1.774047   7.371048   8.658628
    25  H    4.302145   3.292694   2.439403   8.286369   9.540331
    26  C    4.404728   4.079117   3.236907   6.848334   8.220286
    27  O    5.628428   5.209445   4.416613   7.721398   9.048547
    28  C    6.332030   6.192284   5.444691   7.703420   9.037095
    29  O    7.577035   7.318238   6.581687   8.844162  10.116879
    30  H    8.292335   8.066851   7.284350   9.495568  10.788182
    31  H    6.589749   6.519815   5.707366   8.003489   9.382633
    32  H    6.203035   6.271209   5.804395   6.628323   7.805170
    33  H    4.769778   5.227988   4.688307   5.435082   6.832313
    34  H    3.551832   3.415292   3.038162   5.418217   6.659732
    35  H    4.804415   4.675900   3.812873   7.013015   8.429502
    36  H    4.533965   3.575632   2.717144   7.879002   9.147649
    37  H    5.219987   4.500341   3.506351   8.472503   9.836599
    38  H    4.373605   5.571720   6.347781   3.210935   3.045009
    39  H    4.730689   5.926946   6.261892   1.070000   2.012920
    40  H    4.458056   5.846364   6.221349   1.070000   2.012920
    41  H    3.078952   4.064028   4.637319   2.105051   2.894935
    42  H    2.731936   4.103610   4.689094   2.837945   3.585348
    43  H    2.105538   2.617437   3.541972   4.100319   4.721920
    44  H    1.070000   2.054410   2.316482   4.561514   5.704138
    45  H    2.170952   2.536600   2.751371   3.953800   5.093259
                   11         12         13         14         15
    11  H    0.000000
    12  C    3.379082   0.000000
    13  O    4.345291   1.435054   0.000000
    14  C    5.591507   2.360151   1.434644   0.000000
    15  O    6.530764   3.544340   2.232131   1.435026   0.000000
    16  C    7.176584   4.427828   3.192959   2.362109   1.434997
    17  C    6.821761   4.678141   3.413733   3.202915   2.340832
    18  O    5.543814   3.895113   2.875871   3.170944   2.882084
    19  H    4.886677   3.009806   1.933389   2.511605   2.441560
    20  C    7.932261   6.055931   4.876852   4.594128   3.732666
    21  O    8.084906   6.701926   5.539280   5.571842   4.695214
    22  H    9.004575   7.682775   6.524810   6.490515   5.570648
    23  C    9.457189   6.339724   5.174980   3.984937   2.998776
    24  O    9.331923   6.055220   5.012929   3.795774   3.043336
    25  H   10.247007   6.929555   5.956557   4.706564   4.038645
    26  C    8.655923   5.830505   4.552376   3.606020   2.430035
    27  O    9.397210   6.792567   5.578070   4.683250   3.663718
    28  C    9.243520   7.024981   5.753216   5.182840   4.084929
    29  O   10.268943   8.201187   7.009019   6.409806   5.423107
    30  H   10.900817   8.916774   7.672728   7.142319   6.058172
    31  H    9.580287   7.372962   6.014161   5.532125   4.266343
    32  H    7.903621   6.138843   5.128842   4.794176   4.196460
    33  H    7.033983   4.954931   3.582631   3.544623   2.439973
    34  H    7.112165   4.358581   3.375650   2.388680   2.080575
    35  H    8.814771   6.125775   4.745109   4.029533   2.651795
    36  H    9.734014   6.597302   5.567574   4.259426   3.546028
    37  H   10.375175   7.307087   6.082396   4.972119   3.860514
    38  H    3.979609   3.026160   4.180012   4.868770   6.040176
    39  H    2.107297   2.086857   2.540391   3.794337   4.573760
    40  H    2.391063   2.086857   2.569011   3.959720   4.682646
    41  H    3.618005   1.070000   2.032537   2.491021   3.808838
    42  H    4.450605   2.105366   2.606827   3.237783   4.177613
    43  H    5.640423   2.694148   3.252313   2.763372   4.106281
    44  H    6.494263   3.282877   2.678178   2.129771   2.505183
    45  H    5.713594   2.658480   2.092181   1.070000   2.092135
                   16         17         18         19         20
    16  C    0.000000
    17  C    1.519859   0.000000
    18  O    2.495886   1.435429   0.000000
    19  H    2.586105   1.951425   1.000188   0.000000
    20  C    2.558107   1.520676   2.401147   3.247629   0.000000
    21  O    3.768310   2.400605   2.839470   3.705777   1.435018
    22  H    4.543170   3.297290   3.805087   4.696298   2.052550
    23  C    2.609859   3.857139   5.073032   5.094637   4.366766
    24  O    3.297369   4.648073   5.675914   5.444768   5.476616
    25  H    4.224324   5.583381   6.646804   6.437614   6.300957
    26  C    1.519488   2.439451   3.765991   3.970919   2.862955
    27  O    2.390625   2.830699   4.139247   4.640983   2.454322
    28  C    2.843551   2.463488   3.724711   4.408663   1.519971
    29  O    4.085481   3.697731   4.762334   5.571175   2.387957
    30  H    4.802690   4.294633   5.370877   6.178557   2.974432
    31  H    3.277917   2.822891   4.136231   4.715524   2.160065
    32  H    2.921764   2.136978   2.607999   3.527664   1.070000
    33  H    2.082297   1.070000   2.012342   2.255397   2.086440
    34  H    1.070000   2.154161   2.754471   2.903608   2.911530
    35  H    2.081776   2.501931   3.886008   4.061407   2.937809
    36  H    2.950607   4.280165   5.409566   5.500141   4.633951
    37  H    3.440869   4.465197   5.793280   5.880762   4.764096
    38  H    7.181824   7.590445   6.871144   5.932438   9.028024
    39  H    5.110782   4.717558   3.469452   2.785733   5.866533
    40  H    5.621145   5.395403   4.414996   3.509625   6.743306
    41  H    4.420251   4.753552   3.936620   3.230569   5.995330
    42  H    5.459099   5.924781   5.456219   4.477003   7.425416
    43  H    4.912898   5.862462   5.569015   4.870252   7.137945
    44  H    3.845730   4.799592   4.988889   4.206049   6.233347
    45  H    2.386197   3.271389   3.155201   2.727567   4.454403
                   21         22         23         24         25
    21  O    0.000000
    22  H    1.000009   0.000000
    23  C    5.574295   6.075544   0.000000
    24  O    6.632259   7.241350   1.434916   0.000000
    25  H    7.474358   8.018114   1.990541   1.000565   0.000000
    26  C    4.061525   4.604163   1.520148   2.681217   3.449347
    27  O    3.697074   3.977699   2.456489   3.845253   4.426548
    28  C    2.423720   2.589048   3.624973   4.926911   5.599053
    29  O    2.983052   2.679185   4.625706   6.023498   6.572173
    30  H    3.186730   2.652119   5.186135   6.571246   7.084359
    31  H    2.597924   2.715973   3.754840   4.963141   5.615524
    32  H    2.061938   2.483635   4.795870   5.929594   6.722190
    33  H    2.494471   3.382319   3.989379   4.663567   5.603259
    34  H    4.239212   4.963165   2.977161   3.653804   4.492240
    35  H    3.830916   4.360222   2.080121   3.026991   3.790481
    36  H    5.963073   6.412714   1.070000   1.991462   2.269798
    37  H    5.847827   6.221180   1.070000   1.991462   2.181647
    38  H    9.632431  10.626295   8.584620   7.880452   8.576234
    39  H    6.119017   7.069452   7.479162   7.498696   8.451524
    40  H    6.977662   7.963992   7.670582   7.415286   8.336877
    41  H    6.756192   7.697612   6.371573   6.195673   7.036601
    42  H    8.057258   9.047556   6.745717   6.044069   6.800339
    43  H    8.174032   9.078610   5.908102   5.305991   5.910074
    44  H    7.128704   8.033275   4.352672   3.475740   4.205912
    45  H    5.554031   6.422773   4.123922   4.144645   4.993727
                   26         27         28         29         30
    26  C    0.000000
    27  O    1.435283   0.000000
    28  C    2.284384   1.434917   0.000000
    29  O    3.490307   2.217951   1.435546   0.000000
    30  H    4.092799   2.924866   1.975131   0.960000   0.000000
    31  H    2.519466   2.082896   1.070000   2.081642   2.157180
    32  H    3.390518   2.760094   2.136474   2.508827   3.260326
    33  H    2.643294   3.253565   2.724506   4.071139   4.474329
    34  H    2.155734   2.636339   3.290858   4.279372   5.122511
    35  H    1.070000   2.012551   2.289289   3.621570   4.007454
    36  H    2.064715   2.523907   3.903096   4.666966   5.332435
    37  H    2.064715   2.682062   3.734636   4.611614   5.006433
    38  H    8.420815   9.545008   9.897804  11.132525  11.833312
    39  H    6.587991   7.304932   7.145150   8.202822   8.839346
    40  H    6.971871   7.942961   7.849810   9.071012   9.646394
    41  H    5.863397   6.673742   6.988043   8.045381   8.831264
    42  H    6.582790   7.805277   8.151031   9.464351  10.108469
    43  H    5.998912   6.984087   7.718012   8.804497   9.624867
    44  H    4.547193   5.897656   6.518774   7.849184   8.475694
    45  H    3.697156   4.516697   5.098737   6.166526   6.986091
                   31         32         33         34         35
    31  H    0.000000
    32  H    3.025896   0.000000
    33  H    2.659406   2.975421   0.000000
    34  H    3.969059   2.878760   2.987927   0.000000
    35  H    2.049710   3.736133   2.260365   2.987254   0.000000
    36  H    4.269230   4.835947   4.640507   2.935071   2.907594
    37  H    3.651178   5.289600   4.442386   3.912483   2.237979
    38  H   10.147760   9.155811   7.703378   7.135213   8.657602
    39  H    7.490527   5.894452   4.973068   5.108194   6.749365
    40  H    8.008623   6.988994   5.364795   5.828586   6.981338
    41  H    7.481327   5.895447   5.244756   4.095551   6.323837
    42  H    8.294509   7.714738   5.905209   5.616956   6.716284
    43  H    8.177186   7.097425   6.298771   4.527520   6.586504
    44  H    6.603689   6.638886   4.749536   4.144212   4.724868
    45  H    5.641737   4.416089   3.900184   1.934305   4.341827
                   36         37         38         39         40
    36  H    0.000000
    37  H    1.727805   0.000000
    38  H    8.856342   9.516352   0.000000
    39  H    7.781462   8.373918   4.264494   0.000000
    40  H    8.126490   8.514237   3.290812   1.718185   0.000000
    41  H    6.458688   7.392998   3.522732   2.377234   2.958775
    42  H    7.159376   7.616419   2.080404   3.754246   2.653921
    43  H    5.867143   6.936062   3.553953   4.670202   4.643221
    44  H    4.831816   5.171302   4.501915   5.070848   4.481800
    45  H    4.142041   5.167102   5.274617   3.928878   4.477827
                   41         42         43         44         45
    41  H    0.000000
    42  H    2.970639   0.000000
    43  H    2.410662   2.976091   0.000000
    44  H    3.804497   2.606458   2.988141   0.000000
    45  H    2.331385   3.953161   2.697550   3.031017   0.000000
 Stoichiometry    C12H22O11
 Framework group  C1[X(C12H22O11)]
 Deg. of freedom   129
 Full point group                 C1      NOp   1
 Largest Abelian subgroup         C1      NOp   1
 Largest concise Abelian subgroup C1      NOp   1
                         Standard orientation:                         
 ---------------------------------------------------------------------
 Center     Atomic      Atomic             Coordinates (Angstroms)
 Number     Number       Type             X           Y           Z
 ---------------------------------------------------------------------
      1          8           0       -5.042345   -0.282097    0.317158
      2          6           0       -3.720425    0.011136   -0.155268
      3          6           0       -3.160482    1.320027    0.378670
      4          8           0       -4.103230    2.350137    0.048305
      5          1           0       -5.057959    2.071805   -0.057983
      6          6           0       -1.741637    1.548962   -0.115189
      7          8           0       -1.080515    2.626253    0.563189
      8          1           0       -0.156902    2.724008    0.192858
      9          6           0       -3.153704   -2.493089   -0.235980
     10          8           0       -4.354068   -3.141007    0.208867
     11          1           0       -4.208527   -4.126800    0.117954
     12          6           0       -2.724807   -1.091277    0.166660
     13          8           0       -1.456380   -0.811355   -0.443353
     14          6           0       -0.852201    0.345201    0.152924
     15          8           0        0.342183    0.497678   -0.627780
     16          6           0        1.506246    0.214029    0.161979
     17          6           0        1.932556   -1.181083   -0.264508
     18          8           0        0.999057   -2.226935    0.044087
     19          1           0        0.126255   -1.916375   -0.332934
     20          6           0        3.309478   -1.599262    0.227087
     21          8           0        3.732452   -2.748798   -0.520533
     22          1           0        4.704208   -2.960678   -0.416528
     23          6           0        2.382604    2.648733   -0.177991
     24          8           0        1.253215    3.401410   -0.643764
     25          1           0        1.470643    4.374976   -0.566146
     26          6           0        2.644193    1.151514   -0.205502
     27          8           0        3.791602    0.782156    0.573642
     28          6           0        4.268080   -0.442350   -0.003019
     29          8           0        5.442770   -0.683376    0.786159
     30          1           0        6.188695   -0.852997    0.206139
     31          1           0        4.508358   -0.324259   -1.038983
     32          1           0        3.267944   -1.836935    1.269530
     33          1           0        1.997646   -1.150610   -1.332091
     34          1           0        1.288395    0.252315    1.208867
     35          1           0        2.891626    0.922480   -1.220993
     36          1           0        2.471517    2.914894    0.854555
     37          1           0        3.216814    3.073604   -0.696140
     38          1           0       -5.620451   -0.446849   -0.431340
     39          1           0       -2.348075   -3.140061    0.042027
     40          1           0       -3.196259   -2.493608   -1.305134
     41          1           0       -2.580123   -1.092224    1.226832
     42          1           0       -3.773537    0.095390   -1.220622
     43          1           0       -3.122284    1.246484    1.445456
     44          1           0       -1.759970    1.749536   -1.166062
     45          1           0       -0.645346    0.208122    1.193751
 ---------------------------------------------------------------------
 Rotational constants (GHZ):      0.4072147      0.1471568      0.1113500
 Standard basis: 6-31+G(2d,p) (6D, 7F)
 There are   685 symmetry adapted basis functions of A   symmetry.
 Integral buffers will be    131072 words long.
 Raffenetti 2 integral format.
 Two-electron integral symmetry is turned on.
   685 basis functions,  1028 primitive gaussians,   685 cartesian basis functions
    91 alpha electrons       91 beta electrons
       nuclear repulsion energy      2292.1640701953 Hartrees.
 NAtoms=   45 NActive=   45 NUniq=   45 SFac= 1.00D+00 NAtFMM=   50 NAOKFM=F Big=F
 One-electron integrals computed using PRISM.
 NBasis=   685 RedAO= T  NBF=   685
 NBsUse=   685 1.00D-06 NBFU=   685
 Harris functional with IExCor=  402 diagonalized for initial guess.
 ExpMin= 4.38D-02 ExpMax= 5.48D+03 ExpMxC= 8.25D+02 IAcc=2 IRadAn=         0 AccDes= 0.00D+00
 HarFok:  IExCor=  402 AccDes= 0.00D+00 IRadAn=         0 IDoV= 1
 ScaDFX=  1.000000  1.000000  1.000000  1.000000
 FoFCou: FMM=F IPFlag=           0 FMFlag=      100000 FMFlg1=           0
         NFxFlg=           0 DoJE=T BraDBF=F KetDBF=T FulRan=T
         Omega=  0.000000  0.000000  1.000000  0.000000  0.000000 ICntrl=     500 IOpCl=  0
         NMat0=    1 NMatS0=    1 NMatT0=    0 NMatD0=    1 NMtDS0=    0 NMtDT0=    0
         I1Cent=           4 NGrid=           0.
 Petite list used in FoFCou.
 Initial guess orbital symmetries:
       Occupied  (A) (A) (A) (A) (A) (A) (A) (A) (A) (A) (A) (A)
                 (A) (A) (A) (A) (A) (A) (A) (A) (A) (A) (A) (A)
                 (A) (A) (A) (A) (A) (A) (A) (A) (A) (A) (A) (A)
                 (A) (A) (A) (A) (A) (A) (A) (A) (A) (A) (A) (A)
                 (A) (A) (A) (A) (A) (A) (A) (A) (A) (A) (A) (A)
                 (A) (A) (A) (A) (A) (A) (A) (A) (A) (A) (A) (A)
                 (A) (A) (A) (A) (A) (A) (A) (A) (A) (A) (A) (A)
                 (A) (A) (A) (A) (A) (A) (A)
       Virtual   (A) (A) (A) (A) (A) (A) (A) (A) (A) (A) (A) (A)
                 (A) (A) (A) (A) (A) (A) (A) (A) (A) (A) (A) (A)
                 (A) (A) (A) (A) (A) (A) (A) (A) (A) (A) (A) (A)
                 (A) (A) (A) (A) (A) (A) (A) (A) (A) (A) (A) (A)
                 (A) (A) (A) (A) (A) (A) (A) (A) (A) (A) (A) (A)
                 (A) (A) (A) (A) (A) (A) (A) (A) (A) (A) (A) (A)
                 (A) (A) (A) (A) (A) (A) (A) (A) (A) (A) (A) (A)
                 (A) (A) (A) (A) (A) (A) (A) (A) (A) (A) (A) (A)
                 (A) (A) (A) (A) (A) (A) (A) (A) (A) (A) (A) (A)
                 (A) (A) (A) (A) (A) (A) (A) (A) (A) (A) (A) (A)
                 (A) (A) (A) (A) (A) (A) (A) (A) (A) (A) (A) (A)
                 (A) (A) (A) (A) (A) (A) (A) (A) (A) (A) (A) (A)
                 (A) (A) (A) (A) (A) (A) (A) (A) (A) (A) (A) (A)
                 (A) (A) (A) (A) (A) (A) (A) (A) (A) (A) (A) (A)
                 (A) (A) (A) (A) (A) (A) (A) (A) (A) (A) (A) (A)
                 (A) (A) (A) (A) (A) (A) (A) (A) (A) (A) (A) (A)
                 (A) (A) (A) (A) (A) (A) (A) (A) (A) (A) (A) (A)
                 (A) (A) (A) (A) (A) (A) (A) (A) (A) (A) (A) (A)
                 (A) (A) (A) (A) (A) (A) (A) (A) (A) (A) (A) (A)
                 (A) (A) (A) (A) (A) (A) (A) (A) (A) (A) (A) (A)
                 (A) (A) (A) (A) (A) (A) (A) (A) (A) (A) (A) (A)
                 (A) (A) (A) (A) (A) (A) (A) (A) (A) (A) (A) (A)
                 (A) (A) (A) (A) (A) (A) (A) (A) (A) (A) (A) (A)
                 (A) (A) (A) (A) (A) (A) (A) (A) (A) (A) (A) (A)
                 (A) (A) (A) (A) (A) (A) (A) (A) (A) (A) (A) (A)
                 (A) (A) (A) (A) (A) (A) (A) (A) (A) (A) (A) (A)
                 (A) (A) (A) (A) (A) (A) (A) (A) (A) (A) (A) (A)
                 (A) (A) (A) (A) (A) (A) (A) (A) (A) (A) (A) (A)
                 (A) (A) (A) (A) (A) (A) (A) (A) (A) (A) (A) (A)
                 (A) (A) (A) (A) (A) (A) (A) (A) (A) (A) (A) (A)
                 (A) (A) (A) (A) (A) (A) (A) (A) (A) (A) (A) (A)
                 (A) (A) (A) (A) (A) (A) (A) (A) (A) (A) (A) (A)
                 (A) (A) (A) (A) (A) (A) (A) (A) (A) (A) (A) (A)
                 (A) (A) (A) (A) (A) (A) (A) (A) (A) (A) (A) (A)
                 (A) (A) (A) (A) (A) (A) (A) (A) (A) (A) (A) (A)
                 (A) (A) (A) (A) (A) (A) (A) (A) (A) (A) (A) (A)
                 (A) (A) (A) (A) (A) (A) (A) (A) (A) (A) (A) (A)
                 (A) (A) (A) (A) (A) (A) (A) (A) (A) (A) (A) (A)
                 (A) (A) (A) (A) (A) (A) (A) (A) (A) (A) (A) (A)
                 (A) (A) (A) (A) (A) (A) (A) (A) (A) (A) (A) (A)
                 (A) (A) (A) (A) (A) (A) (A) (A) (A) (A) (A) (A)
                 (A) (A) (A) (A) (A) (A) (A) (A) (A) (A) (A) (A)
                 (A) (A) (A) (A) (A) (A) (A) (A) (A) (A) (A) (A)
                 (A) (A) (A) (A) (A) (A) (A) (A) (A) (A) (A) (A)
                 (A) (A) (A) (A) (A) (A) (A) (A) (A) (A) (A) (A)
                 (A) (A) (A) (A) (A) (A) (A) (A) (A) (A) (A) (A)
                 (A) (A) (A) (A) (A) (A) (A) (A) (A) (A) (A) (A)
                 (A) (A) (A) (A) (A) (A) (A) (A) (A) (A) (A) (A)
                 (A) (A) (A) (A) (A) (A) (A) (A) (A) (A) (A) (A)
                 (A) (A) (A) (A) (A) (A)
 The electronic state of the initial guess is 1-A.
 Requested convergence on RMS density matrix=1.00D-08 within 128 cycles.
 Requested convergence on MAX density matrix=1.00D-06.
 Requested convergence on             energy=1.00D-06.
 No special actions if energy rises.
 SCF Done:  E(RB3LYP) =  -1297.96563226     A.U. after   13 cycles
             Convg  =    0.6622D-08             -V/T =  2.0064
 Range of M.O.s used for correlation:     1   685
 NBasis=   685 NAE=    91 NBE=    91 NFC=     0 NFV=     0
 NROrb=    685 NOA=    91 NOB=    91 NVA=   594 NVB=   594

 **** Warning!!: The largest alpha MO coefficient is  0.68037714D+02

          Differentiating once with respect to electric field.
                with respect to dipole field.
          Electric field/nuclear overlap derivatives assumed to be zero.
          There are     3 degrees of freedom in the 1st order CPHF.  IDoFFX=0.
      3 vectors produced by pass  0 Test12= 1.80D-12 3.33D-08 XBig12= 1.22D+02 1.02D+00.
 AX will form     3 AO Fock derivatives at one time.
      3 vectors produced by pass  1 Test12= 1.80D-12 3.33D-08 XBig12= 2.74D+01 3.85D-01.
      3 vectors produced by pass  2 Test12= 1.80D-12 3.33D-08 XBig12= 1.17D+01 2.04D-01.
      3 vectors produced by pass  3 Test12= 1.80D-12 3.33D-08 XBig12= 1.14D+00 1.10D-01.
      3 vectors produced by pass  4 Test12= 1.80D-12 3.33D-08 XBig12= 3.34D-01 5.26D-02.
      3 vectors produced by pass  5 Test12= 1.80D-12 3.33D-08 XBig12= 6.42D-02 2.64D-02.
      3 vectors produced by pass  6 Test12= 1.80D-12 3.33D-08 XBig12= 2.23D-02 2.14D-02.
      3 vectors produced by pass  7 Test12= 1.80D-12 3.33D-08 XBig12= 2.98D-03 9.39D-03.
      3 vectors produced by pass  8 Test12= 1.80D-12 3.33D-08 XBig12= 5.72D-04 3.13D-03.
      3 vectors produced by pass  9 Test12= 1.80D-12 3.33D-08 XBig12= 1.77D-04 1.53D-03.
      3 vectors produced by pass 10 Test12= 1.80D-12 3.33D-08 XBig12= 4.21D-05 5.68D-04.
      3 vectors produced by pass 11 Test12= 1.80D-12 3.33D-08 XBig12= 1.21D-05 4.05D-04.
      3 vectors produced by pass 12 Test12= 1.80D-12 3.33D-08 XBig12= 1.36D-06 1.09D-04.
      3 vectors produced by pass 13 Test12= 1.80D-12 3.33D-08 XBig12= 5.21D-07 5.85D-05.
      3 vectors produced by pass 14 Test12= 1.80D-12 3.33D-08 XBig12= 7.14D-08 2.21D-05.
      3 vectors produced by pass 15 Test12= 1.80D-12 3.33D-08 XBig12= 1.70D-08 1.13D-05.
      3 vectors produced by pass 16 Test12= 1.80D-12 3.33D-08 XBig12= 2.26D-09 5.01D-06.
      3 vectors produced by pass 17 Test12= 1.80D-12 3.33D-08 XBig12= 1.52D-10 1.35D-06.
      3 vectors produced by pass 18 Test12= 1.80D-12 3.33D-08 XBig12= 2.36D-11 4.28D-07.
      3 vectors produced by pass 19 Test12= 1.80D-12 3.33D-08 XBig12= 1.89D-11 3.68D-07.
      3 vectors produced by pass 20 Test12= 1.80D-12 3.33D-08 XBig12= 1.01D-11 2.38D-07.
      3 vectors produced by pass 21 Test12= 1.80D-12 3.33D-08 XBig12= 8.80D-12 1.91D-07.
      1 vectors produced by pass 22 Test12= 1.80D-12 3.33D-08 XBig12= 1.32D-12 9.22D-08.
 Inverted reduced A of dimension    67 with in-core refinement.
 End of Minotr Frequency-dependent properties file   721 does not exist.
 End of Minotr Frequency-dependent properties file   722 does not exist.
 Symmetrizing basis deriv contribution to polar:
 IMax=3 JMax=2 DiffMx= 0.00D+00
 G2DrvN: will do    16 centers at a time, making    3 passes doing MaxLOS=2.
 Calling FoFCou, ICntrl=  3107 FMM=F I1Cent=   0 AccDes= 0.00D+00.
 Calling FoFCou, ICntrl=  3107 FMM=F I1Cent=   0 AccDes= 0.00D+00.
 Calling FoFCou, ICntrl=  3107 FMM=F I1Cent=   0 AccDes= 0.00D+00.
 FoFDir/FoFCou used for L=0 through L=2.
 End of G2Drv Frequency-dependent properties file   721 does not exist.
 End of G2Drv Frequency-dependent properties file   722 does not exist.
          IDoAtm=111111111111111111111111111111111111111111111
          Differentiating once with respect to electric field.
                with respect to dipole field.
          Differentiating once with respect to nuclear coordinates.
          There are   138 degrees of freedom in the 1st order CPHF.  IDoFFX=5.
 Will reuse    3 saved solutions.
    135 vectors produced by pass  0 Test12= 5.41D-14 1.00D-09 XBig12= 1.71D-01 9.42D-02.
 AX will form    45 AO Fock derivatives at one time.
    135 vectors produced by pass  1 Test12= 5.41D-14 1.00D-09 XBig12= 1.72D-02 1.05D-02.
    132 vectors produced by pass  2 Test12= 5.41D-14 1.00D-09 XBig12= 1.13D-04 1.35D-03.
    132 vectors produced by pass  3 Test12= 5.41D-14 1.00D-09 XBig12= 4.69D-07 6.05D-05.
    132 vectors produced by pass  4 Test12= 5.41D-14 1.00D-09 XBig12= 1.01D-09 2.20D-06.
    132 vectors produced by pass  5 Test12= 5.41D-14 1.00D-09 XBig12= 3.56D-12 1.20D-07.
     82 vectors produced by pass  6 Test12= 5.41D-14 1.00D-09 XBig12= 2.02D-13 2.78D-08.
 Inverted reduced A of dimension   880 with in-core refinement.
 Isotropic polarizability for W=    0.000000      191.15 Bohr**3.
 End of Minotr Frequency-dependent properties file   721 does not exist.
 End of Minotr Frequency-dependent properties file   722 does not exist.

 **********************************************************************

            Population analysis using the SCF density.

 **********************************************************************

 Orbital symmetries:
       Occupied  (A) (A) (A) (A) (A) (A) (A) (A) (A) (A) (A) (A)
                 (A) (A) (A) (A) (A) (A) (A) (A) (A) (A) (A) (A)
                 (A) (A) (A) (A) (A) (A) (A) (A) (A) (A) (A) (A)
                 (A) (A) (A) (A) (A) (A) (A) (A) (A) (A) (A) (A)
                 (A) (A) (A) (A) (A) (A) (A) (A) (A) (A) (A) (A)
                 (A) (A) (A) (A) (A) (A) (A) (A) (A) (A) (A) (A)
                 (A) (A) (A) (A) (A) (A) (A) (A) (A) (A) (A) (A)
                 (A) (A) (A) (A) (A) (A) (A)
       Virtual   (A) (A) (A) (A) (A) (A) (A) (A) (A) (A) (A) (A)
                 (A) (A) (A) (A) (A) (A) (A) (A) (A) (A) (A) (A)
                 (A) (A) (A) (A) (A) (A) (A) (A) (A) (A) (A) (A)
                 (A) (A) (A) (A) (A) (A) (A) (A) (A) (A) (A) (A)
                 (A) (A) (A) (A) (A) (A) (A) (A) (A) (A) (A) (A)
                 (A) (A) (A) (A) (A) (A) (A) (A) (A) (A) (A) (A)
                 (A) (A) (A) (A) (A) (A) (A) (A) (A) (A) (A) (A)
                 (A) (A) (A) (A) (A) (A) (A) (A) (A) (A) (A) (A)
                 (A) (A) (A) (A) (A) (A) (A) (A) (A) (A) (A) (A)
                 (A) (A) (A) (A) (A) (A) (A) (A) (A) (A) (A) (A)
                 (A) (A) (A) (A) (A) (A) (A) (A) (A) (A) (A) (A)
                 (A) (A) (A) (A) (A) (A) (A) (A) (A) (A) (A) (A)
                 (A) (A) (A) (A) (A) (A) (A) (A) (A) (A) (A) (A)
                 (A) (A) (A) (A) (A) (A) (A) (A) (A) (A) (A) (A)
                 (A) (A) (A) (A) (A) (A) (A) (A) (A) (A) (A) (A)
                 (A) (A) (A) (A) (A) (A) (A) (A) (A) (A) (A) (A)
                 (A) (A) (A) (A) (A) (A) (A) (A) (A) (A) (A) (A)
                 (A) (A) (A) (A) (A) (A) (A) (A) (A) (A) (A) (A)
                 (A) (A) (A) (A) (A) (A) (A) (A) (A) (A) (A) (A)
                 (A) (A) (A) (A) (A) (A) (A) (A) (A) (A) (A) (A)
                 (A) (A) (A) (A) (A) (A) (A) (A) (A) (A) (A) (A)
                 (A) (A) (A) (A) (A) (A) (A) (A) (A) (A) (A) (A)
                 (A) (A) (A) (A) (A) (A) (A) (A) (A) (A) (A) (A)
                 (A) (A) (A) (A) (A) (A) (A) (A) (A) (A) (A) (A)
                 (A) (A) (A) (A) (A) (A) (A) (A) (A) (A) (A) (A)
                 (A) (A) (A) (A) (A) (A) (A) (A) (A) (A) (A) (A)
                 (A) (A) (A) (A) (A) (A) (A) (A) (A) (A) (A) (A)
                 (A) (A) (A) (A) (A) (A) (A) (A) (A) (A) (A) (A)
                 (A) (A) (A) (A) (A) (A) (A) (A) (A) (A) (A) (A)
                 (A) (A) (A) (A) (A) (A) (A) (A) (A) (A) (A) (A)
                 (A) (A) (A) (A) (A) (A) (A) (A) (A) (A) (A) (A)
                 (A) (A) (A) (A) (A) (A) (A) (A) (A) (A) (A) (A)
                 (A) (A) (A) (A) (A) (A) (A) (A) (A) (A) (A) (A)
                 (A) (A) (A) (A) (A) (A) (A) (A) (A) (A) (A) (A)
                 (A) (A) (A) (A) (A) (A) (A) (A) (A) (A) (A) (A)
                 (A) (A) (A) (A) (A) (A) (A) (A) (A) (A) (A) (A)
                 (A) (A) (A) (A) (A) (A) (A) (A) (A) (A) (A) (A)
                 (A) (A) (A) (A) (A) (A) (A) (A) (A) (A) (A) (A)
                 (A) (A) (A) (A) (A) (A) (A) (A) (A) (A) (A) (A)
                 (A) (A) (A) (A) (A) (A) (A) (A) (A) (A) (A) (A)
                 (A) (A) (A) (A) (A) (A) (A) (A) (A) (A) (A) (A)
                 (A) (A) (A) (A) (A) (A) (A) (A) (A) (A) (A) (A)
                 (A) (A) (A) (A) (A) (A) (A) (A) (A) (A) (A) (A)
                 (A) (A) (A) (A) (A) (A) (A) (A) (A) (A) (A) (A)
                 (A) (A) (A) (A) (A) (A) (A) (A) (A) (A) (A) (A)
                 (A) (A) (A) (A) (A) (A) (A) (A) (A) (A) (A) (A)
                 (A) (A) (A) (A) (A) (A) (A) (A) (A) (A) (A) (A)
                 (A) (A) (A) (A) (A) (A) (A) (A) (A) (A) (A) (A)
                 (A) (A) (A) (A) (A) (A) (A) (A) (A) (A) (A) (A)
                 (A) (A) (A) (A) (A) (A)
 The electronic state is 1-A.
 Alpha  occ. eigenvalues --  -19.18995 -19.18796 -19.18424 -19.18399 -19.17872
 Alpha  occ. eigenvalues --  -19.16842 -19.16399 -19.16175 -19.14446 -19.14290
 Alpha  occ. eigenvalues --  -19.13388 -10.30868 -10.30382 -10.26684 -10.25655
 Alpha  occ. eigenvalues --  -10.25501 -10.25385 -10.24852 -10.24773 -10.24316
 Alpha  occ. eigenvalues --  -10.24122 -10.23977 -10.23938  -1.10551  -1.09820
 Alpha  occ. eigenvalues --   -1.05657  -1.05207  -1.04227  -1.03747  -1.02864
 Alpha  occ. eigenvalues --   -1.02526  -1.01455  -1.00758  -0.99981  -0.82207
 Alpha  occ. eigenvalues --   -0.80290  -0.79296  -0.78102  -0.72304  -0.69976
 Alpha  occ. eigenvalues --   -0.67144  -0.65410  -0.63569  -0.62376  -0.61935
 Alpha  occ. eigenvalues --   -0.60551  -0.56616  -0.55693  -0.55313  -0.54660
 Alpha  occ. eigenvalues --   -0.53825  -0.53491  -0.53020  -0.52137  -0.51416
 Alpha  occ. eigenvalues --   -0.50708  -0.50050  -0.49235  -0.48744  -0.46997
 Alpha  occ. eigenvalues --   -0.46333  -0.45567  -0.44207  -0.43793  -0.43156
 Alpha  occ. eigenvalues --   -0.42627  -0.41981  -0.41251  -0.40353  -0.39710
 Alpha  occ. eigenvalues --   -0.38947  -0.38170  -0.37123  -0.36895  -0.35700
 Alpha  occ. eigenvalues --   -0.35519  -0.34995  -0.34504  -0.33744  -0.33174
 Alpha  occ. eigenvalues --   -0.32806  -0.31193  -0.30650  -0.30510  -0.30107
 Alpha  occ. eigenvalues --   -0.29096  -0.28843  -0.28431  -0.27467  -0.26864
 Alpha  occ. eigenvalues --   -0.26214
 Alpha virt. eigenvalues --   -0.02572  -0.02437  -0.01954  -0.00337   0.00235
 Alpha virt. eigenvalues --    0.01007   0.01997   0.02339   0.03397   0.03597
 Alpha virt. eigenvalues --    0.03648   0.04348   0.04894   0.05324   0.05685
 Alpha virt. eigenvalues --    0.06074   0.06544   0.07452   0.07698   0.07931
 Alpha virt. eigenvalues --    0.08391   0.08946   0.09194   0.09259   0.09950
 Alpha virt. eigenvalues --    0.10587   0.10782   0.11171   0.11732   0.11878
 Alpha virt. eigenvalues --    0.12476   0.12710   0.13052   0.13510   0.13689
 Alpha virt. eigenvalues --    0.13810   0.14273   0.14414   0.14891   0.15178
 Alpha virt. eigenvalues --    0.15428   0.16438   0.16860   0.16875   0.17272
 Alpha virt. eigenvalues --    0.17318   0.17581   0.17717   0.18094   0.18615
 Alpha virt. eigenvalues --    0.18883   0.19023   0.19087   0.19901   0.20040
 Alpha virt. eigenvalues --    0.20378   0.20967   0.21223   0.21473   0.21753
 Alpha virt. eigenvalues --    0.21957   0.22103   0.22559   0.22823   0.23203
 Alpha virt. eigenvalues --    0.23649   0.23746   0.24044   0.24332   0.24780
 Alpha virt. eigenvalues --    0.24958   0.25202   0.25533   0.25748   0.26068
 Alpha virt. eigenvalues --    0.26449   0.26874   0.26954   0.27167   0.27689
 Alpha virt. eigenvalues --    0.27761   0.27860   0.28055   0.28284   0.28679
 Alpha virt. eigenvalues --    0.28732   0.29051   0.30119   0.30375   0.30489
 Alpha virt. eigenvalues --    0.31065   0.31515   0.31884   0.31983   0.32427
 Alpha virt. eigenvalues --    0.32472   0.32966   0.33499   0.33777   0.33901
 Alpha virt. eigenvalues --    0.34129   0.34240   0.34975   0.35302   0.35535
 Alpha virt. eigenvalues --    0.36058   0.36623   0.36719   0.36999   0.37477
 Alpha virt. eigenvalues --    0.37623   0.38479   0.38782   0.39032   0.39784
 Alpha virt. eigenvalues --    0.39844   0.40289   0.40396   0.41034   0.41636
 Alpha virt. eigenvalues --    0.41810   0.42575   0.43133   0.43775   0.44109
 Alpha virt. eigenvalues --    0.44259   0.44652   0.45314   0.46217   0.46870
 Alpha virt. eigenvalues --    0.47156   0.48256   0.48751   0.49093   0.49695
 Alpha virt. eigenvalues --    0.49963   0.51436   0.53703   0.57652   0.58836
 Alpha virt. eigenvalues --    0.59385   0.60808   0.61568   0.62223   0.62406
 Alpha virt. eigenvalues --    0.63173   0.63961   0.64140   0.66554   0.66961
 Alpha virt. eigenvalues --    0.67658   0.68258   0.69059   0.70207   0.70721
 Alpha virt. eigenvalues --    0.71308   0.71945   0.72010   0.72627   0.73490
 Alpha virt. eigenvalues --    0.74124   0.74642   0.76390   0.76766   0.77444
 Alpha virt. eigenvalues --    0.78824   0.79526   0.80342   0.80882   0.81199
 Alpha virt. eigenvalues --    0.82268   0.83014   0.83820   0.84497   0.85565
 Alpha virt. eigenvalues --    0.86369   0.87294   0.87570   0.88573   0.89121
 Alpha virt. eigenvalues --    0.89656   0.90175   0.90866   0.91563   0.92313
 Alpha virt. eigenvalues --    0.92491   0.92972   0.93193   0.93533   0.93871
 Alpha virt. eigenvalues --    0.94622   0.95042   0.95548   0.96337   0.96692
 Alpha virt. eigenvalues --    0.97882   0.98084   0.98420   0.98595   0.99307
 Alpha virt. eigenvalues --    0.99964   1.00438   1.01958   1.02275   1.03502
 Alpha virt. eigenvalues --    1.04326   1.04677   1.05192   1.06022   1.06762
 Alpha virt. eigenvalues --    1.07314   1.07484   1.08220   1.08436   1.09342
 Alpha virt. eigenvalues --    1.09446   1.10368   1.10542   1.10935   1.11492
 Alpha virt. eigenvalues --    1.12187   1.12905   1.13037   1.13913   1.14234
 Alpha virt. eigenvalues --    1.14975   1.15630   1.16071   1.16418   1.16482
 Alpha virt. eigenvalues --    1.17454   1.17977   1.18437   1.19388   1.19766
 Alpha virt. eigenvalues --    1.20199   1.20543   1.20790   1.21343   1.22118
 Alpha virt. eigenvalues --    1.22585   1.23835   1.24915   1.25459   1.25792
 Alpha virt. eigenvalues --    1.26229   1.26601   1.27205   1.27517   1.28138
 Alpha virt. eigenvalues --    1.28484   1.28992   1.29395   1.30254   1.31499
 Alpha virt. eigenvalues --    1.32083   1.32654   1.33259   1.34008   1.34266
 Alpha virt. eigenvalues --    1.34613   1.35737   1.35863   1.36944   1.37416
 Alpha virt. eigenvalues --    1.38154   1.38996   1.39172   1.40178   1.40341
 Alpha virt. eigenvalues --    1.41743   1.42880   1.43010   1.43087   1.44897
 Alpha virt. eigenvalues --    1.45661   1.46692   1.46791   1.47346   1.48030
 Alpha virt. eigenvalues --    1.48417   1.49162   1.50269   1.50914   1.53568
 Alpha virt. eigenvalues --    1.53853   1.54602   1.55914   1.56749   1.57275
 Alpha virt. eigenvalues --    1.58129   1.59791   1.60296   1.60726   1.61940
 Alpha virt. eigenvalues --    1.62911   1.63438   1.63923   1.64192   1.65334
 Alpha virt. eigenvalues --    1.65667   1.67183   1.67747   1.68200   1.68823
 Alpha virt. eigenvalues --    1.70220   1.72256   1.73397   1.73606   1.73983
 Alpha virt. eigenvalues --    1.75070   1.76095   1.77500   1.78611   1.79468
 Alpha virt. eigenvalues --    1.80425   1.80814   1.82594   1.83057   1.83411
 Alpha virt. eigenvalues --    1.85515   1.86310   1.86364   1.88446   1.89325
 Alpha virt. eigenvalues --    1.90371   1.90757   1.91688   1.93607   1.94700
 Alpha virt. eigenvalues --    1.95182   1.96309   1.98071   1.99041   1.99431
 Alpha virt. eigenvalues --    1.99941   2.01062   2.02792   2.03266   2.03823
 Alpha virt. eigenvalues --    2.06585   2.07154   2.07964   2.08986   2.10397
 Alpha virt. eigenvalues --    2.10566   2.11672   2.15550   2.16314   2.17470
 Alpha virt. eigenvalues --    2.19234   2.21479   2.22748   2.23899   2.25993
 Alpha virt. eigenvalues --    2.27428   2.28088   2.28272   2.29172   2.32052
 Alpha virt. eigenvalues --    2.34171   2.34416   2.35012   2.36681   2.37747
 Alpha virt. eigenvalues --    2.38634   2.39564   2.42199   2.44588   2.51427
 Alpha virt. eigenvalues --    2.52505   2.53254   2.55838   2.57128   2.58254
 Alpha virt. eigenvalues --    2.61318   2.66065   2.66981   2.67978   2.68644
 Alpha virt. eigenvalues --    2.68933   2.69477   2.70568   2.72057   2.73827
 Alpha virt. eigenvalues --    2.74561   2.75922   2.77695   2.78144   2.79057
 Alpha virt. eigenvalues --    2.79816   2.82028   2.82561   2.83202   2.84081
 Alpha virt. eigenvalues --    2.86988   2.88873   2.89614   2.91265   2.91879
 Alpha virt. eigenvalues --    2.92840   2.93539   2.94519   2.95572   2.97065
 Alpha virt. eigenvalues --    2.97281   2.97715   3.00115   3.00399   3.01669
 Alpha virt. eigenvalues --    3.02264   3.02553   3.02941   3.04631   3.05015
 Alpha virt. eigenvalues --    3.05352   3.06791   3.07401   3.08305   3.09574
 Alpha virt. eigenvalues --    3.11018   3.11468   3.11946   3.14042   3.14878
 Alpha virt. eigenvalues --    3.15894   3.17369   3.21098   3.21731   3.23259
 Alpha virt. eigenvalues --    3.25437   3.29061   3.30786   3.76443   3.76934
 Alpha virt. eigenvalues --    3.90462   3.98247   4.07492   4.09661   4.10161
 Alpha virt. eigenvalues --    4.10700   4.14279   4.15004   4.15951   4.16952
 Alpha virt. eigenvalues --    4.17342   4.19378   4.20156   4.21106   4.21919
 Alpha virt. eigenvalues --    4.22876   4.23296   4.24066   4.25798   4.26529
 Alpha virt. eigenvalues --    4.26923   4.28614   4.28971   4.29615   4.30107
 Alpha virt. eigenvalues --    4.30478   4.30865   4.31326   4.32530   4.32750
 Alpha virt. eigenvalues --    4.33425   4.34533   4.34611   4.35132   4.35784
 Alpha virt. eigenvalues --    4.36175   4.37078   4.37537   4.38073   4.38682
 Alpha virt. eigenvalues --    4.39725   4.40471   4.40790   4.42056   4.43178
 Alpha virt. eigenvalues --    4.43941   4.44813   4.46101   4.48070   4.48542
 Alpha virt. eigenvalues --    4.49497   4.50591   4.52030   4.53835   4.55294
 Alpha virt. eigenvalues --    4.55565   4.56901   4.57248   4.58591   4.59757
 Alpha virt. eigenvalues --    4.60668   4.62020   4.62610   4.63294   4.64115
 Alpha virt. eigenvalues --    4.64470   4.65434   4.65550   4.65961   4.65984
 Alpha virt. eigenvalues --    4.67220   4.67764   4.68819   4.70431   4.71120
 Alpha virt. eigenvalues --    4.71505   4.72051   4.73221   4.73519   4.74654
 Alpha virt. eigenvalues --    4.75389   4.76713   4.76941   4.77570   4.78663
 Alpha virt. eigenvalues --    4.79439   4.79793   4.80079   4.80730   4.81633
 Alpha virt. eigenvalues --    4.82395   4.82693   4.83582   4.84503   4.85862
 Alpha virt. eigenvalues --    4.87895   4.88842   4.89805   4.90703   4.91393
 Alpha virt. eigenvalues --    4.93195   4.94403   4.95467   4.96381   4.97289
 Alpha virt. eigenvalues --    4.97870   5.00406   5.00783   5.03945   5.04802
 Alpha virt. eigenvalues --    5.06270   5.09698   5.12212   5.13425   5.15973
 Alpha virt. eigenvalues --    5.21703   5.26893   5.28352   5.31506   5.40499
 Alpha virt. eigenvalues --    5.45242   5.81869   6.21459   6.33202   6.65973
 Alpha virt. eigenvalues --    6.72293   6.76019   6.78858   6.80549   6.84434
 Alpha virt. eigenvalues --    6.86064   6.89701   6.97057   7.00395   7.05243
 Alpha virt. eigenvalues --    7.09951  11.86122  11.93092  11.94604  12.12788
 Alpha virt. eigenvalues --   12.27173  12.35979  12.67208  12.76417  12.84165
 Alpha virt. eigenvalues --   12.97778  13.13896  13.16399  13.22655  13.27885
 Alpha virt. eigenvalues --   13.30548  13.32349  13.40207  13.42400  13.47877
 Alpha virt. eigenvalues --   13.58189  13.66462  13.67933  13.92651
          Condensed to atoms (all electrons):
              1          2          3          4          5          6
     1  O    8.197099   0.247333  -0.089114  -0.020236   0.017412   0.049707
     2  C    0.247333   7.411320   0.016190   0.036401  -0.044201  -2.143402
     3  C   -0.089114   0.016190   6.473158   0.229361   0.021498  -0.426552
     4  O   -0.020236   0.036401   0.229361   8.217337   0.233668  -0.107789
     5  H    0.017412  -0.044201   0.021498   0.233668   0.426328  -0.014900
     6  C    0.049707  -2.143402  -0.426552  -0.107789  -0.014900  10.534700
     7  O   -0.000147   0.023017  -0.076792   0.011300  -0.000508   0.181360
     8  H    0.000010  -0.005520   0.009641  -0.000478   0.000009   0.037005
     9  C    0.005825  -0.463721  -0.261607   0.004651  -0.001875   0.515786
    10  O   -0.016195   0.022053   0.015554  -0.000107  -0.000018  -0.004393
    11  H    0.001792  -0.011987  -0.002138   0.000002   0.000000   0.000990
    12  C   -0.111120  -0.779829  -0.237642  -0.007445   0.013597   1.007609
    13  O    0.002453  -0.039613  -0.080341  -0.001818  -0.000032   0.010955
    14  C   -0.006944   1.174511   0.130442   0.001506   0.008071  -3.019131
    15  O   -0.000146  -0.005540   0.002652   0.000633  -0.000005   0.005118
    16  C    0.001694   0.192763   0.058890  -0.004224   0.000363  -0.426501
    17  C   -0.000492  -0.007133   0.019286   0.001174   0.000015  -0.213471
    18  O    0.000022   0.003894   0.000193  -0.000012   0.000000  -0.005517
    19  H   -0.000039  -0.001147   0.002885   0.000004   0.000000   0.000711
    20  C    0.000030   0.010362  -0.010337   0.000015   0.000000  -0.002400
    21  O    0.000000  -0.000058   0.000005   0.000000   0.000000   0.000787
    22  H    0.000000   0.000001   0.000000   0.000000   0.000000  -0.000050
    23  C    0.000011   0.002586  -0.007410  -0.000375  -0.000030  -0.054666
    24  O    0.000002   0.001704  -0.012296   0.000046  -0.000003  -0.001237
    25  H    0.000000   0.000052   0.001242   0.000001   0.000000   0.001568
    26  C   -0.000117  -0.025455  -0.000803   0.000040   0.000028   0.045971
    27  O    0.000000   0.000122  -0.000088   0.000001   0.000000   0.003430
    28  C    0.000004   0.001341  -0.001171   0.000009   0.000000   0.006670
    29  O    0.000000   0.000003   0.000023   0.000000   0.000000  -0.000251
    30  H    0.000000   0.000000   0.000000   0.000000   0.000000   0.000003
    31  H    0.000000   0.000010   0.000013   0.000000   0.000000   0.000212
    32  H    0.000000   0.000111   0.000026   0.000000   0.000000   0.001399
    33  H    0.000000  -0.000227   0.001058   0.000000   0.000000   0.008108
    34  H   -0.000002  -0.003730   0.005325   0.000011   0.000000  -0.000276
    35  H    0.000000  -0.000144   0.000426   0.000000   0.000000  -0.003349
    36  H    0.000000  -0.000020   0.000789   0.000000   0.000000  -0.005054
    37  H    0.000000   0.000022  -0.000176   0.000000   0.000000  -0.001291
    38  H    0.263679   0.034340  -0.017501   0.000609  -0.002275   0.000518
    39  H   -0.000273  -0.011144   0.002606   0.000012   0.000000  -0.002681
    40  H    0.002235  -0.017492  -0.005674  -0.000036   0.000000   0.015605
    41  H    0.005806   0.076953  -0.053508   0.000675   0.000005  -0.051487
    42  H   -0.017112   0.395824  -0.080784  -0.000323  -0.000183  -0.031195
    43  H   -0.003632   0.064000   0.362148  -0.029546   0.001010  -0.315144
    44  H   -0.000255   0.039487  -0.142508   0.005538  -0.000181   0.341269
    45  H    0.000113  -0.009664  -0.049104   0.000041  -0.000001   0.005735
              7          8          9         10         11         12
     1  O   -0.000147   0.000010   0.005825  -0.016195   0.001792  -0.111120
     2  C    0.023017  -0.005520  -0.463721   0.022053  -0.011987  -0.779829
     3  C   -0.076792   0.009641  -0.261607   0.015554  -0.002138  -0.237642
     4  O    0.011300  -0.000478   0.004651  -0.000107   0.000002  -0.007445
     5  H   -0.000508   0.000009  -0.001875  -0.000018   0.000000   0.013597
     6  C    0.181360   0.037005   0.515786  -0.004393   0.000990   1.007609
     7  O    8.243682   0.239498  -0.000089  -0.000002   0.000000   0.008649
     8  H    0.239498   0.354808  -0.000137   0.000000   0.000000  -0.003724
     9  C   -0.000089  -0.000137   8.087418   0.051084   0.005339  -1.364307
    10  O   -0.000002   0.000000   0.051084   8.254654   0.228202   0.051131
    11  H    0.000000   0.000000   0.005339   0.228202   0.443719   0.014130
    12  C    0.008649  -0.003724  -1.364307   0.051131   0.014130   9.267561
    13  O    0.000528  -0.000829  -0.033236  -0.001749  -0.000411   0.073087
    14  C   -0.035284  -0.075828  -1.112695   0.009651  -0.004937  -1.511735
    15  O   -0.004541   0.016128  -0.000872   0.000045   0.000001  -0.011993
    16  C    0.037590   0.044238  -0.268659  -0.000838  -0.000208  -0.443341
    17  C    0.000534   0.001661   0.027466  -0.000066  -0.000037  -0.119434
    18  O   -0.000157  -0.000079  -0.006320  -0.000122  -0.000004   0.010972
    19  H   -0.000076  -0.000005   0.001266   0.000012  -0.000001  -0.004521
    20  C    0.001660   0.000600  -0.010866  -0.000021  -0.000003  -0.005334
    21  O   -0.000001   0.000000   0.000244   0.000000   0.000000  -0.000165
    22  H    0.000000   0.000000  -0.000007   0.000000   0.000000   0.000016
    23  C    0.018790   0.010236  -0.004686   0.000002   0.000000   0.001730
    24  O   -0.053784   0.006874   0.000103   0.000000   0.000000   0.000525
    25  H    0.002596  -0.002421  -0.000009   0.000000   0.000000  -0.000200
    26  C   -0.013755  -0.036232   0.008672   0.000000  -0.000003   0.070875
    27  O   -0.000026  -0.000075   0.000056   0.000000   0.000000   0.000082
    28  C   -0.000321   0.000378  -0.000983   0.000000   0.000000  -0.008181
    29  O   -0.000005  -0.000001  -0.000012   0.000000   0.000000   0.000080
    30  H    0.000000   0.000000   0.000000   0.000000   0.000000  -0.000001
    31  H    0.000004   0.000000  -0.000011   0.000000   0.000000   0.000000
    32  H    0.000007   0.000000  -0.000187   0.000000   0.000000  -0.000107
    33  H    0.000000  -0.000004   0.000056   0.000000   0.000000  -0.000880
    34  H   -0.002791  -0.000374   0.000883   0.000001   0.000000   0.008678
    35  H   -0.000168   0.000029   0.000141   0.000000   0.000000   0.001298
    36  H    0.001189  -0.000041  -0.000005   0.000000   0.000000   0.000076
    37  H   -0.000752   0.000332   0.000001   0.000000   0.000000   0.000123
    38  H   -0.000010   0.000000   0.006968  -0.000098  -0.000034  -0.027377
    39  H   -0.000012   0.000000   0.410777  -0.022285  -0.013108  -0.042478
    40  H    0.000007   0.000000   0.656395  -0.062533  -0.000356  -0.283196
    41  H    0.000381   0.000003   0.020966  -0.001351  -0.000215   0.034852
    42  H    0.000991   0.000000  -0.054760  -0.001866  -0.000005  -0.086373
    43  H    0.009835  -0.000216   0.010707  -0.000212   0.000000   0.002750
    44  H   -0.024384  -0.003961   0.019885   0.000014   0.000000   0.072977
    45  H   -0.001932  -0.000007   0.025127   0.000064   0.000000   0.089630
             13         14         15         16         17         18
     1  O    0.002453  -0.006944  -0.000146   0.001694  -0.000492   0.000022
     2  C   -0.039613   1.174511  -0.005540   0.192763  -0.007133   0.003894
     3  C   -0.080341   0.130442   0.002652   0.058890   0.019286   0.000193
     4  O   -0.001818   0.001506   0.000633  -0.004224   0.001174  -0.000012
     5  H   -0.000032   0.008071  -0.000005   0.000363   0.000015   0.000000
     6  C    0.010955  -3.019131   0.005118  -0.426501  -0.213471  -0.005517
     7  O    0.000528  -0.035284  -0.004541   0.037590   0.000534  -0.000157
     8  H   -0.000829  -0.075828   0.016128   0.044238   0.001661  -0.000079
     9  C   -0.033236  -1.112695  -0.000872  -0.268659   0.027466  -0.006320
    10  O   -0.001749   0.009651   0.000045  -0.000838  -0.000066  -0.000122
    11  H   -0.000411  -0.004937   0.000001  -0.000208  -0.000037  -0.000004
    12  C    0.073087  -1.511735  -0.011993  -0.443341  -0.119434   0.010972
    13  O    8.169159   0.250890  -0.013869  -0.021728   0.016390  -0.025277
    14  C    0.250890  10.784236   0.230341  -1.326909   0.732622   0.001259
    15  O   -0.013869   0.230341   8.036404   0.174051  -0.038711  -0.003431
    16  C   -0.021728  -1.326909   0.174051  11.831408  -1.545872  -0.059295
    17  C    0.016390   0.732622  -0.038711  -1.545872   7.992404   0.179736
    18  O   -0.025277   0.001259  -0.003431  -0.059295   0.179736   8.239434
    19  H    0.025856   0.009825   0.010920  -0.058280   0.036971   0.230714
    20  C   -0.006422  -0.505280   0.016940  -0.759745  -0.804547  -0.022439
    21  O    0.000042   0.004191  -0.000298   0.077400   0.030109   0.008313
    22  H    0.000002  -0.001220  -0.000027  -0.010122  -0.030667  -0.000337
    23  C    0.004876   0.042467  -0.047038  -0.168947  -0.164950   0.014649
    24  O   -0.000275   0.044979  -0.019422   0.005459  -0.003836   0.000039
    25  H    0.000001  -0.008396   0.001724  -0.011003  -0.001214  -0.000002
    26  C   -0.019292  -0.635953  -0.044332  -2.585450  -0.206683   0.047887
    27  O    0.000060   0.007000  -0.000191   0.067969  -0.067338  -0.002753
    28  C    0.001169  -0.037754   0.001663   1.023579  -0.223790  -0.017613
    29  O    0.000026   0.001129  -0.000032  -0.036563  -0.004905   0.000214
    30  H    0.000000   0.000052   0.000003  -0.001849   0.014262  -0.000029
    31  H    0.000032  -0.001671   0.000540   0.067643  -0.011458   0.000266
    32  H    0.000102  -0.017555  -0.000120   0.088085  -0.209639   0.008242
    33  H    0.000358   0.007906  -0.008732  -0.123487   0.358368  -0.026487
    34  H    0.001134   0.018863  -0.037091   0.044764   0.066904  -0.003767
    35  H   -0.000090   0.047707  -0.002906  -0.062992   0.016126   0.000104
    36  H    0.000100   0.001000   0.001845   0.015198   0.000888   0.000028
    37  H    0.000015   0.013245   0.000637   0.028499   0.004204   0.000026
    38  H   -0.000643  -0.002578   0.000000   0.000199  -0.000049   0.000000
    39  H    0.001693  -0.002274  -0.000029   0.004403   0.000017   0.000170
    40  H   -0.003621   0.002160  -0.000263  -0.006085   0.002188  -0.000187
    41  H   -0.034474   0.228776  -0.000719   0.010189   0.007483  -0.000538
    42  H    0.004492   0.128460  -0.000218  -0.002835   0.002177   0.000014
    43  H    0.004517   0.137933   0.000474  -0.008505   0.004336   0.000042
    44  H    0.009632  -0.018867  -0.011223  -0.035460   0.006811   0.000118
    45  H   -0.027557   0.237548  -0.034253  -0.018866   0.005459  -0.001816
             19         20         21         22         23         24
     1  O   -0.000039   0.000030   0.000000   0.000000   0.000011   0.000002
     2  C   -0.001147   0.010362  -0.000058   0.000001   0.002586   0.001704
     3  C    0.002885  -0.010337   0.000005   0.000000  -0.007410  -0.012296
     4  O    0.000004   0.000015   0.000000   0.000000  -0.000375   0.000046
     5  H    0.000000   0.000000   0.000000   0.000000  -0.000030  -0.000003
     6  C    0.000711  -0.002400   0.000787  -0.000050  -0.054666  -0.001237
     7  O   -0.000076   0.001660  -0.000001   0.000000   0.018790  -0.053784
     8  H   -0.000005   0.000600   0.000000   0.000000   0.010236   0.006874
     9  C    0.001266  -0.010866   0.000244  -0.000007  -0.004686   0.000103
    10  O    0.000012  -0.000021   0.000000   0.000000   0.000002   0.000000
    11  H   -0.000001  -0.000003   0.000000   0.000000   0.000000   0.000000
    12  C   -0.004521  -0.005334  -0.000165   0.000016   0.001730   0.000525
    13  O    0.025856  -0.006422   0.000042   0.000002   0.004876  -0.000275
    14  C    0.009825  -0.505280   0.004191  -0.001220   0.042467   0.044979
    15  O    0.010920   0.016940  -0.000298  -0.000027  -0.047038  -0.019422
    16  C   -0.058280  -0.759745   0.077400  -0.010122  -0.168947   0.005459
    17  C    0.036971  -0.804547   0.030109  -0.030667  -0.164950  -0.003836
    18  O    0.230714  -0.022439   0.008313  -0.000337   0.014649   0.000039
    19  H    0.380264   0.008199  -0.000097   0.000018  -0.003817   0.000009
    20  C    0.008199   7.221736  -0.017436   0.033856   0.072375  -0.002791
    21  O   -0.000097  -0.017436   8.247754   0.215957  -0.003652  -0.000004
    22  H    0.000018   0.033856   0.215957   0.449336  -0.000082   0.000000
    23  C   -0.003817   0.072375  -0.003652  -0.000082   7.019899   0.002186
    24  O    0.000009  -0.002791  -0.000004   0.000000   0.002186   8.321481
    25  H    0.000000   0.001059   0.000000   0.000000  -0.025619   0.257561
    26  C   -0.010645   0.975184  -0.030731   0.003645  -1.030943   0.098783
    27  O    0.000016  -0.072568   0.004367  -0.000695  -0.075824   0.001527
    28  C    0.004520  -0.451966   0.038463   0.005712  -0.309261   0.005294
    29  O    0.000001  -0.015900  -0.005896   0.011105   0.018612  -0.000025
    30  H    0.000000  -0.040162  -0.000386  -0.001599  -0.001421  -0.000001
    31  H    0.000004  -0.126475   0.001452  -0.000125  -0.011567  -0.000018
    32  H   -0.000168   0.380771  -0.027309  -0.002755   0.004421  -0.000001
    33  H   -0.005532  -0.031930  -0.001571  -0.000237   0.024625  -0.000072
    34  H    0.000362   0.034345  -0.000453   0.000005  -0.024993   0.000343
    35  H    0.000025  -0.033635  -0.000584   0.000027   0.080325  -0.000366
    36  H    0.000000   0.000349  -0.000003   0.000000   0.663992  -0.066628
    37  H    0.000000  -0.007863   0.000008   0.000000   0.422588  -0.038834
    38  H    0.000000   0.000001   0.000000   0.000000   0.000002   0.000000
    39  H    0.000718  -0.000311   0.000002   0.000000  -0.000005   0.000000
    40  H    0.000012  -0.000048   0.000000   0.000000  -0.000045   0.000000
    41  H   -0.000119   0.000223  -0.000001   0.000000  -0.000047   0.000000
    42  H   -0.000011   0.000018   0.000000   0.000000   0.000064   0.000009
    43  H   -0.000001   0.000083   0.000000   0.000000  -0.000184   0.000039
    44  H   -0.000017   0.000508   0.000000   0.000000   0.001844   0.000734
    45  H   -0.000394   0.015823   0.000014   0.000000  -0.000375   0.000033
             25         26         27         28         29         30
     1  O    0.000000  -0.000117   0.000000   0.000004   0.000000   0.000000
     2  C    0.000052  -0.025455   0.000122   0.001341   0.000003   0.000000
     3  C    0.001242  -0.000803  -0.000088  -0.001171   0.000023   0.000000
     4  O    0.000001   0.000040   0.000001   0.000009   0.000000   0.000000
     5  H    0.000000   0.000028   0.000000   0.000000   0.000000   0.000000
     6  C    0.001568   0.045971   0.003430   0.006670  -0.000251   0.000003
     7  O    0.002596  -0.013755  -0.000026  -0.000321  -0.000005   0.000000
     8  H   -0.002421  -0.036232  -0.000075   0.000378  -0.000001   0.000000
     9  C   -0.000009   0.008672   0.000056  -0.000983  -0.000012   0.000000
    10  O    0.000000   0.000000   0.000000   0.000000   0.000000   0.000000
    11  H    0.000000  -0.000003   0.000000   0.000000   0.000000   0.000000
    12  C   -0.000200   0.070875   0.000082  -0.008181   0.000080  -0.000001
    13  O    0.000001  -0.019292   0.000060   0.001169   0.000026   0.000000
    14  C   -0.008396  -0.635953   0.007000  -0.037754   0.001129   0.000052
    15  O    0.001724  -0.044332  -0.000191   0.001663  -0.000032   0.000003
    16  C   -0.011003  -2.585450   0.067969   1.023579  -0.036563  -0.001849
    17  C   -0.001214  -0.206683  -0.067338  -0.223790  -0.004905   0.014262
    18  O   -0.000002   0.047887  -0.002753  -0.017613   0.000214  -0.000029
    19  H    0.000000  -0.010645   0.000016   0.004520   0.000001   0.000000
    20  C    0.001059   0.975184  -0.072568  -0.451966  -0.015900  -0.040162
    21  O    0.000000  -0.030731   0.004367   0.038463  -0.005896  -0.000386
    22  H    0.000000   0.003645  -0.000695   0.005712   0.011105  -0.001599
    23  C   -0.025619  -1.030943  -0.075824  -0.309261   0.018612  -0.001421
    24  O    0.257561   0.098783   0.001527   0.005294  -0.000025  -0.000001
    25  H    0.405759   0.030133  -0.000436  -0.001913  -0.000001   0.000000
    26  C    0.030133  10.218006   0.145917  -1.174798  -0.026791  -0.000968
    27  O   -0.000436   0.145917   8.132697   0.232276  -0.048736   0.004367
    28  C   -0.001913  -1.174798   0.232276   6.096480   0.256353   0.019413
    29  O   -0.000001  -0.026791  -0.048736   0.256353   8.142977   0.260162
    30  H    0.000000  -0.000968   0.004367   0.019413   0.260162   0.427156
    31  H    0.000000  -0.052588  -0.037588   0.464122  -0.022495  -0.009218
    32  H    0.000000   0.003815   0.002053   0.038313  -0.004736   0.000104
    33  H    0.000000   0.085183   0.000774  -0.043613   0.000225   0.000012
    34  H   -0.000006   0.149056   0.002230  -0.002807  -0.000402   0.000002
    35  H   -0.000161   0.193417  -0.042327   0.043242   0.000387   0.000004
    36  H   -0.004663  -0.311011  -0.001041  -0.002130  -0.000032   0.000000
    37  H   -0.007707  -0.103671   0.003169   0.009884   0.000088  -0.000002
    38  H    0.000000   0.000000   0.000000   0.000000   0.000000   0.000000
    39  H    0.000000   0.000370   0.000000   0.000028   0.000000   0.000000
    40  H    0.000000  -0.000279   0.000000   0.000016   0.000000   0.000000
    41  H    0.000000  -0.000662   0.000001   0.000084   0.000000   0.000000
    42  H    0.000000  -0.000588   0.000000   0.000001   0.000000   0.000000
    43  H    0.000000  -0.000813   0.000000   0.000000   0.000000   0.000000
    44  H   -0.000023  -0.007503   0.000006  -0.000008   0.000000   0.000000
    45  H    0.000003   0.033787   0.000395  -0.001163  -0.000005   0.000000
             31         32         33         34         35         36
     1  O    0.000000   0.000000   0.000000  -0.000002   0.000000   0.000000
     2  C    0.000010   0.000111  -0.000227  -0.003730  -0.000144  -0.000020
     3  C    0.000013   0.000026   0.001058   0.005325   0.000426   0.000789
     4  O    0.000000   0.000000   0.000000   0.000011   0.000000   0.000000
     5  H    0.000000   0.000000   0.000000   0.000000   0.000000   0.000000
     6  C    0.000212   0.001399   0.008108  -0.000276  -0.003349  -0.005054
     7  O    0.000004   0.000007   0.000000  -0.002791  -0.000168   0.001189
     8  H    0.000000   0.000000  -0.000004  -0.000374   0.000029  -0.000041
     9  C   -0.000011  -0.000187   0.000056   0.000883   0.000141  -0.000005
    10  O    0.000000   0.000000   0.000000   0.000001   0.000000   0.000000
    11  H    0.000000   0.000000   0.000000   0.000000   0.000000   0.000000
    12  C    0.000000  -0.000107  -0.000880   0.008678   0.001298   0.000076
    13  O    0.000032   0.000102   0.000358   0.001134  -0.000090   0.000100
    14  C   -0.001671  -0.017555   0.007906   0.018863   0.047707   0.001000
    15  O    0.000540  -0.000120  -0.008732  -0.037091  -0.002906   0.001845
    16  C    0.067643   0.088085  -0.123487   0.044764  -0.062992   0.015198
    17  C   -0.011458  -0.209639   0.358368   0.066904   0.016126   0.000888
    18  O    0.000266   0.008242  -0.026487  -0.003767   0.000104   0.000028
    19  H    0.000004  -0.000168  -0.005532   0.000362   0.000025   0.000000
    20  C   -0.126475   0.380771  -0.031930   0.034345  -0.033635   0.000349
    21  O    0.001452  -0.027309  -0.001571  -0.000453  -0.000584  -0.000003
    22  H   -0.000125  -0.002755  -0.000237   0.000005   0.000027   0.000000
    23  C   -0.011567   0.004421   0.024625  -0.024993   0.080325   0.663992
    24  O   -0.000018  -0.000001  -0.000072   0.000343  -0.000366  -0.066628
    25  H    0.000000   0.000000   0.000000  -0.000006  -0.000161  -0.004663
    26  C   -0.052588   0.003815   0.085183   0.149056   0.193417  -0.311011
    27  O   -0.037588   0.002053   0.000774   0.002230  -0.042327  -0.001041
    28  C    0.464122   0.038313  -0.043613  -0.002807   0.043242  -0.002130
    29  O   -0.022495  -0.004736   0.000225  -0.000402   0.000387  -0.000032
    30  H   -0.009218   0.000104   0.000012   0.000002   0.000004   0.000000
    31  H    0.589363   0.004906   0.001570  -0.000071   0.004498  -0.000022
    32  H    0.004906   0.585209   0.006105   0.000549  -0.000031  -0.000005
    33  H    0.001570   0.006105   0.614075   0.005806   0.003189  -0.000013
    34  H   -0.000071   0.000549   0.005806   0.604475   0.006395   0.001278
    35  H    0.004498  -0.000031   0.003189   0.006395   0.641278   0.007147
    36  H   -0.000022  -0.000005  -0.000013   0.001278   0.007147   0.581800
    37  H    0.000051   0.000001   0.000008  -0.000101  -0.010834  -0.041387
    38  H    0.000000   0.000000   0.000000   0.000000   0.000000   0.000000
    39  H    0.000000   0.000000   0.000000   0.000000   0.000000   0.000000
    40  H    0.000000   0.000000   0.000000   0.000000   0.000000   0.000000
    41  H    0.000000   0.000000  -0.000001  -0.000017   0.000000   0.000000
    42  H    0.000000   0.000000   0.000000   0.000000   0.000000   0.000000
    43  H    0.000000   0.000000   0.000000   0.000000   0.000000   0.000000
    44  H    0.000000   0.000000  -0.000006  -0.000026  -0.000002  -0.000001
    45  H    0.000000  -0.000006  -0.000072   0.005979  -0.000016   0.000002
             37         38         39         40         41         42
     1  O    0.000000   0.263679  -0.000273   0.002235   0.005806  -0.017112
     2  C    0.000022   0.034340  -0.011144  -0.017492   0.076953   0.395824
     3  C   -0.000176  -0.017501   0.002606  -0.005674  -0.053508  -0.080784
     4  O    0.000000   0.000609   0.000012  -0.000036   0.000675  -0.000323
     5  H    0.000000  -0.002275   0.000000   0.000000   0.000005  -0.000183
     6  C   -0.001291   0.000518  -0.002681   0.015605  -0.051487  -0.031195
     7  O   -0.000752  -0.000010  -0.000012   0.000007   0.000381   0.000991
     8  H    0.000332   0.000000   0.000000   0.000000   0.000003   0.000000
     9  C    0.000001   0.006968   0.410777   0.656395   0.020966  -0.054760
    10  O    0.000000  -0.000098  -0.022285  -0.062533  -0.001351  -0.001866
    11  H    0.000000  -0.000034  -0.013108  -0.000356  -0.000215  -0.000005
    12  C    0.000123  -0.027377  -0.042478  -0.283196   0.034852  -0.086373
    13  O    0.000015  -0.000643   0.001693  -0.003621  -0.034474   0.004492
    14  C    0.013245  -0.002578  -0.002274   0.002160   0.228776   0.128460
    15  O    0.000637   0.000000  -0.000029  -0.000263  -0.000719  -0.000218
    16  C    0.028499   0.000199   0.004403  -0.006085   0.010189  -0.002835
    17  C    0.004204  -0.000049   0.000017   0.002188   0.007483   0.002177
    18  O    0.000026   0.000000   0.000170  -0.000187  -0.000538   0.000014
    19  H    0.000000   0.000000   0.000718   0.000012  -0.000119  -0.000011
    20  C   -0.007863   0.000001  -0.000311  -0.000048   0.000223   0.000018
    21  O    0.000008   0.000000   0.000002   0.000000  -0.000001   0.000000
    22  H    0.000000   0.000000   0.000000   0.000000   0.000000   0.000000
    23  C    0.422588   0.000002  -0.000005  -0.000045  -0.000047   0.000064
    24  O   -0.038834   0.000000   0.000000   0.000000   0.000000   0.000009
    25  H   -0.007707   0.000000   0.000000   0.000000   0.000000   0.000000
    26  C   -0.103671   0.000000   0.000370  -0.000279  -0.000662  -0.000588
    27  O    0.003169   0.000000   0.000000   0.000000   0.000001   0.000000
    28  C    0.009884   0.000000   0.000028   0.000016   0.000084   0.000001
    29  O    0.000088   0.000000   0.000000   0.000000   0.000000   0.000000
    30  H   -0.000002   0.000000   0.000000   0.000000   0.000000   0.000000
    31  H    0.000051   0.000000   0.000000   0.000000   0.000000   0.000000
    32  H    0.000001   0.000000   0.000000   0.000000   0.000000   0.000000
    33  H    0.000008   0.000000   0.000000   0.000000  -0.000001   0.000000
    34  H   -0.000101   0.000000   0.000000   0.000000  -0.000017   0.000000
    35  H   -0.010834   0.000000   0.000000   0.000000   0.000000   0.000000
    36  H   -0.041387   0.000000   0.000000   0.000000   0.000000   0.000000
    37  H    0.587256   0.000000   0.000000   0.000000   0.000000   0.000000
    38  H    0.000000   0.415469   0.000017  -0.000262  -0.000268  -0.014411
    39  H    0.000000   0.000017   0.585168  -0.047287  -0.006773  -0.000042
    40  H    0.000000  -0.000262  -0.047287   0.599107   0.007085   0.002692
    41  H    0.000000  -0.000268  -0.006773   0.007085   0.635909   0.006861
    42  H    0.000000  -0.014411  -0.000042   0.002692   0.006861   0.622112
    43  H    0.000000  -0.000112   0.000005  -0.000005   0.002817   0.006294
    44  H    0.000002   0.000015   0.000001  -0.000016  -0.000092   0.002268
    45  H    0.000000   0.000002  -0.000003  -0.000017   0.002927  -0.000036
             43         44         45
     1  O   -0.003632  -0.000255   0.000113
     2  C    0.064000   0.039487  -0.009664
     3  C    0.362148  -0.142508  -0.049104
     4  O   -0.029546   0.005538   0.000041
     5  H    0.001010  -0.000181  -0.000001
     6  C   -0.315144   0.341269   0.005735
     7  O    0.009835  -0.024384  -0.001932
     8  H   -0.000216  -0.003961  -0.000007
     9  C    0.010707   0.019885   0.025127
    10  O   -0.000212   0.000014   0.000064
    11  H    0.000000   0.000000   0.000000
    12  C    0.002750   0.072977   0.089630
    13  O    0.004517   0.009632  -0.027557
    14  C    0.137933  -0.018867   0.237548
    15  O    0.000474  -0.011223  -0.034253
    16  C   -0.008505  -0.035460  -0.018866
    17  C    0.004336   0.006811   0.005459
    18  O    0.000042   0.000118  -0.001816
    19  H   -0.000001  -0.000017  -0.000394
    20  C    0.000083   0.000508   0.015823
    21  O    0.000000   0.000000   0.000014
    22  H    0.000000   0.000000   0.000000
    23  C   -0.000184   0.001844  -0.000375
    24  O    0.000039   0.000734   0.000033
[...]
 0.00002592,0.00002130,-0.00865902,-0.00082750,0.00181199,0.00207444,0.
 00082585,0.00026208,-0.00003915,0.00002387,0.00002412,0.00007422,-0.00
 000500,0.00015759,0.00001317,0.00000697,-0.00000924,-0.00002087,0.0000
 0770,0.00000094,0.00002820,-0.00001055,-0.00000458,-0.00001839,0.00000
 574,0.00002122,-0.00000923,-0.00000086,-0.00000263,0.00001322,-0.00000
 398,0.00000390,-0.00000362,-0.00000088,-0.00000058,-0.00001190,-0.0000
 0358,0.00000450,0.00004724,0.00002760,0.00002339,-0.00001141,-0.000002
 45,0.00000573,-0.00001871,-0.00000910,-0.00000398,0.00001346,0.0000002
 1,0.00000498,-0.00001079,0.00000415,-0.00000286,0.00000496,-0.00000016
 ,-0.00000114,-0.00000150,-0.00000029,0.00000016,0.00000294,0.00000063,
 0.00000145,0.00000327,0.00000109,-0.00000291,0.00000694,0.00000137,0.0
 0000902,0.00000740,-0.00000070,-0.00000948,0.00000661,-0.00000141,0.00
 000673,0.00000449,-0.00000108,-0.00000456,0.00000008,0.00000083,0.0000
 0243,0.00158600,0.00018214,-0.00074206,0.00022790,-0.00002449,-0.00001
 411,0.00041583,-0.00072323,-0.00003806,0.00067521,-0.00080853,0.000602
 53,0.37318859,-0.00978770,-0.00031612,-0.00571171,-0.02758442,-0.04691
 539,0.00575042,0.03327616,-0.00073916,-0.00605455,-0.00180961,0.003556
 11,-0.00098131,0.00040013,-0.00023661,0.00066223,0.00077560,0.00131065
 ,0.00096204,-0.00039286,-0.00018017,0.00003069,-0.00007980,0.00002037,
 0.00004753,-0.00144672,0.00180186,-0.00065372,0.00028021,-0.00005687,0
 .00010532,-0.00001306,-0.00004270,-0.00001056,-0.02908242,-0.00434889,
 0.00711894,0.00140999,0.00140701,-0.00245445,0.00011906,-0.00039737,-0
 .00010763,0.00002860,0.00009506,-0.00001543,-0.00002910,0.00002480,-0.
 00001172,0.00000434,-0.00000005,-0.00001443,0.00004241,0.00001022,-0.0
 0003850,-0.00004771,-0.00002559,0.00005928,-0.00000612,0.00000075,-0.0
 0000110,0.00000412,-0.00000012,-0.00000114,-0.00000068,-0.00000024,-0.
 00000024,0.00000199,-0.00000412,0.00000440,-0.00002752,-0.00001986,-0.
 00002877,0.00000568,0.00000233,-0.00000571,0.00000050,-0.00000119,0.00
 000255,0.00000021,0.00000158,-0.00000071,-0.00000052,-0.00000057,0.000
 00229,0.00000157,-0.00000002,-0.00000306,-0.00000013,0.00000017,0.0000
 0048,0.00000039,0.00000065,0.00000047,0.00000123,-0.00000063,-0.000002
 22,0.00000378,0.00000493,0.00000423,0.00000072,-0.00000710,0.00000335,
 0.00000009,0.00000153,0.00000030,-0.00000089,0.00000020,0.00000284,-0.
 00000037,0.00000148,-0.00000294,-0.00099717,0.00131999,-0.00005453,0.0
 0044609,0.00027061,-0.00008969,0.00095694,-0.00031505,-0.00014539,-0.0
 0080004,-0.00312120,0.00367571,0.03307646,0.05216873,-0.04176502,-0.00
 980176,-0.01720867,0.04513061,0.00487677,-0.04557881,0.01322836,0.0010
 7330,-0.00171708,-0.00147155,0.00066424,0.00086466,-0.00050901,-0.0002
 8983,-0.00003549,0.00112167,0.00024337,0.00040782,-0.00038279,-0.00001
 570,-0.00003709,0.00002282,0.00003815,0.00001655,0.00000403,-0.0012131
 4,0.00039119,-0.00007980,0.00002933,0.00012458,0.00001332,-0.00004196,
 0.00007352,0.02409843,0.00409451,-0.00441923,-0.00055022,-0.00040746,0
 .00271625,0.00045318,-0.00031629,-0.00033465,-0.00007010,0.00002047,-0
 .00014324,-0.00000654,-0.00002999,0.00000136,0.00001811,0.00001373,0.0
 0002290,-0.00006438,-0.00002330,-0.00000078,0.00007088,0.00003250,-0.0
 0004342,0.00000760,-0.00000673,0.00000768,-0.00001166,0.00000898,-0.00
 000947,0.00000215,-0.00000062,0.00000093,0.00000839,0.00000558,-0.0000
 0435,-0.00002806,-0.00001995,-0.00001418,0.00000639,0.00000298,-0.0000
 0058,0.00001059,0.00001317,0.00001050,-0.00000924,0.00000172,-0.000015
 19,0.00000748,-0.00000397,0.00001558,0.00000069,-0.00000025,-0.0000120
 9,0.00000075,0.00000040,0.00000228,-0.00000236,-0.00000092,-0.00000207
 ,-0.00000353,-0.00000030,0.00000434,-0.00000979,-0.00000567,-0.0000128
 8,-0.00001224,0.00000296,0.00001594,-0.00000570,-0.00000018,-0.0000069
 1,-0.00000233,0.00000123,0.00000416,-0.00000177,-0.00000286,-0.0000020
 8,-0.00334503,0.00049845,0.00305139,-0.00015792,-0.00015277,0.00003348
 ,-0.00057933,0.00032319,0.00018312,0.00042086,0.00301642,-0.00326328,-
 0.03565532,0.00006272,0.06551754,0.00154336,0.00028009,0.00020383,-0.0
 1546828,0.00099706,0.00050948,-0.34916652,-0.01978506,0.01748094,-0.00
 019296,-0.00751050,0.00979724,-0.00068593,-0.00085278,-0.00057541,-0.0
 1705980,0.00059662,-0.00069659,0.00220272,0.00006181,0.00083108,0.0002
 1352,0.00005964,0.00000257,0.00057616,0.00028708,-0.00014784,0.0000197
 7,-0.00003071,-0.00003673,-0.00000291,0.00001296,0.00000096,-0.0009101
 5,-0.00115054,0.00068538,0.00051658,0.00040445,-0.00000143,-0.00124817
 ,-0.00116723,0.00049072,0.00049480,0.00016915,-0.00037743,-0.00012094,
 0.00007153,-0.00004461,0.00001188,-0.00002556,-0.00007770,0.00005073,0
 .00001870,0.00004200,-0.00003917,-0.00000572,0.00000302,-0.00002082,0.
 00001576,0.00000164,0.00001528,0.00000220,0.00000089,-0.00000579,0.000
 00038,-0.00000227,-0.00002878,-0.00001266,0.00004423,0.00007555,0.0000
 7509,0.00004520,-0.00001216,-0.00000698,0.00001818,0.00000259,-0.00000
 451,-0.00000220,0.00001505,0.00000859,-0.00001369,-0.00000555,-0.00001
 161,-0.00000164,0.00000446,0.00000518,0.00000181,-0.00000109,-0.000001
 02,-0.00000121,0.00000328,0.00000130,0.00000184,0.00000529,0.00000113,
 -0.00000568,0.00001298,-0.00000237,0.00001004,0.00002375,0.00000145,-0
 .00004868,0.00000793,-0.00000043,0.00001239,0.00001060,-0.00000217,-0.
 00001217,0.00000224,0.00000012,0.00000021,0.00030255,-0.00031845,-0.00
 022176,-0.00002579,0.00012048,0.00000623,0.00013423,-0.00031767,-0.000
 02471,0.00114818,0.00043695,-0.00068598,0.00012350,0.00174483,0.000515
 83,0.37706145,-0.00230334,0.00199561,0.00121958,0.03385382,-0.00159621
 ,-0.00191941,-0.01942118,-0.04042802,-0.00450168,-0.02696713,-0.011655
 74,0.01865541,-0.00229601,-0.00106614,-0.00050729,-0.01085826,0.001885
 53,-0.00230500,0.00022299,0.00063046,0.00157196,0.00003921,-0.00002550
 ,-0.00001361,0.00001989,-0.00007242,0.00003242,-0.00005865,-0.00000699
 ,-0.00004392,-0.00000032,0.00001569,-0.00000086,0.00172979,0.00219398,
 -0.00126585,-0.00024025,-0.00025876,0.00033674,0.00027481,-0.00061991,
 0.00030495,0.00012827,0.00006886,-0.00045702,-0.00009371,0.00005349,0.
 00001165,0.00002308,-0.00001543,-0.00005147,-0.00001194,0.00001011,0.0
 0002930,0.00001486,0.00000228,-0.00004064,-0.00000665,0.00001092,0.000
 01039,0.00000055,0.00000442,-0.00001026,-0.00000180,0.00000219,-0.0000
 0059,-0.00001521,0.00002290,-0.00001768,0.00009033,0.00004611,0.000087
 58,-0.00001516,-0.00000301,0.00000920,-0.00000149,0.00003943,0.0000064
 6,0.00000670,-0.00001736,-0.00001793,-0.00000302,0.00000459,0.00000546
 ,0.00000155,-0.00000118,-0.00000302,0.,0.00000016,0.00000010,0.0000006
 7,-0.00000086,-0.00000014,0.00000124,0.00000063,-0.00000111,0.00000268
 ,-0.00000366,0.00000114,0.00000871,0.00000900,-0.00001114,0.00000220,-
 0.00000610,0.00000207,0.00000537,-0.00000364,-0.00000928,0.00000225,-0
 .00000681,0.00000639,-0.00005035,0.00026549,0.00046322,-0.00009216,-0.
 00005710,-0.00000886,-0.00025130,0.00005548,0.00004767,-0.00073224,-0.
 00045109,0.00038568,0.00229566,-0.00494072,-0.00230653,0.02525405,0.05
 355208,-0.00069620,0.00102404,0.00139375,0.01407386,-0.00239579,0.0000
 5415,0.01850252,-0.00377625,-0.04087505,0.02523493,0.01572665,-0.01378
 285,0.00273062,0.00101304,-0.00009617,-0.03447150,-0.00316079,-0.00075
 671,0.00176778,0.00130782,0.00270749,-0.00009550,0.00018749,0.00003502
 ,-0.00010886,-0.00012927,0.00006605,-0.00001653,0.00001417,-0.00000084
 ,-0.00000194,0.00000801,-0.00000763,-0.00055333,0.00076736,-0.00047232
 ,0.00000952,0.00043416,-0.00028214,-0.00100839,-0.00072950,0.00123124,
 0.00045611,0.00005015,-0.00027751,-0.00002675,0.00007098,0.00005430,0.
 00002238,-0.00001674,-0.00003712,0.00001589,0.00001922,-0.00001070,-0.
 00001561,-0.00002877,0.00002613,-0.00000941,0.00000294,0.00001418,-0.0
 0000224,0.00001346,-0.00001741,-0.00000129,0.00000064,-0.00000090,-0.0
 0001994,0.00001283,0.00001121,0.00012172,0.00004470,0.00010391,0.00000
 191,0.00000992,-0.00000616,0.00000366,0.00003038,0.00002436,0.00000739
 ,-0.00000263,-0.00003899,0.00000133,-0.00000969,0.00002453,0.00000750,
 0.00000136,-0.00001973,-0.00000024,0.00000118,0.00000322,0.00000020,0.
 00000071,-0.00000005,0.00000070,0.00000087,-0.00000222,0.00000131,-0.0
 0000705,0.00000722,0.00002523,0.00001196,-0.00005319,0.00000429,-0.000
 00537,0.00000752,0.00000878,-0.00000338,-0.00001156,-0.00000050,-0.000
 00653,0.00000142,-0.00011238,0.00039984,0.00010201,-0.00002557,-0.0000
 7382,-0.00000456,-0.00005845,0.00009377,-0.00001985,-0.00036895,0.0000
 6916,0.00036319,0.00108211,-0.00176490,-0.00060234,-0.02487169,-0.0082
 5088,0.05704303,0.00053777,0.00006202,-0.00006817,-0.00099105,0.000883
 26,0.00031252,-0.01393854,-0.00567838,0.00012866,0.00181137,0.00077377
 ,0.00042236,0.00012594,0.00012153,0.00004877,-0.33742350,-0.07535195,0
 .01700251,-0.01636294,0.00948919,0.00980603,-0.00024973,0.00008099,-0.
 00152824,-0.00001853,-0.00002805,0.00000347,0.00003561,0.00004463,0.00
 002400,-0.00000890,-0.00000580,0.00000452,-0.00006749,-0.00008386,-0.0
 0000078,0.00161926,-0.00064804,-0.00054680,-0.00488482,-0.00001650,-0.
 00044356,0.00122566,0.00030207,-0.00075792,0.00018176,0.00020927,0.000
 15202,0.00008137,0.00005925,-0.00004513,0.00001810,-0.00000981,-0.0000
 9374,-0.00000248,-0.00005650,0.00005114,-0.00002859,0.00002614,0.00002
 583,0.00001110,-0.00000728,-0.00002793,-0.00000544,0.00000637,-0.00000
 133,-0.00002721,0.00013159,-0.00009633,0.00041261,0.00011969,0.0005501
 7,-0.00003976,-0.00001913,0.00000579,-0.00003308,0.00011476,0.00002311
 ,0.00003040,-0.00008509,-0.00002234,-0.00002462,0.00005158,0.00000455,
 0.00000789,-0.00001573,-0.00000988,-0.00000124,0.00000229,0.00000149,0
 .00000351,-0.00000288,0.00000148,0.00000424,0.00000265,-0.00000259,-0.
 00000146,-0.00002464,0.00001905,0.00005005,0.00007275,-0.00025376,0.00
 001220,-0.00001885,0.00001333,0.00001996,-0.00001434,-0.00005248,0.000
 00939,-0.00004036,0.00004893,-0.00003164,-0.00013826,-0.00010479,0.000
 00713,-0.00000500,-0.00001132,0.00003474,-0.00003270,-0.00000867,0.000
 08871,0.00014425,-0.00002844,0.00079705,-0.00044662,-0.00021268,-0.000
 02264,-0.00068220,-0.00190995,0.36670410,0.00020024,0.00000596,0.00005
 860,-0.00081225,0.00020793,0.00031784,-0.00663404,-0.00003158,0.000869
 30,0.00086781,0.00037857,-0.00060420,0.00003354,0.00003448,-0.00001717
 ,-0.07525422,-0.05835658,0.00745744,0.03688131,-0.00403541,-0.01098009
 ,0.00068941,0.00142293,0.00150522,-0.00005454,0.00004269,0.00003688,0.
 00001862,-0.00001594,0.00000563,-0.00000328,0.00000251,-0.00000135,-0.
 00016555,-0.00019115,-0.00007861,0.00099531,0.00210819,-0.00017936,-0.
 02902792,-0.00781155,0.00283254,0.00107087,0.00139442,-0.00222957,-0.0
 0030086,0.00036887,0.00005147,0.00002978,-0.00004727,-0.00027703,0.000
 15116,-0.00004636,0.00010459,-0.00013015,0.00004632,0.00004134,-0.0000
 1922,0.00004062,0.00001411,0.00000787,0.00001611,-0.00001336,-0.000004
 51,0.00000216,-0.00000182,0.00006237,0.00000830,0.00010279,-0.00033234
 ,-0.00026181,-0.00013095,0.00005581,0.00002718,-0.00005320,0.00012078,
 -0.00006533,0.00002278,-0.00001255,0.00002544,-0.00004340,0.00001056,-
 0.00004018,0.00001703,0.00000197,0.00001176,-0.00000458,-0.00000006,-0
 .00000069,0.00000117,-0.00000178,0.00000376,0.00000100,0.00000711,0.00
 000131,-0.00001139,0.00003031,-0.00000975,0.00002818,0.00024015,-0.000
 03842,-0.00004633,0.00000967,0.00003798,0.00003449,-0.00003311,0.00000
 483,0.00005992,-0.00002896,0.00000967,-0.00000148,-0.00000358,0.000012
 13,-0.00002762,0.00000868,-0.00001645,0.00000168,0.00004389,-0.0000464
 3,-0.00001881,0.00018010,0.00015032,0.00002055,0.00013601,-0.00017018,
 -0.00040397,0.00003550,0.00016560,-0.00130211,0.07054097,0.06790095,0.
 00059038,0.00012897,-0.00035388,-0.00147850,0.00134912,0.00126830,-0.0
 3324486,-0.00940180,-0.00029995,0.00212971,0.00018074,0.00295197,0.000
 12944,-0.00010275,0.00020046,0.01460003,0.00729406,-0.04429987,0.01887
 085,-0.00679773,-0.00368240,0.00141103,0.00036163,0.00080295,-0.000054
 68,-0.00000876,0.00007148,0.00001121,-0.00000549,0.00000431,0.00000497
 ,0.00000011,0.00000359,-0.00030476,-0.00017265,-0.00047600,-0.00117942
 ,-0.00087802,0.00060411,0.02233512,0.00852316,-0.00291979,0.00005208,-
 0.00081343,0.00196612,0.00055730,-0.00019419,-0.00021282,-0.00002661,0
 .00002559,0.00021716,-0.00011755,0.00002844,-0.00008043,0.00009457,-0.
 00002465,0.00000981,0.00001959,-0.00004458,-0.00000743,-0.00001243,-0.
 00001248,0.00001446,0.00000583,-0.00000324,0.00000326,0.00010985,0.000
 05056,-0.00009889,-0.00031465,-0.00008019,-0.00003924,0.00001681,0.000
 00529,0.00007862,-0.00005904,0.00002045,0.00000436,-0.00003267,-0.0000
 1665,0.00007487,0.00000301,0.00003233,-0.00001703,-0.00000893,-0.00000
 967,0.00001020,0.00000131,-0.00000058,-0.00000185,-0.00000238,-0.00000
 135,-0.00000334,-0.00000784,-0.00000428,0.00001076,-0.00004360,0.00003
 385,-0.00002792,-0.00032026,-0.00003184,-0.00003320,-0.00003544,-0.000
 00845,-0.00007262,-0.00004369,0.00000380,0.00006327,-0.00001737,-0.000
 01261,0.00001922,0.00004915,-0.00012417,-0.00009231,0.00000948,-0.0000
 3648,0.00000713,0.00001474,-0.00001369,-0.00000079,0.00009292,0.000064
 49,-0.00014277,0.00056796,-0.00027189,-0.00014116,-0.00223278,-0.00147
 810,-0.00542998,-0.02232305,-0.00002453,0.05223100,0.00008790,-0.00010
 191,0.00020415,0.00005055,0.00044954,-0.00002770,-0.00026378,-0.000374
 72,-0.00000666,0.00013853,0.00004221,-0.00011806,0.00000810,0.00000638
 ,0.00004265,-0.00239987,0.00109015,0.00151753,0.00182702,0.00033269,-0
 .00144106,-0.00036801,-0.00018808,-0.00012111,0.00060917,-0.00012543,0
 .00006287,-0.00001110,0.00016289,0.00006439,-0.00000173,-0.00000363,0.
 00002439,-0.00005017,-0.00066167,-0.00097607,-0.00991678,0.00730331,0.
 00637566,-0.32901356,-0.05253170,0.07423831,-0.01977946,-0.00477587,-0
 .00490938,-0.00082953,-0.00045389,0.00508208,0.00018032,0.00019749,-0.
 00048257,0.00069284,-0.00035733,0.00000893,-0.00063636,-0.00005812,0.0
 0067164,0.00000072,0.00013048,-0.00000535,0.00002997,-0.00001591,-0.00
 000569,-0.00001323,0.00001016,-0.00000547,-0.00011615,0.00005157,0.000
 12485,0.00010663,-0.00001587,0.00003462,0.00000378,-0.00001608,-0.0000
 2755,0.00085059,-0.00009871,-0.00002258,0.00000396,-0.00010314,-0.0002
 7325,0.00000047,-0.00003708,-0.00001079,-0.00000394,0.00001143,0.00001
 134,-0.00000069,0.00000213,-0.00000370,-0.00000160,0.00000533,0.000002
 87,0.00002376,0.00001120,-0.00003828,0.00015397,-0.00023191,0.00019859
 ,0.00202793,0.00020339,-0.00015263,0.00016081,0.00018807,0.00036767,0.
 00002687,-0.00003149,-0.00002576,0.00001738,0.00001325,-0.00000856,0.,
 -0.00000313,-0.00001057,-0.00002587,-0.00000577,-0.00000317,0.00007538
 ,-0.00024450,-0.00011679,0.00076670,0.00036665,0.00096077,0.00002556,-
 0.00002762,-0.00020575,0.00043902,0.00012370,0.00029548,0.00033374,0.0
 0038911,0.00018316,0.35479016,-0.00006897,0.00035468,-0.00026094,-0.00
 035092,-0.00063233,-0.00015321,-0.00118074,-0.00024319,-0.00132633,0.0
 0039266,-0.00001386,0.00052775,0.00015071,-0.00009961,0.00004667,-0.02
 305519,-0.00315077,0.00804298,0.00040255,0.00320134,-0.00030324,-0.000
 44723,-0.00025572,-0.00009896,0.00020526,0.00011089,-0.00001124,-0.000
 19133,-0.00023215,-0.00013203,0.00000105,0.00003470,-0.00002615,0.0044
 1117,0.00155056,0.00413701,0.03232934,-0.00658382,-0.01734787,-0.05557
 681,-0.05316357,0.01652137,-0.00557397,0.00250704,-0.00118481,-0.00074
 460,0.00029721,0.00126981,0.00029065,0.00013229,0.00002750,-0.00041589
 ,-0.00001333,0.00002903,0.00046247,0.00007455,-0.00079803,0.00000901,0
 .00002770,0.00008393,-0.00002933,0.00003760,-0.00006890,-0.00000057,0.
 00000333,-0.00000191,-0.00009133,0.00002449,-0.00001449,0.00008292,-0.
 00001050,0.00002998,-0.00001897,-0.00000973,-0.00001124,0.00003527,0.0
 0003236,-0.00000241,0.00002448,-0.00004406,-0.00010185,-0.00000444,0.0
 0002150,0.00006544,0.00001568,-0.00000580,-0.00005084,0.00000036,0.000
 00129,0.00000847,-0.00000058,-0.00000662,-0.00000432,-0.00000465,0.000
 00379,0.00000519,0.00002234,-0.00008047,0.00000272,0.00032944,0.000637
 87,-0.00032836,0.00003616,0.00000997,0.00006429,0.00002590,-0.00003411
 ,-0.00003552,0.00002019,-0.00001874,-0.00000394,-0.00000831,0.00001244
 ,0.00001946,0.00002340,-0.00002364,0.00001666,-0.00024415,0.00002744,0
 .00000236,-0.00130931,0.00022214,0.00008968,-0.00004296,-0.00015907,0.
 00001997,0.00054387,0.00020161,0.00034666,0.00017295,-0.00324591,0.002
 47165,0.04937243,0.05850023,-0.00005916,-0.00003361,-0.00026521,-0.000
 21453,0.00024999,-0.00018021,0.00134625,-0.00023328,0.00112236,-0.0005
 0623,0.00006394,-0.00009032,-0.00006212,-0.00005135,0.00000306,0.02166
 103,0.00370026,-0.00236252,-0.00186188,-0.00207594,0.00142093,-0.00016
 666,0.00018061,-0.00004343,-0.00007678,-0.00009448,-0.00001272,-0.0000
 9394,-0.00013694,-0.00009947,0.00001253,0.00001343,-0.00001171,0.00349
 267,0.00042489,0.00283273,0.01273464,-0.00627118,-0.00492193,0.0845145
 3,0.02017760,-0.06578768,-0.02921286,-0.00541299,-0.00843022,-0.008448
 44,-0.00200058,0.00119317,-0.00023250,0.00003294,-0.00061582,0.0001460
 8,0.00020412,0.00039059,-0.00007606,0.00010447,-0.00035155,-0.00000876
 ,0.00006809,0.00004186,0.00001414,0.00003841,-0.00002324,-0.00000417,0
 .00000306,-0.00000498,-0.00009780,0.00015126,0.00013223,0.00004202,-0.
 00010872,0.00002372,0.00002256,-0.00001266,-0.00002898,-0.00022553,0.0
 0006125,-0.00010951,0.00016422,0.00007766,-0.00022815,0.00001741,-0.00
 010974,0.00006439,0.00001725,0.00002803,-0.00004410,-0.00000007,0.0000
 0184,0.00000552,0.00000640,0.00000194,0.00001124,0.00002799,0.00002262
 ,-0.00005646,0.00030056,-0.00003163,-0.00002400,0.00013651,-0.00013005
 ,-0.00269662,0.00020911,-0.00003390,-0.00003308,0.00001942,-0.00004921
 ,-0.00001314,0.00000455,-0.00000666,-0.00000121,-0.00002082,-0.0000035
 8,0.00000757,0.00000108,0.00001080,-0.00001474,-0.00018645,0.00009209,
 0.00000708,-0.00095036,-0.00018257,-0.00004799,-0.00018902,-0.00006946
 ,0.00013927,-0.00062349,0.00003489,-0.00046795,-0.00009983,0.00286636,
 -0.00218378,-0.08147349,-0.01156201,0.08175501\\0.00973697,-0.01119740
 ,-0.01060889,-0.00718980,0.00873281,-0.00605025,0.00102202,0.00030090,
 0.04043522,-0.00971167,-0.01637417,0.00638263,0.00803031,0.00521055,-0
 .03778686,0.01731228,-0.01977947,-0.01602289,-0.00123702,-0.00018098,-
 0.00027828,0.00207667,-0.00261384,0.02447177,-0.01857791,0.02106775,-0
 .00748772,0.01001363,0.01143052,0.00076013,0.00409496,-0.03458935,0.00
 372876,0.01582374,0.00901042,0.02093282,0.00737748,0.01235744,0.010977
 51,-0.06229546,0.00388773,0.01179761,0.03792788,-0.00962796,0.00978620
 ,-0.02017394,0.01131101,-0.00572184,0.00415723,0.03325641,-0.00071925,
 -0.00190967,-0.02131293,0.01764078,0.00876371,0.01085904,-0.01919185,-
 0.01838133,-0.00091162,0.00030685,-0.00403636,0.00256032,-0.02047729,0
 .00760603,-0.01099722,0.03152089,0.02645143,-0.03219362,-0.02774582,-0
 .01117998,-0.00087663,0.01134625,-0.00068144,0.03481265,0.00325913,-0.
 01458147,0.00774640,0.03051148,-0.01803827,-0.00645722,0.01647457,0.05
 545044,-0.00152637,-0.02909701,-0.01322391,0.00665402,0.00588921,-0.00
 131401,-0.00326770,-0.00342030,-0.01771457,-0.00418446,-0.00285809,0.0
 1804203,0.00188815,-0.00263665,-0.02151112,-0.00451377,-0.00119418,0.0
 1603571,-0.00313839,0.00175178,-0.02164697,0.00343017,-0.00031576,0.02
 084609,-0.00477682,-0.00882007,-0.00506147,-0.00578034,-0.01888461,-0.
 00099094,0.00355170,-0.00122065,0.00190522,0.00667655,-0.01886459,-0.0
 2278966,-0.00183047,-0.00133199,0.02234529,0.00076378,-0.00308409,-0.0
 2041127,-0.00268406,-0.00022002,0.02204441,0.00045812,-0.00172748,-0.0
 1926190,-0.00082715,0.00073245,0.01485661,0.00367546,-0.00293962\\\@


 A MAN THINKING OR WORKING IS ALWAYS ALONE, 
 LET HIM BE WHERE HE WILL.

                                    -- THOREAU
 Job cpu time:  1 days  8 hours 32 minutes  2.7 seconds.
 File lengths (MBytes):  RWF=   1769 Int=      0 D2E=      0 Chk=     28 Scr=      1
 Normal termination of Gaussian 09 at Sun Mar 27 06:38:04 2016.
Gaussian '09 finished on node014 at Sun Mar 27 06:38:04 EDT 2016.
