Gaussian '09 started on node004 at Tue Mar  1 03:15:30 EST 2016.
 Entering Gaussian System, Link 0=/usr/local/gaussian/g09/g09
 Initial command:
 /usr/local/gaussian/g09/l1.exe /home/srmcgrat/thesis/gaussian/cellobiose/350/8000/2/gdp/gaussian11191/Gau-11227.inp -scrdir=/home/srmcgrat/thesis/gaussian/cellobiose/350/8000/2/gdp/gaussian11191/
 Entering Link 1 = /usr/local/gaussian/g09/l1.exe PID=     11229.
  
 Copyright (c) 1988,1990,1992,1993,1995,1998,2003,2009,2010,
            Gaussian, Inc.  All Rights Reserved.
  
 This is part of the Gaussian(R) 09 program.  It is based on
 the Gaussian(R) 03 system (copyright 2003, Gaussian, Inc.),
 the Gaussian(R) 98 system (copyright 1998, Gaussian, Inc.),
 the Gaussian(R) 94 system (copyright 1995, Gaussian, Inc.),
 the Gaussian 92(TM) system (copyright 1992, Gaussian, Inc.),
 the Gaussian 90(TM) system (copyright 1990, Gaussian, Inc.),
 the Gaussian 88(TM) system (copyright 1988, Gaussian, Inc.),
 the Gaussian 86(TM) system (copyright 1986, Carnegie Mellon
 University), and the Gaussian 82(TM) system (copyright 1983,
 Carnegie Mellon University). Gaussian is a federally registered
 trademark of Gaussian, Inc.
  
 This software contains proprietary and confidential information,
 including trade secrets, belonging to Gaussian, Inc.
  
 This software is provided under written license and may be
 used, copied, transmitted, or stored only in accord with that
 written license.
  
 The following legend is applicable only to US Government
 contracts under FAR:
  
                    RESTRICTED RIGHTS LEGEND
  
 Use, reproduction and disclosure by the US Government is
 subject to restrictions as set forth in subparagraphs (a)
 and (c) of the Commercial Computer Software - Restricted
 Rights clause in FAR 52.227-19.
  
 Gaussian, Inc.
 340 Quinnipiac St., Bldg. 40, Wallingford CT 06492
  
  
 ---------------------------------------------------------------
 Warning -- This program may not be used in any manner that
 competes with the business of Gaussian, Inc. or will provide
 assistance to any competitor of Gaussian, Inc.  The licensee
 of this program is prohibited from giving any competitor of
 Gaussian, Inc. access to this program.  By using this program,
 the user acknowledges that Gaussian, Inc. is engaged in the
 business of creating and licensing software in the field of
 computational chemistry and represents and warrants to the
 licensee that it is not a competitor of Gaussian, Inc. and that
 it will not use this program in any manner prohibited above.
 ---------------------------------------------------------------
  

 Cite this work as:
 Gaussian 09, Revision B.01,
 M. J. Frisch, G. W. Trucks, H. B. Schlegel, G. E. Scuseria, 
 M. A. Robb, J. R. Cheeseman, G. Scalmani, V. Barone, B. Mennucci, 
 G. A. Petersson, H. Nakatsuji, M. Caricato, X. Li, H. P. Hratchian, 
 A. F. Izmaylov, J. Bloino, G. Zheng, J. L. Sonnenberg, M. Hada, 
 M. Ehara, K. Toyota, R. Fukuda, J. Hasegawa, M. Ishida, T. Nakajima, 
 Y. Honda, O. Kitao, H. Nakai, T. Vreven, J. A. Montgomery, Jr., 
 J. E. Peralta, F. Ogliaro, M. Bearpark, J. J. Heyd, E. Brothers, 
 K. N. Kudin, V. N. Staroverov, T. Keith, R. Kobayashi, J. Normand, 
 K. Raghavachari, A. Rendell, J. C. Burant, S. S. Iyengar, J. Tomasi, 
 M. Cossi, N. Rega, J. M. Millam, M. Klene, J. E. Knox, J. B. Cross, 
 V. Bakken, C. Adamo, J. Jaramillo, R. Gomperts, R. E. Stratmann, 
 O. Yazyev, A. J. Austin, R. Cammi, C. Pomelli, J. W. Ochterski, 
 R. L. Martin, K. Morokuma, V. G. Zakrzewski, G. A. Voth, 
 P. Salvador, J. J. Dannenberg, S. Dapprich, A. D. Daniels, 
 O. Farkas, J. B. Foresman, J. V. Ortiz, J. Cioslowski, 
 and D. J. Fox, Gaussian, Inc., Wallingford CT, 2010.
 
 ******************************************
 Gaussian 09:  EM64L-G09RevB.01 12-Aug-2010
                 1-Mar-2016 
 ******************************************
 ------------------------------------------------
 # freq=raman b3lyp/6-31+g(d,p) geom=connectivity
 ------------------------------------------------
 1/10=4,30=1,38=1,57=2/1,3;
 2/12=2,17=6,18=5,40=1/2;
 3/5=1,6=6,7=111,11=2,16=1,25=1,30=1,71=2,74=-5/1,2,3;
 4//1;
 5/5=2,38=5,98=1/2;
 8/6=4,10=90,11=11/1;
 10/13=10,15=4/2;
 11/6=3,8=1,9=11,15=111,16=1/1,2,10;
 10/6=1/2;
 6/7=2,8=2,9=2,10=2,18=1,28=1/1;
 7/8=1,10=1,25=1/1,2,3,16;
 1/10=4,30=1/3;
 99//99;
 ------------
 350 8000.com
 ------------
 Symbolic Z-matrix:
 Charge =  0 Multiplicity = 1
 O                     7.818     7.796     22.775 
 C                     8.343     8.04      24.088 
 C                     7.724     9.344     24.565 
 O                     7.91      10.425    23.64 
 H                     7.655     10.108    22.726 
 C                     8.192     9.73      25.959 
 O                     7.527     10.839    26.58 
 H                     7.991     11.16     27.406 
 C                     8.739     5.613     24.712 
 O                     8.286     4.987     23.502 
 H                     8.341     4.009     23.699 
 C                     8.046     6.918     25.069 
 O                     8.519     7.254     26.381 
 C                     8.082     8.527     26.881 
 O                     8.993     8.729     27.971 
 C                     8.373     8.6       29.259 
 C                     8.995     7.355     29.871 
 O                     9.049     6.303     28.897 
 H                     9.418     6.512     27.992 
 C                     8.259     6.998     31.153 
 O                     8.533     5.681     31.651 
 H                     8.128     5.448     32.536 
 C                     8.132     11.205    30.082 
 O                     8.603     11.764    28.847 
 H                     8.325     12.712    29.004 
 C                     8.614     9.768     30.2 
 O                     7.947     9.346     31.399 
 C                     8.44      8.185     32.084 
 O                     7.658     7.92      33.257 
 H                     8.54327   7.68109   22.15663 
 H                     8.59454   4.92548   25.51906 
 H                     9.78725   5.80556   24.61722 
 H                     6.98908   6.75563   25.10719 
 H                     9.40331   8.1656    24.01827 
 H                     6.66943   9.17548   24.63118 
 H                     9.22897   9.98338   25.88554 
 H                     7.0827    8.44622   27.25486 
 H                     8.24233   7.75215   33.99996 
 H                     8.51276   11.77789   30.90158 
 H                     7.06232   11.22543   30.09835 
 H                     9.66452   9.80151   30.40046 
 H                     7.32061   8.45067   29.13617 
 H                     10.00288   7.5962    30.13728 
 H                     7.21981   6.99015   30.89819 
 H                     9.47176   8.30823   32.33931 
 

 GradGradGradGradGradGradGradGradGradGradGradGradGradGradGradGradGradGrad
 Berny optimization.
 Initialization pass.
 Trust Radius=3.00D-01 FncErr=1.00D-07 GrdErr=1.00D-07
 Number of steps in this run=      2 maximum allowed number of steps=      2.
 GradGradGradGradGradGradGradGradGradGradGradGradGradGradGradGradGradGrad

                          Input orientation:                          
 ---------------------------------------------------------------------
 Center     Atomic      Atomic             Coordinates (Angstroms)
 Number     Number       Type             X           Y           Z
 ---------------------------------------------------------------------
      1          8           0        7.818000    7.796000   22.775000
      2          6           0        8.343000    8.040000   24.088000
      3          6           0        7.724000    9.344000   24.565000
      4          8           0        7.910000   10.425000   23.640000
      5          1           0        7.655000   10.108000   22.726000
      6          6           0        8.192000    9.730000   25.959000
      7          8           0        7.527000   10.839000   26.580000
      8          1           0        7.991000   11.160000   27.406000
      9          6           0        8.739000    5.613000   24.712000
     10          8           0        8.286000    4.987000   23.502000
     11          1           0        8.341000    4.009000   23.699000
     12          6           0        8.046000    6.918000   25.069000
     13          8           0        8.519000    7.254000   26.381000
     14          6           0        8.082000    8.527000   26.881000
     15          8           0        8.993000    8.729000   27.971000
     16          6           0        8.373000    8.600000   29.259000
     17          6           0        8.995000    7.355000   29.871000
     18          8           0        9.049000    6.303000   28.897000
     19          1           0        9.418000    6.512000   27.992000
     20          6           0        8.259000    6.998000   31.153000
     21          8           0        8.533000    5.681000   31.651000
     22          1           0        8.128000    5.448000   32.536000
     23          6           0        8.132000   11.205000   30.082000
     24          8           0        8.603000   11.764000   28.847000
     25          1           0        8.325000   12.712000   29.004000
     26          6           0        8.614000    9.768000   30.200000
     27          8           0        7.947000    9.346000   31.399000
     28          6           0        8.440000    8.185000   32.084000
     29          8           0        7.658000    7.920000   33.257000
     30          1           0        8.543270    7.681086   22.156632
     31          1           0        8.594540    4.925479   25.519061
     32          1           0        9.787254    5.805563   24.617216
     33          1           0        6.989082    6.755627   25.107190
     34          1           0        9.403312    8.165604   24.018274
     35          1           0        6.669428    9.175480   24.631180
     36          1           0        9.228967    9.983385   25.885541
     37          1           0        7.082697    8.446223   27.254855
     38          1           0        8.242327    7.752153   33.999960
     39          1           0        8.512761   11.777895   30.901581
     40          1           0        7.062320   11.225429   30.098353
     41          1           0        9.664521    9.801511   30.400456
     42          1           0        7.320615    8.450672   29.136175
     43          1           0       10.002877    7.596199   30.137285
     44          1           0        7.219812    6.990155   30.898193
     45          1           0        9.471761    8.308227   32.339311
 ---------------------------------------------------------------------
                    Distance matrix (angstroms):
                    1          2          3          4          5
     1  O    0.000000
     2  C    1.434967   0.000000
     3  C    2.368383   1.520232   0.000000
     4  O    2.769175   2.465039   1.434846   0.000000
     5  H    2.318257   2.570022   1.992581   1.000455   0.000000
     6  C    3.744074   2.525776   1.520282   2.437275   3.299021
     7  O    4.880835   3.835404   2.516756   2.993607   3.924801
     8  H    5.726481   4.568088   3.382370   3.837909   4.808534
     9  C    3.060343   2.537030   3.869392   4.999177   5.032323
    10  O    2.939053   3.109253   4.519874   5.452730   5.217756
    11  H    3.933024   4.049727   5.439933   6.430731   6.214107
    12  C    2.466841   1.519689   2.498635   3.789404   3.977264
    13  O    3.713274   2.430354   2.880622   4.235470   4.717079
    14  C    4.178911   2.847128   2.481836   3.759796   4.466085
    15  O    5.408283   3.996863   3.686383   4.775653   5.585867
    16  C    6.557187   5.201321   4.796704   5.926057   6.743121
    17  C    7.206457   5.859814   5.807340   7.030468   7.773393
    18  O    6.420537   5.161597   5.456146   6.776744   7.382581
    19  H    5.605867   4.328005   4.757540   6.043636   6.615901
    20  C    8.427465   7.141922   7.013678   8.265065   9.002846
    21  O    9.152476   7.924642   8.017696   9.331119  10.001242
    22  H   10.044218   8.839310   8.881378  10.195924  10.870852
    23  C    8.069209   6.781577   5.836701   6.492846   7.452629
    24  O    7.295919   6.048459   4.996455   5.420887   6.411527
    25  H    7.951386   6.781959   5.604404   5.845946   6.829568
    26  C    7.723537   6.357356   5.720586   6.630299   7.542941
    27  O    8.763134   7.437283   6.837638   7.833753   8.711305
    28  C    9.337863   7.997903   7.641420   8.752122   9.585735
    29  O   10.483954   9.195335   8.808121   9.941087  10.755897
    30  H    0.960000   1.974616   3.039197   3.182840   2.646340
    31  H    4.046328   3.436778   4.603411   5.851854   5.961748
    32  H    3.351650   2.712683   4.096374   5.081164   5.160830
    33  H    2.684882   2.126372   2.744767   4.057713   4.165563
    34  H    2.048305   1.070000   2.123115   2.734583   2.915385
    35  H    2.582167   2.094087   1.070000   2.020583   2.338943
    36  H    4.055976   2.791565   2.101801   2.641430   3.532081
    37  H    4.586127   3.432543   2.907335   4.203233   4.857938
    38  H   11.233063   9.916650   9.582333  10.704360  11.532438
    39  H    9.076315   7.773388   6.833611   7.411086   8.388351
    40  H    8.121794   6.921809   5.881802   6.562742   7.480074
    41  H    8.098104   6.685540   6.166643   7.012193   7.939105
    42  H    6.414089   5.167010   4.675082   5.869692   6.629396
    43  H    7.682242   6.288561   6.268847   7.388976   8.169995
    44  H    8.184955   6.981580   6.775258   8.059521   8.757573
    45  H    9.719740   8.332477   8.035384   9.088335   9.947640
                    6          7          8          9         10
     6  C    0.000000
     7  O    1.434485   0.000000
     8  H    2.044287   1.000306   0.000000
     9  C    4.336347   5.680620   6.211791   0.000000
    10  O    5.342446   6.655529   7.309868   1.435683   0.000000
    11  H    6.153019   7.457322   8.062329   1.938399   0.999159
    12  C    2.953093   4.233996   4.843465   1.520106   2.498369
    13  O    2.532901   3.725036   4.072621   2.350924   3.671814
    14  C    1.519669   2.396658   2.686372   3.691559   4.898046
    15  O    2.385738   2.921667   2.689422   4.516088   5.871488
    16  C    3.492801   3.592475   3.183258   5.452645   6.797381
    17  C    4.646416   5.012381   4.643519   5.451182   6.831857
    18  O    4.594630   5.316039   5.189691   4.252814   5.605359
    19  H    3.998961   4.928748   4.897308   3.468089   4.875156
    20  C    5.869067   6.016763   5.606610   6.605687   7.910920
    21  O    6.993536   7.302879   6.952210   6.942390   8.182227
    22  H    7.848347   8.055931   7.678712   7.849556   9.047134
    23  C    4.379310   3.572672   2.680090   7.776620   9.054482
    24  O    3.556209   2.674451   1.678047   7.412929   8.636970
    25  H    4.264040   3.165550   2.252524   8.305929   9.484153
    26  C    4.262113   3.928487   3.183116   6.884606   8.235821
    27  O    5.459037   5.062431   4.385953   7.699255   9.026539
    28  C    6.321721   6.178293   5.562006   7.813512   9.159784
    29  O    7.538041   7.288350   6.696468   8.916717  10.205729
    30  H    4.333525   5.529142   6.321685   3.293205   3.022301
    31  H    4.841384   6.102045   6.541716   1.070000   2.041449
    32  H    4.443695   5.856343   6.298717   1.070000   2.041449
    33  H    3.319561   4.374066   5.068221   2.126967   2.717844
    34  H    2.771467   4.150908   4.736847   2.727334   3.408584
    35  H    2.094952   2.701967   3.658483   4.120791   4.629440
    36  H    1.070000   2.027570   2.286653   4.551651   5.615542
    37  H    2.134919   2.525513   2.865736   4.151699   5.243862
    38  H    8.280788   8.068217   7.426769   9.544048  10.856111
    39  H    5.359652   4.530928   3.587912   8.738880  10.045968
    40  H    4.543867   3.569883   2.848771   7.957601   9.161183
    41  H    4.679740   4.499029   3.689571   7.124517   8.524584
    42  H    3.534181   3.504388   3.283806   5.444036   6.683780
    43  H    5.028961   5.412948   4.920188   5.913052   7.333661
    44  H    5.731276   5.792647   5.493428   6.517168   7.736476
    45  H    6.660900   6.584571   5.887514   8.122626   9.514969
                   11         12         13         14         15
    11  H    0.000000
    12  C    3.228964   0.000000
    13  O    4.213648   1.434562   0.000000
    14  C    5.532136   2.423535   1.435792   0.000000
    15  O    6.399491   3.549385   2.220000   1.434861   0.000000
    16  C    7.210541   4.526826   3.180553   2.396851   1.435265
    17  C    7.051029   4.914344   3.523759   3.338750   2.344756
    18  O    5.725636   4.004724   2.741452   3.153652   2.597323
    19  H    5.084760   3.254405   1.988488   2.660722   2.257467
    20  C    8.031374   6.088253   4.785929   4.540832   3.695976
    21  O    8.128146   6.714913   5.499766   5.572793   4.800448
    22  H    8.955929   7.610763   6.426394   6.439051   5.687918
    23  C    9.621267   6.596661   5.427483   4.173797   3.365742
    24  O    9.311851   6.169866   5.140847   3.822926   3.182876
    25  H   10.192423   7.009458   6.058674   4.698979   4.168645
    26  C    8.689281   5.896803   4.573181   3.583136   2.488293
    27  O    9.377036   6.780404   5.466623   4.593616   3.636755
    28  C    9.367871   7.139380   5.779032   5.226503   4.185512
    29  O   10.349772   8.258201   6.961627   6.418847   5.511670
    30  H    3.987986   3.051469   4.245972   4.821617   5.925137
    31  H    2.053494   2.115086   2.484080   3.884395   4.542857
    32  H    2.482420   2.115086   2.611009   3.929227   4.519423
    33  H    3.369665   1.070000   2.052223   2.734709   4.013888
    34  H    4.302069   2.121989   2.682444   3.173590   4.013703
    35  H    5.509594   2.680084   3.189807   2.734515   4.093009
    36  H    6.423606   3.385666   2.863402   2.104169   2.445056
    37  H    5.823778   2.835733   2.061064   1.070000   2.059632
    38  H   10.960415   8.971979   7.640239   7.162798   6.153543
    39  H   10.595395   7.606276   6.395413   5.188347   4.256136
    40  H    9.729522   6.694473   5.631419   4.321184   3.805958
    41  H    8.956250   6.273649   4.894697   4.063905   2.739248
    42  H    7.094541   4.406493   3.234059   2.381459   2.057176
    43  H    7.555220   5.475110   4.053229   3.893527   2.644973
    44  H    7.872276   5.887893   4.707710   4.386696   3.838781
    45  H    9.716838   7.538099   6.125407   5.636706   4.414567
                   16         17         18         19         20
    16  C    0.000000
    17  C    1.520346   0.000000
    18  O    2.421617   1.434676   0.000000
    19  H    2.656512   2.102432   0.999433   0.000000
    20  C    2.483271   1.520746   2.489309   3.401676   0.000000
    21  O    3.777277   2.486789   2.870132   3.855135   1.434423
    22  H    4.553445   3.389773   3.849881   4.841914   2.081430
    23  C    2.742523   3.951176   5.125887   5.295861   4.343043
    24  O    3.198990   4.543294   5.479410   5.383192   5.305726
    25  H    4.120179   5.467910   6.450652   6.376425   6.105109
    26  C    1.519140   2.464948   3.727366   4.015372   2.950785
    27  O    2.305990   2.719774   4.090753   4.669373   2.381379
    28  C    2.856106   2.427817   3.750970   4.527679   1.519372
    29  O    4.117964   3.683991   4.853779   5.727154   2.374469
    30  H    7.163590   7.734460   6.898365   6.015267   9.026741
    31  H    5.247697   5.000232   3.676217   3.051322   6.012421
    32  H    5.599567   5.534498   4.371385   3.467646   6.817179
    33  H    4.749154   5.203541   4.337141   3.779038   6.182496
    34  H    5.358680   5.922685   5.234195   4.304082   7.319635
    35  H    4.964882   6.014827   5.666632   5.093514   7.057074
    36  H    3.745218   4.779857   4.758834   4.064900   6.131842
    37  H    2.388541   3.419340   3.340119   3.120616   4.321640
    38  H    4.817948   4.215751   5.365721   6.246260   2.945200
    39  H    3.580031   4.566908   5.854944   6.083976   4.793224
    40  H    3.052093   4.332108   5.442468   5.674713   4.518349
    41  H    2.101090   2.591139   3.857308   4.084399   3.225134
    42  H    1.070000   2.131674   2.767131   3.076786   2.656766
    43  H    2.106063   1.070000   2.029914   2.473826   2.104905
    44  H    2.570680   2.083154   2.796942   3.675136   1.070000
    45  H    3.283401   2.688587   4.006141   4.704087   2.143553
                   21         22         23         24         25
    21  O    0.000000
    22  H    1.000769   0.000000
    23  C    5.756487   6.258209   0.000000
    24  O    6.698523   7.329816   1.435112   0.000000
    25  H    7.515639   8.079575   1.862896   1.000318   0.000000
    26  C    4.337687   4.935128   1.520269   2.411378   3.190779
    27  O    3.720097   4.064472   2.285737   3.576278   4.148357
    28  C    2.542863   2.791562   3.636381   4.828455   5.476619
    29  O    2.891017   2.617542   4.593095   5.925999   6.441751
    30  H    9.702756  10.624989   8.683235   7.838034   8.499658
    31  H    6.178615   7.051817   7.776036   7.605302   8.535066
    32  H    7.145823   8.098649   7.858603   7.402466   8.311494
    33  H    6.808815   7.628515   6.771404   6.455595   7.242112
    34  H    8.073983   9.031248   6.900937   6.074994   6.833004
    35  H    8.059911   8.860458   5.997458   5.311523   5.862546
    36  H    7.227406   8.124681   4.506212   3.511789   4.241142
    37  H    5.392210   6.162182   4.087130   3.981694   4.774901
    38  H    3.145120   2.732283   5.223479   6.540489   7.040350
    39  H    6.142814   6.548812   1.070000   2.056609   2.123351
    40  H    5.942584   6.360541   1.070000   2.056609   2.236485
    41  H    4.452282   5.086699   2.102336   2.718716   3.495047
    42  H    3.932595   4.607247   3.023120   3.564586   4.380089
    43  H    2.849536   3.726091   4.065302   4.582036   5.501911
    44  H    2.001267   2.425996   4.388984   5.376821   6.127717
    45  H    2.873563   3.166272   3.909182   4.989324   5.642037
                   26         27         28         29         30
    26  C    0.000000
    27  O    1.435470   0.000000
    28  C    2.466905   1.435338   0.000000
    29  O    3.697876   2.359907   1.434461   0.000000
    30  H    8.309993   9.410039   9.940685  11.138175   0.000000
    31  H    6.735100   7.384714   7.331220   8.349848   4.347634
    32  H    6.945855   7.868533   7.951709   9.146061   3.334600
    33  H    6.136079   6.871282   7.268022   8.259698   3.460891
    34  H    6.434627   7.615070   8.123071   9.405344   2.107164
    35  H    5.928254   6.889460   7.724021   8.772586   3.444979
    36  H    4.363385   5.696308   6.502119   7.814339   4.435710
    37  H    3.572935   4.327881   5.023062   6.052572   5.358226
    38  H    4.317577   3.064728   1.974166   0.960000  11.847364
    39  H    2.131230   2.545903   3.783160   4.600214   9.657065
    40  H    2.131230   2.450835   3.883942   4.610612   8.821934
    41  H    1.070000   2.038249   2.635694   3.965609   8.585688
    42  H    2.130709   2.512837   3.164376   4.168530   7.127494
    43  H    2.578688   2.979993   2.564950   3.916110   8.113475
    44  H    3.185539   2.515873   2.079099   2.573051   8.868135
    45  H    2.728249   2.070279   1.070000   2.069445  10.244137
                   31         32         33         34         35
    31  H    0.000000
    32  H    1.735061   0.000000
    33  H    2.469125   2.995407   0.000000
    34  H    3.661267   2.464941   3.000380   0.000000
    35  H    4.749409   4.591009   2.486855   2.978191   0.000000
    36  H    5.110696   4.401650   4.005163   2.611783   2.962662
    37  H    4.206458   4.609214   2.734839   3.992426   2.754320
    38  H    8.946496   9.706281   9.035765  10.057479   9.605931
    39  H    8.714001   8.762780   7.817911   7.824426   7.034797
    40  H    7.937694   8.175761   6.700463   7.197926   5.852063
    41  H    6.982017   7.030542   6.667387   6.593684   6.530470
    42  H    5.208972   5.788082   4.383584   5.532793   4.609161
    43  H    5.517622   5.807239   5.923798   6.174625   6.627458
    44  H    5.923498   6.888083   5.800341   7.313183   6.659881
    45  H    7.663440   8.123645   7.802425   8.322540   8.247453
                   36         37         38         39         40
    36  H    0.000000
    37  H    2.973947   0.000000
    38  H    8.473231   6.879165   0.000000
    39  H    5.375302   5.142346   5.087208   0.000000
    40  H    4.897430   3.976164   5.355240   1.747619   0.000000
    41  H    4.539520   4.289222   4.379376   2.341745   2.981653
    42  H    4.069108   1.896309   4.999389   3.950732   2.948182
    43  H    4.937096   4.190274   4.247836   4.504573   4.671156
    44  H    6.174367   3.925920   3.353675   4.959252   4.313014
    45  H    6.672050   5.619463   2.139739   3.876254   4.397427
                   41         42         43         44         45
    41  H    0.000000
    42  H    2.986146   0.000000
    43  H    2.246586   2.987788   0.000000
    44  H    3.758732   2.290847   2.948172   0.000000
    45  H    2.454834   3.861062   2.374444   2.980840   0.000000
 Stoichiometry    C12H22O11
 Framework group  C1[X(C12H22O11)]
 Deg. of freedom   129
 Full point group                 C1      NOp   1
 Largest Abelian subgroup         C1      NOp   1
 Largest concise Abelian subgroup C1      NOp   1
                         Standard orientation:                         
 ---------------------------------------------------------------------
 Center     Atomic      Atomic             Coordinates (Angstroms)
 Number     Number       Type             X           Y           Z
 ---------------------------------------------------------------------
      1          8           0        5.024295   -0.108884   -0.372938
      2          6           0        3.684835   -0.008465    0.131933
      3          6           0        3.126277    1.307673   -0.384690
      4          8           0        3.963295    2.431835   -0.077375
      5          1           0        4.904135    2.205890   -0.331697
      6          6           0        1.696783    1.548380    0.073417
      7          8           0        1.010316    2.664499   -0.510354
      8          1           0        0.152030    2.882110   -0.044949
      9          6           0        3.234918   -2.499921    0.295472
     10          8           0        4.498567   -2.993695   -0.174172
     11          1           0        4.373990   -3.984381   -0.210772
     12          6           0        2.797644   -1.167489   -0.291164
     13          8           0        1.453519   -0.970962    0.170000
     14          6           0        0.870101    0.296452   -0.168797
     15          8           0       -0.252913    0.336794    0.723412
     16          6           0       -1.512845    0.170825    0.056322
     17          6           0       -2.044424   -1.165803    0.548566
     18          8           0       -0.996042   -2.145143    0.539473
     19          1           0       -0.118055   -1.904997    0.952191
     20          6           0       -3.278625   -1.547458   -0.253778
     21          8           0       -3.683050   -2.916255   -0.110934
     22          1           0       -4.538464   -3.175577   -0.560998
     23          6           0       -2.522408    2.720503    0.019464
     24          8           0       -1.343976    3.323099    0.574193
     25          1           0       -1.564865    4.278289    0.375553
     26          6           0       -2.543884    1.241421    0.370278
     27          8           0       -3.692092    0.795038   -0.366563
     28          6           0       -4.299715   -0.451902    0.002395
     29          8           0       -5.431054   -0.730167   -0.834456
     30          1           0        5.632426   -0.243090    0.357655
     31          1           0        2.485097   -3.228390    0.067434
     32          1           0        3.290552   -2.395456    1.358906
     33          1           0        2.796376   -1.237093   -1.358897
     34          1           0        3.720211    0.026593    1.200773
     35          1           0        3.097510    1.229727   -1.451459
     36          1           0        1.726874    1.712728    1.130291
     37          1           0        0.526755    0.278456   -1.182054
     38          1           0       -6.172824   -1.002902   -0.289485
     39          1           0       -3.391181    3.196241    0.424195
     40          1           0       -2.515272    2.835209   -1.044346
     41          1           0       -2.770748    1.166315    1.413251
     42          1           0       -1.354674    0.125430   -1.000949
     43          1           0       -2.351443   -1.035553    1.565264
     44          1           0       -2.999760   -1.443935   -1.281599
     45          1           0       -4.587533   -0.440182    1.032891
 ---------------------------------------------------------------------
 Rotational constants (GHZ):      0.4045188      0.1473046      0.1113610
 Standard basis: 6-31+G(d,p) (6D, 7F)
 There are   547 symmetry adapted basis functions of A   symmetry.
 Integral buffers will be    131072 words long.
 Raffenetti 2 integral format.
 Two-electron integral symmetry is turned on.
   547 basis functions,   890 primitive gaussians,   547 cartesian basis functions
    91 alpha electrons       91 beta electrons
       nuclear repulsion energy      2289.9413583922 Hartrees.
 NAtoms=   45 NActive=   45 NUniq=   45 SFac= 1.00D+00 NAtFMM=   50 NAOKFM=F Big=F
 One-electron integrals computed using PRISM.
 NBasis=   547 RedAO= T  NBF=   547
 NBsUse=   547 1.00D-06 NBFU=   547
 Harris functional with IExCor=  402 diagonalized for initial guess.
 ExpMin= 4.38D-02 ExpMax= 5.48D+03 ExpMxC= 8.25D+02 IAcc=2 IRadAn=         0 AccDes= 0.00D+00
 HarFok:  IExCor=  402 AccDes= 0.00D+00 IRadAn=         0 IDoV= 1
 ScaDFX=  1.000000  1.000000  1.000000  1.000000
 FoFCou: FMM=F IPFlag=           0 FMFlag=      100000 FMFlg1=           0
         NFxFlg=           0 DoJE=T BraDBF=F KetDBF=T FulRan=T
         Omega=  0.000000  0.000000  1.000000  0.000000  0.000000 ICntrl=     500 IOpCl=  0
         NMat0=    1 NMatS0=    1 NMatT0=    0 NMatD0=    1 NMtDS0=    0 NMtDT0=    0
         I1Cent=           4 NGrid=           0.
 Petite list used in FoFCou.
 Initial guess orbital symmetries:
       Occupied  (A) (A) (A) (A) (A) (A) (A) (A) (A) (A) (A) (A)
                 (A) (A) (A) (A) (A) (A) (A) (A) (A) (A) (A) (A)
                 (A) (A) (A) (A) (A) (A) (A) (A) (A) (A) (A) (A)
                 (A) (A) (A) (A) (A) (A) (A) (A) (A) (A) (A) (A)
                 (A) (A) (A) (A) (A) (A) (A) (A) (A) (A) (A) (A)
                 (A) (A) (A) (A) (A) (A) (A) (A) (A) (A) (A) (A)
                 (A) (A) (A) (A) (A) (A) (A) (A) (A) (A) (A) (A)
                 (A) (A) (A) (A) (A) (A) (A)
       Virtual   (A) (A) (A) (A) (A) (A) (A) (A) (A) (A) (A) (A)
                 (A) (A) (A) (A) (A) (A) (A) (A) (A) (A) (A) (A)
                 (A) (A) (A) (A) (A) (A) (A) (A) (A) (A) (A) (A)
                 (A) (A) (A) (A) (A) (A) (A) (A) (A) (A) (A) (A)
                 (A) (A) (A) (A) (A) (A) (A) (A) (A) (A) (A) (A)
                 (A) (A) (A) (A) (A) (A) (A) (A) (A) (A) (A) (A)
                 (A) (A) (A) (A) (A) (A) (A) (A) (A) (A) (A) (A)
                 (A) (A) (A) (A) (A) (A) (A) (A) (A) (A) (A) (A)
                 (A) (A) (A) (A) (A) (A) (A) (A) (A) (A) (A) (A)
                 (A) (A) (A) (A) (A) (A) (A) (A) (A) (A) (A) (A)
                 (A) (A) (A) (A) (A) (A) (A) (A) (A) (A) (A) (A)
                 (A) (A) (A) (A) (A) (A) (A) (A) (A) (A) (A) (A)
                 (A) (A) (A) (A) (A) (A) (A) (A) (A) (A) (A) (A)
                 (A) (A) (A) (A) (A) (A) (A) (A) (A) (A) (A) (A)
                 (A) (A) (A) (A) (A) (A) (A) (A) (A) (A) (A) (A)
                 (A) (A) (A) (A) (A) (A) (A) (A) (A) (A) (A) (A)
                 (A) (A) (A) (A) (A) (A) (A) (A) (A) (A) (A) (A)
                 (A) (A) (A) (A) (A) (A) (A) (A) (A) (A) (A) (A)
                 (A) (A) (A) (A) (A) (A) (A) (A) (A) (A) (A) (A)
                 (A) (A) (A) (A) (A) (A) (A) (A) (A) (A) (A) (A)
                 (A) (A) (A) (A) (A) (A) (A) (A) (A) (A) (A) (A)
                 (A) (A) (A) (A) (A) (A) (A) (A) (A) (A) (A) (A)
                 (A) (A) (A) (A) (A) (A) (A) (A) (A) (A) (A) (A)
                 (A) (A) (A) (A) (A) (A) (A) (A) (A) (A) (A) (A)
                 (A) (A) (A) (A) (A) (A) (A) (A) (A) (A) (A) (A)
                 (A) (A) (A) (A) (A) (A) (A) (A) (A) (A) (A) (A)
                 (A) (A) (A) (A) (A) (A) (A) (A) (A) (A) (A) (A)
                 (A) (A) (A) (A) (A) (A) (A) (A) (A) (A) (A) (A)
                 (A) (A) (A) (A) (A) (A) (A) (A) (A) (A) (A) (A)
                 (A) (A) (A) (A) (A) (A) (A) (A) (A) (A) (A) (A)
                 (A) (A) (A) (A) (A) (A) (A) (A) (A) (A) (A) (A)
                 (A) (A) (A) (A) (A) (A) (A) (A) (A) (A) (A) (A)
                 (A) (A) (A) (A) (A) (A) (A) (A) (A) (A) (A) (A)
                 (A) (A) (A) (A) (A) (A) (A) (A) (A) (A) (A) (A)
                 (A) (A) (A) (A) (A) (A) (A) (A) (A) (A) (A) (A)
                 (A) (A) (A) (A) (A) (A) (A) (A) (A) (A) (A) (A)
                 (A) (A) (A) (A) (A) (A) (A) (A) (A) (A) (A) (A)
                 (A) (A) (A) (A) (A) (A) (A) (A) (A) (A) (A) (A)
 The electronic state of the initial guess is 1-A.
 Requested convergence on RMS density matrix=1.00D-08 within 128 cycles.
 Requested convergence on MAX density matrix=1.00D-06.
 Requested convergence on             energy=1.00D-06.
 No special actions if energy rises.
 SCF Done:  E(RB3LYP) =  -1297.93573046     A.U. after   14 cycles
             Convg  =    0.2239D-08             -V/T =  2.0087
 Range of M.O.s used for correlation:     1   547
 NBasis=   547 NAE=    91 NBE=    91 NFC=     0 NFV=     0
 NROrb=    547 NOA=    91 NOB=    91 NVA=   456 NVB=   456

 **** Warning!!: The largest alpha MO coefficient is  0.77119741D+02

          Differentiating once with respect to electric field.
                with respect to dipole field.
          Electric field/nuclear overlap derivatives assumed to be zero.
          There are     3 degrees of freedom in the 1st order CPHF.  IDoFFX=0.
      3 vectors produced by pass  0 Test12= 1.38D-12 3.33D-08 XBig12= 1.20D+02 1.15D+00.
 AX will form     3 AO Fock derivatives at one time.
      3 vectors produced by pass  1 Test12= 1.38D-12 3.33D-08 XBig12= 2.14D+01 3.84D-01.
      3 vectors produced by pass  2 Test12= 1.38D-12 3.33D-08 XBig12= 9.29D+00 2.01D-01.
      3 vectors produced by pass  3 Test12= 1.38D-12 3.33D-08 XBig12= 8.78D-01 9.94D-02.
      3 vectors produced by pass  4 Test12= 1.38D-12 3.33D-08 XBig12= 2.48D-01 4.78D-02.
      3 vectors produced by pass  5 Test12= 1.38D-12 3.33D-08 XBig12= 5.33D-02 1.82D-02.
      3 vectors produced by pass  6 Test12= 1.38D-12 3.33D-08 XBig12= 1.61D-02 1.77D-02.
      3 vectors produced by pass  7 Test12= 1.38D-12 3.33D-08 XBig12= 2.39D-03 6.13D-03.
      3 vectors produced by pass  8 Test12= 1.38D-12 3.33D-08 XBig12= 4.42D-04 1.59D-03.
      3 vectors produced by pass  9 Test12= 1.38D-12 3.33D-08 XBig12= 1.01D-04 1.13D-03.
      3 vectors produced by pass 10 Test12= 1.38D-12 3.33D-08 XBig12= 2.55D-05 4.89D-04.
      3 vectors produced by pass 11 Test12= 1.38D-12 3.33D-08 XBig12= 7.42D-06 2.33D-04.
      3 vectors produced by pass 12 Test12= 1.38D-12 3.33D-08 XBig12= 6.95D-07 9.23D-05.
      3 vectors produced by pass 13 Test12= 1.38D-12 3.33D-08 XBig12= 2.83D-07 4.47D-05.
      3 vectors produced by pass 14 Test12= 1.38D-12 3.33D-08 XBig12= 4.50D-08 2.17D-05.
      3 vectors produced by pass 15 Test12= 1.38D-12 3.33D-08 XBig12= 1.49D-08 1.14D-05.
      3 vectors produced by pass 16 Test12= 1.38D-12 3.33D-08 XBig12= 1.22D-09 3.47D-06.
      3 vectors produced by pass 17 Test12= 1.38D-12 3.33D-08 XBig12= 1.02D-10 8.55D-07.
      3 vectors produced by pass 18 Test12= 1.38D-12 3.33D-08 XBig12= 3.08D-11 3.53D-07.
      3 vectors produced by pass 19 Test12= 1.38D-12 3.33D-08 XBig12= 1.09D-11 2.81D-07.
      3 vectors produced by pass 20 Test12= 1.38D-12 3.33D-08 XBig12= 5.96D-12 2.18D-07.
      2 vectors produced by pass 21 Test12= 1.38D-12 3.33D-08 XBig12= 1.13D-12 6.87D-08.
 Inverted reduced A of dimension    65 with in-core refinement.
 End of Minotr Frequency-dependent properties file   721 does not exist.
 End of Minotr Frequency-dependent properties file   722 does not exist.
 Symmetrizing basis deriv contribution to polar:
 IMax=3 JMax=2 DiffMx= 0.00D+00
 G2DrvN: will do    23 centers at a time, making    2 passes doing MaxLOS=2.
 Calling FoFCou, ICntrl=  3107 FMM=F I1Cent=   0 AccDes= 0.00D+00.
 Calling FoFCou, ICntrl=  3107 FMM=F I1Cent=   0 AccDes= 0.00D+00.
 FoFDir/FoFCou used for L=0 through L=2.
 End of G2Drv Frequency-dependent properties file   721 does not exist.
 End of G2Drv Frequency-dependent properties file   722 does not exist.
          IDoAtm=111111111111111111111111111111111111111111111
          Differentiating once with respect to electric field.
                with respect to dipole field.
          Differentiating once with respect to nuclear coordinates.
          There are   138 degrees of freedom in the 1st order CPHF.  IDoFFX=5.
 Will reuse    3 saved solutions.
    135 vectors produced by pass  0 Test12= 4.15D-14 1.00D-09 XBig12= 2.75D-01 9.54D-02.
 AX will form    68 AO Fock derivatives at one time.
    135 vectors produced by pass  1 Test12= 4.15D-14 1.00D-09 XBig12= 3.82D-02 1.58D-02.
    132 vectors produced by pass  2 Test12= 4.15D-14 1.00D-09 XBig12= 2.50D-04 1.42D-03.
    132 vectors produced by pass  3 Test12= 4.15D-14 1.00D-09 XBig12= 7.33D-07 7.90D-05.
    132 vectors produced by pass  4 Test12= 4.15D-14 1.00D-09 XBig12= 1.25D-09 3.10D-06.
    132 vectors produced by pass  5 Test12= 4.15D-14 1.00D-09 XBig12= 3.76D-12 1.34D-07.
     80 vectors produced by pass  6 Test12= 4.15D-14 1.00D-09 XBig12= 1.22D-13 2.18D-08.
 Inverted reduced A of dimension   878 with in-core refinement.
 Isotropic polarizability for W=    0.000000      187.77 Bohr**3.
 End of Minotr Frequency-dependent properties file   721 does not exist.
 End of Minotr Frequency-dependent properties file   722 does not exist.

 **********************************************************************

            Population analysis using the SCF density.

 **********************************************************************

 Orbital symmetries:
       Occupied  (A) (A) (A) (A) (A) (A) (A) (A) (A) (A) (A) (A)
                 (A) (A) (A) (A) (A) (A) (A) (A) (A) (A) (A) (A)
                 (A) (A) (A) (A) (A) (A) (A) (A) (A) (A) (A) (A)
                 (A) (A) (A) (A) (A) (A) (A) (A) (A) (A) (A) (A)
                 (A) (A) (A) (A) (A) (A) (A) (A) (A) (A) (A) (A)
                 (A) (A) (A) (A) (A) (A) (A) (A) (A) (A) (A) (A)
                 (A) (A) (A) (A) (A) (A) (A) (A) (A) (A) (A) (A)
                 (A) (A) (A) (A) (A) (A) (A)
       Virtual   (A) (A) (A) (A) (A) (A) (A) (A) (A) (A) (A) (A)
                 (A) (A) (A) (A) (A) (A) (A) (A) (A) (A) (A) (A)
                 (A) (A) (A) (A) (A) (A) (A) (A) (A) (A) (A) (A)
                 (A) (A) (A) (A) (A) (A) (A) (A) (A) (A) (A) (A)
                 (A) (A) (A) (A) (A) (A) (A) (A) (A) (A) (A) (A)
                 (A) (A) (A) (A) (A) (A) (A) (A) (A) (A) (A) (A)
                 (A) (A) (A) (A) (A) (A) (A) (A) (A) (A) (A) (A)
                 (A) (A) (A) (A) (A) (A) (A) (A) (A) (A) (A) (A)
                 (A) (A) (A) (A) (A) (A) (A) (A) (A) (A) (A) (A)
                 (A) (A) (A) (A) (A) (A) (A) (A) (A) (A) (A) (A)
                 (A) (A) (A) (A) (A) (A) (A) (A) (A) (A) (A) (A)
                 (A) (A) (A) (A) (A) (A) (A) (A) (A) (A) (A) (A)
                 (A) (A) (A) (A) (A) (A) (A) (A) (A) (A) (A) (A)
                 (A) (A) (A) (A) (A) (A) (A) (A) (A) (A) (A) (A)
                 (A) (A) (A) (A) (A) (A) (A) (A) (A) (A) (A) (A)
                 (A) (A) (A) (A) (A) (A) (A) (A) (A) (A) (A) (A)
                 (A) (A) (A) (A) (A) (A) (A) (A) (A) (A) (A) (A)
                 (A) (A) (A) (A) (A) (A) (A) (A) (A) (A) (A) (A)
                 (A) (A) (A) (A) (A) (A) (A) (A) (A) (A) (A) (A)
                 (A) (A) (A) (A) (A) (A) (A) (A) (A) (A) (A) (A)
                 (A) (A) (A) (A) (A) (A) (A) (A) (A) (A) (A) (A)
                 (A) (A) (A) (A) (A) (A) (A) (A) (A) (A) (A) (A)
                 (A) (A) (A) (A) (A) (A) (A) (A) (A) (A) (A) (A)
                 (A) (A) (A) (A) (A) (A) (A) (A) (A) (A) (A) (A)
                 (A) (A) (A) (A) (A) (A) (A) (A) (A) (A) (A) (A)
                 (A) (A) (A) (A) (A) (A) (A) (A) (A) (A) (A) (A)
                 (A) (A) (A) (A) (A) (A) (A) (A) (A) (A) (A) (A)
                 (A) (A) (A) (A) (A) (A) (A) (A) (A) (A) (A) (A)
                 (A) (A) (A) (A) (A) (A) (A) (A) (A) (A) (A) (A)
                 (A) (A) (A) (A) (A) (A) (A) (A) (A) (A) (A) (A)
                 (A) (A) (A) (A) (A) (A) (A) (A) (A) (A) (A) (A)
                 (A) (A) (A) (A) (A) (A) (A) (A) (A) (A) (A) (A)
                 (A) (A) (A) (A) (A) (A) (A) (A) (A) (A) (A) (A)
                 (A) (A) (A) (A) (A) (A) (A) (A) (A) (A) (A) (A)
                 (A) (A) (A) (A) (A) (A) (A) (A) (A) (A) (A) (A)
                 (A) (A) (A) (A) (A) (A) (A) (A) (A) (A) (A) (A)
                 (A) (A) (A) (A) (A) (A) (A) (A) (A) (A) (A) (A)
                 (A) (A) (A) (A) (A) (A) (A) (A) (A) (A) (A) (A)
 The electronic state is 1-A.
 Alpha  occ. eigenvalues --  -19.20611 -19.19183 -19.18600 -19.18489 -19.17967
 Alpha  occ. eigenvalues --  -19.17406 -19.17065 -19.16496 -19.15392 -19.13974
 Alpha  occ. eigenvalues --  -19.13904 -10.31471 -10.29992 -10.26765 -10.26356
 Alpha  occ. eigenvalues --  -10.25651 -10.25359 -10.25196 -10.24771 -10.24728
 Alpha  occ. eigenvalues --  -10.24221 -10.24195 -10.24072  -1.09560  -1.08904
 Alpha  occ. eigenvalues --   -1.06876  -1.05035  -1.04118  -1.03388  -1.02701
 Alpha  occ. eigenvalues --   -1.01915  -1.01270  -0.99814  -0.99240  -0.81742
 Alpha  occ. eigenvalues --   -0.80306  -0.80072  -0.78005  -0.72091  -0.69800
 Alpha  occ. eigenvalues --   -0.66732  -0.64702  -0.63121  -0.62511  -0.61878
 Alpha  occ. eigenvalues --   -0.59667  -0.56696  -0.55681  -0.55050  -0.54691
 Alpha  occ. eigenvalues --   -0.54259  -0.53483  -0.52947  -0.51649  -0.51114
 Alpha  occ. eigenvalues --   -0.50816  -0.49996  -0.48925  -0.48548  -0.46809
 Alpha  occ. eigenvalues --   -0.46043  -0.44784  -0.44517  -0.43250  -0.42891
 Alpha  occ. eigenvalues --   -0.42382  -0.41685  -0.41099  -0.40308  -0.39744
 Alpha  occ. eigenvalues --   -0.38449  -0.38220  -0.36937  -0.36205  -0.35686
 Alpha  occ. eigenvalues --   -0.35171  -0.34276  -0.34119  -0.33246  -0.32804
 Alpha  occ. eigenvalues --   -0.31990  -0.31499  -0.30961  -0.29705  -0.29260
 Alpha  occ. eigenvalues --   -0.28910  -0.28742  -0.27557  -0.27344  -0.26519
 Alpha  occ. eigenvalues --   -0.26308
 Alpha virt. eigenvalues --   -0.02494  -0.02079  -0.01538  -0.00089   0.00243
 Alpha virt. eigenvalues --    0.00944   0.01917   0.02249   0.03001   0.03693
 Alpha virt. eigenvalues --    0.03830   0.04325   0.04968   0.05503   0.05767
 Alpha virt. eigenvalues --    0.06250   0.06523   0.07366   0.07670   0.08109
 Alpha virt. eigenvalues --    0.08842   0.08930   0.09134   0.09588   0.10282
 Alpha virt. eigenvalues --    0.10581   0.11021   0.11522   0.11854   0.12029
 Alpha virt. eigenvalues --    0.12429   0.12920   0.13320   0.13678   0.14223
 Alpha virt. eigenvalues --    0.14291   0.14658   0.15018   0.15020   0.15621
 Alpha virt. eigenvalues --    0.15692   0.16565   0.16975   0.17348   0.17519
 Alpha virt. eigenvalues --    0.17614   0.17872   0.18233   0.18366   0.18638
 Alpha virt. eigenvalues --    0.19014   0.19209   0.19388   0.19951   0.20340
 Alpha virt. eigenvalues --    0.20720   0.20883   0.20975   0.21495   0.21967
 Alpha virt. eigenvalues --    0.22364   0.22447   0.22789   0.23209   0.23665
 Alpha virt. eigenvalues --    0.23709   0.24104   0.24171   0.24288   0.24428
 Alpha virt. eigenvalues --    0.24841   0.25252   0.25698   0.26015   0.26426
 Alpha virt. eigenvalues --    0.26656   0.26872   0.27280   0.27497   0.27757
 Alpha virt. eigenvalues --    0.28095   0.28158   0.28253   0.28681   0.28964
 Alpha virt. eigenvalues --    0.29937   0.29981   0.30248   0.30690   0.31200
 Alpha virt. eigenvalues --    0.31297   0.31753   0.32098   0.32457   0.32524
 Alpha virt. eigenvalues --    0.33032   0.33198   0.33498   0.34060   0.34168
 Alpha virt. eigenvalues --    0.34627   0.34874   0.35219   0.35690   0.36159
 Alpha virt. eigenvalues --    0.36367   0.36749   0.36960   0.37570   0.37790
 Alpha virt. eigenvalues --    0.38454   0.38640   0.39049   0.39521   0.40054
 Alpha virt. eigenvalues --    0.40620   0.40756   0.40784   0.42120   0.42388
 Alpha virt. eigenvalues --    0.42651   0.43090   0.43967   0.44082   0.44709
 Alpha virt. eigenvalues --    0.45237   0.46106   0.46541   0.46991   0.47889
 Alpha virt. eigenvalues --    0.49033   0.49438   0.49978   0.50500   0.51282
 Alpha virt. eigenvalues --    0.51521   0.52645   0.55483   0.62495   0.63871
 Alpha virt. eigenvalues --    0.64485   0.65516   0.67479   0.68304   0.69726
 Alpha virt. eigenvalues --    0.70180   0.71917   0.72591   0.73613   0.74285
 Alpha virt. eigenvalues --    0.75254   0.75678   0.76349   0.77150   0.78247
 Alpha virt. eigenvalues --    0.78976   0.81007   0.82211   0.82937   0.85288
 Alpha virt. eigenvalues --    0.85791   0.86873   0.87304   0.88388   0.89644
 Alpha virt. eigenvalues --    0.90753   0.92780   0.93519   0.94244   0.94996
 Alpha virt. eigenvalues --    0.95950   0.97882   0.98499   0.99942   1.00982
 Alpha virt. eigenvalues --    1.01665   1.01903   1.02370   1.03277   1.04267
 Alpha virt. eigenvalues --    1.04774   1.05830   1.06322   1.06822   1.07513
 Alpha virt. eigenvalues --    1.08081   1.08677   1.09313   1.10172   1.11182
 Alpha virt. eigenvalues --    1.11575   1.12313   1.13281   1.14766   1.15757
 Alpha virt. eigenvalues --    1.16308   1.17952   1.19044   1.20114   1.21397
 Alpha virt. eigenvalues --    1.22051   1.22607   1.24155   1.24649   1.25258
 Alpha virt. eigenvalues --    1.26249   1.26522   1.26983   1.28367   1.28842
 Alpha virt. eigenvalues --    1.29730   1.30615   1.31180   1.31296   1.32010
 Alpha virt. eigenvalues --    1.32313   1.32731   1.33606   1.34133   1.34725
 Alpha virt. eigenvalues --    1.35928   1.36368   1.36914   1.38311   1.38659
 Alpha virt. eigenvalues --    1.38802   1.40786   1.41653   1.42875   1.43572
 Alpha virt. eigenvalues --    1.44151   1.44790   1.46191   1.46794   1.48249
 Alpha virt. eigenvalues --    1.49146   1.50424   1.50845   1.53100   1.54239
 Alpha virt. eigenvalues --    1.55000   1.56321   1.56996   1.57511   1.58070
 Alpha virt. eigenvalues --    1.58618   1.59482   1.60549   1.60969   1.62035
 Alpha virt. eigenvalues --    1.62825   1.64114   1.65262   1.66362   1.66458
 Alpha virt. eigenvalues --    1.67117   1.68053   1.68613   1.68906   1.69610
 Alpha virt. eigenvalues --    1.70895   1.71973   1.72918   1.73324   1.74093
 Alpha virt. eigenvalues --    1.75181   1.76062   1.76501   1.77317   1.78379
 Alpha virt. eigenvalues --    1.78974   1.79732   1.80336   1.80953   1.81436
 Alpha virt. eigenvalues --    1.82566   1.83053   1.84217   1.86310   1.86688
 Alpha virt. eigenvalues --    1.87014   1.88696   1.88945   1.90329   1.90541
 Alpha virt. eigenvalues --    1.91891   1.92089   1.93309   1.93929   1.95197
 Alpha virt. eigenvalues --    1.95980   1.96516   1.96911   1.98093   1.98408
 Alpha virt. eigenvalues --    1.99193   1.99765   2.00071   2.01201   2.02236
 Alpha virt. eigenvalues --    2.03741   2.05150   2.05230   2.06263   2.06752
 Alpha virt. eigenvalues --    2.07785   2.09409   2.10200   2.11542   2.12114
 Alpha virt. eigenvalues --    2.12697   2.13634   2.14350   2.15434   2.15883
 Alpha virt. eigenvalues --    2.16395   2.16713   2.18296   2.19123   2.19743
 Alpha virt. eigenvalues --    2.21650   2.22986   2.24314   2.24990   2.26925
 Alpha virt. eigenvalues --    2.29576   2.31638   2.32942   2.33535   2.35182
 Alpha virt. eigenvalues --    2.36363   2.38186   2.38287   2.39165   2.40029
 Alpha virt. eigenvalues --    2.41180   2.42087   2.43132   2.44348   2.44770
 Alpha virt. eigenvalues --    2.45550   2.47318   2.47888   2.47974   2.49756
 Alpha virt. eigenvalues --    2.50727   2.51695   2.52921   2.54030   2.56349
 Alpha virt. eigenvalues --    2.57135   2.58782   2.59697   2.60333   2.60882
 Alpha virt. eigenvalues --    2.61334   2.61811   2.62698   2.63585   2.64722
 Alpha virt. eigenvalues --    2.65927   2.67588   2.68334   2.69011   2.70816
 Alpha virt. eigenvalues --    2.71391   2.71928   2.73042   2.74853   2.75175
 Alpha virt. eigenvalues --    2.75325   2.76066   2.78053   2.78766   2.79283
 Alpha virt. eigenvalues --    2.80725   2.82504   2.84003   2.84112   2.85074
 Alpha virt. eigenvalues --    2.85618   2.87452   2.87726   2.89364   2.89763
 Alpha virt. eigenvalues --    2.90516   2.92311   2.92671   2.93140   2.93685
 Alpha virt. eigenvalues --    2.95791   2.96731   2.97537   2.97826   2.99326
 Alpha virt. eigenvalues --    3.03010   3.04414   3.04875   3.06090   3.06562
 Alpha virt. eigenvalues --    3.08218   3.08449   3.11165   3.13549   3.16501
 Alpha virt. eigenvalues --    3.16860   3.20688   3.22204   3.23246   3.28692
 Alpha virt. eigenvalues --    3.31644   3.34699   3.37174   3.38984   3.41477
 Alpha virt. eigenvalues --    3.43036   3.44209   3.46137   3.46975   3.48608
 Alpha virt. eigenvalues --    3.49484   3.49921   3.52720   3.53037   3.53947
 Alpha virt. eigenvalues --    3.55334   3.57231   3.59832   3.61718   3.63155
 Alpha virt. eigenvalues --    3.66021   3.66957   3.70387   4.29024   4.34246
 Alpha virt. eigenvalues --    4.34793   4.39346   4.40279   4.42781   4.44518
 Alpha virt. eigenvalues --    4.47642   4.49737   4.50684   4.52938   4.54473
 Alpha virt. eigenvalues --    4.57477   4.58730   4.60501   4.62139   4.74073
 Alpha virt. eigenvalues --    4.77273   4.81926   4.85185   4.86732   4.91336
 Alpha virt. eigenvalues --    4.98406
          Condensed to atoms (all electrons):
              1          2          3          4          5          6
     1  O    8.286679   0.284196  -0.150167  -0.012732   0.030783   0.047639
     2  C    0.284196   8.245767  -1.054496  -0.043655  -0.118587  -1.734227
     3  C   -0.150167  -1.054496   9.294835   0.177260   0.075492  -0.265676
     4  O   -0.012732  -0.043655   0.177260   8.244404   0.197212  -0.066240
     5  H    0.030783  -0.118587   0.075492   0.197212   0.419621   0.029859
     6  C    0.047639  -1.734227  -0.265676  -0.066240   0.029859  10.545132
     7  O   -0.000770   0.011726  -0.144620   0.007465  -0.000700   0.360315
     8  H    0.000034  -0.008915   0.034414  -0.000655   0.000012   0.034924
     9  C    0.017749   0.200987  -0.224980   0.006711  -0.003458   0.226671
    10  O    0.001609   0.083316   0.018812   0.000050  -0.000035  -0.006756
    11  H    0.001339  -0.021919  -0.000778   0.000002   0.000000   0.000793
    12  C   -0.197507  -0.940563  -0.868946   0.038958   0.014985   0.243831
    13  O    0.009671  -0.070305  -0.021662   0.000506  -0.000017  -0.080218
    14  C    0.024303   0.636624  -0.334191   0.009491   0.000321  -2.769388
    15  O    0.000574  -0.050296   0.057519  -0.000084   0.000066   0.089236
    16  C    0.006920  -0.030075  -0.329054  -0.005204   0.001513  -0.086590
    17  C    0.000859  -0.027294  -0.017055   0.000632   0.000023  -0.128174
    18  O    0.000010   0.008662  -0.001745  -0.000015   0.000000   0.019162
    19  H   -0.000008  -0.008108   0.007255  -0.000002   0.000000   0.012321
    20  C    0.000052   0.000457   0.003713  -0.000213   0.000001   0.096415
    21  O    0.000000  -0.000113  -0.000046   0.000000   0.000000  -0.000218
    22  H    0.000000   0.000001   0.000002   0.000000   0.000000  -0.000067
    23  C    0.000124   0.014158  -0.043648  -0.000050  -0.000006  -0.251794
    24  O   -0.000005   0.005302  -0.002395  -0.000045  -0.000006   0.007315
    25  H    0.000000  -0.000064   0.000147  -0.000004   0.000000  -0.004951
    26  C   -0.000015   0.029011  -0.084417   0.001218   0.000037  -0.258938
    27  O    0.000000  -0.000404   0.001675   0.000000   0.000000   0.009831
    28  C    0.000002  -0.002043   0.002415   0.000026   0.000000   0.011132
    29  O    0.000000  -0.000007   0.000045   0.000000   0.000000  -0.000711
    30  H    0.235210   0.057137  -0.016526   0.000790  -0.003192   0.004409
    31  H    0.000248  -0.008949  -0.003636   0.000020   0.000000   0.002296
    32  H    0.001714  -0.006033  -0.003070  -0.000035   0.000000   0.014417
    33  H    0.007586   0.020831  -0.043488  -0.000172   0.000000  -0.014587
    34  H   -0.047859   0.430207  -0.074401   0.001346  -0.000376  -0.017314
    35  H   -0.004833   0.121589   0.183345  -0.046207  -0.004806  -0.211497
    36  H   -0.000819   0.090036  -0.227780   0.004544  -0.000053   0.335436
    37  H   -0.000042   0.026519  -0.054300  -0.000322   0.000007  -0.081216
    38  H    0.000000   0.000000   0.000001   0.000000   0.000000   0.000000
    39  H    0.000000   0.000012  -0.000148   0.000000   0.000000  -0.001029
    40  H    0.000000  -0.000090   0.000850   0.000001   0.000000   0.003810
    41  H    0.000000  -0.000041   0.001483   0.000000   0.000000   0.005203
    42  H   -0.000003   0.000295   0.002533   0.000005   0.000000   0.009034
    43  H    0.000000   0.000862   0.000220   0.000000   0.000000   0.004844
    44  H    0.000000   0.000030   0.000182   0.000000   0.000000   0.000321
    45  H    0.000000  -0.000009   0.000030   0.000000   0.000000   0.000424
              7          8          9         10         11         12
     1  O   -0.000770   0.000034   0.017749   0.001609   0.001339  -0.197507
     2  C    0.011726  -0.008915   0.200987   0.083316  -0.021919  -0.940563
     3  C   -0.144620   0.034414  -0.224980   0.018812  -0.000778  -0.868946
     4  O    0.007465  -0.000655   0.006711   0.000050   0.000002   0.038958
     5  H   -0.000700   0.000012  -0.003458  -0.000035   0.000000   0.014985
     6  C    0.360315   0.034924   0.226671  -0.006756   0.000793   0.243831
     7  O    8.235082   0.217631   0.000728   0.000012   0.000000   0.030259
     8  H    0.217631   0.334831   0.000015   0.000000   0.000000  -0.006657
     9  C    0.000728   0.000015   7.941835   0.088969   0.038018  -2.762872
    10  O    0.000012   0.000000   0.088969   8.351756   0.188821  -0.111299
    11  H    0.000000   0.000000   0.038018   0.188821   0.445316   0.014825
    12  C    0.030259  -0.006657  -2.762872  -0.111299   0.014825  11.443169
    13  O    0.010289  -0.000665   0.113122   0.001401  -0.000106  -0.283692
    14  C   -0.161650  -0.088112  -0.374856   0.007483  -0.004637  -0.435735
    15  O    0.000156   0.017529  -0.035537  -0.000230   0.000005   0.041178
    16  C    0.013160   0.043219  -0.262800  -0.002560  -0.000264   0.018071
    17  C    0.017816   0.006212   0.005905   0.000083   0.000002  -0.124197
    18  O   -0.000255  -0.000033   0.004621  -0.000006   0.000004  -0.012256
    19  H   -0.000076  -0.000001   0.006991  -0.000021  -0.000001  -0.009170
    20  C    0.006051   0.001837   0.000711   0.000071  -0.000001  -0.037584
    21  O   -0.000009  -0.000001   0.000288   0.000000   0.000000  -0.000186
    22  H    0.000000   0.000000   0.000000   0.000000   0.000000   0.000051
    23  C    0.029588   0.019141  -0.001851  -0.000008   0.000000  -0.012596
    24  O   -0.028293  -0.015299   0.000448   0.000000   0.000000   0.003893
    25  H    0.001553  -0.001760  -0.000008   0.000000   0.000000  -0.000179
    26  C   -0.003101  -0.041756  -0.004191   0.000005   0.000000   0.046039
    27  O    0.000347   0.000248  -0.000060   0.000000   0.000000  -0.000688
    28  C   -0.000579  -0.000496  -0.003179  -0.000008   0.000000   0.004163
    29  O   -0.000006  -0.000001   0.000000   0.000000   0.000000   0.000091
    30  H   -0.000024   0.000000  -0.007280  -0.001531  -0.000020  -0.021156
    31  H   -0.000010   0.000000   0.384951  -0.035070  -0.016211  -0.001472
    32  H    0.000003   0.000000   0.674748  -0.067254   0.001189  -0.327707
    33  H   -0.000007   0.000002   0.058307   0.008085  -0.000169   0.150491
    34  H    0.000254   0.000003   0.025668   0.000052   0.000006  -0.155451
    35  H    0.007255  -0.000109   0.022347   0.000077   0.000001  -0.009003
    36  H   -0.043565  -0.007699   0.010999   0.000020   0.000000  -0.000801
    37  H    0.000170  -0.000465   0.008674   0.000071   0.000000  -0.013835
    38  H    0.000000   0.000000   0.000000   0.000000   0.000000   0.000000
    39  H   -0.000602   0.000269  -0.000001   0.000000   0.000000  -0.000014
    40  H    0.001424   0.000666  -0.000002   0.000000   0.000000   0.000055
    41  H    0.000204   0.000015   0.000043   0.000000   0.000000   0.000435
    42  H   -0.000769  -0.000051   0.000092   0.000001   0.000000   0.002234
    43  H    0.000027   0.000001  -0.000365   0.000000   0.000000  -0.000228
    44  H    0.000021   0.000000  -0.000110   0.000000   0.000000   0.000154
    45  H    0.000003   0.000000   0.000001   0.000000   0.000000  -0.000029
             13         14         15         16         17         18
     1  O    0.009671   0.024303   0.000574   0.006920   0.000859   0.000010
     2  C   -0.070305   0.636624  -0.050296  -0.030075  -0.027294   0.008662
     3  C   -0.021662  -0.334191   0.057519  -0.329054  -0.017055  -0.001745
     4  O    0.000506   0.009491  -0.000084  -0.005204   0.000632  -0.000015
     5  H   -0.000017   0.000321   0.000066   0.001513   0.000023   0.000000
     6  C   -0.080218  -2.769388   0.089236  -0.086590  -0.128174   0.019162
     7  O    0.010289  -0.161650   0.000156   0.013160   0.017816  -0.000255
     8  H   -0.000665  -0.088112   0.017529   0.043219   0.006212  -0.000033
     9  C    0.113122  -0.374856  -0.035537  -0.262800   0.005905   0.004621
    10  O    0.001401   0.007483  -0.000230  -0.002560   0.000083  -0.000006
    11  H   -0.000106  -0.004637   0.000005  -0.000264   0.000002   0.000004
    12  C   -0.283692  -0.435735   0.041178   0.018071  -0.124197  -0.012256
    13  O    8.548772   0.159457  -0.052576   0.152302  -0.051867   0.003731
    14  C    0.159457  11.576494   0.055616  -0.621240  -0.735332  -0.048357
    15  O   -0.052576   0.055616   8.356286  -0.122901   0.025797   0.012360
    16  C    0.152302  -0.621240  -0.122901  19.559804  -2.636646  -0.151631
    17  C   -0.051867  -0.735332   0.025797  -2.636646   8.880777   0.442690
    18  O    0.003731  -0.048357   0.012360  -0.151631   0.442690   8.139578
    19  H   -0.002593   0.023792   0.031662  -0.156366   0.065360   0.213694
    20  C   -0.019008  -0.174945   0.104891  -2.848929  -0.504142  -0.112278
    21  O   -0.000710   0.012154  -0.002229   0.009635  -0.146369   0.015327
    22  H    0.000004  -0.001052   0.000025  -0.002762   0.039280  -0.000659
    23  C    0.016911  -0.259663  -0.022819  -0.334868  -0.133731   0.002763
    24  O   -0.000258   0.070676  -0.007818   0.020865   0.001998   0.000229
    25  H    0.000017  -0.000751   0.000806  -0.012738  -0.001350  -0.000001
    26  C   -0.005161  -1.596772  -0.000953  -7.420736   1.250289   0.012465
    27  O    0.000456  -0.037421   0.013311  -0.149750  -0.019314   0.002553
    28  C    0.005355  -0.084483  -0.000430   1.160119  -0.264844  -0.012366
    29  O    0.000046  -0.002643   0.000051  -0.043391   0.033604  -0.001170
    30  H   -0.001272   0.000343  -0.000029   0.000286  -0.000042   0.000000
    31  H   -0.006486   0.001275  -0.000283   0.004591  -0.000521  -0.000275
    32  H    0.010036  -0.003985  -0.000648  -0.004940   0.000538   0.000017
    33  H   -0.033433   0.084436  -0.003005   0.006765   0.002797   0.000156
    34  H    0.016121   0.059987  -0.000624  -0.002597   0.001202   0.000089
    35  H    0.008012   0.131747  -0.000968   0.009115   0.001634   0.000059
    36  H    0.013537   0.016067  -0.014787   0.034968   0.008908   0.000164
    37  H   -0.040341   0.379741  -0.089314  -0.011850   0.035920  -0.000208
    38  H    0.000000   0.000356  -0.000005   0.003652   0.007432  -0.000015
    39  H   -0.000007   0.000889  -0.000328   0.004867  -0.003250   0.000022
    40  H    0.000045  -0.002707   0.002012   0.029928   0.006012   0.000037
    41  H   -0.000044   0.048219   0.006991   0.090532  -0.021328   0.000441
    42  H    0.001286  -0.006588  -0.059153   0.219393  -0.025053   0.002863
    43  H    0.003042  -0.008502  -0.003103  -0.085914   0.272254  -0.050937
    44  H    0.000725  -0.011932   0.000037   0.030763  -0.232818   0.004192
    45  H    0.000007   0.003624   0.000392   0.097816  -0.028444  -0.000356
             19         20         21         22         23         24
     1  O   -0.000008   0.000052   0.000000   0.000000   0.000124  -0.000005
     2  C   -0.008108   0.000457  -0.000113   0.000001   0.014158   0.005302
     3  C    0.007255   0.003713  -0.000046   0.000002  -0.043648  -0.002395
     4  O   -0.000002  -0.000213   0.000000   0.000000  -0.000050  -0.000045
     5  H    0.000000   0.000001   0.000000   0.000000  -0.000006  -0.000006
     6  C    0.012321   0.096415  -0.000218  -0.000067  -0.251794   0.007315
     7  O   -0.000076   0.006051  -0.000009   0.000000   0.029588  -0.028293
     8  H   -0.000001   0.001837  -0.000001   0.000000   0.019141  -0.015299
     9  C    0.006991   0.000711   0.000288   0.000000  -0.001851   0.000448
    10  O   -0.000021   0.000071   0.000000   0.000000  -0.000008   0.000000
    11  H   -0.000001  -0.000001   0.000000   0.000000   0.000000   0.000000
    12  C   -0.009170  -0.037584  -0.000186   0.000051  -0.012596   0.003893
    13  O   -0.002593  -0.019008  -0.000710   0.000004   0.016911  -0.000258
    14  C    0.023792  -0.174945   0.012154  -0.001052  -0.259663   0.070676
    15  O    0.031662   0.104891  -0.002229   0.000025  -0.022819  -0.007818
    16  C   -0.156366  -2.848929   0.009635  -0.002762  -0.334868   0.020865
    17  C    0.065360  -0.504142  -0.146369   0.039280  -0.133731   0.001998
    18  O    0.213694  -0.112278   0.015327  -0.000659   0.002763   0.000229
    19  H    0.368790   0.042331  -0.000951   0.000008  -0.004197   0.000006
    20  C    0.042331  10.217596   0.215937  -0.016258   0.244318  -0.007605
    21  O   -0.000951   0.215937   8.266531   0.203247  -0.000104   0.000006
    22  H    0.000008  -0.016258   0.203247   0.424525  -0.000526   0.000000
    23  C   -0.004197   0.244318  -0.000104  -0.000526   7.193316  -0.207260
    24  O    0.000006  -0.007605   0.000006   0.000000  -0.207260   8.526426
    25  H    0.000000   0.000881   0.000000   0.000000   0.035404   0.192788
    26  C    0.011402   0.511855   0.023923   0.003687  -1.015151   0.097606
    27  O   -0.000002  -0.214504   0.006867   0.000361  -0.099114   0.002009
    28  C   -0.003094  -1.543959  -0.039545  -0.020797  -0.189850   0.011605
    29  O    0.000015  -0.168931   0.008779   0.017297   0.002756  -0.000008
    30  H    0.000000   0.000001   0.000000   0.000000   0.000004   0.000000
    31  H    0.000153  -0.000443  -0.000002   0.000000   0.000000   0.000000
    32  H    0.000041   0.000074   0.000000   0.000000  -0.000008   0.000000
    33  H    0.000059   0.000417   0.000000   0.000000   0.000203   0.000002
    34  H    0.000008  -0.000031   0.000000   0.000000   0.000057   0.000010
    35  H    0.000000  -0.000058   0.000000   0.000000   0.000975   0.000123
    36  H    0.000018   0.000529   0.000000   0.000000   0.007613   0.002374
    37  H    0.000466   0.010064   0.000013   0.000000   0.011535   0.000526
    38  H    0.000000  -0.018032  -0.000923  -0.001808   0.000378   0.000000
    39  H    0.000000   0.002917  -0.000006   0.000000   0.416050  -0.042262
    40  H    0.000000  -0.005818   0.000001   0.000000   0.511458  -0.061581
    41  H    0.000049  -0.040310   0.000042   0.000002  -0.032693   0.007443
    42  H    0.000240   0.047747  -0.000573  -0.000004   0.019576   0.000433
    43  H   -0.003569  -0.030359   0.000780  -0.000117   0.028717  -0.000113
    44  H   -0.000002   0.420184  -0.056605  -0.003567   0.016439  -0.000016
    45  H    0.000003  -0.154815   0.006462  -0.000072  -0.009610   0.000020
             25         26         27         28         29         30
     1  O    0.000000  -0.000015   0.000000   0.000002   0.000000   0.235210
     2  C   -0.000064   0.029011  -0.000404  -0.002043  -0.000007   0.057137
     3  C    0.000147  -0.084417   0.001675   0.002415   0.000045  -0.016526
     4  O   -0.000004   0.001218   0.000000   0.000026   0.000000   0.000790
     5  H    0.000000   0.000037   0.000000   0.000000   0.000000  -0.003192
     6  C   -0.004951  -0.258938   0.009831   0.011132  -0.000711   0.004409
     7  O    0.001553  -0.003101   0.000347  -0.000579  -0.000006  -0.000024
     8  H   -0.001760  -0.041756   0.000248  -0.000496  -0.000001   0.000000
     9  C   -0.000008  -0.004191  -0.000060  -0.003179   0.000000  -0.007280
    10  O    0.000000   0.000005   0.000000  -0.000008   0.000000  -0.001531
    11  H    0.000000   0.000000   0.000000   0.000000   0.000000  -0.000020
    12  C   -0.000179   0.046039  -0.000688   0.004163   0.000091  -0.021156
    13  O    0.000017  -0.005161   0.000456   0.005355   0.000046  -0.001272
    14  C   -0.000751  -1.596772  -0.037421  -0.084483  -0.002643   0.000343
    15  O    0.000806  -0.000953   0.013311  -0.000430   0.000051  -0.000029
    16  C   -0.012738  -7.420736  -0.149750   1.160119  -0.043391   0.000286
    17  C   -0.001350   1.250289  -0.019314  -0.264844   0.033604  -0.000042
    18  O   -0.000001   0.012465   0.002553  -0.012366  -0.001170   0.000000
    19  H    0.000000   0.011402  -0.000002  -0.003094   0.000015   0.000000
    20  C    0.000881   0.511855  -0.214504  -1.543959  -0.168931   0.000001
    21  O    0.000000   0.023923   0.006867  -0.039545   0.008779   0.000000
    22  H    0.000000   0.003687   0.000361  -0.020797   0.017297   0.000000
    23  C    0.035404  -1.015151  -0.099114  -0.189850   0.002756   0.000004
    24  O    0.192788   0.097606   0.002009   0.011605  -0.000008   0.000000
    25  H    0.425043   0.006953  -0.000064  -0.002145   0.000003   0.000000
    26  C    0.006953  14.803244   0.307133  -0.622466  -0.011122  -0.000004
    27  O   -0.000064   0.307133   8.394710   0.214870  -0.029047   0.000000
    28  C   -0.002145  -0.622466   0.214870   6.197033   0.329148   0.000000
    29  O    0.000003  -0.011122  -0.029047   0.329148   8.249796   0.000000
    30  H    0.000000  -0.000004   0.000000   0.000000   0.000000   0.392346
    31  H    0.000000  -0.000107   0.000000   0.000063   0.000000  -0.000024
    32  H    0.000000  -0.000151   0.000000  -0.000014   0.000000   0.000076
    33  H    0.000000   0.000809   0.000000  -0.000086   0.000000  -0.000042
    34  H    0.000000   0.000030   0.000000  -0.000014   0.000000  -0.010931
    35  H    0.000000   0.000807   0.000000  -0.000039   0.000000   0.000096
    36  H   -0.000015   0.002268   0.000001  -0.000283   0.000000   0.000024
    37  H    0.000008   0.043619   0.000079  -0.003626  -0.000001   0.000002
    38  H    0.000000   0.005233   0.001515   0.010371   0.232168   0.000000
    39  H   -0.008536  -0.028735  -0.004722  -0.002020  -0.000129   0.000000
    40  H   -0.005005  -0.201988   0.007096   0.013915  -0.000152   0.000000
    41  H   -0.000284   0.148733  -0.037874   0.052897  -0.000701   0.000000
    42  H   -0.000001   0.006790   0.007276  -0.004494  -0.000685   0.000000
    43  H    0.000000   0.070239   0.007815  -0.011761   0.000055   0.000000
    44  H    0.000000   0.037105   0.007310   0.012310  -0.003491   0.000000
    45  H    0.000000  -0.063278  -0.064030   0.483281  -0.050927   0.000000
             31         32         33         34         35         36
     1  O    0.000248   0.001714   0.007586  -0.047859  -0.004833  -0.000819
     2  C   -0.008949  -0.006033   0.020831   0.430207   0.121589   0.090036
     3  C   -0.003636  -0.003070  -0.043488  -0.074401   0.183345  -0.227780
     4  O    0.000020  -0.000035  -0.000172   0.001346  -0.046207   0.004544
     5  H    0.000000   0.000000   0.000000  -0.000376  -0.004806  -0.000053
     6  C    0.002296   0.014417  -0.014587  -0.017314  -0.211497   0.335436
     7  O   -0.000010   0.000003  -0.000007   0.000254   0.007255  -0.043565
     8  H    0.000000   0.000000   0.000002   0.000003  -0.000109  -0.007699
     9  C    0.384951   0.674748   0.058307   0.025668   0.022347   0.010999
    10  O   -0.035070  -0.067254   0.008085   0.000052   0.000077   0.000020
    11  H   -0.016211   0.001189  -0.000169   0.000006   0.000001   0.000000
    12  C   -0.001472  -0.327707   0.150491  -0.155451  -0.009003  -0.000801
    13  O   -0.006486   0.010036  -0.033433   0.016121   0.008012   0.013537
    14  C    0.001275  -0.003985   0.084436   0.059987   0.131747   0.016067
    15  O   -0.000283  -0.000648  -0.003005  -0.000624  -0.000968  -0.014787
    16  C    0.004591  -0.004940   0.006765  -0.002597   0.009115   0.034968
    17  C   -0.000521   0.000538   0.002797   0.001202   0.001634   0.008908
    18  O   -0.000275   0.000017   0.000156   0.000089   0.000059   0.000164
    19  H    0.000153   0.000041   0.000059   0.000008   0.000000   0.000018
    20  C   -0.000443   0.000074   0.000417  -0.000031  -0.000058   0.000529
    21  O   -0.000002   0.000000   0.000000   0.000000   0.000000   0.000000
    22  H    0.000000   0.000000   0.000000   0.000000   0.000000   0.000000
    23  C    0.000000  -0.000008   0.000203   0.000057   0.000975   0.007613
    24  O    0.000000   0.000000   0.000002   0.000010   0.000123   0.002374
    25  H    0.000000   0.000000   0.000000   0.000000   0.000000  -0.000015
    26  C   -0.000107  -0.000151   0.000809   0.000030   0.000807   0.002268
    27  O    0.000000   0.000000   0.000000   0.000000   0.000000   0.000001
    28  C    0.000063  -0.000014  -0.000086  -0.000014  -0.000039  -0.000283
    29  O    0.000000   0.000000   0.000000   0.000000   0.000000   0.000000
    30  H   -0.000024   0.000076  -0.000042  -0.010931   0.000096   0.000024
    31  H    0.595793  -0.048193  -0.006807   0.000047   0.000003   0.000001
    32  H   -0.048193   0.612175   0.006339   0.005316   0.000001  -0.000012
    33  H   -0.006807   0.006339   0.606724   0.006159   0.003590   0.000022
    34  H    0.000047   0.005316   0.006159   0.621287   0.006938   0.003709
    35  H    0.000003   0.000001   0.003590   0.006938   0.639419   0.007706
    36  H    0.000001  -0.000012   0.000022   0.003709   0.007706   0.607581
    37  H   -0.000027  -0.000005   0.003991   0.000044   0.002715   0.005886
    38  H    0.000000   0.000000   0.000000   0.000000   0.000000   0.000000
    39  H    0.000000   0.000000   0.000000   0.000000   0.000000   0.000002
    40  H    0.000000   0.000000   0.000000   0.000000   0.000000  -0.000008
    41  H    0.000000   0.000000   0.000000   0.000000   0.000000  -0.000012
    42  H    0.000000   0.000000  -0.000001   0.000000  -0.000006   0.000018
    43  H    0.000000   0.000000   0.000000   0.000000   0.000000  -0.000005
    44  H    0.000000   0.000000   0.000000   0.000000   0.000000   0.000000
    45  H    0.000000   0.000000   0.000000   0.000000   0.000000   0.000000
             37         38         39         40         41         42
     1  O   -0.000042   0.000000   0.000000   0.000000   0.000000  -0.000003
     2  C    0.026519   0.000000   0.000012  -0.000090  -0.000041   0.000295
     3  C   -0.054300   0.000001  -0.000148   0.000850   0.001483   0.002533
     4  O   -0.000322   0.000000   0.000000   0.000001   0.000000   0.000005
     5  H    0.000007   0.000000   0.000000   0.000000   0.000000   0.000000
     6  C   -0.081216   0.000000  -0.001029   0.003810   0.005203   0.009034
     7  O    0.000170   0.000000  -0.000602   0.001424   0.000204  -0.000769
     8  H   -0.000465   0.000000   0.000269   0.000666   0.000015  -0.000051
     9  C    0.008674   0.000000  -0.000001  -0.000002   0.000043   0.000092
    10  O    0.000071   0.000000   0.000000   0.000000   0.000000   0.000001
    11  H    0.000000   0.000000   0.000000   0.000000   0.000000   0.000000
    12  C   -0.013835   0.000000  -0.000014   0.000055   0.000435   0.002234
    13  O   -0.040341   0.000000  -0.000007   0.000045  -0.000044   0.001286
    14  C    0.379741   0.000356   0.000889  -0.002707   0.048219  -0.006588
    15  O   -0.089314  -0.000005  -0.000328   0.002012   0.006991  -0.059153
    16  C   -0.011850   0.003652   0.004867   0.029928   0.090532   0.219393
    17  C    0.035920   0.007432  -0.003250   0.006012  -0.021328  -0.025053
    18  O   -0.000208  -0.000015   0.000022   0.000037   0.000441   0.002863
    19  H    0.000466   0.000000   0.000000   0.000000   0.000049   0.000240
    20  C    0.010064  -0.018032   0.002917  -0.005818  -0.040310   0.047747
    21  O    0.000013  -0.000923  -0.000006   0.000001   0.000042  -0.000573
    22  H    0.000000  -0.001808   0.000000   0.000000   0.000002  -0.000004
    23  C    0.011535   0.000378   0.416050   0.511458  -0.032693   0.019576
    24  O    0.000526   0.000000  -0.042262  -0.061581   0.007443   0.000433
    25  H    0.000008   0.000000  -0.008536  -0.005005  -0.000284  -0.000001
    26  C    0.043619   0.005233  -0.028735  -0.201988   0.148733   0.006790
    27  O    0.000079   0.001515  -0.004722   0.007096  -0.037874   0.007276
    28  C   -0.003626   0.010371  -0.002020   0.013915   0.052897  -0.004494
    29  O   -0.000001   0.232168  -0.000129  -0.000152  -0.000701  -0.000685
    30  H    0.000002   0.000000   0.000000   0.000000   0.000000   0.000000
    31  H   -0.000027   0.000000   0.000000   0.000000   0.000000   0.000000
    32  H   -0.000005   0.000000   0.000000   0.000000   0.000000   0.000000
    33  H    0.003991   0.000000   0.000000   0.000000   0.000000  -0.000001
    34  H    0.000044   0.000000   0.000000   0.000000   0.000000   0.000000
    35  H    0.002715   0.000000   0.000000   0.000000   0.000000  -0.000006
    36  H    0.005886   0.000000   0.000002  -0.000008  -0.000012   0.000018
    37  H    0.633772   0.000000   0.000001  -0.000013  -0.000027   0.015348
    38  H    0.000000   0.404234  -0.000002  -0.000001  -0.000001   0.000002
    39  H    0.000001  -0.000002   0.577096  -0.047065  -0.009958  -0.000099
    40  H   -0.000013  -0.000001  -0.047065   0.580309   0.006169   0.002216
    41  H   -0.000027  -0.000001  -0.009958   0.006169   0.622124   0.006358
    42  H    0.015348   0.000002  -0.000099   0.002216   0.006358   0.620415
    43  H   -0.000040   0.000003   0.000000  -0.000001   0.005514   0.006864
    44  H   -0.000074   0.000226   0.000003  -0.000020   0.000055   0.005003
    45  H    0.000000  -0.008631   0.000011   0.000002   0.007123   0.000019
             43         44         45
     1  O    0.000000   0.000000   0.000000
     2  C    0.000862   0.000030  -0.000009
     3  C    0.000220   0.000182   0.000030
     4  O    0.000000   0.000000   0.000000
     5  H    0.000000   0.000000   0.000000
     6  C    0.004844   0.000321   0.000424
     7  O    0.000027   0.000021   0.000003
     8  H    0.000001   0.000000   0.000000
     9  C   -0.000365  -0.000110   0.000001
    10  O    0.000000   0.000000   0.000000
    11  H    0.000000   0.000000   0.000000
    12  C   -0.000228   0.000154  -0.000029
    13  O    0.003042   0.000725   0.000007
    14  C   -0.008502  -0.011932   0.003624
    15  O   -0.003103   0.000037   0.000392
    16  C   -0.085914   0.030763   0.097816
    17  C    0.272254  -0.232818  -0.028444
    18  O   -0.050937   0.004192  -0.000356
    19  H   -0.003569  -0.000002   0.000003
    20  C   -0.030359   0.420184  -0.154815
    21  O    0.000780  -0.056605   0.006462
    22  H   -0.000117  -0.003567  -0.000072
    23  C    0.028717   0.016439  -0.009610
    24  O   -0.000113  -0.000016   0.000020
    25  H    0.000000   0.000000   0.000000
    26  C    0.070239   0.037105  -0.063278
    27  O    0.007815   0.007310  -0.064030
    28  C   -0.011761   0.012310   0.483281
    29  O    0.000055  -0.003491  -0.050927
    30  H    0.000000   0.000000   0.000000
    31  H    0.000000   0.000000   0.000000
    32  H    0.000000   0.000000   0.000000
    33  H    0.000000   0.000000   0.000000
    34  H    0.000000   0.000000   0.000000
    35  H    0.000000   0.000000   0.000000
    36  H   -0.000005   0.000000   0.000000
    37  H   -0.000040  -0.000074   0.000000
    38  H    0.000003   0.000226  -0.008631
    39  H    0.000000   0.000003   0.000011
    40  H   -0.000001  -0.000020   0.000002
    41  H    0.005514   0.000055   0.007123
    42  H    0.006864   0.005003   0.000019
    43  H    0.661525   0.008120   0.005719
    44  H    0.008120   0.622647   0.006369
    45  H    0.005719   0.006369   0.648090
 Mulliken atomic charges:
              1
     1  O   -0.542544
     2  C   -0.141533
     3  C    0.104998
     4  O   -0.515007
     5  H    0.361302
     6  C   -0.135180
     7  O   -0.566502
     8  H    0.461668
     9  C   -0.158049
    10  O   -0.525919
    11  H    0.353782
    12  C    0.280943
    13  O   -0.404431
    14  C    0.461846
    15  O   -0.348378
    16  C   -0.194480
    17  C   -0.006257
    18  O   -0.493325
    19  H    0.403497
    20  C   -0.030825
    21  O   -0.521401
    22  H    0.359198
    23  C    0.048063
    24  O   -0.579135
    25  H    0.374254
    26  C   -0.061457
    27  O   -0.328472
    28  C    0.303915
    29  O   -0.560729
    30  H    0.371350
    31  H    0.139075
    32  H    0.135369
    33  H    0.134024
    34  H    0.131058
    35  H    0.129971
    36  H    0.143408
    37  H    0.116535
    38  H    0.363848
    39  H    0.146776
    40  H    0.158443
    41  H    0.133199
    42  H    0.121438
    43  H    0.118415
    44  H    0.136441
    45  H    0.120807
 Sum of Mulliken atomic charges =   0.00000
 Mulliken charges with hydrogens summed into heavy atoms:
              1
     1  O   -0.171194
     2  C   -0.010475
     3  C    0.234969
     4  O   -0.153705
     6  C    0.008229
     7  O   -0.104834
     9  C    0.116396
    10  O   -0.172138
    12  C    0.414968
    13  O   -0.404431
    14  C    0.578381
    15  O   -0.348378
    16  C   -0.073042
    17  C    0.112158
    18  O   -0.089828
    20  C    0.105616
    21  O   -0.162203
    23  C    0.353282
    24  O   -0.204881
    26  C    0.071742
    27  O   -0.328472
    28  C    0.424722
    29  O   -0.196881
 Sum of Mulliken charges with hydrogens summed into heavy atoms =   0.00000
 APT atomic charges:
              1
     1  O   -0.633101
     2  C    0.392375
     3  C    0.426106
     4  O   -0.645003
     5  H    0.270776
     6  C    0.387183
     7  O   -0.777398
     8  H    0.495016
     9  C    0.474992
    10  O   -0.601477
    11  H    0.243045
    12  C    0.441269
    13  O   -0.825687
    14  C    0.903682
    15  O   -0.860133
    16  C    0.458428
    17  C    0.426449
    18  O   -0.715750
    19  H    0.372227
    20  C    0.412525
    21  O   -0.643019
    22  H    0.263573
    23  C    0.466782
    24  O   -0.662720
    25  H    0.252370
    26  C    0.439911
    27  O   -0.828784
    28  C    0.919057
    29  O   -0.678717
    30  H    0.264330
    31  H   -0.039385
    32  H   -0.053392
    33  H   -0.058389
    34  H   -0.049231
    35  H   -0.058824
    36  H   -0.035467
    37  H   -0.059700
    38  H    0.270816
    39  H   -0.041982
    40  H   -0.026021
    41  H   -0.054744
    42  H   -0.025890
    43  H   -0.072591
    44  H   -0.049658
    45  H   -0.083851
 Sum of APT charges=   0.00000
 APT Atomic charges with hydrogens summed into heavy atoms:
              1
     1  O   -0.368771
     2  C    0.343144
     3  C    0.367282
     4  O   -0.374227
[...]
 346,-0.00002476,-0.00614337,-0.01689027,-0.00276103,0.00999761,-0.3472
 0452,-0.04177930,-0.04087162,-0.01425550,-0.00177198,-0.00509879,0.001
 85538,-0.00027591,0.00076552,-0.00022257,-0.00018213,-0.00000224,-0.00
 067937,-0.00051319,0.00142453,0.00051256,-0.00031541,0.00034546,0.0000
 5774,0.00003296,-0.00006812,0.00043060,-0.00009543,-0.00019424,0.00012
 819,0.00004069,0.00001341,0.,-0.00000233,-0.00002102,-0.00492793,-0.00
 083817,-0.00029131,0.00208984,0.00126547,0.00005949,0.00015474,-0.0000
 9821,-0.00004547,0.00004546,0.00000436,-0.00005259,-0.00000377,-0.0000
 0277,-0.00000207,-0.00000577,0.00000684,-0.00000081,0.00001372,0.00000
 464,-0.00001175,0.00002035,0.00001708,0.00003964,0.00001386,0.00000143
 ,-0.00001176,0.00001768,0.00000298,0.00002498,-0.00001502,0.00027995,-
 0.00035670,0.00232072,0.00021585,0.00006287,0.00000056,-0.00001433,-0.
 00002244,0.00006664,-0.00006492,0.00000292,0.00005032,-0.00059784,-0.0
 0008827,0.00049560,-0.00033735,0.00002876,0.37401405,0.00000537,-0.000
 03451,-0.00000001,-0.00001480,0.00005463,-0.00001036,0.00003453,0.0000
 2075,0.00002836,0.00000796,-0.00002015,-0.00004071,-0.00000680,0.00000
 890,-0.00000079,-0.00007986,0.00015460,0.00004693,0.00024371,0.0000497
 7,-0.00030757,-0.00020501,-0.00007053,-0.00009012,0.00001342,-0.000009
 37,0.00000059,-0.00000794,0.00000663,0.00001677,0.00000422,-0.00000026
 ,-0.00000293,-0.00003008,0.00004540,0.00000091,0.00027120,-0.00010709,
 0.00020362,-0.00035689,0.00149023,-0.00130725,-0.00492838,0.00083867,0
 .00216297,-0.04184776,-0.05212902,-0.00778345,0.02875255,0.00333958,0.
 00759691,-0.00224707,0.00203058,-0.00005871,0.00013587,-0.00009809,-0.
 00014999,0.00218872,0.00101899,-0.00077178,-0.00055010,-0.00003494,-0.
 00029795,-0.00003827,0.00003900,-0.00000084,-0.00070705,0.00148844,0.0
 0077195,0.00023353,-0.00015121,0.00014100,-0.00001885,-0.00005836,0.00
 001450,-0.03041759,-0.00501265,-0.00716710,0.00122675,0.00110383,0.002
 72920,0.00036770,-0.00036872,0.00012532,-0.00003756,0.00010126,0.00003
 905,-0.00000061,0.00000272,-0.00000026,0.00000743,-0.00001188,-0.00000
 065,-0.00000538,-0.00000120,0.00000356,-0.00000818,0.00001137,-0.00000
 886,0.00000242,-0.00000617,0.00000183,0.00000442,0.00000779,0.00001002
 ,0.00004789,0.00000418,-0.00006989,0.00055145,0.00062503,-0.00016960,-
 0.00000511,0.00001191,-0.00000100,0.00032681,0.00009951,0.00003027,0.0
 0066512,-0.00033211,0.00006882,-0.00078614,-0.00311978,-0.00414343,0.0
 4603947,0.05367851,-0.00001064,-0.00000708,-0.00001470,0.00003065,0.00
 001092,0.00003027,0.00000541,0.00008215,0.00000796,-0.00003350,-0.0000
 0624,-0.00001950,0.00000316,0.00000331,-0.00000666,0.00005321,0.000076
 06,-0.00051227,-0.00025955,0.00000152,0.00015906,0.00002905,-0.0002029
 4,0.00000360,-0.00001777,0.00001359,-0.00001148,-0.00000328,-0.0000169
 3,-0.00000908,0.00000193,-0.00000128,-0.00000177,-0.00000300,-0.000069
 73,-0.00012166,-0.00105881,-0.00024641,-0.00003120,0.01010540,0.001395
 61,-0.00032593,0.03348493,0.00520499,-0.01506522,-0.04835272,-0.007299
 98,-0.04498739,-0.01446281,-0.00212621,-0.00252751,0.00118474,-0.00020
 175,0.00089815,0.00009588,0.00034025,-0.00000159,-0.00218375,0.0003958
 9,0.00017720,0.00055763,-0.00014836,0.00007438,-0.00005368,-0.00001072
 ,-0.00005824,0.00013530,0.00058196,0.00030010,0.00009277,-0.00003708,0
 .00008584,-0.00002901,0.00000873,0.00002036,-0.01840181,-0.00375940,-0
 .00277012,-0.00034630,-0.00021075,0.00131248,-0.00058776,0.00016773,-0
 .00048631,0.00010690,0.00002605,-0.00010928,0.00000104,0.00000283,0.00
 000363,0.00000028,-0.00000620,0.00000010,-0.00000691,0.00000717,0.0000
 0808,-0.00001588,-0.00002803,-0.00006452,-0.00001672,0.00000706,0.0000
 1485,-0.00005519,-0.00001307,-0.00005656,-0.00032181,-0.00015571,0.000
 04844,-0.00114212,-0.00007931,-0.00212844,0.00002054,-0.00000641,0.000
 00613,0.00011910,0.00002958,0.00003206,0.00032835,-0.00025923,0.000117
 73,-0.00032258,-0.00219611,-0.00244628,0.04142890,0.00582750,0.0697208
 4,0.00000033,0.00002234,-0.00006672,-0.00002454,-0.00003174,0.00003830
 ,0.00000566,-0.00003562,0.00004299,0.00000618,0.00005455,-0.00004830,-
 0.00000166,-0.00000999,0.00000589,0.00010067,-0.00008699,0.00002139,0.
 00005868,0.00018076,0.00004542,-0.00010911,-0.00013279,-0.00014933,-0.
 00001129,0.00001096,0.00006690,0.00000160,-0.00003202,-0.00006795,-0.0
 0000688,0.00001106,0.00001426,0.00001826,0.00006296,0.00014065,-0.0000
 5875,0.00010449,-0.00019069,0.00009731,-0.00031263,-0.00018158,0.00153
 463,0.00020883,0.00029417,-0.01736287,-0.00139886,-0.00263239,-0.32253
 347,-0.05809772,-0.06581653,0.00830791,-0.00357289,-0.00479917,0.00055
 142,-0.00066381,0.00051117,-0.01985431,-0.00163050,-0.00159324,0.00170
 045,-0.00063229,0.00058090,-0.00006239,-0.00012645,-0.00005083,0.00079
 674,0.00032402,0.00012065,0.00005778,-0.00002109,0.00014572,-0.0000159
 5,0.00001405,-0.00000836,-0.00107099,-0.00229573,-0.00118585,0.0004303
 9,0.00091296,0.00035661,-0.00159681,-0.00199169,-0.00151588,0.00101863
 ,0.00024375,0.00001602,-0.00000761,-0.00000343,0.00001054,0.00000487,0
 .00002813,-0.00000174,0.00000373,-0.00000040,-0.00000274,-0.00000335,-
 0.00000420,-0.00000961,0.00000598,0.00000227,-0.00000661,0.00001204,0.
 00000130,0.00000414,0.00000140,0.00002455,-0.00004356,0.00020481,0.000
 02092,0.00020422,-0.00005895,-0.00002615,0.00019887,-0.00004065,0.0001
 3953,-0.00000104,0.00011984,-0.00036108,0.00001543,0.00132818,0.000766
 66,0.00084220,-0.00042123,0.00204072,-0.00091619,0.34683824,-0.0000052
 4,0.00005060,-0.00007361,-0.00003086,-0.00007674,0.00003218,0.00001716
 ,-0.00001658,-0.00001409,-0.00001157,0.00005436,-0.00001608,0.00000854
 ,-0.00001515,0.00000364,-0.00015822,-0.00008796,-0.00008898,-0.0000575
 4,0.00006790,0.00014757,0.00003627,0.00004791,-0.00007337,-0.00000745,
 -0.00003282,0.00014345,-0.00000625,-0.00002644,-0.00010913,-0.00000868
 ,0.00001772,0.00002547,0.00003045,0.00015013,0.00013617,-0.00017396,0.
 00065386,-0.00034147,0.00043981,-0.00031387,-0.00032630,-0.00126672,0.
 00079521,-0.00141847,0.02957930,0.00161187,0.00677151,-0.06181479,-0.0
 5138991,-0.00721720,-0.02302379,-0.01906241,-0.02325927,-0.00118831,-0
 .00021342,0.00096200,-0.01321713,-0.00002926,-0.00174632,0.00082121,0.
 00083975,-0.00073154,0.00012553,0.00002081,-0.00000800,-0.00009674,0.0
 0010217,0.00008978,-0.00000837,-0.00001540,0.00000319,-0.00000075,-0.0
 0000105,-0.00000787,0.00274304,0.00089787,0.00152368,-0.00050375,0.000
 06458,-0.00020033,0.00085499,-0.00011690,-0.00157678,0.00042456,-0.000
 18353,0.00000093,-0.00000607,-0.00000463,0.00000810,0.00000749,0.00006
 701,0.00000544,0.00000376,0.00000837,-0.00000916,-0.00001071,-0.000021
 15,-0.00001596,0.00000164,0.00000061,-0.00000363,-0.00000010,0.0000011
 8,0.00000124,-0.00001580,-0.00001717,0.00002292,-0.00028537,-0.0000134
 7,0.00009140,-0.00000914,0.00004841,0.00008933,-0.00005638,-0.00001534
 ,0.00001008,-0.00010742,0.00005261,-0.00001988,-0.00012438,-0.00046543
 ,-0.00024001,0.00186085,-0.00419740,0.00218089,0.06586099,0.07022810,0
 .00000214,0.00003588,-0.00008268,-0.00004359,-0.00005219,0.00004397,0.
 00000738,-0.00007165,0.00004103,0.00000534,0.00005669,-0.00003037,0.00
 000130,-0.00001422,0.00000765,0.00005216,-0.00002425,0.00009847,0.0000
 4053,0.00014778,0.00000330,-0.00007936,-0.00008550,-0.00006370,-0.0000
 3146,-0.00002277,0.00012349,0.00000399,-0.00003120,-0.00009811,-0.0000
 0797,0.00001499,0.00002241,0.00002959,0.00014413,0.00015630,0.00002352
 ,0.00033365,-0.00041951,-0.00024663,-0.00065061,-0.00029493,0.00067533
 ,-0.00019163,0.00153621,-0.01731836,0.00049047,-0.00220332,-0.06708915
 ,-0.00720394,-0.05663408,-0.02046650,-0.02253913,-0.01679588,-0.001481
 04,-0.00051187,0.00085858,0.03083945,0.00550558,0.00380960,-0.00149472
 ,-0.00074419,0.00103479,-0.00013335,-0.00011825,0.00006682,0.00040944,
 0.00020154,-0.00001740,0.00002153,-0.00000495,0.00007897,-0.00000332,0
 .00000415,0.00000032,-0.00007721,-0.00231214,-0.00014054,-0.00045844,0
 .00017191,0.00010910,0.00238389,0.00115014,0.00061450,-0.00032935,-0.0
 0007135,0.00003314,-0.00000885,-0.00000405,0.00000771,0.00000740,0.000
 05708,0.00000348,0.00001229,0.00000705,-0.00001562,-0.00000390,-0.0000
 1272,-0.00001309,0.00000898,0.00000023,-0.00000965,0.00000853,0.000004
 05,0.00000119,0.00001089,0.00002915,-0.00003603,0.00024176,0.00003456,
 -0.00002371,-0.00008358,-0.00003860,-0.00000458,-0.00000112,0.00008333
 ,-0.00000236,0.00006177,-0.00017931,-0.00002427,0.00076502,0.00004767,
 0.00063958,-0.00077515,0.00211223,-0.00106595,0.07171523,0.02341989,0.
 07359743,0.00000452,-0.00000788,-0.00002850,-0.00000374,0.00000745,0.0
 0002202,-0.00001244,-0.00001725,0.00003391,0.00001252,0.00001288,-0.00
 003151,-0.00000498,0.00000009,0.00000477,0.00003662,-0.00000286,0.0000
 2466,0.00003224,0.00002173,-0.00003253,-0.00002470,-0.00002707,-0.0000
 0293,-0.00002165,0.00001751,0.00000196,0.00001974,-0.00001587,-0.00000
 982,-0.00000972,0.00000305,0.00000153,-0.00001179,-0.00000601,0.000048
 03,0.00009254,-0.00008853,-0.00004994,-0.00013874,0.00000423,0.0002331
 9,0.00085910,0.00032818,-0.00020481,-0.00075711,0.00146584,-0.00126056
 ,-0.02209998,-0.00493373,-0.00227102,0.00181164,0.00062961,0.00011511,
 0.00005077,0.00013006,-0.00010809,-0.33845773,-0.01456028,-0.06834578,
 -0.00283458,0.01292827,-0.00730119,-0.00008806,0.00047909,0.00039806,0
 .00001703,-0.00001129,-0.00000431,0.00004175,0.00004299,-0.00002330,-0
 .00001704,-0.00000819,-0.00000130,0.00015998,-0.00013358,0.00013054,0.
 00238013,0.00041646,0.00107279,-0.00872760,-0.00025050,-0.00117684,0.0
 0156952,0.00003891,0.00019697,-0.00000413,0.00000251,0.00000453,-0.000
 01296,-0.00000019,0.00000065,0.00001186,0.00000341,-0.00000890,0.00001
 216,-0.00000040,0.00000852,0.00000630,0.00000237,-0.00000559,0.0000087
 8,0.00000134,0.00000019,0.00000439,0.00001243,-0.00001488,0.00007070,-
 0.00002574,0.00005321,0.00029803,0.00026066,0.00033979,0.00000809,-0.0
 0000934,0.00000893,0.00003133,-0.00005783,0.00000354,0.00010595,0.0003
 6092,0.00000193,0.00133502,-0.00074164,0.00045719,-0.00102822,-0.00106
 637,0.00311219,0.36476886,0.00000102,-0.00000399,0.00001100,-0.0000019
 7,0.00000583,-0.00000744,0.00000004,0.00000270,-0.00000220,0.00000192,
 -0.00000874,0.00000556,-0.00000055,0.00000197,-0.00000135,0.00000634,0
 .00001509,0.00000834,0.00001552,-0.00000604,-0.00001641,-0.00001341,-0
 .00000404,0.00000106,0.00000212,0.00000201,-0.00001472,-0.00000514,0.0
 0000468,0.00001416,0.00000568,-0.00000302,-0.00000437,0.00000734,-0.00
 000602,-0.00001366,0.00001990,-0.00004668,0.00001838,-0.00003995,0.000
 06041,-0.00001811,0.00006603,-0.00025069,0.00002506,-0.00201652,-0.000
 21409,0.00104221,-0.00517470,0.00022638,0.00043571,0.00020764,0.000469
 47,0.00055109,-0.00004199,-0.00001329,-0.00004672,-0.01176149,-0.03397
 287,-0.00768194,0.03841379,-0.02469469,0.01904070,0.00161780,0.0005756
 4,-0.00007854,-0.00007874,0.00002200,0.00001941,0.00003029,-0.00000484
 ,-0.00001735,-0.00000680,0.00000105,0.00000361,-0.00033992,-0.00053168
 ,0.00023904,0.00021677,0.00226157,-0.00003557,-0.02752100,-0.00438016,
 -0.00864148,0.00147597,0.00121216,0.00181015,0.00000084,0.00000013,-0.
 00000250,0.00000471,-0.00000682,-0.00000015,-0.00000221,-0.00000280,0.
 00000293,-0.00000251,0.00000477,-0.00000201,-0.00000008,-0.00000123,0.
 00000018,-0.00000035,0.00000135,0.00000141,0.00000301,0.00000390,-0.00
 000763,0.00002945,0.00000848,0.00001454,-0.00006823,-0.00000382,0.0004
 5280,0.00000255,0.00000816,-0.00001848,0.00002683,-0.00005205,0.000014
 18,0.00027014,0.00009746,0.00002248,-0.00010587,-0.00029146,0.00066053
 ,-0.00047729,0.00011447,0.00098172,0.00537605,0.06304999,-0.00000005,-
 0.00000854,0.00000642,0.00000162,0.00000974,-0.00000418,0.00000142,0.0
 0000803,-0.00000135,0.00000290,-0.00001000,0.00000153,-0.00000101,0.00
 000286,-0.00000114,-0.00000991,0.00000452,0.00001083,-0.00000746,-0.00
 002734,-0.00001291,0.00001298,0.00001126,0.00002191,0.00000395,0.00000
 731,-0.00001520,-0.00000152,-0.00000049,0.00001158,0.00000153,-0.00000
 093,-0.00000497,0.00000490,-0.00001214,-0.00001952,0.00000145,-0.00005
 917,0.00001767,-0.00001903,0.00005588,0.00007165,-0.00029538,-0.000158
 96,0.00001736,0.00225632,-0.00025956,0.00059310,0.03258328,0.00489168,
 0.00314985,-0.00190433,0.00005336,0.00182174,-0.00021324,0.00008615,0.
 00004104,-0.06840484,-0.00828589,-0.06017150,-0.01483779,0.01356109,-0
 .00256503,-0.00107741,0.00001706,-0.00000675,0.00000983,-0.00004802,0.
 00006438,0.00000600,0.00001034,-0.00003454,-0.00001350,-0.00000415,0.0
 0000068,0.00035633,0.00028780,-0.00010247,0.00182695,0.00258757,0.0009
 2329,-0.02816194,-0.00650853,-0.00796293,0.00096018,0.00089934,0.00258
 802,0.00000054,0.00000195,-0.00000135,0.00000025,-0.00000806,0.0000007
 6,-0.00000225,-0.00000085,0.00000245,-0.00000323,0.00000057,-0.0000039
 6,-0.00000163,-0.00000039,0.00000186,-0.00000191,0.00000111,0.00000056
 ,0.00000444,-0.00000734,0.00001161,-0.00004315,0.00001388,-0.00006250,
 -0.00008272,0.00028768,0.00054488,-0.00000627,0.00000713,0.00000271,-0
 .00000272,0.00001864,0.00000602,-0.00016696,0.00004328,-0.00026049,-0.
 00032398,0.00041048,-0.00031717,0.00297205,0.00174010,-0.00457863,0.07
 491790,-0.00608213,0.06900472,0.00000316,-0.00000920,-0.00002658,-0.00
 000917,0.00001161,0.00001415,0.00000032,-0.00000875,0.00002555,0.00000
 768,0.00000663,-0.00002939,-0.00000365,0.00000063,0.00000377,-0.000030
 67,0.00002440,0.00001985,0.00001484,-0.00003001,-0.00008355,0.00000917
 ,0.00001407,0.00008796,-0.00001409,0.00001368,0.00000218,0.00000920,-0
 .00001454,-0.00001022,-0.00000471,0.00000219,0.00000127,0.00000476,-0.
 00000245,0.00003133,0.00002292,-0.00008310,-0.00006453,0.00003907,0.00
 007813,0.00013744,0.00007062,-0.00014336,-0.00039199,0.00033420,0.0006
 4729,0.00027680,-0.00032945,-0.00012245,0.00056297,0.00037413,0.000179
 68,0.00031737,-0.00001653,0.00003130,-0.00011249,-0.00451382,0.0001666
 1,-0.00226209,0.00102342,-0.00134998,0.00082453,-0.00028851,0.00005495
 ,-0.00009073,0.00046819,-0.00030370,-0.00003236,0.00006271,0.00029753,
 -0.00019720,-0.00002542,-0.00000742,-0.00003782,-0.00008005,-0.0007364
 7,0.00130874,-0.00945219,0.00905903,-0.00925823,-0.33046455,-0.0444834
 7,-0.07393138,-0.01748588,-0.00616131,0.00615559,-0.00000395,0.0000016
 2,0.00000414,-0.00000410,-0.00000158,0.00000011,0.00000515,0.00000133,
 -0.00000321,0.00000213,-0.00000032,-0.00000192,0.00000337,0.00000041,-
 0.00000207,0.00000372,0.00000135,0.00000032,0.00000706,-0.00000224,-0.
 00000167,0.00000446,-0.00000369,-0.00000429,0.00026677,0.00029715,0.00
 048907,-0.00003303,0.00003668,-0.00001955,0.00007336,-0.00023093,0.000
 07777,0.00064408,0.00054074,-0.00126541,-0.00001408,-0.00013020,0.0003
 5939,0.00106329,0.00044626,-0.00030662,0.00050560,-0.00014304,-0.00034
 259,0.35775043,0.00000109,0.00001400,0.00001223,0.00000476,-0.00001457
 ,-0.00000392,-0.00001127,0.00000136,-0.00001196,-0.00000028,0.00000623
 ,0.00001071,0.00000023,-0.00000229,-0.00000063,0.00002529,-0.00004846,
 -0.00002626,0.00000399,0.00006731,0.00009681,-0.00002964,-0.00004319,-
 0.00012495,0.00000135,-0.00001476,0.00000820,0.00000547,0.00001041,-0.
 00000139,-0.00000455,-0.00000023,0.00000359,-0.00001736,0.00000584,-0.
 00000692,0.00000049,0.00010996,0.00004752,-0.00010033,-0.00007287,-0.0
 0010916,0.00001360,0.00031244,0.00028253,-0.00036566,-0.00061334,0.000
 08522,-0.00199146,-0.00037043,0.00184851,0.00062607,0.00006949,-0.0001
 8689,0.00013455,-0.00005622,0.00003559,-0.02708619,-0.00064499,-0.0108
 2309,0.00205712,0.00214156,0.00159531,-0.00020717,-0.00009545,0.000095
 24,0.00011428,0.00009192,-0.00015887,-0.00017998,-0.00020309,0.0002058
 6,0.00001358,0.00002943,0.00000823,0.00398240,0.00233637,-0.00365183,0
 .03353483,-0.00806619,0.01909924,-0.04542138,-0.05136937,-0.01400109,-
 0.00495006,0.00241727,0.00254352,0.00000067,-0.00000286,-0.00000109,-0
 .00000066,0.00000695,-0.00000030,0.00000182,0.00000140,-0.00000173,0.0
 0000540,-0.00000159,0.00000580,0.00000107,0.00000082,-0.00000099,0.000
 00294,0.00000008,0.00000102,-0.00000347,0.00000705,-0.00000539,0.00001
 173,-0.00000654,0.00000669,-0.00088149,0.00071206,-0.00023348,-0.00001
 327,-0.00005884,-0.00000188,-0.00021733,0.00008457,0.00000437,-0.00148
 034,0.00027740,-0.00027447,0.00003611,-0.00017737,0.00006460,0.0009095
 8,0.00042056,-0.00014933,-0.00058149,-0.00365064,-0.00353636,0.0420549
 3,0.05638880,-0.00000101,-0.00000589,-0.00003221,-0.00000647,0.0000070
 3,0.00001989,0.00000821,-0.00000567,0.00002619,0.00000220,0.00001191,-
 0.00002954,0.00000022,-0.00000032,0.00000303,-0.00001707,0.00000071,0.
 00001230,0.00000480,-0.00000970,-0.00005860,0.00000589,0.00000583,0.00
 006133,-0.00000708,0.00001600,0.00001226,0.00000182,-0.00001841,-0.000
 01969,-0.00000155,0.00000353,0.00000295,0.00000961,0.00000643,0.000042
 65,0.00001322,-0.00005904,-0.00007192,0.00003451,0.00006259,0.00012223
 ,0.00010702,-0.00004199,-0.00035955,0.00007471,-0.00004521,-0.00008472
 ,-0.00271496,-0.00076793,0.00089263,0.00065997,0.00015456,0.00017390,0
 .00000366,0.00006714,-0.00001691,-0.02169915,-0.00320217,-0.00470749,0
 .00145387,-0.00094296,0.00134828,0.00014234,-0.00033442,-0.00017088,0.
 00007456,0.00001837,0.00007348,0.00009103,0.00017696,-0.00018514,-0.00
 001284,-0.00001514,-0.00001401,-0.00281365,-0.00071757,0.00316925,-0.0
 1639677,0.00850084,-0.00759695,-0.07929269,-0.01518555,-0.06562468,0.0
 3863389,0.00813450,-0.00582763,-0.00000252,0.00000140,0.00000512,-0.00
 000221,0.00000164,-0.00000017,0.00000241,0.00000023,-0.00000276,-0.000
 00063,-0.00000048,-0.00000239,0.00000156,0.00000041,-0.00000198,0.0000
 0211,0.00000049,-0.00000017,0.00000376,0.00000008,-0.00000309,0.000009
 57,-0.00000563,0.00001233,0.00180698,-0.00028820,0.00360368,0.00002037
 ,0.00000991,-0.00002273,0.00015284,-0.00009910,-0.00000971,0.00096353,
 -0.00013179,0.00007436,0.00029407,0.00004045,0.00011757,0.00092458,0.0
 0008846,-0.00033362,-0.00031028,-0.00268347,-0.00279004,0.07777557,0.0
 0725117,0.07819315\\0.00587501,-0.00123680,-0.00598896,0.00391741,-0.0
 0997618,0.00642206,0.01292310,-0.02401191,0.00459920,-0.00369453,0.010
 59807,0.01719097,-0.00532029,-0.00419587,-0.02890912,-0.00762814,-0.00
 809915,-0.00497519,0.00691511,0.00865479,0.00804019,0.00180213,0.01124
 782,0.01725133,0.00414053,0.00439543,0.00714763,0.00257834,0.02589244,
 -0.01006014,0.00353998,-0.02929807,0.01199141,-0.00440101,0.00572545,0
 .00763121,0.00054804,-0.01046644,0.01948346,-0.03595163,0.00963778,-0.
 01425375,0.02335654,-0.01817990,0.00066190,-0.01271555,-0.00789742,0.0
 2021194,-0.01373085,0.02614597,0.02227944,0.00607863,0.01173786,-0.005
 78474,0.01218303,-0.01141638,-0.03106575,0.01641485,0.02225098,0.00750
 712,-0.01459893,0.00001236,-0.01852008,-0.00552629,-0.02093836,0.02877
 559,-0.00189302,0.02528834,0.02811254,0.01008072,-0.04289757,-0.017464
 63,-0.01434324,0.02145884,0.02163737,0.00167691,0.00998153,-0.02639903
 ,0.00865298,0.00398075,-0.03387534,0.01891060,0.01378051,-0.00222108,-
 0.00136391,-0.01265766,0.01755430,-0.00242877,0.00490210,0.00148305,0.
 00147457,0.00737834,-0.01721020,-0.02050190,-0.00428197,-0.00077752,0.
 02103373,0.00338661,0.00060317,-0.02035059,-0.00180120,-0.00023431,0.0
 2349563,0.00544446,-0.00050479,-0.02115022,-0.00168567,0.00216745,0.01
 807280,0.00211305,-0.00378789,-0.00424549,-0.00432375,-0.00354534,-0.0
 0693110,-0.00463512,-0.01491157,0.01894061,-0.00006647,-0.00191891,-0.
 02261015,-0.00298904,-0.00014142,0.01698433,0.00117969,0.00129368,-0.0
 2284025,-0.00531757,-0.00429646,0.02190661,-0.00281853,0.00214012,-0.0
 1927637,-0.00600217,-0.00733894\\\@


 Boundary, n.  In political geography, an imaginary
 line between two nations, separating the imaginary
 rights of one from the imaginary rights of another.
                               -- Ambrose Bierce
 Job cpu time:  0 days 13 hours  5 minutes 58.7 seconds.
 File lengths (MBytes):  RWF=   1327 Int=      0 D2E=      0 Chk=     19 Scr=      1
 Normal termination of Gaussian 09 at Tue Mar  1 16:22:01 2016.
Gaussian '09 finished on node004 at Tue Mar  1 16:22:01 EST 2016.
