Gaussian '09 started on node026 at Tue Mar  1 03:33:53 EST 2016.
 Entering Gaussian System, Link 0=/usr/local/gaussian/g09/g09
 Initial command:
 /usr/local/gaussian/g09/l1.exe /home/srmcgrat/thesis/gaussian/cellobiose/550/10000/2/gdp/gaussian15080/Gau-15116.inp -scrdir=/home/srmcgrat/thesis/gaussian/cellobiose/550/10000/2/gdp/gaussian15080/
 Entering Link 1 = /usr/local/gaussian/g09/l1.exe PID=     15118.
  
 Copyright (c) 1988,1990,1992,1993,1995,1998,2003,2009,2010,
            Gaussian, Inc.  All Rights Reserved.
  
 This is part of the Gaussian(R) 09 program.  It is based on
 the Gaussian(R) 03 system (copyright 2003, Gaussian, Inc.),
 the Gaussian(R) 98 system (copyright 1998, Gaussian, Inc.),
 the Gaussian(R) 94 system (copyright 1995, Gaussian, Inc.),
 the Gaussian 92(TM) system (copyright 1992, Gaussian, Inc.),
 the Gaussian 90(TM) system (copyright 1990, Gaussian, Inc.),
 the Gaussian 88(TM) system (copyright 1988, Gaussian, Inc.),
 the Gaussian 86(TM) system (copyright 1986, Carnegie Mellon
 University), and the Gaussian 82(TM) system (copyright 1983,
 Carnegie Mellon University). Gaussian is a federally registered
 trademark of Gaussian, Inc.
  
 This software contains proprietary and confidential information,
 including trade secrets, belonging to Gaussian, Inc.
  
 This software is provided under written license and may be
 used, copied, transmitted, or stored only in accord with that
 written license.
  
 The following legend is applicable only to US Government
 contracts under FAR:
  
                    RESTRICTED RIGHTS LEGEND
  
 Use, reproduction and disclosure by the US Government is
 subject to restrictions as set forth in subparagraphs (a)
 and (c) of the Commercial Computer Software - Restricted
 Rights clause in FAR 52.227-19.
  
 Gaussian, Inc.
 340 Quinnipiac St., Bldg. 40, Wallingford CT 06492
  
  
 ---------------------------------------------------------------
 Warning -- This program may not be used in any manner that
 competes with the business of Gaussian, Inc. or will provide
 assistance to any competitor of Gaussian, Inc.  The licensee
 of this program is prohibited from giving any competitor of
 Gaussian, Inc. access to this program.  By using this program,
 the user acknowledges that Gaussian, Inc. is engaged in the
 business of creating and licensing software in the field of
 computational chemistry and represents and warrants to the
 licensee that it is not a competitor of Gaussian, Inc. and that
 it will not use this program in any manner prohibited above.
 ---------------------------------------------------------------
  

 Cite this work as:
 Gaussian 09, Revision B.01,
 M. J. Frisch, G. W. Trucks, H. B. Schlegel, G. E. Scuseria, 
 M. A. Robb, J. R. Cheeseman, G. Scalmani, V. Barone, B. Mennucci, 
 G. A. Petersson, H. Nakatsuji, M. Caricato, X. Li, H. P. Hratchian, 
 A. F. Izmaylov, J. Bloino, G. Zheng, J. L. Sonnenberg, M. Hada, 
 M. Ehara, K. Toyota, R. Fukuda, J. Hasegawa, M. Ishida, T. Nakajima, 
 Y. Honda, O. Kitao, H. Nakai, T. Vreven, J. A. Montgomery, Jr., 
 J. E. Peralta, F. Ogliaro, M. Bearpark, J. J. Heyd, E. Brothers, 
 K. N. Kudin, V. N. Staroverov, T. Keith, R. Kobayashi, J. Normand, 
 K. Raghavachari, A. Rendell, J. C. Burant, S. S. Iyengar, J. Tomasi, 
 M. Cossi, N. Rega, J. M. Millam, M. Klene, J. E. Knox, J. B. Cross, 
 V. Bakken, C. Adamo, J. Jaramillo, R. Gomperts, R. E. Stratmann, 
 O. Yazyev, A. J. Austin, R. Cammi, C. Pomelli, J. W. Ochterski, 
 R. L. Martin, K. Morokuma, V. G. Zakrzewski, G. A. Voth, 
 P. Salvador, J. J. Dannenberg, S. Dapprich, A. D. Daniels, 
 O. Farkas, J. B. Foresman, J. V. Ortiz, J. Cioslowski, 
 and D. J. Fox, Gaussian, Inc., Wallingford CT, 2010.
 
 ******************************************
 Gaussian 09:  EM64L-G09RevB.01 12-Aug-2010
                 1-Mar-2016 
 ******************************************
 ------------------------------------------------
 # freq=raman b3lyp/6-31+g(d,p) geom=connectivity
 ------------------------------------------------
 1/10=4,30=1,38=1,57=2/1,3;
 2/12=2,17=6,18=5,40=1/2;
 3/5=1,6=6,7=111,11=2,16=1,25=1,30=1,71=2,74=-5/1,2,3;
 4//1;
 5/5=2,38=5,98=1/2;
 8/6=4,10=90,11=11/1;
 10/13=10,15=4/2;
 11/6=3,8=1,9=11,15=111,16=1/1,2,10;
 10/6=1/2;
 6/7=2,8=2,9=2,10=2,18=1,28=1/1;
 7/8=1,10=1,25=1/1,2,3,16;
 1/10=4,30=1/3;
 99//99;
 -------------
 550 10000.com
 -------------
 Symbolic Z-matrix:
 Charge =  0 Multiplicity = 1
 O                     9.501     7.572     21.451 
 C                     10.341    7.427     22.605 
 C                     10.681    8.856     22.998 
 O                     11.746    9.373     22.187 
 H                     11.507    9.273     21.221 
 C                     11.07     8.845     24.467 
 O                     11.233    10.16     25.017 
 H                     11.417    10.926    24.4 
 C                     9.516     5.2       23.138 
 O                     8.741     4.413     24.054 
 H                     8.492     3.59      23.543 
 C                     9.604     6.624     23.664 
 O                     10.16     6.654     24.987 
 C                     10.257    8.011     25.444 
 O                     10.936    7.76      26.683 
 C                     10.226    7.823     27.929 
 C                     9.697     6.443     28.284 
 O                     8.777     5.72      27.454 
 H                     9.211     5.39      26.615 
 C                     9.156     6.346     29.702 
 O                     8.924     4.967     30.023 
 H                     8.222     4.73      29.352 
 C                     12.245    9.144     28.597 
 O                     11.816    10.511    28.507 
 H                     11.449    10.757    27.61 
 C                     11.237    8.093     29.032 
 O                     10.7      8.142     30.362 
 C                     10.174    6.853     30.71 
 O                     9.44      6.944     31.94 
 H                     10.05413   6.99844   32.67585 
 H                     10.97149   6.14688   30.81152 
 H                     8.24551   6.90151   29.78754 
 H                     10.57504   5.8315    28.28835 
 H                     9.44803   8.55743   27.91243 
 H                     11.82134   7.19684   29.05067 
 H                     12.61329   8.85794   27.63396 
 H                     13.06448   9.10818   29.28408 
 H                     10.04739   7.67041   20.66781 
 H                     10.49963   4.78733   23.05385 
 H                     9.04408   5.20092   22.17769 
 H                     8.6078    7.00955   23.72588 
 H                     11.23741   6.91195   22.32917 
 H                     9.8141    9.47      22.86998 
 H                     12.0479   8.41105   24.48413 
 H                     9.28819   8.43362   25.61041 
 

 GradGradGradGradGradGradGradGradGradGradGradGradGradGradGradGradGradGrad
 Berny optimization.
 Initialization pass.
 Trust Radius=3.00D-01 FncErr=1.00D-07 GrdErr=1.00D-07
 Number of steps in this run=      2 maximum allowed number of steps=      2.
 GradGradGradGradGradGradGradGradGradGradGradGradGradGradGradGradGradGrad

                          Input orientation:                          
 ---------------------------------------------------------------------
 Center     Atomic      Atomic             Coordinates (Angstroms)
 Number     Number       Type             X           Y           Z
 ---------------------------------------------------------------------
      1          8           0        9.501000    7.572000   21.451000
      2          6           0       10.341000    7.427000   22.605000
      3          6           0       10.681000    8.856000   22.998000
      4          8           0       11.746000    9.373000   22.187000
      5          1           0       11.507000    9.273000   21.221000
      6          6           0       11.070000    8.845000   24.467000
      7          8           0       11.233000   10.160000   25.017000
      8          1           0       11.417000   10.926000   24.400000
      9          6           0        9.516000    5.200000   23.138000
     10          8           0        8.741000    4.413000   24.054000
     11          1           0        8.492000    3.590000   23.543000
     12          6           0        9.604000    6.624000   23.664000
     13          8           0       10.160000    6.654000   24.987000
     14          6           0       10.257000    8.011000   25.444000
     15          8           0       10.936000    7.760000   26.683000
     16          6           0       10.226000    7.823000   27.929000
     17          6           0        9.697000    6.443000   28.284000
     18          8           0        8.777000    5.720000   27.454000
     19          1           0        9.211000    5.390000   26.615000
     20          6           0        9.156000    6.346000   29.702000
     21          8           0        8.924000    4.967000   30.023000
     22          1           0        8.222000    4.730000   29.352000
     23          6           0       12.245000    9.144000   28.597000
     24          8           0       11.816000   10.511000   28.507000
     25          1           0       11.449000   10.757000   27.610000
     26          6           0       11.237000    8.093000   29.032000
     27          8           0       10.700000    8.142000   30.362000
     28          6           0       10.174000    6.853000   30.710000
     29          8           0        9.440000    6.944000   31.940000
     30          1           0       10.054132    6.998441   32.675852
     31          1           0       10.971489    6.146880   30.811519
     32          1           0        8.245511    6.901511   29.787542
     33          1           0       10.575040    5.831505   28.288347
     34          1           0        9.448034    8.557434   27.912427
     35          1           0       11.821336    7.196840   29.050673
     36          1           0       12.613286    8.857942   27.633965
     37          1           0       13.064477    9.108177   29.284076
     38          1           0       10.047385    7.670407   20.667815
     39          1           0       10.499628    4.787332   23.053848
     40          1           0        9.044079    5.200918   22.177693
     41          1           0        8.607798    7.009553   23.725882
     42          1           0       11.237407    6.911952   22.329173
     43          1           0        9.814100    9.469999   22.869983
     44          1           0       12.047905    8.411054   24.484125
     45          1           0        9.288187    8.433620   25.610413
 ---------------------------------------------------------------------
                    Distance matrix (angstroms):
                    1          2          3          4          5
     1  O    0.000000
     2  C    1.434692   0.000000
     3  C    2.331151   1.520556   0.000000
     4  O    2.970744   2.436322   1.435003   0.000000
     5  H    2.640140   2.585097   2.003470   1.000138   0.000000
     6  C    3.630227   2.451369   1.519672   2.436013   3.303130
     7  O    4.734335   3.752692   2.466066   2.981851   3.907872
     8  H    4.859730   4.077107   2.606185   2.723494   3.584208
     9  C    2.910769   2.433977   3.839682   4.826099   4.922225
    10  O    4.163231   3.707263   4.961752   6.092398   6.268672
    11  H    4.609866   4.361332   5.728831   6.772765   6.839474
    12  C    2.409706   1.519690   2.566186   3.785062   4.075151
    13  O    3.712183   2.510819   3.012701   4.212880   4.780829
    14  C    4.087579   2.899661   2.622350   3.831477   4.581361
    15  O    5.428480   4.134610   3.852981   4.844779   5.696372
    16  C    6.523274   5.339945   5.058545   6.138686   6.981456
    17  C    6.928416   5.799486   5.893439   7.068006   7.821187
    18  O    6.323772   5.373337   5.771971   7.064040   7.676392
    19  H    5.613566   4.637496   5.220799   6.472843   7.031681
    20  C    8.348719   7.276001   7.319108   8.505648   9.274799
    21  O    8.977647   7.942683   8.219610   9.422283  10.133545
    22  H    8.493445   7.568750   7.965166   9.236517   9.876398
    23  C    7.814476   6.517466   5.820467   6.433470   7.413950
    24  O    7.986494   6.820578   5.863133   6.422020   7.396886
    25  H    7.202236   6.112822   5.047194   5.604694   6.559340
    26  C    7.794658   6.523243   6.107410   6.982228   7.904241
    27  O    9.009352   7.798151   7.398557   8.333073   9.245988
    28  C    9.311228   8.127016   7.983984   9.025692   9.883036
    29  O   10.507960   9.390810   9.227957  10.312065  11.162154
    30  H   11.253099  10.084048   9.874427  10.886550  11.768521
    31  H    9.581891   8.329657   8.274950   9.240674  10.101359
    32  H    8.457171   7.500408   7.473253   8.725246   9.468205
    33  H    7.136680   5.907691   6.094799   7.151208   7.915796
    34  H    6.536354   5.499459   5.075523   6.223046   7.037511
    35  H    7.954856   6.617482   6.378717   7.200788   8.106357
    36  H    7.040527   5.700997   5.022539   5.539575   6.520910
    37  H    8.741584   7.406331   6.727504   7.223365   8.213775
    38  H    0.960000   1.974372   2.690142   2.844651   2.237140
    39  H    3.364633   2.682251   4.073091   4.830447   4.949277
    40  H    2.521684   2.611520   4.088036   4.970587   4.854183
    41  H    2.507837   2.105856   2.870078   4.219284   4.450056
    42  H    2.054741   1.070000   2.129845   2.517070   2.622075
    43  H    2.390386   2.126426   1.070000   2.051369   2.371469
    44  H    4.048529   2.722682   2.067601   2.508639   3.418116
    45  H    4.253046   3.339792   2.990491   4.317759   4.989453
                    6          7          8          9         10
     6  C    0.000000
     7  O    1.434676   0.000000
     8  H    2.110796   1.000650   0.000000
     9  C    4.179376   5.574974   6.163888   0.000000
    10  O    5.023687   6.337621   7.049813   1.434939   0.000000
    11  H    5.925781   7.269846   7.943990   1.950564   1.000225
    12  C    2.779713   4.121595   4.726084   1.520591   2.405284
    13  O    2.428782   3.666642   4.491615   2.438781   2.811784
    14  C    1.520215   2.398563   3.306473   3.710585   4.144389
    15  O    2.470999   2.936625   3.932811   4.597502   4.788745
    16  C    3.707056   3.867216   4.847776   5.507986   5.371122
    17  C    4.714257   5.181571   6.175852   5.297087   4.788292
    18  O    4.893429   5.628899   6.587788   4.409578   3.642739
    19  H    4.472897   5.421714   6.357669   3.495519   2.781034
    20  C    6.108488   6.388251   7.362046   6.673006   5.984030
    21  O    7.107273   7.573557   8.564045   6.914331   5.997447
    22  H    6.993394   7.572532   8.551067   6.364678   5.332790
    23  C    4.304292   3.856527   4.634212   7.266585   7.436345
    24  O    4.433246   3.555726   4.147153   7.894484   8.152940
    25  H    3.698356   2.669591   3.214605   7.390232   7.760460
    26  C    4.629538   4.515831   5.432652   6.787527   6.674796
    27  O    5.948288   5.738069   6.618927   7.889448   7.585116
    28  C    6.614071   6.668432   7.612521   7.778210   7.232525
    29  O    7.881398   7.841265   8.753082   8.973434   8.311652
    30  H    8.475082   8.369182   9.261364   9.720833   9.096436
    31  H    6.895105   7.053366   8.009123   7.867524   7.324308
    32  H    6.329538   6.503915   7.435083   6.980379   6.269904
    33  H    4.891710   5.465390   6.463901   5.295889   4.827583
    34  H    3.818957   3.760029   4.671624   5.837134   5.706460
    35  H    4.928589   5.039541   5.974854   6.652943   6.496536
    36  H    3.523005   3.232499   4.020758   6.571714   6.896974
    37  H    5.220290   4.761153   5.465607   8.101839   8.251717
    38  H    4.105998   5.149677   5.138476   3.533709   4.876843
    39  H    4.334396   5.766919   6.351137   1.070000   2.057474
    40  H    4.756534   6.119276   6.583765   1.070000   2.057474
    41  H    3.159203   4.299301   4.866684   2.108298   2.620590
    42  H    2.887041   4.215952   4.520305   2.558949   3.930882
    43  H    2.125647   2.664406   2.651449   4.288775   5.303459
    44  H    1.070000   2.001709   2.594238   4.305051   5.206252
    45  H    2.156731   2.667364   3.494125   4.076889   4.345943
                   11         12         13         14         15
    11  H    0.000000
    12  C    3.233627   0.000000
    13  O    3.775640   1.435397   0.000000
    14  C    5.125843   2.349165   1.435168   0.000000
    15  O    5.763821   3.489854   2.168370   1.434978   0.000000
    16  C    6.337353   4.473780   3.166430   2.492294   1.435474
    17  C    5.662925   4.624479   3.336030   3.292085   2.415121
    18  O    4.462516   3.983120   2.978445   3.388094   3.068766
    19  H    3.632375   3.222671   2.269071   3.055323   2.932090
    20  C    6.780097   6.060976   4.830539   4.702658   3.779174
    21  O    6.638761   6.606431   5.452977   5.657744   4.796310
    22  H    5.925958   6.152276   5.148868   5.493510   4.865209
    23  C    8.394929   6.136756   4.855865   3.895798   2.700432
    24  O    9.142785   6.592144   5.478064   4.249994   3.416047
    25  H    8.755012   6.004717   5.037485   3.694988   3.178759
    26  C    7.611909   5.800006   4.426361   3.720332   2.391504
    27  O    8.490861   6.954764   5.603246   4.939649   3.706300
    28  C    8.052464   7.072726   5.726476   5.392459   4.197621
    29  O    9.091624   8.283808   6.996192   6.633551   5.526294
    30  H    9.872523   9.030853   7.697291   7.305212   6.105075
    31  H    8.094250   7.292784   5.902602   5.726753   4.432616
    32  H    7.072564   6.278556   5.174141   4.913594   4.196894
    33  H    5.646390   4.791195   3.427484   3.597452   2.535059
    34  H    6.684407   4.670291   3.562033   2.654458   2.088405
    35  H    7.377549   5.853287   4.423590   4.014734   2.589757
    36  H    7.840421   5.459571   4.228758   3.326461   2.218806
    37  H    9.182471   7.052042   5.737930   4.881794   3.621270
    38  H    5.228349   3.204479   4.438595   4.792900   6.081128
    39  H    2.388188   2.132553   2.708666   4.020414   4.711467
    40  H    2.182639   2.132553   3.353943   4.476215   5.515982
    41  H    3.426397   1.070000   2.031297   2.583543   3.837739
    42  H    4.477275   2.129013   2.879477   3.445468   4.445879
    43  H    6.064263   2.962147   3.539952   2.991722   4.326876
    44  H    6.064053   3.136692   2.627605   2.070928   2.548579
    45  H    5.326233   2.676376   2.077438   1.070000   2.078339
                   16         17         18         19         20
    16  C    0.000000
    17  C    1.519956   0.000000
    18  O    2.597660   1.434583   0.000000
    19  H    2.945558   2.032379   1.000588   0.000000
    20  C    2.543611   1.520794   2.364111   3.232109   0.000000
    21  O    3.773165   2.408366   2.681115   3.446123   1.434749
    22  H    3.950645   2.500124   2.211454   2.984106   1.899029
    23  C    2.503523   3.726349   5.005722   5.217854   4.311815
    24  O    3.176087   4.592223   5.770443   6.048994   5.084373
    25  H    3.194659   4.704718   5.703971   5.899437   5.393629
    26  C    1.520405   2.377731   3.764680   4.153646   2.798476
    27  O    2.499185   2.865431   4.245053   4.881663   2.458689
    28  C    2.945771   2.506213   3.719790   4.453848   1.519683
    29  O    4.180737   3.699106   4.697014   5.551845   2.333860
    30  H    4.821000   4.441219   5.525687   6.327075   3.174290
    31  H    3.416731   2.846114   4.033726   4.613346   2.136980
    32  H    2.868041   2.139554   2.669057   3.644428   1.070000
    33  H    2.053537   1.070000   1.985325   2.203548   2.068041
    34  H    1.070000   2.161223   2.951521   3.431055   2.859772
    35  H    2.048249   2.380938   3.741444   4.001378   2.872660
    36  H    2.618642   3.841772   4.959451   4.963916   4.747573
    37  H    3.397774   4.409447   5.762932   5.983151   4.804215
    38  H    7.264985   7.722407   7.174279   6.424081   9.174155
    39  H    5.749544   5.544361   4.816498   3.834785   6.959361
    40  H    6.430380   6.265466   5.308502   4.444470   7.611763
    41  H    4.576732   4.720570   3.948473   3.366572   6.037782
    42  H    5.762900   6.168690   5.808459   4.979053   7.681870
    43  H    5.336283   6.203871   6.012594   5.570931   7.541149
    44  H    3.941105   4.882524   5.173079   4.659981   6.312985
    45  H    2.574528   3.358238   3.320219   3.206052   4.595292
                   21         22         23         24         25
    21  O    0.000000
    22  H    0.999607   0.000000
    23  C    5.523572   6.019797   0.000000
    24  O    6.434117   6.859360   1.435559   0.000000
    25  H    6.761826   7.054986   2.051720   0.999907   0.000000
    26  C    4.012970   4.527957   1.519832   2.541179   3.027197
    27  O    3.653727   4.336165   2.550736   3.209150   3.869461
    28  C    2.364628   3.187726   3.741990   4.574969   5.145565
    29  O    2.801727   3.617052   4.887093   5.491298   6.109333
    30  H    3.527262   4.421598   5.102976   5.729012   6.460285
    31  H    2.491203   3.420152   3.938103   5.006950   5.633023
    32  H    2.063521   2.214883   4.737305   5.236086   5.465238
    33  H    2.546041   2.807395   3.722453   4.846180   5.048214
    34  H    4.197660   4.269049   2.938660   3.126852   2.988882
    35  H    3.783142   4.373937   2.043708   3.358461   3.858615
    36  H    5.870072   6.266972   1.070000   2.032352   2.227680
    37  H    5.902449   6.528601   1.070000   2.032352   2.851476
    38  H    9.802545   9.348428   8.359005   8.523485   7.725640
    39  H    7.147305   6.697581   7.263154   8.014367   7.569462
    40  H    7.849712   7.236592   8.185432   8.714393   8.134104
    41  H    6.627647   6.082631   6.443050   6.738826   6.099357
    42  H    8.266176   7.948188   6.729260   7.173107   6.535771
    43  H    8.499114   8.186508   6.230110   6.071840   5.176585
    44  H    7.231834   7.203049   4.182320   4.543905   3.953890
    45  H    5.623256   5.371501   4.262286   4.369847   3.750408
                   26         27         28         29         30
    26  C    0.000000
    27  O    1.435155   0.000000
    28  C    2.341635   1.435026   0.000000
    29  O    3.606366   2.347954   1.435248   0.000000
    30  H    3.984331   2.660598   1.974866   0.960000   0.000000
    31  H    2.650390   2.063075   1.070000   2.062602   2.245537
    32  H    3.307491   2.809507   2.138306   2.462049   3.409229
    33  H    2.470945   3.107095   2.658701   3.982528   4.569823
    34  H    2.160913   2.782160   3.355375   4.338730   5.048568
    35  H    1.070000   1.967308   2.363326   3.752719   4.037858
    36  H    2.105659   3.408139   4.408163   5.681096   5.952112
    37  H    2.105659   2.772395   3.933693   4.987427   5.001731
    38  H    8.458922   9.727566  10.076193  11.311885  12.026826
    39  H    6.870914   8.043819   7.936604   9.205309   9.882835
    40  H    7.755938   8.852961   8.763924   9.924602  10.698722
    41  H    6.020087   7.049667   7.159288   8.256427   9.066089
    42  H    6.806083   8.144208   8.448229   9.777509  10.414479
    43  H    6.472343   7.660204   8.273094   9.422623  10.115398
    44  H    4.630539   6.036444   6.685849   8.033896   8.548392
    45  H    3.952360   4.965464   5.411913   6.504282   7.250299
                   31         32         33         34         35
    31  H    0.000000
    32  H    3.008148   0.000000
    33  H    2.573525   2.969715   0.000000
    34  H    4.066500   2.775644   2.973575   0.000000
    35  H    2.219288   3.662885   1.999634   2.963003   0.000000
    36  H    4.488007   5.248140   3.707018   3.191656   2.322392
    37  H    3.934839   5.324030   4.233834   3.906841   2.291961
    38  H   10.299022   9.327774   7.857003   7.323281   8.581578
    39  H    7.890025   7.409010   5.338161   6.239015   6.596556
    40  H    8.896781   7.838337   6.331001   6.657068   7.676895
    41  H    7.519142   6.073438   5.106264   4.541926   6.222162
    42  H    8.520930   8.036094   6.092442   6.089515   6.752828
    43  H    8.686234   7.543886   6.570871   5.137413   6.884561
    44  H    6.805959   6.697996   4.826542   4.305114   4.730645
    45  H    5.925722   4.569785   3.949471   2.310876   4.447680
                   36         37         38         39         40
    36  H    0.000000
    37  H    1.728889   0.000000
    38  H    7.518067   9.241752   0.000000
    39  H    6.481889   8.003992   3.769589   0.000000
    40  H    7.475558   9.051572   3.063451   1.748520   0.000000
    41  H    5.893521   7.426960   3.443968   2.994815   2.420412
    42  H    5.815560   7.518794   2.179798   2.362938   2.785905
    43  H    5.559279   7.199754   2.853507   4.736151   4.392864
    44  H    3.231231   4.955697   4.372055   4.192161   4.964632
    45  H    3.915494   5.311421   5.058474   4.615087   4.721601
                   41         42         43         44         45
    41  H    0.000000
    42  H    2.979122   0.000000
    43  H    2.870805   2.976892   0.000000
    44  H    3.791237   2.747368   2.952407   0.000000
    45  H    2.458120   4.108706   2.976680   2.980785   0.000000
 Stoichiometry    C12H22O11
 Framework group  C1[X(C12H22O11)]
 Deg. of freedom   129
 Full point group                 C1      NOp   1
 Largest Abelian subgroup         C1      NOp   1
 Largest concise Abelian subgroup C1      NOp   1
                         Standard orientation:                         
 ---------------------------------------------------------------------
 Center     Atomic      Atomic             Coordinates (Angstroms)
 Number     Number       Type             X           Y           Z
 ---------------------------------------------------------------------
      1          8           0       -4.972389    0.646330   -0.666705
      2          6           0       -3.834601    0.264241    0.119289
      3          6           0       -3.546406   -1.164050   -0.315474
      4          8           0       -4.418505   -2.089898    0.348969
      5          1           0       -5.368912   -1.814594    0.203331
      6          6           0       -2.091023   -1.455452    0.010638
      7          8           0       -1.633874   -2.707307   -0.520555
      8          1           0       -2.304981   -3.415194   -0.743745
      9          6           0       -3.133175    2.558337    0.530834
     10          8           0       -2.146369    3.562123    0.252127
     11          1           0       -2.594833    4.431784    0.459540
     12          6           0       -2.705136    1.252427   -0.119995
     13          8           0       -1.402634    0.851624    0.330795
     14          6           0       -1.039230   -0.396356   -0.277636
     15          8           0        0.194733   -0.611883    0.422396
     16          6           0        1.452685   -0.395053   -0.234206
     17          6           0        1.912473    1.033767    0.005242
     18          8           0        1.157462    2.179556   -0.413271
     19          1           0        0.330641    2.303072    0.136536
     20          6           0        3.347974    1.290450   -0.426343
     21          8           0        3.765704    2.570548    0.068994
     22          1           0        3.131200    3.176990   -0.409384
     23          6           0        1.976650   -2.599488    0.830478
     24          8           0        1.808102   -3.551189   -0.230977
     25          1           0        0.907106   -3.513446   -0.662945
     26          6           0        2.507494   -1.216802    0.489491
     27          8           0        3.845451   -1.081417   -0.011719
     28          6           0        4.292155    0.268153    0.184286
     29          8           0        5.532948    0.474189   -0.507031
     30          1           0        6.246607    0.064547   -0.012578
     31          1           0        4.418442    0.464475    1.228512
     32          1           0        3.421307    1.267523   -1.493580
     33          1           0        1.933385    1.114872    1.071959
     34          1           0        1.408722   -0.631610   -1.276803
     35          1           0        2.569519   -0.743398    1.447062
     36          1           0        1.024992   -2.471714    1.302622
     37          1           0        2.642045   -3.031978    1.548184
     38          1           0       -5.774941    0.340752   -0.237599
     39          1           0       -3.216563    2.421366    1.588749
     40          1           0       -4.078246    2.864333    0.133206
     41          1           0       -2.641825    1.420646   -1.174791
     42          1           0       -4.100026    0.272986    1.155809
     43          1           0       -3.691140   -1.244186   -1.372607
     44          1           0       -2.071830   -1.578408    1.073376
     45          1           0       -0.874853   -0.281262   -1.328651
 ---------------------------------------------------------------------
 Rotational constants (GHZ):      0.3978007      0.1510093      0.1129538
 Standard basis: 6-31+G(d,p) (6D, 7F)
 There are   547 symmetry adapted basis functions of A   symmetry.
 Integral buffers will be    131072 words long.
 Raffenetti 2 integral format.
 Two-electron integral symmetry is turned on.
   547 basis functions,   890 primitive gaussians,   547 cartesian basis functions
    91 alpha electrons       91 beta electrons
       nuclear repulsion energy      2286.1880199964 Hartrees.
 NAtoms=   45 NActive=   45 NUniq=   45 SFac= 1.00D+00 NAtFMM=   50 NAOKFM=F Big=F
 One-electron integrals computed using PRISM.
 NBasis=   547 RedAO= T  NBF=   547
 NBsUse=   547 1.00D-06 NBFU=   547
 Harris functional with IExCor=  402 diagonalized for initial guess.
 ExpMin= 4.38D-02 ExpMax= 5.48D+03 ExpMxC= 8.25D+02 IAcc=2 IRadAn=         0 AccDes= 0.00D+00
 HarFok:  IExCor=  402 AccDes= 0.00D+00 IRadAn=         0 IDoV= 1
 ScaDFX=  1.000000  1.000000  1.000000  1.000000
 FoFCou: FMM=F IPFlag=           0 FMFlag=      100000 FMFlg1=           0
         NFxFlg=           0 DoJE=T BraDBF=F KetDBF=T FulRan=T
         Omega=  0.000000  0.000000  1.000000  0.000000  0.000000 ICntrl=     500 IOpCl=  0
         NMat0=    1 NMatS0=    1 NMatT0=    0 NMatD0=    1 NMtDS0=    0 NMtDT0=    0
         I1Cent=           4 NGrid=           0.
 Petite list used in FoFCou.
 Initial guess orbital symmetries:
       Occupied  (A) (A) (A) (A) (A) (A) (A) (A) (A) (A) (A) (A)
                 (A) (A) (A) (A) (A) (A) (A) (A) (A) (A) (A) (A)
                 (A) (A) (A) (A) (A) (A) (A) (A) (A) (A) (A) (A)
                 (A) (A) (A) (A) (A) (A) (A) (A) (A) (A) (A) (A)
                 (A) (A) (A) (A) (A) (A) (A) (A) (A) (A) (A) (A)
                 (A) (A) (A) (A) (A) (A) (A) (A) (A) (A) (A) (A)
                 (A) (A) (A) (A) (A) (A) (A) (A) (A) (A) (A) (A)
                 (A) (A) (A) (A) (A) (A) (A)
       Virtual   (A) (A) (A) (A) (A) (A) (A) (A) (A) (A) (A) (A)
                 (A) (A) (A) (A) (A) (A) (A) (A) (A) (A) (A) (A)
                 (A) (A) (A) (A) (A) (A) (A) (A) (A) (A) (A) (A)
                 (A) (A) (A) (A) (A) (A) (A) (A) (A) (A) (A) (A)
                 (A) (A) (A) (A) (A) (A) (A) (A) (A) (A) (A) (A)
                 (A) (A) (A) (A) (A) (A) (A) (A) (A) (A) (A) (A)
                 (A) (A) (A) (A) (A) (A) (A) (A) (A) (A) (A) (A)
                 (A) (A) (A) (A) (A) (A) (A) (A) (A) (A) (A) (A)
                 (A) (A) (A) (A) (A) (A) (A) (A) (A) (A) (A) (A)
                 (A) (A) (A) (A) (A) (A) (A) (A) (A) (A) (A) (A)
                 (A) (A) (A) (A) (A) (A) (A) (A) (A) (A) (A) (A)
                 (A) (A) (A) (A) (A) (A) (A) (A) (A) (A) (A) (A)
                 (A) (A) (A) (A) (A) (A) (A) (A) (A) (A) (A) (A)
                 (A) (A) (A) (A) (A) (A) (A) (A) (A) (A) (A) (A)
                 (A) (A) (A) (A) (A) (A) (A) (A) (A) (A) (A) (A)
                 (A) (A) (A) (A) (A) (A) (A) (A) (A) (A) (A) (A)
                 (A) (A) (A) (A) (A) (A) (A) (A) (A) (A) (A) (A)
                 (A) (A) (A) (A) (A) (A) (A) (A) (A) (A) (A) (A)
                 (A) (A) (A) (A) (A) (A) (A) (A) (A) (A) (A) (A)
                 (A) (A) (A) (A) (A) (A) (A) (A) (A) (A) (A) (A)
                 (A) (A) (A) (A) (A) (A) (A) (A) (A) (A) (A) (A)
                 (A) (A) (A) (A) (A) (A) (A) (A) (A) (A) (A) (A)
                 (A) (A) (A) (A) (A) (A) (A) (A) (A) (A) (A) (A)
                 (A) (A) (A) (A) (A) (A) (A) (A) (A) (A) (A) (A)
                 (A) (A) (A) (A) (A) (A) (A) (A) (A) (A) (A) (A)
                 (A) (A) (A) (A) (A) (A) (A) (A) (A) (A) (A) (A)
                 (A) (A) (A) (A) (A) (A) (A) (A) (A) (A) (A) (A)
                 (A) (A) (A) (A) (A) (A) (A) (A) (A) (A) (A) (A)
                 (A) (A) (A) (A) (A) (A) (A) (A) (A) (A) (A) (A)
                 (A) (A) (A) (A) (A) (A) (A) (A) (A) (A) (A) (A)
                 (A) (A) (A) (A) (A) (A) (A) (A) (A) (A) (A) (A)
                 (A) (A) (A) (A) (A) (A) (A) (A) (A) (A) (A) (A)
                 (A) (A) (A) (A) (A) (A) (A) (A) (A) (A) (A) (A)
                 (A) (A) (A) (A) (A) (A) (A) (A) (A) (A) (A) (A)
                 (A) (A) (A) (A) (A) (A) (A) (A) (A) (A) (A) (A)
                 (A) (A) (A) (A) (A) (A) (A) (A) (A) (A) (A) (A)
                 (A) (A) (A) (A) (A) (A) (A) (A) (A) (A) (A) (A)
                 (A) (A) (A) (A) (A) (A) (A) (A) (A) (A) (A) (A)
 The electronic state of the initial guess is 1-A.
 Requested convergence on RMS density matrix=1.00D-08 within 128 cycles.
 Requested convergence on MAX density matrix=1.00D-06.
 Requested convergence on             energy=1.00D-06.
 No special actions if energy rises.
 SCF Done:  E(RB3LYP) =  -1297.93624066     A.U. after   14 cycles
             Convg  =    0.2419D-08             -V/T =  2.0088
 Range of M.O.s used for correlation:     1   547
 NBasis=   547 NAE=    91 NBE=    91 NFC=     0 NFV=     0
 NROrb=    547 NOA=    91 NOB=    91 NVA=   456 NVB=   456

 **** Warning!!: The largest alpha MO coefficient is  0.66715000D+02

          Differentiating once with respect to electric field.
                with respect to dipole field.
          Electric field/nuclear overlap derivatives assumed to be zero.
          There are     3 degrees of freedom in the 1st order CPHF.  IDoFFX=0.
      3 vectors produced by pass  0 Test12= 1.38D-12 3.33D-08 XBig12= 1.20D+02 1.33D+00.
 AX will form     3 AO Fock derivatives at one time.
      3 vectors produced by pass  1 Test12= 1.38D-12 3.33D-08 XBig12= 2.09D+01 3.42D-01.
      3 vectors produced by pass  2 Test12= 1.38D-12 3.33D-08 XBig12= 8.69D+00 2.26D-01.
      3 vectors produced by pass  3 Test12= 1.38D-12 3.33D-08 XBig12= 8.57D-01 6.94D-02.
      3 vectors produced by pass  4 Test12= 1.38D-12 3.33D-08 XBig12= 2.49D-01 3.07D-02.
      3 vectors produced by pass  5 Test12= 1.38D-12 3.33D-08 XBig12= 5.09D-02 1.79D-02.
      3 vectors produced by pass  6 Test12= 1.38D-12 3.33D-08 XBig12= 1.58D-02 1.27D-02.
      3 vectors produced by pass  7 Test12= 1.38D-12 3.33D-08 XBig12= 2.04D-03 7.12D-03.
      3 vectors produced by pass  8 Test12= 1.38D-12 3.33D-08 XBig12= 4.44D-04 2.60D-03.
      3 vectors produced by pass  9 Test12= 1.38D-12 3.33D-08 XBig12= 1.12D-04 1.76D-03.
      3 vectors produced by pass 10 Test12= 1.38D-12 3.33D-08 XBig12= 2.85D-05 7.38D-04.
      3 vectors produced by pass 11 Test12= 1.38D-12 3.33D-08 XBig12= 5.34D-06 4.43D-04.
      3 vectors produced by pass 12 Test12= 1.38D-12 3.33D-08 XBig12= 7.24D-07 1.24D-04.
      3 vectors produced by pass 13 Test12= 1.38D-12 3.33D-08 XBig12= 1.83D-07 5.75D-05.
      3 vectors produced by pass 14 Test12= 1.38D-12 3.33D-08 XBig12= 4.64D-08 1.82D-05.
      3 vectors produced by pass 15 Test12= 1.38D-12 3.33D-08 XBig12= 6.70D-09 4.84D-06.
      3 vectors produced by pass 16 Test12= 1.38D-12 3.33D-08 XBig12= 8.94D-10 2.78D-06.
      3 vectors produced by pass 17 Test12= 1.38D-12 3.33D-08 XBig12= 9.42D-11 8.71D-07.
      3 vectors produced by pass 18 Test12= 1.38D-12 3.33D-08 XBig12= 2.99D-11 3.18D-07.
      3 vectors produced by pass 19 Test12= 1.38D-12 3.33D-08 XBig12= 1.01D-11 2.70D-07.
      3 vectors produced by pass 20 Test12= 1.38D-12 3.33D-08 XBig12= 9.92D-12 2.84D-07.
      2 vectors produced by pass 21 Test12= 1.38D-12 3.33D-08 XBig12= 6.52D-12 2.07D-07.
      2 vectors produced by pass 22 Test12= 1.38D-12 3.33D-08 XBig12= 8.35D-13 7.72D-08.
 Inverted reduced A of dimension    67 with in-core refinement.
 End of Minotr Frequency-dependent properties file   721 does not exist.
 End of Minotr Frequency-dependent properties file   722 does not exist.
 Symmetrizing basis deriv contribution to polar:
 IMax=3 JMax=2 DiffMx= 0.00D+00
 G2DrvN: will do    23 centers at a time, making    2 passes doing MaxLOS=2.
 Calling FoFCou, ICntrl=  3107 FMM=F I1Cent=   0 AccDes= 0.00D+00.
 Calling FoFCou, ICntrl=  3107 FMM=F I1Cent=   0 AccDes= 0.00D+00.
 FoFDir/FoFCou used for L=0 through L=2.
 End of G2Drv Frequency-dependent properties file   721 does not exist.
 End of G2Drv Frequency-dependent properties file   722 does not exist.
          IDoAtm=111111111111111111111111111111111111111111111
          Differentiating once with respect to electric field.
                with respect to dipole field.
          Differentiating once with respect to nuclear coordinates.
          There are   138 degrees of freedom in the 1st order CPHF.  IDoFFX=5.
 Will reuse    3 saved solutions.
    135 vectors produced by pass  0 Test12= 4.15D-14 1.00D-09 XBig12= 2.36D-01 9.06D-02.
 AX will form    68 AO Fock derivatives at one time.
    135 vectors produced by pass  1 Test12= 4.15D-14 1.00D-09 XBig12= 2.40D-02 1.32D-02.
    132 vectors produced by pass  2 Test12= 4.15D-14 1.00D-09 XBig12= 1.60D-04 1.59D-03.
    132 vectors produced by pass  3 Test12= 4.15D-14 1.00D-09 XBig12= 5.14D-07 6.32D-05.
    132 vectors produced by pass  4 Test12= 4.15D-14 1.00D-09 XBig12= 8.62D-10 1.91D-06.
    132 vectors produced by pass  5 Test12= 4.15D-14 1.00D-09 XBig12= 4.27D-12 1.50D-07.
     79 vectors produced by pass  6 Test12= 4.15D-14 1.00D-09 XBig12= 1.10D-13 2.84D-08.
      1 vectors produced by pass  7 Test12= 4.15D-14 1.00D-09 XBig12= 1.98D-16 1.01D-09.
 Inverted reduced A of dimension   878 with in-core refinement.
 Isotropic polarizability for W=    0.000000      186.63 Bohr**3.
 End of Minotr Frequency-dependent properties file   721 does not exist.
 End of Minotr Frequency-dependent properties file   722 does not exist.

 **********************************************************************

            Population analysis using the SCF density.

 **********************************************************************

 Orbital symmetries:
       Occupied  (A) (A) (A) (A) (A) (A) (A) (A) (A) (A) (A) (A)
                 (A) (A) (A) (A) (A) (A) (A) (A) (A) (A) (A) (A)
                 (A) (A) (A) (A) (A) (A) (A) (A) (A) (A) (A) (A)
                 (A) (A) (A) (A) (A) (A) (A) (A) (A) (A) (A) (A)
                 (A) (A) (A) (A) (A) (A) (A) (A) (A) (A) (A) (A)
                 (A) (A) (A) (A) (A) (A) (A) (A) (A) (A) (A) (A)
                 (A) (A) (A) (A) (A) (A) (A) (A) (A) (A) (A) (A)
                 (A) (A) (A) (A) (A) (A) (A)
       Virtual   (A) (A) (A) (A) (A) (A) (A) (A) (A) (A) (A) (A)
                 (A) (A) (A) (A) (A) (A) (A) (A) (A) (A) (A) (A)
                 (A) (A) (A) (A) (A) (A) (A) (A) (A) (A) (A) (A)
                 (A) (A) (A) (A) (A) (A) (A) (A) (A) (A) (A) (A)
                 (A) (A) (A) (A) (A) (A) (A) (A) (A) (A) (A) (A)
                 (A) (A) (A) (A) (A) (A) (A) (A) (A) (A) (A) (A)
                 (A) (A) (A) (A) (A) (A) (A) (A) (A) (A) (A) (A)
                 (A) (A) (A) (A) (A) (A) (A) (A) (A) (A) (A) (A)
                 (A) (A) (A) (A) (A) (A) (A) (A) (A) (A) (A) (A)
                 (A) (A) (A) (A) (A) (A) (A) (A) (A) (A) (A) (A)
                 (A) (A) (A) (A) (A) (A) (A) (A) (A) (A) (A) (A)
                 (A) (A) (A) (A) (A) (A) (A) (A) (A) (A) (A) (A)
                 (A) (A) (A) (A) (A) (A) (A) (A) (A) (A) (A) (A)
                 (A) (A) (A) (A) (A) (A) (A) (A) (A) (A) (A) (A)
                 (A) (A) (A) (A) (A) (A) (A) (A) (A) (A) (A) (A)
                 (A) (A) (A) (A) (A) (A) (A) (A) (A) (A) (A) (A)
                 (A) (A) (A) (A) (A) (A) (A) (A) (A) (A) (A) (A)
                 (A) (A) (A) (A) (A) (A) (A) (A) (A) (A) (A) (A)
                 (A) (A) (A) (A) (A) (A) (A) (A) (A) (A) (A) (A)
                 (A) (A) (A) (A) (A) (A) (A) (A) (A) (A) (A) (A)
                 (A) (A) (A) (A) (A) (A) (A) (A) (A) (A) (A) (A)
                 (A) (A) (A) (A) (A) (A) (A) (A) (A) (A) (A) (A)
                 (A) (A) (A) (A) (A) (A) (A) (A) (A) (A) (A) (A)
                 (A) (A) (A) (A) (A) (A) (A) (A) (A) (A) (A) (A)
                 (A) (A) (A) (A) (A) (A) (A) (A) (A) (A) (A) (A)
                 (A) (A) (A) (A) (A) (A) (A) (A) (A) (A) (A) (A)
                 (A) (A) (A) (A) (A) (A) (A) (A) (A) (A) (A) (A)
                 (A) (A) (A) (A) (A) (A) (A) (A) (A) (A) (A) (A)
                 (A) (A) (A) (A) (A) (A) (A) (A) (A) (A) (A) (A)
                 (A) (A) (A) (A) (A) (A) (A) (A) (A) (A) (A) (A)
                 (A) (A) (A) (A) (A) (A) (A) (A) (A) (A) (A) (A)
                 (A) (A) (A) (A) (A) (A) (A) (A) (A) (A) (A) (A)
                 (A) (A) (A) (A) (A) (A) (A) (A) (A) (A) (A) (A)
                 (A) (A) (A) (A) (A) (A) (A) (A) (A) (A) (A) (A)
                 (A) (A) (A) (A) (A) (A) (A) (A) (A) (A) (A) (A)
                 (A) (A) (A) (A) (A) (A) (A) (A) (A) (A) (A) (A)
                 (A) (A) (A) (A) (A) (A) (A) (A) (A) (A) (A) (A)
                 (A) (A) (A) (A) (A) (A) (A) (A) (A) (A) (A) (A)
 The electronic state is 1-A.
 Alpha  occ. eigenvalues --  -19.20385 -19.20104 -19.19588 -19.18381 -19.18376
 Alpha  occ. eigenvalues --  -19.18123 -19.16886 -19.16151 -19.15623 -19.14871
 Alpha  occ. eigenvalues --  -19.14533 -10.32206 -10.29015 -10.27636 -10.27478
 Alpha  occ. eigenvalues --  -10.27072 -10.26834 -10.25549 -10.25169 -10.24300
 Alpha  occ. eigenvalues --  -10.23509 -10.23422 -10.22443  -1.10310  -1.08154
 Alpha  occ. eigenvalues --   -1.06901  -1.05832  -1.04403  -1.03637  -1.03197
 Alpha  occ. eigenvalues --   -1.02585  -1.01018  -0.99848  -0.99594  -0.82926
 Alpha  occ. eigenvalues --   -0.82310  -0.79032  -0.76845  -0.72401  -0.69899
 Alpha  occ. eigenvalues --   -0.68273  -0.65417  -0.63605  -0.62406  -0.61042
 Alpha  occ. eigenvalues --   -0.59919  -0.57528  -0.56916  -0.55651  -0.54206
 Alpha  occ. eigenvalues --   -0.53621  -0.53152  -0.52932  -0.52446  -0.51337
 Alpha  occ. eigenvalues --   -0.50265  -0.49296  -0.48772  -0.47689  -0.46812
 Alpha  occ. eigenvalues --   -0.45923  -0.45100  -0.44987  -0.43795  -0.43738
 Alpha  occ. eigenvalues --   -0.42482  -0.42129  -0.40941  -0.40134  -0.39309
 Alpha  occ. eigenvalues --   -0.39179  -0.38215  -0.37094  -0.36893  -0.36015
 Alpha  occ. eigenvalues --   -0.35872  -0.35520  -0.33592  -0.33433  -0.33377
 Alpha  occ. eigenvalues --   -0.31515  -0.31352  -0.31212  -0.30461  -0.30237
 Alpha  occ. eigenvalues --   -0.30005  -0.29099  -0.28056  -0.27432  -0.26784
 Alpha  occ. eigenvalues --   -0.25729
 Alpha virt. eigenvalues --   -0.04801  -0.02150  -0.01282   0.00193   0.00838
 Alpha virt. eigenvalues --    0.01045   0.01519   0.02260   0.02590   0.03446
 Alpha virt. eigenvalues --    0.03686   0.04468   0.04739   0.05367   0.05840
 Alpha virt. eigenvalues --    0.05870   0.06179   0.06474   0.06970   0.08306
 Alpha virt. eigenvalues --    0.08607   0.08751   0.09409   0.09697   0.10065
 Alpha virt. eigenvalues --    0.10505   0.11037   0.11398   0.11856   0.12092
 Alpha virt. eigenvalues --    0.12352   0.12951   0.13095   0.13291   0.13446
 Alpha virt. eigenvalues --    0.13989   0.14295   0.14702   0.14890   0.15368
 Alpha virt. eigenvalues --    0.15541   0.15947   0.16213   0.16513   0.16795
 Alpha virt. eigenvalues --    0.17205   0.17302   0.17849   0.18384   0.18589
 Alpha virt. eigenvalues --    0.19005   0.19238   0.19333   0.19765   0.20009
 Alpha virt. eigenvalues --    0.20403   0.20652   0.20780   0.21227   0.21668
 Alpha virt. eigenvalues --    0.21945   0.22361   0.22509   0.22933   0.23078
 Alpha virt. eigenvalues --    0.23306   0.23638   0.23835   0.23978   0.24490
 Alpha virt. eigenvalues --    0.24595   0.24874   0.25240   0.25400   0.25722
 Alpha virt. eigenvalues --    0.26190   0.26691   0.26838   0.27220   0.27470
 Alpha virt. eigenvalues --    0.27555   0.28401   0.28434   0.28647   0.29300
 Alpha virt. eigenvalues --    0.29442   0.29797   0.30208   0.30424   0.31000
 Alpha virt. eigenvalues --    0.31381   0.31546   0.31963   0.32129   0.32463
 Alpha virt. eigenvalues --    0.32616   0.33006   0.33540   0.33903   0.34233
 Alpha virt. eigenvalues --    0.34683   0.34747   0.35313   0.35656   0.35905
 Alpha virt. eigenvalues --    0.36142   0.36655   0.36834   0.36949   0.37428
 Alpha virt. eigenvalues --    0.38076   0.38308   0.38881   0.39123   0.39424
 Alpha virt. eigenvalues --    0.39805   0.39928   0.40176   0.41146   0.41594
 Alpha virt. eigenvalues --    0.42088   0.42227   0.43002   0.43331   0.43559
 Alpha virt. eigenvalues --    0.44068   0.44705   0.45124   0.45756   0.46311
 Alpha virt. eigenvalues --    0.47518   0.48051   0.48894   0.49759   0.50535
 Alpha virt. eigenvalues --    0.51109   0.53069   0.57592   0.62571   0.63175
 Alpha virt. eigenvalues --    0.66755   0.67233   0.68111   0.68600   0.69501
 Alpha virt. eigenvalues --    0.70309   0.72153   0.73328   0.74012   0.74698
 Alpha virt. eigenvalues --    0.75781   0.76190   0.77128   0.78408   0.78752
 Alpha virt. eigenvalues --    0.79665   0.81197   0.81662   0.82558   0.84061
 Alpha virt. eigenvalues --    0.84560   0.85652   0.86139   0.87747   0.88664
 Alpha virt. eigenvalues --    0.89278   0.90326   0.93012   0.93579   0.94799
 Alpha virt. eigenvalues --    0.95639   0.96581   0.98686   0.99311   0.99841
 Alpha virt. eigenvalues --    1.01043   1.01164   1.02145   1.02656   1.04287
 Alpha virt. eigenvalues --    1.04673   1.05131   1.05289   1.06331   1.07734
 Alpha virt. eigenvalues --    1.08153   1.08411   1.09111   1.09723   1.10205
 Alpha virt. eigenvalues --    1.10903   1.12392   1.13357   1.14350   1.15767
 Alpha virt. eigenvalues --    1.16138   1.16530   1.17857   1.18860   1.19882
 Alpha virt. eigenvalues --    1.21113   1.21663   1.23238   1.23987   1.25121
 Alpha virt. eigenvalues --    1.25464   1.25818   1.26586   1.27350   1.27639
 Alpha virt. eigenvalues --    1.28438   1.29422   1.30520   1.31011   1.31352
 Alpha virt. eigenvalues --    1.31709   1.32614   1.33465   1.33745   1.34207
 Alpha virt. eigenvalues --    1.35212   1.36011   1.36491   1.38060   1.39004
 Alpha virt. eigenvalues --    1.39645   1.40456   1.41610   1.41798   1.43135
 Alpha virt. eigenvalues --    1.43893   1.44947   1.46708   1.47176   1.48701
 Alpha virt. eigenvalues --    1.49039   1.49564   1.50986   1.52193   1.52522
 Alpha virt. eigenvalues --    1.53183   1.53612   1.54631   1.55418   1.56673
 Alpha virt. eigenvalues --    1.57825   1.58301   1.58677   1.60016   1.60760
 Alpha virt. eigenvalues --    1.61421   1.61613   1.62110   1.63217   1.64969
 Alpha virt. eigenvalues --    1.65937   1.66298   1.67790   1.68710   1.69503
 Alpha virt. eigenvalues --    1.70397   1.70642   1.71539   1.73200   1.73822
 Alpha virt. eigenvalues --    1.75056   1.76174   1.76626   1.77095   1.78732
 Alpha virt. eigenvalues --    1.79570   1.79739   1.80838   1.81350   1.82083
 Alpha virt. eigenvalues --    1.82201   1.83221   1.84878   1.85439   1.86594
 Alpha virt. eigenvalues --    1.86873   1.87200   1.88896   1.89632   1.89983
 Alpha virt. eigenvalues --    1.90570   1.91633   1.92724   1.93416   1.94275
 Alpha virt. eigenvalues --    1.95122   1.95355   1.97002   1.97257   1.97775
 Alpha virt. eigenvalues --    1.98603   1.99604   2.01075   2.01509   2.02146
 Alpha virt. eigenvalues --    2.02635   2.04677   2.05175   2.06860   2.07524
 Alpha virt. eigenvalues --    2.07774   2.08679   2.10043   2.10847   2.11837
 Alpha virt. eigenvalues --    2.12507   2.13103   2.13856   2.15639   2.16292
 Alpha virt. eigenvalues --    2.17253   2.17821   2.19515   2.19794   2.22759
 Alpha virt. eigenvalues --    2.23532   2.24458   2.24994   2.27096   2.29124
 Alpha virt. eigenvalues --    2.30517   2.31146   2.31885   2.32226   2.32288
 Alpha virt. eigenvalues --    2.34602   2.35041   2.36544   2.39025   2.40266
 Alpha virt. eigenvalues --    2.40599   2.41493   2.41846   2.43364   2.44344
 Alpha virt. eigenvalues --    2.45335   2.46824   2.47334   2.48195   2.49472
 Alpha virt. eigenvalues --    2.49920   2.51237   2.51876   2.53043   2.53894
 Alpha virt. eigenvalues --    2.56177   2.57317   2.59120   2.59884   2.60343
 Alpha virt. eigenvalues --    2.60373   2.61347   2.62962   2.63447   2.64044
 Alpha virt. eigenvalues --    2.65094   2.65313   2.66166   2.68006   2.69106
 Alpha virt. eigenvalues --    2.69554   2.71400   2.71977   2.72971   2.73347
 Alpha virt. eigenvalues --    2.74633   2.75449   2.76869   2.77895   2.78214
 Alpha virt. eigenvalues --    2.78742   2.81096   2.82318   2.83930   2.84921
 Alpha virt. eigenvalues --    2.85837   2.86529   2.87039   2.87414   2.89189
 Alpha virt. eigenvalues --    2.90708   2.91184   2.93142   2.93416   2.94669
 Alpha virt. eigenvalues --    2.95327   2.95932   2.97064   2.98664   2.99434
 Alpha virt. eigenvalues --    3.00990   3.01610   3.03176   3.04090   3.05859
 Alpha virt. eigenvalues --    3.07822   3.09043   3.09726   3.12384   3.14522
 Alpha virt. eigenvalues --    3.16277   3.20836   3.22152   3.25246   3.28862
 Alpha virt. eigenvalues --    3.30744   3.35330   3.37455   3.40075   3.41167
 Alpha virt. eigenvalues --    3.42315   3.43449   3.45428   3.47786   3.49181
 Alpha virt. eigenvalues --    3.50326   3.51030   3.51441   3.52584   3.54009
 Alpha virt. eigenvalues --    3.54555   3.56614   3.58483   3.59374   3.60072
 Alpha virt. eigenvalues --    3.62414   3.64134   3.67156   4.27288   4.30228
 Alpha virt. eigenvalues --    4.33438   4.34592   4.35130   4.40535   4.44121
 Alpha virt. eigenvalues --    4.46751   4.47000   4.49378   4.50564   4.55097
 Alpha virt. eigenvalues --    4.59787   4.60713   4.61479   4.67444   4.68084
 Alpha virt. eigenvalues --    4.76187   4.79592   4.81301   4.85736   4.90093
 Alpha virt. eigenvalues --    4.93052
          Condensed to atoms (all electrons):
              1          2          3          4          5          6
     1  O    8.313575   0.142541   0.078418  -0.014373   0.011815  -0.063442
     2  C    0.142541  10.446850  -2.559044  -0.009356  -0.036347  -2.088468
     3  C    0.078418  -2.559044   8.636564  -0.061236   0.115168  -0.548163
     4  O   -0.014373  -0.009356  -0.061236   8.283249   0.182246   0.116573
     5  H    0.011815  -0.036347   0.115168   0.182246   0.457001  -0.078481
     6  C   -0.063442  -2.088468  -0.548163   0.116573  -0.078481  14.494799
     7  O   -0.001826   0.039768   0.051167  -0.008617  -0.000002   0.034088
     8  H   -0.000083   0.013423  -0.020926   0.006284  -0.000262   0.030257
     9  C    0.075955   0.358931  -0.380377   0.005213  -0.009170   0.710716
    10  O    0.000107   0.015561  -0.010540   0.000098  -0.000006   0.003395
    11  H    0.000089  -0.002170   0.003546   0.000001   0.000000   0.000484
    12  C   -0.209830  -2.758401   1.486135   0.016392   0.012343   0.292569
    13  O    0.006138   0.071068  -0.030827  -0.003699  -0.000129   0.072998
    14  C    0.023786   1.309323  -0.557321   0.056281   0.015280  -6.408555
    15  O    0.000411  -0.003067   0.016670  -0.000305   0.000120  -0.072335
    16  C    0.002457   0.325386  -0.300755  -0.004844   0.001100   0.588417
    17  C    0.000581  -0.093397  -0.013248   0.001770   0.000028  -0.483577
    18  O    0.000013   0.002080  -0.004021  -0.000014   0.000000   0.021607
    19  H    0.000001   0.003757  -0.001710   0.000001   0.000000  -0.006708
    20  C    0.000074   0.026002  -0.016452   0.000099   0.000004  -0.055890
    21  O    0.000000   0.000177   0.000047   0.000000   0.000000   0.001591
    22  H    0.000000   0.000019  -0.000016   0.000000   0.000000   0.000118
    23  C    0.000193   0.040598  -0.116381  -0.000336  -0.000033   0.179955
    24  O   -0.000003  -0.000243   0.003813   0.000014   0.000000  -0.001706
    25  H    0.000000  -0.000916  -0.001560   0.000004   0.000000   0.028339
    26  C   -0.000337   0.015940   0.160430   0.001035   0.000022  -0.669230
    27  O    0.000000   0.000253  -0.000101   0.000000   0.000000  -0.005920
    28  C    0.000002  -0.003126   0.003933  -0.000004   0.000000  -0.008540
    29  O    0.000000  -0.000006   0.000006   0.000000   0.000000  -0.000074
    30  H    0.000000   0.000000   0.000000   0.000000   0.000000   0.000003
    31  H    0.000000  -0.000015   0.000008   0.000000   0.000000   0.000001
    32  H    0.000000   0.000023  -0.000008   0.000000   0.000000   0.000630
    33  H    0.000000  -0.000317   0.000463   0.000000   0.000000   0.002848
    34  H   -0.000003  -0.001882   0.005829   0.000000   0.000000  -0.024548
    35  H    0.000000  -0.000458   0.000306   0.000000   0.000000  -0.000986
    36  H    0.000001   0.001134  -0.005037  -0.000006   0.000000  -0.049865
    37  H    0.000000   0.000045  -0.000618   0.000000   0.000000   0.004812
    38  H    0.222588   0.053392  -0.054472  -0.001528   0.003584   0.001667
    39  H   -0.000192   0.027394  -0.009396  -0.000088  -0.000001   0.017422
    40  H    0.001868   0.044743  -0.016479  -0.000027  -0.000003  -0.002328
    41  H    0.004541   0.063676  -0.080224  -0.000299  -0.000012  -0.007926
    42  H   -0.043795   0.372007  -0.058386  -0.001992  -0.001238  -0.023763
    43  H   -0.018524   0.109352   0.355313  -0.049932  -0.006599  -0.253614
    44  H   -0.000878   0.072732  -0.083776  -0.003546  -0.000157   0.443847
    45  H   -0.000224   0.040305  -0.002794  -0.000351   0.000005  -0.200612
              7          8          9         10         11         12
     1  O   -0.001826  -0.000083   0.075955   0.000107   0.000089  -0.209830
     2  C    0.039768   0.013423   0.358931   0.015561  -0.002170  -2.758401
     3  C    0.051167  -0.020926  -0.380377  -0.010540   0.003546   1.486135
     4  O   -0.008617   0.006284   0.005213   0.000098   0.000001   0.016392
     5  H   -0.000002  -0.000262  -0.009170  -0.000006   0.000000   0.012343
     6  C    0.034088   0.030257   0.710716   0.003395   0.000484   0.292569
     7  O    8.381240   0.204834  -0.003232  -0.000024   0.000000   0.014556
     8  H    0.204834   0.394281   0.000543   0.000000   0.000000   0.001525
     9  C   -0.003232   0.000543   7.983493   0.113703   0.004544  -2.718573
    10  O   -0.000024   0.000000   0.113703   8.356239   0.188372  -0.041653
    11  H    0.000000   0.000000   0.004544   0.188372   0.441433   0.014971
    12  C    0.014556   0.001525  -2.718573  -0.041653   0.014971  11.471092
    13  O    0.010768  -0.000561   0.037302   0.011348   0.000397  -0.159551
    14  C   -0.086824  -0.012373  -0.720642  -0.006501  -0.000676  -0.763504
    15  O   -0.003651   0.000655  -0.013766  -0.003676   0.000032   0.016336
    16  C    0.011325  -0.001347  -0.298307   0.019000  -0.001506  -0.292918
    17  C    0.000873  -0.000856   0.022106  -0.011800   0.000871  -0.065885
    18  O    0.000224  -0.000001   0.014247   0.001241   0.000179  -0.024401
    19  H   -0.000028   0.000000  -0.005544   0.006753  -0.000142   0.007779
    20  C    0.002790  -0.000066  -0.021543  -0.001504  -0.000259  -0.063103
    21  O   -0.000001   0.000000  -0.000161   0.000032   0.000000   0.000332
    22  H    0.000000   0.000000  -0.000063  -0.000016   0.000000   0.000053
    23  C   -0.021654   0.002610  -0.004240   0.000054  -0.000009  -0.084536
    24  O   -0.000595   0.000554   0.000194   0.000000   0.000000   0.001157
    25  H    0.008633  -0.000137   0.000028   0.000000   0.000000   0.000232
    26  C    0.005404  -0.002025  -0.020047  -0.000859  -0.000054   0.055960
    27  O   -0.000072   0.000001  -0.000127   0.000000   0.000000  -0.000176
    28  C   -0.000261  -0.000020  -0.001494   0.000206   0.000010   0.013880
    29  O   -0.000002   0.000000   0.000025   0.000001   0.000000   0.000123
    30  H    0.000000   0.000000   0.000000   0.000000   0.000000  -0.000002
    31  H    0.000000   0.000000   0.000026   0.000000   0.000000   0.000103
    32  H    0.000003   0.000000   0.000057   0.000004   0.000000   0.000235
    33  H    0.000043   0.000000   0.001962   0.000074   0.000000   0.000720
    34  H   -0.000709  -0.000002   0.000532   0.000005   0.000000   0.008191
    35  H   -0.000067   0.000000   0.000421   0.000002   0.000000   0.001188
    36  H    0.001353  -0.000062  -0.000127  -0.000001   0.000000  -0.002230
    37  H    0.000075   0.000000   0.000003   0.000000   0.000000  -0.000273
    38  H   -0.000079   0.000000  -0.020308   0.000062  -0.000002   0.035869
    39  H   -0.000016   0.000000   0.607771  -0.055458  -0.001975  -0.298433
    40  H   -0.000001   0.000000   0.415963  -0.045075  -0.009295  -0.071148
    41  H   -0.000160  -0.000002   0.051257   0.004847  -0.000082   0.156883
    42  H   -0.000460  -0.000003   0.028396   0.000984  -0.000014  -0.110465
    43  H    0.006096  -0.001176   0.013609   0.000038   0.000000  -0.038843
    44  H   -0.059763   0.000856   0.009951  -0.000008   0.000000  -0.006746
    45  H    0.011397  -0.000120   0.005549  -0.000433  -0.000001  -0.016283
             13         14         15         16         17         18
     1  O    0.006138   0.023786   0.000411   0.002457   0.000581   0.000013
     2  C    0.071068   1.309323  -0.003067   0.325386  -0.093397   0.002080
     3  C   -0.030827  -0.557321   0.016670  -0.300755  -0.013248  -0.004021
     4  O   -0.003699   0.056281  -0.000305  -0.004844   0.001770  -0.000014
     5  H   -0.000129   0.015280   0.000120   0.001100   0.000028   0.000000
     6  C    0.072998  -6.408555  -0.072335   0.588417  -0.483577   0.021607
     7  O    0.010768  -0.086824  -0.003651   0.011325   0.000873   0.000224
     8  H   -0.000561  -0.012373   0.000655  -0.001347  -0.000856  -0.000001
     9  C    0.037302  -0.720642  -0.013766  -0.298307   0.022106   0.014247
    10  O    0.011348  -0.006501  -0.003676   0.019000  -0.011800   0.001241
    11  H    0.000397  -0.000676   0.000032  -0.001506   0.000871   0.000179
    12  C   -0.159551  -0.763504   0.016336  -0.292918  -0.065885  -0.024401
    13  O    8.432305  -0.016510  -0.076814   0.060248   0.010522   0.005724
    14  C   -0.016510  14.125986   0.418438  -2.490055   1.020835  -0.003355
    15  O   -0.076814   0.418438   8.371682  -0.164606  -0.055375  -0.008233
    16  C    0.060248  -2.490055  -0.164606  14.182422  -2.901595  -0.116822
    17  C    0.010522   1.020835  -0.055375  -2.901595  12.652256   0.324912
    18  O    0.005724  -0.003355  -0.008233  -0.116822   0.324912   8.282628
    19  H    0.009674  -0.026680   0.003018  -0.027229   0.009988   0.228042
    20  C   -0.015653  -0.843170   0.005054  -1.205288  -3.321118  -0.106494
    21  O    0.000749   0.002413  -0.000348  -0.002714  -0.102321  -0.015933
    22  H   -0.000026  -0.000155  -0.000228   0.042470  -0.143739   0.025362
    23  C    0.011836  -0.798205  -0.219046   1.779835  -0.943032   0.020716
    24  O    0.000081   0.001094   0.001001   0.075312   0.030308   0.000035
    25  H   -0.000036  -0.029742  -0.000261   0.077970   0.004110  -0.000007
    26  C   -0.053782   0.580382   0.225142  -3.906639  -1.333850  -0.000134
    27  O    0.000015   0.003524   0.002379  -0.187241   0.015510   0.000212
    28  C    0.003084   0.134166   0.030954   0.323625   0.678140  -0.003289
    29  O    0.000017   0.005759   0.000020   0.043428   0.034164  -0.000103
    30  H    0.000000  -0.000015  -0.000009  -0.006036  -0.012405   0.000025
    31  H    0.000013   0.008079   0.000274   0.075253   0.060123  -0.000800
    32  H    0.000135   0.011952  -0.000222   0.070160   0.057009   0.003588
    33  H    0.001530   0.059643  -0.004674  -0.075336   0.523730  -0.067733
    34  H    0.000397   0.083684  -0.040654   0.278095   0.016393  -0.002327
    35  H    0.000127   0.073691   0.012667  -0.008002   0.170421  -0.001381
    36  H   -0.001953   0.044834  -0.009558  -0.136572   0.025994  -0.000066
    37  H   -0.000048  -0.017152  -0.005544   0.142086   0.002800   0.000037
    38  H   -0.000881   0.004371   0.000025   0.000268  -0.000034  -0.000001
    39  H    0.001363   0.002528  -0.000362  -0.001993   0.001203   0.000101
    40  H    0.006107  -0.003807   0.000017   0.000671  -0.000398  -0.000093
    41  H   -0.041072   0.083333  -0.002559   0.007571   0.006517   0.000292
    42  H    0.007717   0.071259  -0.001212  -0.000222   0.001812   0.000010
    43  H    0.004885   0.103095  -0.001420   0.003097   0.001514   0.000006
    44  H    0.025528  -0.198338  -0.014869   0.048023   0.001738   0.000011
    45  H   -0.037419   0.357139  -0.065718   0.077710   0.006246  -0.000232
             19         20         21         22         23         24
     1  O    0.000001   0.000074   0.000000   0.000000   0.000193  -0.000003
     2  C    0.003757   0.026002   0.000177   0.000019   0.040598  -0.000243
     3  C   -0.001710  -0.016452   0.000047  -0.000016  -0.116381   0.003813
     4  O    0.000001   0.000099   0.000000   0.000000  -0.000336   0.000014
     5  H    0.000000   0.000004   0.000000   0.000000  -0.000033   0.000000
     6  C   -0.006708  -0.055890   0.001591   0.000118   0.179955  -0.001706
     7  O   -0.000028   0.002790  -0.000001   0.000000  -0.021654  -0.000595
     8  H    0.000000  -0.000066   0.000000   0.000000   0.002610   0.000554
     9  C   -0.005544  -0.021543  -0.000161  -0.000063  -0.004240   0.000194
    10  O    0.006753  -0.001504   0.000032  -0.000016   0.000054   0.000000
    11  H   -0.000142  -0.000259   0.000000   0.000000  -0.000009   0.000000
    12  C    0.007779  -0.063103   0.000332   0.000053  -0.084536   0.001157
    13  O    0.009674  -0.015653   0.000749  -0.000026   0.011836   0.000081
    14  C   -0.026680  -0.843170   0.002413  -0.000155  -0.798205   0.001094
    15  O    0.003018   0.005054  -0.000348  -0.000228  -0.219046   0.001001
    16  C   -0.027229  -1.205288  -0.002714   0.042470   1.779835   0.075312
    17  C    0.009988  -3.321118  -0.102321  -0.143739  -0.943032   0.030308
    18  O    0.228042  -0.106494  -0.015933   0.025362   0.020716   0.000035
    19  H    0.352145   0.041421   0.000980  -0.001229  -0.000225  -0.000003
    20  C    0.041421  10.744301   0.378624   0.065526   0.486014  -0.009132
    21  O    0.000980   0.378624   8.170279   0.220550  -0.006191  -0.000067
    22  H   -0.001229   0.065526   0.220550   0.403091   0.003018   0.000001
    23  C   -0.000225   0.486014  -0.006191   0.003018   9.555238   0.505260
    24  O   -0.000003  -0.009132  -0.000067   0.000001   0.505260   8.185530
    25  H    0.000000  -0.000519  -0.000001   0.000000  -0.014520   0.247460
    26  C    0.009731   1.533797   0.001567   0.013387  -4.126875  -0.451020
    27  O   -0.000056  -0.066701   0.004968  -0.000806  -0.117249   0.009875
    28  C   -0.002072  -1.076035  -0.136938   0.013070  -0.486864   0.006482
    29  O    0.000008  -0.189991  -0.014903   0.000084  -0.015910  -0.000250
    30  H    0.000000   0.044755  -0.001793   0.000040   0.008086   0.000003
    31  H    0.000014  -0.204323   0.005177  -0.000044  -0.008413   0.000006
    32  H   -0.000139   0.183188  -0.045555  -0.005873  -0.002097   0.000036
    33  H   -0.007530  -0.177762  -0.001811  -0.000387  -0.008956   0.000058
    34  H   -0.000049  -0.030662  -0.000390  -0.000011  -0.065264   0.002855
    35  H    0.000043  -0.148598  -0.001236  -0.000011  -0.130036   0.011152
    36  H    0.000000   0.001532  -0.000009   0.000000   0.474902  -0.049183
    37  H    0.000000  -0.000378  -0.000014   0.000000   0.530944  -0.061296
    38  H    0.000000   0.000000   0.000000   0.000000   0.000002   0.000000
    39  H    0.000034   0.000217   0.000000   0.000000   0.000112   0.000000
    40  H    0.000022  -0.000012   0.000000   0.000000  -0.000011   0.000000
    41  H    0.000167   0.001900   0.000002   0.000000   0.000699  -0.000001
    42  H    0.000000   0.000090   0.000000   0.000000   0.000363   0.000000
    43  H    0.000000   0.000131   0.000000   0.000000   0.000761   0.000000
    44  H    0.000001   0.002384   0.000000   0.000000   0.015638  -0.000037
    45  H    0.000257   0.023476   0.000021   0.000000   0.003138   0.000043
             25         26         27         28         29         30
     1  O    0.000000  -0.000337   0.000000   0.000002   0.000000   0.000000
     2  C   -0.000916   0.015940   0.000253  -0.003126  -0.000006   0.000000
     3  C   -0.001560   0.160430  -0.000101   0.003933   0.000006   0.000000
     4  O    0.000004   0.001035   0.000000  -0.000004   0.000000   0.000000
     5  H    0.000000   0.000022   0.000000   0.000000   0.000000   0.000000
     6  C    0.028339  -0.669230  -0.005920  -0.008540  -0.000074   0.000003
     7  O    0.008633   0.005404  -0.000072  -0.000261  -0.000002   0.000000
     8  H   -0.000137  -0.002025   0.000001  -0.000020   0.000000   0.000000
     9  C    0.000028  -0.020047  -0.000127  -0.001494   0.000025   0.000000
    10  O    0.000000  -0.000859   0.000000   0.000206   0.000001   0.000000
    11  H    0.000000  -0.000054   0.000000   0.000010   0.000000   0.000000
    12  C    0.000232   0.055960  -0.000176   0.013880   0.000123  -0.000002
    13  O   -0.000036  -0.053782   0.000015   0.003084   0.000017   0.000000
    14  C   -0.029742   0.580382   0.003524   0.134166   0.005759  -0.000015
    15  O   -0.000261   0.225142   0.002379   0.030954   0.000020  -0.000009
    16  C    0.077970  -3.906639  -0.187241   0.323625   0.043428  -0.006036
    17  C    0.004110  -1.333850   0.015510   0.678140   0.034164  -0.012405
    18  O   -0.000007  -0.000134   0.000212  -0.003289  -0.000103   0.000025
    19  H    0.000000   0.009731  -0.000056  -0.002072   0.000008   0.000000
    20  C   -0.000519   1.533797  -0.066701  -1.076035  -0.189991   0.044755
    21  O   -0.000001   0.001567   0.004968  -0.136938  -0.014903  -0.001793
    22  H    0.000000   0.013387  -0.000806   0.013070   0.000084   0.000040
    23  C   -0.014520  -4.126875  -0.117249  -0.486864  -0.015910   0.008086
    24  O    0.247460  -0.451020   0.009875   0.006482  -0.000250   0.000003
    25  H    0.389106  -0.066542  -0.000890   0.000408  -0.000009   0.000000
    26  C   -0.066542  14.204313   0.368408  -0.803637  -0.097251   0.017080
    27  O   -0.000890   0.368408   8.383117   0.086100  -0.029291  -0.007270
    28  C    0.000408  -0.803637   0.086100   5.961345   0.408342  -0.031006
    29  O   -0.000009  -0.097251  -0.029291   0.408342   8.192789   0.226562
    30  H    0.000000   0.017080  -0.007270  -0.031006   0.226562   0.421304
    31  H    0.000000  -0.061642  -0.069752   0.474591  -0.047970  -0.008247
    32  H    0.000000  -0.036265   0.006874  -0.000308  -0.003712   0.000306
    33  H    0.000000  -0.084169   0.004668   0.039722  -0.000122   0.000004
    34  H   -0.000445  -0.032028   0.005646   0.038101  -0.000506   0.000002
    35  H   -0.000110   0.156617  -0.056805   0.115518  -0.000549  -0.000046
    36  H   -0.011394   0.007838   0.007130   0.003689   0.000016   0.000000
    37  H    0.006300  -0.275647  -0.005176  -0.004693  -0.000155   0.000002
    38  H    0.000000  -0.000009   0.000000   0.000000   0.000000   0.000000
    39  H    0.000000  -0.000062   0.000000  -0.000036   0.000000   0.000000
    40  H    0.000000   0.000029   0.000000   0.000003   0.000000   0.000000
    41  H    0.000000  -0.000100   0.000000  -0.000120   0.000000   0.000000
    42  H    0.000000  -0.000369   0.000000  -0.000011   0.000000   0.000000
    43  H    0.000000  -0.000631   0.000000  -0.000007   0.000000   0.000000
    44  H   -0.000017  -0.016992   0.000012  -0.000187   0.000000   0.000000
    45  H    0.000018   0.025347   0.000203  -0.001144  -0.000005   0.000000
             31         32         33         34         35         36
     1  O    0.000000   0.000000   0.000000  -0.000003   0.000000   0.000001
     2  C   -0.000015   0.000023  -0.000317  -0.001882  -0.000458   0.001134
     3  C    0.000008  -0.000008   0.000463   0.005829   0.000306  -0.005037
     4  O    0.000000   0.000000   0.000000   0.000000   0.000000  -0.000006
     5  H    0.000000   0.000000   0.000000   0.000000   0.000000   0.000000
     6  C    0.000001   0.000630   0.002848  -0.024548  -0.000986  -0.049865
     7  O    0.000000   0.000003   0.000043  -0.000709  -0.000067   0.001353
     8  H    0.000000   0.000000   0.000000  -0.000002   0.000000  -0.000062
     9  C    0.000026   0.000057   0.001962   0.000532   0.000421  -0.000127
    10  O    0.000000   0.000004   0.000074   0.000005   0.000002  -0.000001
    11  H    0.000000   0.000000   0.000000   0.000000   0.000000   0.000000
    12  C    0.000103   0.000235   0.000720   0.008191   0.001188  -0.002230
    13  O    0.000013   0.000135   0.001530   0.000397   0.000127  -0.001953
    14  C    0.008079   0.011952   0.059643   0.083684   0.073691   0.044834
    15  O    0.000274  -0.000222  -0.004674  -0.040654   0.012667  -0.009558
    16  C    0.075253   0.070160  -0.075336   0.278095  -0.008002  -0.136572
    17  C    0.060123   0.057009   0.523730   0.016393   0.170421   0.025994
    18  O   -0.000800   0.003588  -0.067733  -0.002327  -0.001381  -0.000066
    19  H    0.000014  -0.000139  -0.007530  -0.000049   0.000043   0.000000
    20  C   -0.204323   0.183188  -0.177762  -0.030662  -0.148598   0.001532
    21  O    0.005177  -0.045555  -0.001811  -0.000390  -0.001236  -0.000009
    22  H   -0.000044  -0.005873  -0.000387  -0.000011  -0.000011   0.000000
    23  C   -0.008413  -0.002097  -0.008956  -0.065264  -0.130036   0.474902
    24  O    0.000006   0.000036   0.000058   0.002855   0.011152  -0.049183
    25  H    0.000000   0.000000   0.000000  -0.000445  -0.000110  -0.011394
    26  C   -0.061642  -0.036265  -0.084169  -0.032028   0.156617   0.007838
    27  O   -0.069752   0.006874   0.004668   0.005646  -0.056805   0.007130
    28  C    0.474591  -0.000308   0.039722   0.038101   0.115518   0.003689
    29  O   -0.047970  -0.003712  -0.000122  -0.000506  -0.000549   0.000016
    30  H   -0.008247   0.000306   0.000004   0.000002  -0.000046   0.000000
    31  H    0.628198   0.005087   0.002873  -0.000009   0.010650  -0.000008
    32  H    0.005087   0.594078   0.006665   0.002446   0.000295   0.000001
    33  H    0.002873   0.006665   0.640093   0.006815   0.008729  -0.000018
    34  H   -0.000009   0.002446   0.006815   0.592018   0.007093   0.000190
    35  H    0.010650   0.000295   0.008729   0.007093   0.680205  -0.002328
    36  H   -0.000008   0.000001  -0.000018   0.000190  -0.002328   0.582984
    37  H   -0.000048   0.000000  -0.000032  -0.000141  -0.004481  -0.039782
    38  H    0.000000   0.000000   0.000000   0.000000   0.000000   0.000000
    39  H    0.000000   0.000000   0.000000   0.000000   0.000000   0.000000
    40  H    0.000000   0.000000   0.000000   0.000000   0.000000   0.000000
    41  H    0.000000   0.000000  -0.000002  -0.000009   0.000000   0.000000
    42  H    0.000000   0.000000   0.000000   0.000000   0.000000   0.000000
    43  H    0.000000   0.000000   0.000000   0.000000   0.000000   0.000000
    44  H    0.000000   0.000000  -0.000002   0.000023  -0.000004  -0.000009
    45  H    0.000000  -0.000013  -0.000002   0.006410  -0.000022  -0.000004
             37         38         39         40         41         42
     1  O    0.000000   0.222588  -0.000192   0.001868   0.004541  -0.043795
     2  C    0.000045   0.053392   0.027394   0.044743   0.063676   0.372007
     3  C   -0.000618  -0.054472  -0.009396  -0.016479  -0.080224  -0.058386
     4  O    0.000000  -0.001528  -0.000088  -0.000027  -0.000299  -0.001992
     5  H    0.000000   0.003584  -0.000001  -0.000003  -0.000012  -0.001238
     6  C    0.004812   0.001667   0.017422  -0.002328  -0.007926  -0.023763
     7  O    0.000075  -0.000079  -0.000016  -0.000001  -0.000160  -0.000460
     8  H    0.000000   0.000000   0.000000   0.000000  -0.000002  -0.000003
     9  C    0.000003  -0.020308   0.607771   0.415963   0.051257   0.028396
    10  O    0.000000   0.000062  -0.055458  -0.045075   0.004847   0.000984
    11  H    0.000000  -0.000002  -0.001975  -0.009295  -0.000082  -0.000014
    12  C   -0.000273   0.035869  -0.298433  -0.071148   0.156883  -0.110465
    13  O   -0.000048  -0.000881   0.001363   0.006107  -0.041072   0.007717
    14  C   -0.017152   0.004371   0.002528  -0.003807   0.083333   0.071259
    15  O   -0.005544   0.000025  -0.000362   0.000017  -0.002559  -0.001212
    16  C    0.142086   0.000268  -0.001993   0.000671   0.007571  -0.000222
    17  C    0.002800  -0.000034   0.001203  -0.000398   0.006517   0.001812
    18  O    0.000037  -0.000001   0.000101  -0.000093   0.000292   0.000010
    19  H    0.000000   0.000000   0.000034   0.000022   0.000167   0.000000
    20  C   -0.000378   0.000000   0.000217  -0.000012   0.001900   0.000090
    21  O   -0.000014   0.000000   0.000000   0.000000   0.000002   0.000000
    22  H    0.000000   0.000000   0.000000   0.000000   0.000000   0.000000
    23  C    0.530944   0.000002   0.000112  -0.000011   0.000699   0.000363
    24  O   -0.061296   0.000000   0.000000   0.000000  -0.000001   0.000000
    25  H    0.006300   0.000000   0.000000   0.000000   0.000000   0.000000
    26  C   -0.275647  -0.000009  -0.000062   0.000029  -0.000100  -0.000369
    27  O   -0.005176   0.000000   0.000000   0.000000   0.000000   0.000000
    28  C   -0.004693   0.000000  -0.000036   0.000003  -0.000120  -0.000011
    29  O   -0.000155   0.000000   0.000000   0.000000   0.000000   0.000000
    30  H    0.000002   0.000000   0.000000   0.000000   0.000000   0.000000
    31  H   -0.000048   0.000000   0.000000   0.000000   0.000000   0.000000
    32  H    0.000000   0.000000   0.000000   0.000000   0.000000   0.000000
    33  H   -0.000032   0.000000   0.000000   0.000000  -0.000002   0.000000
    34  H   -0.000141   0.000000   0.000000   0.000000  -0.000009   0.000000
    35  H   -0.004481   0.000000   0.000000   0.000000   0.000000   0.000000
    36  H   -0.039782   0.000000   0.000000   0.000000   0.000000   0.000000
    37  H    0.595611   0.000000   0.000000   0.000000   0.000000   0.000000
    38  H    0.000000   0.418116   0.000043  -0.000700  -0.000135  -0.011150
    39  H    0.000000   0.000043   0.613664  -0.053519   0.006239   0.006007
    40  H    0.000000  -0.000700  -0.053519   0.582145  -0.005988  -0.000771
    41  H    0.000000  -0.000135   0.006239  -0.005988   0.591171   0.006328
    42  H    0.000000  -0.011150   0.006007  -0.000771   0.006328   0.605005
    43  H    0.000000  -0.000245  -0.000001  -0.000007   0.001554   0.004843
    44  H   -0.000001   0.000005  -0.000007   0.000000   0.000111   0.001262
    45  H    0.000000   0.000000   0.000002   0.000010   0.006028   0.000013
             43         44         45
     1  O   -0.018524  -0.000878  -0.000224
     2  C    0.109352   0.072732   0.040305
     3  C    0.355313  -0.083776  -0.002794
     4  O   -0.049932  -0.003546  -0.000351
     5  H   -0.006599  -0.000157   0.000005
     6  C   -0.253614   0.443847  -0.200612
     7  O    0.006096  -0.059763   0.011397
     8  H   -0.001176   0.000856  -0.000120
     9  C    0.013609   0.009951   0.005549
    10  O    0.000038  -0.000008  -0.000433
    11  H    0.000000   0.000000  -0.000001
    12  C   -0.038843  -0.006746  -0.016283
    13  O    0.004885   0.025528  -0.037419
    14  C    0.103095  -0.198338   0.357139
    15  O   -0.001420  -0.014869  -0.065718
    16  C    0.003097   0.048023   0.077710
    17  C    0.001514   0.001738   0.006246
    18  O    0.000006   0.000011  -0.000232
    19  H    0.000000   0.000001   0.000257
    20  C    0.000131   0.002384   0.023476
    21  O    0.000000   0.000000   0.000021
    22  H    0.000000   0.000000   0.000000
    23  C    0.000761   0.015638   0.003138
    24  O    0.000000  -0.000037   0.000043
    25  H    0.000000  -0.000017   0.000018
    26  C   -0.000631  -0.016992   0.025347
    27  O    0.000000   0.000012   0.000203
    28  C   -0.000007  -0.000187  -0.001144
    29  O    0.000000   0.000000  -0.000005
    30  H    0.000000   0.000000   0.000000
    31  H    0.000000   0.000000   0.000000
    32  H    0.000000   0.000000  -0.000013
    33  H    0.000000  -0.000002  -0.000002
    34  H    0.000000   0.000023   0.006410
    35  H    0.000000  -0.000004  -0.000022
    36  H    0.000000  -0.000009  -0.000004
    37  H    0.000000  -0.000001   0.000000
    38  H   -0.000245   0.000005   0.000000
    39  H   -0.000001  -0.000007   0.000002
    40  H   -0.000007   0.000000   0.000010
    41  H    0.001554   0.000111   0.006028
    42  H    0.004843   0.001262   0.000013
    43  H    0.597450   0.006959   0.002046
    44  H    0.006959   0.594988   0.006732
    45  H    0.002046   0.006732   0.626748
 Mulliken atomic charges:
              1
     1  O   -0.531642
     2  C   -0.039266
     3  C    0.016052
     4  O   -0.508705
     5  H    0.333725
     6  C    0.007593
     7  O   -0.596593
     8  H    0.384202
     9  C   -0.244775
    10  O   -0.544571
    11  H    0.361255
    12  C    0.118328
    13  O   -0.353112
    14  C    0.382706
    15  O   -0.336382
    16  C   -0.105904
    17  C   -0.199845
    18  O   -0.575853
    19  H    0.405509
    20  C    0.013274
    21  O   -0.457121
    22  H    0.365816
    23  C   -0.449886
    24  O   -0.508788
    25  H    0.364498
    26  C    0.657767
    27  O   -0.351263
    28  C    0.224422
    29  O   -0.510532
    30  H    0.348657
    31  H    0.130795
    32  H    0.151418
    33  H    0.128216
    34  H    0.144914
    35  H    0.105997
    36  H    0.156617
    37  H    0.132764
    38  H    0.349551
    39  H    0.137435
    40  H    0.158085
    41  H    0.145572
    42  H    0.147753
    43  H    0.160249
    44  H    0.154536
    45  H    0.126533
 Sum of Mulliken atomic charges =   0.00000
 Mulliken charges with hydrogens summed into heavy atoms:
              1
     1  O   -0.182091
     2  C    0.108488
     3  C    0.176300
     4  O   -0.174980
     6  C    0.162130
     7  O   -0.212392
     9  C    0.050745
    10  O   -0.183316
    12  C    0.263900
    13  O   -0.353112
    14  C    0.509239
    15  O   -0.336382
    16  C    0.039010
    17  C   -0.071629
    18  O   -0.170344
    20  C    0.164692
    21  O   -0.091306
    23  C   -0.160504
    24  O   -0.144290
    26  C    0.763764
    27  O   -0.351263
    28  C    0.355217
    29  O   -0.161875
 Sum of Mulliken charges with hydrogens summed into heavy atoms =   0.00000
 APT atomic charges:
              1
     1  O   -0.620914
     2  C    0.365854
     3  C    0.419941
     4  O   -0.618890
     5  H    0.243543
     6  C    0.341283
     7  O   -0.654517
     8  H    0.274653
     9  C    0.440716
    10  O   -0.588041
    11  H    0.233848
    12  C    0.418153
    13  O   -0.737852
    14  C    0.942107
    15  O   -0.878238
    16  C    0.418286
    17  C    0.370920
    18  O   -0.685901
    19  H    0.322951
    20  C    0.374390
    21  O   -0.611550
    22  H    0.290856
    23  C    0.461829
    24  O   -0.621212
    25  H    0.271639
    26  C    0.411669
    27  O   -0.787637
    28  C    0.930500
    29  O   -0.663847
    30  H    0.258520
    31  H   -0.075187
    32  H   -0.037585
    33  H   -0.045815
    34  H   -0.034945
    35  H   -0.048512
    36  H    0.001757
    37  H   -0.042762
    38  H    0.247433
    39  H   -0.052083
    40  H   -0.019730
    41  H   -0.043192
    42  H   -0.041474
    43  H   -0.046250
    44  H   -0.023205
    45  H   -0.061510
[...]
 00458,0.00001275,0.00000119,-0.00000082,-0.00000975,-0.00000132,-0.000
 00072,0.00000469,-0.00000170,0.00000003,-0.00000098,0.00000137,0.00000
 051,0.00000270,-0.00000064,0.00000113,0.00000227,-0.00000228,-0.000002
 74,0.00001003,-0.00000036,0.00000608,-0.00000002,-0.00000738,-0.000001
 12,0.00000312,-0.00000420,0.00000244,-0.00000151,-0.00000180,0.0000013
 8,0.00000123,0.00000243,0.00000126,0.00086641,-0.00046367,0.00016178,0
 .00062734,-0.00112981,-0.00008632,-0.00009487,0.00008199,0.00001780,-0
 .00071042,-0.00154692,0.00180513,0.28462230,0.00121532,0.00174484,0.00
 354169,0.12727124,-0.11950275,-0.04247631,0.02645865,-0.01917116,-0.01
 057125,0.00052021,0.00554843,0.00032648,0.00029886,-0.00112674,0.00068
 978,0.00104842,-0.00077539,0.00163423,-0.00100718,-0.00005064,-0.00088
 958,0.00029368,0.00016222,0.00004474,-0.00256429,0.00027932,0.00139113
 ,0.00044351,-0.00000514,-0.00046850,-0.00004070,-0.00000108,-0.0000391
 2,-0.01690842,0.00875946,0.00560287,0.00086386,0.00022058,-0.00084253,
 -0.00008873,-0.00053450,0.00008169,0.00003789,0.00009351,-0.00006997,-
 0.00002847,0.00002877,0.00002128,0.00000052,-0.00001896,-0.00001836,0.
 00001424,-0.00000182,0.00000883,-0.00001175,0.00001941,0.00000219,-0.0
 0000146,0.00000205,0.00000660,0.00000332,0.00000736,-0.00000466,-0.000
 00170,0.00000038,0.00000093,0.00001434,-0.00003903,0.00000604,-0.00001
 951,0.00002670,-0.00002203,0.00000564,0.00000570,0.00004040,0.00000610
 ,0.00000196,0.00000720,-0.00000049,0.00000780,-0.00001089,-0.00000112,
 -0.00001130,0.00001004,0.00000158,0.00000236,-0.00000704,0.00000035,-0
 .00000131,0.00000142,-0.00000007,0.00000170,-0.00000040,-0.00000075,-0
 .00000034,-0.00000083,0.00000197,0.00000356,0.00000036,-0.00000570,-0.
 00000225,0.00000579,-0.00000093,0.00000526,-0.00000321,0.00000879,-0.0
 0000327,0.00000812,-0.00000255,0.00000397,-0.00000707,0.00082838,0.000
 67120,0.00060592,0.00016909,-0.00009583,0.00038138,0.00007322,0.000017
 70,-0.00017411,-0.00207278,-0.00176226,0.00234797,-0.13458999,0.129365
 23,-0.03734761,0.01762817,-0.00517708,0.07881566,-0.04725637,-0.070562
 78,0.01154015,-0.00405960,-0.00090873,-0.00097859,0.00201349,0.0008579
 7,-0.00044967,0.00007331,0.00006195,0.00066953,-0.00001049,0.00056835,
 -0.00041902,-0.00003131,-0.00018687,0.00010162,0.00005561,0.00003025,0
 .00010544,-0.00163882,0.00007589,-0.00045297,0.00001362,0.00006349,-0.
 00004123,0.00000101,0.00005650,0.02375136,-0.00990043,-0.00499883,-0.0
 0162855,0.00013728,0.00139924,0.00023228,-0.00008580,0.00007813,-0.000
 05602,0.00001648,-0.00024257,-0.00006130,-0.00001123,0.00005915,0.0000
 5017,0.00000365,0.00002821,-0.00004195,0.00002453,-0.00007329,0.000039
 14,-0.00005723,0.00004095,-0.00001247,-0.00000710,0.00001370,0.0000027
 1,0.00002140,-0.00002132,-0.00000337,-0.00000943,0.00001339,0.00000949
 ,-0.00001017,-0.00001072,-0.00001966,0.00000185,-0.00000853,0.00001039
 ,0.00001052,0.00001339,0.00002934,-0.00000094,0.00002806,-0.00001021,0
 .00000917,-0.00003198,0.00000564,-0.00001264,0.00002813,0.00000222,0.0
 0000191,-0.00002306,0.00000044,-0.00000273,0.00000301,-0.00000214,0.00
 000181,-0.00000243,-0.00000220,0.00000181,0.00000278,-0.00001417,0.000
 00114,-0.00000798,-0.00000105,0.00000813,0.00000326,-0.00000408,0.0000
 0638,-0.00000372,0.00001304,0.00000010,0.00000412,-0.00000487,-0.00000
 286,-0.00000710,-0.00135435,0.00006865,0.00330235,-0.00040645,0.000766
 12,0.00023284,-0.00008907,0.00031447,0.00008962,0.00163423,0.00294443,
 -0.00304410,-0.07221699,0.04072912,0.07917079,0.00145005,-0.00188435,-
 0.00003554,0.00623665,-0.00481239,-0.00145675,-0.24149118,0.14953738,-
 0.03500866,-0.03256076,0.00513567,0.01045937,-0.00026017,0.00002563,-0
 .00065080,-0.00554242,0.00763659,-0.00419143,0.00147652,-0.00086283,0.
 00135175,-0.00094442,-0.00029823,-0.00038771,0.00019480,0.00003395,-0.
 00027166,-0.00004235,0.00003876,0.00010816,0.00001135,0.00002416,-0.00
 001819,0.00030544,0.00112453,0.00021205,0.00003636,-0.00024770,0.00029
 408,-0.00062868,-0.00056069,-0.00010508,0.00021615,0.00000450,-0.00036
 371,-0.00007699,0.00011693,0.00003952,-0.00000414,-0.00002742,-0.00007
 001,0.00001712,0.00000285,0.00003949,-0.00000330,0.00000755,-0.0000205
 5,-0.00000069,0.00001447,0.00001164,0.00000742,0.00000246,-0.00000164,
 -0.00000243,0.00000221,-0.00000458,-0.00002343,0.00006454,0.00000669,0
 .00004040,-0.00004974,0.00001675,-0.00002780,0.00000741,-0.00003700,0.
 00000958,-0.00000110,-0.00000185,0.00000596,-0.00000437,-0.00000968,-0
 .00000642,0.,-0.00000105,0.00000300,-0.00000221,0.00000145,-0.00000070
 ,0.00000175,-0.00000025,0.00000147,-0.00000087,0.00000089,0.00000314,-
 0.00000109,-0.00000308,0.00000404,-0.00000633,0.00000388,0.00001454,-0
 .00000611,-0.00001150,0.00000097,-0.00000742,0.00000536,-0.00000146,0.
 00000349,-0.00000580,0.00000354,-0.00000843,0.00000571,-0.00008423,-0.
 00019355,-0.00020936,-0.00009185,-0.00003904,0.00000153,0.00002669,-0.
 00001378,0.00002243,0.00009947,0.00002565,-0.00002495,-0.00032911,-0.0
 0161753,-0.00108713,0.27140828,0.00076149,0.00421995,0.00245805,0.0248
 2713,-0.02123862,0.00348848,0.15014252,-0.15365159,0.02521447,-0.01842
 372,0.00968477,0.00197718,0.00024584,0.00055279,-0.00068939,-0.0003514
 9,0.00009812,-0.00189284,-0.00058541,0.00225145,0.00071019,-0.00023520
 ,-0.00000847,0.00016895,-0.00014561,0.00002230,0.00021183,-0.00026980,
 -0.00025521,0.00001749,-0.00000231,-0.00004155,0.00003602,0.00122077,0
 .00047986,-0.00082116,-0.00043650,0.00002485,0.00011296,0.00062308,-0.
 00026073,-0.00026654,-0.00011150,0.00007891,0.00002217,0.00003303,-0.0
 0001157,-0.00001608,-0.00000558,-0.00001136,-0.00001138,-0.00001931,0.
 00001820,0.00002682,0.00002374,0.00000327,-0.00004181,0.00001193,-0.00
 000492,-0.00000411,-0.00000761,0.,0.00000631,0.00000709,-0.00000089,-0
 .00000698,0.00000050,0.00000589,-0.00000834,-0.00000597,-0.00000471,0.
 00001675,0.00000788,-0.00000124,-0.00003193,0.00000921,0.00000180,-0.0
 0000452,-0.00000941,-0.00000527,0.00001417,0.00000516,0.00000536,-0.00
 001097,-0.00000538,0.00000193,0.00001239,0.00000054,-0.00000009,-0.000
 00200,-0.00000199,-0.00000016,-0.00000010,-0.00000216,0.00000173,0.000
 00256,-0.00000369,0.00000437,-0.00000427,-0.00000374,0.00000722,0.0000
 1123,-0.00000357,0.00000233,-0.00000325,-0.00000284,0.00000020,-0.0000
 0316,0.00000096,-0.00000237,0.00000144,-0.00011891,-0.00019605,-0.0000
 2832,-0.00015995,0.00022661,0.00005700,0.00000866,-0.00002310,-0.00001
 812,-0.00075771,-0.00011279,0.00039450,-0.00167608,-0.00418160,-0.0016
 9468,-0.15358844,0.16183461,0.00115455,-0.00037782,0.00082458,0.005720
 30,-0.01010123,0.00102167,-0.03918952,0.02773098,-0.04865352,0.0281252
 3,-0.00553361,-0.00255358,0.00085873,-0.00069456,0.00089190,-0.0296087
 2,0.02190776,-0.00750122,0.00290303,0.00024562,0.00362606,-0.00054682,
 -0.00082046,-0.00017923,-0.00003507,0.00003332,0.00021578,-0.00007006,
 -0.00014379,0.00002839,-0.00000787,-0.00001920,0.00002399,-0.00042409,
 -0.00025585,-0.00084409,0.00038381,0.00042908,-0.00000506,-0.00173050,
 -0.00089975,0.00197831,0.00047795,-0.00006323,-0.00077184,-0.00006046,
 0.00013293,0.00016420,0.00001263,-0.00005666,-0.00009832,0.00004555,0.
 00003632,0.00001636,-0.00002895,-0.00003021,-0.00000121,-0.00002102,0.
 00001535,0.00003543,0.00002126,0.00003573,-0.00002762,-0.00001049,-0.0
 0000600,0.00000361,-0.00003972,0.00011982,0.00003884,0.00004093,-0.000
 09605,0.00001138,-0.00002535,0.00002990,-0.00003980,0.00001879,-0.0000
 0947,0.00004973,0.00001703,0.00002261,-0.00007254,-0.00001623,-0.00003
 282,0.00004202,0.00001441,0.00000109,-0.00003449,-0.00000104,-0.000001
 21,0.00000542,0.00000168,0.00000154,-0.00000123,0.00000322,-0.00000126
 ,-0.00000389,0.00000287,-0.00000667,0.00000719,0.00003406,-0.00000542,
 -0.00004926,-0.00000300,-0.00000986,0.00000676,0.00003140,0.00001663,0
 .00002580,0.00000205,-0.00001654,-0.00001194,0.00030473,-0.00035351,-0
 .00008967,-0.00001433,0.00003269,-0.00002700,0.00000930,0.00001199,0.0
 0002379,0.00003779,0.00008745,0.00010556,-0.00023340,-0.00148114,-0.00
 069098,0.03270377,-0.02956917,0.05910634,0.00028489,-0.00049247,-0.000
 10492,-0.00050841,0.00111305,0.00009891,-0.01306009,0.00559767,-0.0037
 1606,0.00183605,-0.00078019,0.00116896,0.00020520,-0.00021918,0.000270
 55,-0.31208009,0.10978583,-0.00781016,0.01149331,-0.00003047,0.0007227
 1,0.00034716,-0.00062998,0.00048826,-0.00011378,0.00003497,0.00009824,
 0.00007207,-0.00000950,-0.00003635,-0.00001869,-0.00000844,0.00000393,
 -0.00065102,-0.00034319,-0.00031859,0.00276611,0.00004592,-0.00071795,
 -0.02578497,0.00772563,0.00309075,0.00216217,-0.00006190,-0.00200741,0
 .00018653,0.00029955,0.00018156,0.00005183,-0.00001325,-0.00026086,0.0
 0006071,-0.00008752,0.00002772,-0.00005129,0.00001983,0.00004343,-0.00
 001019,0.00004618,0.00004440,0.00002466,0.00001391,-0.00003340,-0.0000
 1101,0.00000310,-0.00000064,-0.00007435,0.00017104,0.00004528,0.000042
 90,-0.00013088,0.00004550,0.00000624,0.00000572,-0.00007397,0.00000415
 ,-0.00004695,0.00005015,0.00000876,-0.00000653,-0.00003698,-0.00000558
 ,0.00000845,0.00002012,0.00000679,-0.00000841,-0.00001351,-0.00000100,
 0.00000312,0.00000080,0.00000347,-0.00000185,0.00000156,0.00000988,-0.
 00000501,-0.00001017,0.00001063,-0.00002896,0.00002934,0.00010356,-0.0
 0005072,-0.00022578,0.00001304,-0.00001811,0.00002476,0.00006069,0.000
 04479,0.00001935,0.00000978,-0.00001844,-0.00001043,-0.00001578,0.0000
 6094,-0.00002744,0.00003693,-0.00008563,-0.00003840,0.00002533,0.00000
 608,-0.00000546,0.00020422,0.00008092,0.00006991,0.00034205,-0.0005393
 4,-0.00019797,0.00031174,-0.00075477,-0.00154443,0.33253536,0.00004658
 ,0.00026100,0.00035498,-0.00015504,-0.00043424,0.00013340,0.00189725,0
 .00321242,0.00143776,0.00023570,-0.00012377,-0.00035545,-0.00025741,-0
 .00003605,-0.00013732,0.10870374,-0.07880508,0.00782872,0.02380245,-0.
 03969465,-0.01093181,0.00338773,-0.00153217,-0.00131940,-0.00001011,0.
 00003015,-0.00001568,-0.00001011,-0.00001496,0.00000823,0.00000520,0.0
 0000215,0.00000403,-0.00005477,0.00005198,-0.00019652,0.00055315,0.001
 90906,0.00056315,-0.01951232,0.00649288,0.00223589,0.00085384,0.000274
 20,-0.00128523,-0.00006194,0.00025352,0.00004086,-0.00006729,-0.000044
 98,-0.00019721,0.00005465,-0.00007153,0.00013264,-0.00002713,0.0000616
 6,0.00000076,0.00001071,0.00000950,0.00001042,0.00000751,0.00001463,0.
 00001076,0.00000401,0.00000471,-0.00001582,0.00013625,-0.00034860,-0.0
 0005229,-0.00015329,0.00026661,-0.00010694,0.00013895,-0.00005491,0.00
 032443,0.00002978,0.00001650,-0.00000609,-0.00000938,0.00001065,0.0000
 0084,-0.00001354,-0.00002531,0.00000142,0.00000110,0.00000996,0.000008
 59,0.00000053,-0.00000409,0.00000064,0.00000012,0.00000363,0.00000139,
 0.00000122,-0.00000092,-0.00000668,0.00001676,-0.00000741,0.00001157,0
 .00005555,-0.00011107,0.00001740,0.00002176,0.00002001,0.00000500,0.00
 000609,0.00003888,0.00003298,-0.00001886,0.00005033,-0.00000015,0.0000
 4593,0.00003303,0.00003179,0.00000353,-0.00002578,-0.00001504,0.000004
 19,-0.00001126,-0.00000589,0.00008881,0.00003048,0.00006897,-0.0001311
 2,0.00034019,-0.00015965,0.00023607,0.00054491,-0.00041669,-0.11843192
 ,0.10959646,0.00031418,-0.00072947,-0.00007834,-0.00004001,0.00049034,
 0.00051885,-0.03603306,0.01515485,-0.00741194,0.00095492,-0.00070843,0
 .00333645,0.00000398,-0.00019860,0.00067206,-0.00926551,0.00879852,-0.
 04326083,0.00959184,-0.01672792,0.00073424,0.00092021,0.00002181,-0.00
 063899,-0.00007610,0.00001272,0.00008954,0.00000091,-0.00003556,-0.000
 00171,-0.00000142,-0.00000039,0.00000612,-0.00006372,-0.00013489,-0.00
 035130,-0.00186813,-0.00069029,0.00053380,0.02704905,-0.00561003,-0.00
 114421,-0.00079533,-0.00089523,0.00212621,0.00007821,-0.00033382,-0.00
 032865,0.00003459,0.00007671,0.00026581,-0.00008788,0.00004151,-0.0001
 1887,0.00003343,-0.00003584,0.00000113,0.00000783,-0.00003698,-0.00002
 512,-0.00003404,-0.00004147,0.00001654,0.00000747,-0.00000074,0.000009
 54,0.00010322,-0.00028386,-0.00020040,-0.00014842,0.00020054,0.0000114
 5,0.00014185,-0.00008174,0.00008899,0.00000368,0.00010767,-0.00001251,
 -0.00007323,-0.00007269,0.00011881,0.00005398,0.00008439,-0.00004966,-
 0.00003028,-0.00001357,0.00004141,0.00000208,0.00000255,-0.00000930,-0
 .00000498,-0.00000481,-0.00000197,-0.00000786,0.00000115,0.00000962,-0
 .00001707,0.00003544,-0.00002029,-0.00018026,0.00012338,0.00009138,-0.
 00002310,0.00002805,-0.00003599,-0.00005094,-0.00005058,-0.00009454,-0
 .00001821,0.00001953,0.00003466,-0.00001578,0.00004997,-0.00003044,0.0
 0001188,-0.00002696,0.00000059,0.00001028,0.00002432,0.00000223,0.0000
 4536,0.00004490,-0.00015271,0.00004844,-0.00042762,-0.00031822,-0.0009
 4424,-0.00009271,-0.00623753,0.00838982,-0.00038712,0.05448003,0.00020
 493,0.00009582,0.00008577,-0.00044729,-0.00009955,-0.00002271,-0.00080
 293,-0.00005886,-0.00089923,0.00021435,-0.00020897,0.00044060,-0.00003
 167,-0.00007170,0.00012855,-0.01467971,0.00818993,0.00561144,0.0020239
 7,-0.00034796,-0.00107025,0.00003308,-0.00011259,-0.00015950,0.0003304
 9,-0.00015589,0.00007094,0.00002039,0.00000560,0.00001878,-0.00000323,
 0.00000467,0.00000587,0.00144961,-0.00045488,0.00111235,0.00968494,-0.
 00062060,-0.00172713,-0.31084140,0.10560494,0.04901342,-0.01590471,0.0
 0840734,-0.00731072,0.00003016,-0.00038890,0.00350456,0.00010770,-0.00
 007106,-0.00051848,0.00013434,-0.00024415,0.00013477,-0.00011474,0.000
 06609,0.00003743,0.00001178,0.00007948,0.00010128,0.00005599,0.0000739
 4,-0.00006351,-0.00002298,-0.00000147,-0.00001107,-0.00016350,0.000356
 35,0.00006245,0.00024137,-0.00025764,-0.00000920,-0.00021247,-0.000017
 38,-0.00002810,0.00014394,-0.00039822,-0.00001576,0.00002139,0.0000293
 9,-0.00022731,-0.00005754,-0.00009176,0.00009150,0.00003634,0.00000472
 ,-0.00006154,-0.00000236,-0.00000036,0.00001046,0.00000882,0.00000618,
 0.00000108,0.00002179,-0.00000057,-0.00003467,-0.00002605,-0.00017287,
 0.00012037,0.00100773,-0.00042021,-0.00111923,0.00015840,-0.00004640,0
 .00023667,0.00016291,0.00009159,-0.00001057,0.00000887,-0.00003785,-0.
 00002315,-0.00000416,-0.00001254,-0.00002257,-0.00009339,-0.00010492,-
 0.00010120,-0.00004577,0.00005001,0.00002461,0.00003148,0.00061269,0.0
 0098040,0.00001301,-0.00007573,-0.00010976,0.00023783,-0.00024087,0.00
 068596,-0.00083999,-0.00143493,0.00197237,0.32789824,0.00020955,0.0003
 5822,-0.00023393,-0.00068806,-0.00061214,-0.00013686,-0.00049597,0.000
 30382,-0.00121358,0.00008284,-0.00011486,0.00050564,0.00004138,-0.0001
 4139,0.00010848,-0.01744835,0.00875836,0.00510180,0.00176391,0.0022737
 5,-0.00031249,0.00020322,0.00013879,-0.00007004,-0.00038395,0.00018004
 ,-0.00042033,-0.00012928,-0.00006504,0.00007001,0.00001516,0.00003594,
 -0.00002209,0.00343786,0.00007851,0.00453960,0.02624923,-0.02959344,-0
 .01487904,0.10309339,-0.08345337,-0.01677401,0.00530236,0.00211432,0.0
 0280511,-0.00011648,0.00008759,-0.00059966,0.00027336,-0.00010838,0.00
 041976,-0.00029915,0.00065854,-0.00026370,0.00040399,-0.00023492,-0.00
 032940,-0.00001892,-0.00001935,0.00001994,-0.00000715,0.00003330,-0.00
 005129,-0.00000957,-0.00003016,0.00003513,0.00004213,0.00005172,-0.000
 05660,-0.00001166,0.00000389,0.00001237,-0.00001581,0.00001418,0.00002
 484,-0.00009593,0.00014113,0.00011107,0.00000715,-0.00001218,0.0000125
 6,0.00003039,0.00002014,0.00003214,-0.00000388,-0.00000503,-0.00003158
 ,0.00000054,-0.00000195,0.00000262,-0.00000782,-0.00000197,-0.00000662
 ,-0.00001735,0.00000700,0.00002637,-0.00005390,0.00003946,-0.00008850,
 -0.00013957,0.00009756,0.00029574,-0.00006829,-0.00000340,-0.00008885,
 -0.00005020,-0.00001953,0.00003882,-0.00001509,-0.00001648,0.00002807,
 -0.00005193,-0.00000968,-0.00006885,-0.00006902,0.00023920,0.00016317,
 -0.00017190,-0.00020209,-0.00005180,-0.00118123,0.00057680,-0.00068053
 ,-0.00000006,-0.00003432,0.00009731,0.00018704,-0.00005916,0.00011136,
 -0.00226307,-0.00219273,0.00230299,-0.11752993,0.10071931,-0.00019105,
 -0.00005048,-0.00028744,0.00013217,0.00014376,-0.00009403,0.00026145,-
 0.00078189,0.00174880,-0.00018884,0.00026206,-0.00023644,-0.00007730,0
 .00002777,-0.00006281,0.02314113,-0.00781199,-0.00084818,-0.00189273,0
 .00035389,0.00061431,0.00000027,0.00007367,0.00014292,-0.00021502,-0.0
 0001755,-0.00006985,-0.00004604,-0.00003305,0.00001049,0.00000919,0.00
 000337,-0.00001352,0.00257827,-0.00052747,0.00279570,0.00804921,-0.011
 41061,-0.00232088,0.05544503,-0.01847280,-0.05578460,-0.03388405,0.015
 06536,-0.01075308,-0.00470963,0.00154783,0.00472284,-0.00010440,0.0000
 0465,-0.00065142,0.00014459,-0.00007507,0.00027575,0.00000159,0.000156
 67,-0.00021705,0.00003223,0.00002416,0.00008073,0.00006276,0.00009631,
 -0.00002433,-0.00000891,0.00000184,-0.00002965,-0.00020999,0.00019658,
 0.00011107,0.00011061,-0.00022819,-0.00003612,-0.00003489,0.00005214,-
 0.00003106,-0.00004335,-0.00016685,-0.00001375,0.00012779,0.00002298,-
 0.00030615,-0.00010545,-0.00015531,0.00011011,0.00004983,0.00002423,-0
 .00006957,-0.00000307,-0.00000674,0.00001593,0.00000738,0.00000967,0.0
 0000617,0.00003073,0.00000538,-0.00005502,0.00010228,-0.00022213,0.000
 03814,0.00100830,-0.00074502,-0.00018682,0.00020407,-0.00014974,0.0000
 8259,0.00024097,0.00011679,-0.00011941,0.00002777,-0.00005254,-0.00009
 595,-0.00001653,0.00002997,0.00002538,-0.00008022,0.00015432,0.0000329
 9,-0.00005031,-0.00004423,-0.00001225,-0.00078742,0.00043984,0.0000139
 1,-0.00010488,0.00001840,0.00009480,-0.00036237,0.00026087,-0.00035909
 ,0.00225485,0.00234434,-0.00266594,-0.05090601,0.01951484,0.06442178\\
 0.01130828,0.01354741,0.00334129,0.00454923,-0.02502439,0.00833734,-0.
 00276676,0.01750357,-0.01702349,0.00340947,0.00175211,0.01618094,-0.00
 426529,-0.00578274,-0.03065195,-0.03780781,-0.03049170,0.00143452,0.00
 688635,-0.02730441,-0.00282567,0.00519340,0.03529829,-0.00841834,0.011
 49359,0.00036920,-0.02941590,0.00692103,0.02577247,0.02032227,-0.00509
 028,-0.02260015,-0.02112891,0.00758334,0.01608279,0.00717472,0.0007274
 0,-0.01120654,0.03735802,-0.01185434,0.03762943,-0.02801812,-0.0009715
 5,-0.02822695,0.01444486,0.01998394,0.01607483,0.00529637,0.00258149,0
 .02799152,0.00665974,0.00079136,-0.00882838,0.02356914,0.00943907,-0.0
 1466373,-0.02308556,-0.01431969,0.01423221,0.00085890,0.02488314,-0.00
 458973,0.02260875,-0.02105628,0.00308547,-0.01806290,0.01059803,-0.023
 50308,-0.00672683,0.01399640,-0.00784077,0.01254595,-0.01261324,0.0172
 3850,-0.02333427,-0.01337536,-0.00423600,0.00466513,0.00978630,-0.0081
 5544,0.01030245,0.03419444,-0.01824416,-0.02407680,-0.01175817,-0.0041
 2644,0.02047410,-0.00533505,-0.00154320,-0.00429983,-0.01675045,0.0123
 2933,-0.00068082,0.01526824,-0.01222128,-0.00503436,-0.01919995,0.0110
 9957,-0.00034540,0.01179694,-0.01546771,0.00325979,-0.02044919,0.01593
 630,0.00560927,-0.00558253,0.01031423,0.01051006,-0.01230256,-0.005466
 57,-0.01309638,-0.00142071,0.00315067,0.00463148,-0.01963041,0.0070448
 4,0.00172868,0.00556263,-0.00470235,0.01579059,0.02095580,-0.00709040,
 -0.00038980,-0.01802699,0.00799899,0.00239935,0.01753194,-0.00842633,0
 .00338166,-0.01960009,0.01214528,-0.00146045,0.01873490,-0.00685455,-0
 .00480960\\\@


 LORD, MAN... WERE YE BUT WHYLES WHERE I AM, 
 THE GENTILES YE WAD NE'ER ENVY 'EM.         
 IT'S TRUE, THEY NEEDNA STARVE OR SWEAT,     
 THRO' WINTER'S CAULD OR SIMMER'S HEAT...    
 THEY'VE NAE SAIR WARK TO CRAZE THEIR BANES, 
 AND FILL AULD AGE WITH GRIPS AN' GRANES...  
                                             
 BUT HUMAN BODIES ARE SIC FOOLS              
 FOR A' THEIR COLLEGES AND SCHOOLS,          
 THAT WHEN NAE REAL ILLS PERPLEX THEM,       
 THEY MAK ENOW THEMSELVES TO VEX THEM,       
 AN' AYE THE LESS THEY HAE TO STURT THEM,    
 IN LIKE PROPORTION LESS WILL HURT THEM....  
                                             
                (ROBERT BURNS 'THE TWA DOGS')
 Job cpu time:  0 days 13 hours 14 minutes 36.0 seconds.
 File lengths (MBytes):  RWF=   1326 Int=      0 D2E=      0 Chk=     19 Scr=      1
 Normal termination of Gaussian 09 at Tue Mar  1 16:49:07 2016.
Gaussian '09 finished on node026 at Tue Mar  1 16:49:07 EST 2016.
