Gaussian '09 started on node013 at Mon Feb 29 14:22:26 EST 2016.
 Entering Gaussian System, Link 0=/usr/local/gaussian/g09/g09
 Initial command:
 /usr/local/gaussian/g09/l1.exe /home/srmcgrat/thesis/gaussian/cellobiose/300/9000/2/gdp/gaussian10667/Gau-10703.inp -scrdir=/home/srmcgrat/thesis/gaussian/cellobiose/300/9000/2/gdp/gaussian10667/
 Entering Link 1 = /usr/local/gaussian/g09/l1.exe PID=     10705.
  
 Copyright (c) 1988,1990,1992,1993,1995,1998,2003,2009,2010,
            Gaussian, Inc.  All Rights Reserved.
  
 This is part of the Gaussian(R) 09 program.  It is based on
 the Gaussian(R) 03 system (copyright 2003, Gaussian, Inc.),
 the Gaussian(R) 98 system (copyright 1998, Gaussian, Inc.),
 the Gaussian(R) 94 system (copyright 1995, Gaussian, Inc.),
 the Gaussian 92(TM) system (copyright 1992, Gaussian, Inc.),
 the Gaussian 90(TM) system (copyright 1990, Gaussian, Inc.),
 the Gaussian 88(TM) system (copyright 1988, Gaussian, Inc.),
 the Gaussian 86(TM) system (copyright 1986, Carnegie Mellon
 University), and the Gaussian 82(TM) system (copyright 1983,
 Carnegie Mellon University). Gaussian is a federally registered
 trademark of Gaussian, Inc.
  
 This software contains proprietary and confidential information,
 including trade secrets, belonging to Gaussian, Inc.
  
 This software is provided under written license and may be
 used, copied, transmitted, or stored only in accord with that
 written license.
  
 The following legend is applicable only to US Government
 contracts under FAR:
  
                    RESTRICTED RIGHTS LEGEND
  
 Use, reproduction and disclosure by the US Government is
 subject to restrictions as set forth in subparagraphs (a)
 and (c) of the Commercial Computer Software - Restricted
 Rights clause in FAR 52.227-19.
  
 Gaussian, Inc.
 340 Quinnipiac St., Bldg. 40, Wallingford CT 06492
  
  
 ---------------------------------------------------------------
 Warning -- This program may not be used in any manner that
 competes with the business of Gaussian, Inc. or will provide
 assistance to any competitor of Gaussian, Inc.  The licensee
 of this program is prohibited from giving any competitor of
 Gaussian, Inc. access to this program.  By using this program,
 the user acknowledges that Gaussian, Inc. is engaged in the
 business of creating and licensing software in the field of
 computational chemistry and represents and warrants to the
 licensee that it is not a competitor of Gaussian, Inc. and that
 it will not use this program in any manner prohibited above.
 ---------------------------------------------------------------
  

 Cite this work as:
 Gaussian 09, Revision B.01,
 M. J. Frisch, G. W. Trucks, H. B. Schlegel, G. E. Scuseria, 
 M. A. Robb, J. R. Cheeseman, G. Scalmani, V. Barone, B. Mennucci, 
 G. A. Petersson, H. Nakatsuji, M. Caricato, X. Li, H. P. Hratchian, 
 A. F. Izmaylov, J. Bloino, G. Zheng, J. L. Sonnenberg, M. Hada, 
 M. Ehara, K. Toyota, R. Fukuda, J. Hasegawa, M. Ishida, T. Nakajima, 
 Y. Honda, O. Kitao, H. Nakai, T. Vreven, J. A. Montgomery, Jr., 
 J. E. Peralta, F. Ogliaro, M. Bearpark, J. J. Heyd, E. Brothers, 
 K. N. Kudin, V. N. Staroverov, T. Keith, R. Kobayashi, J. Normand, 
 K. Raghavachari, A. Rendell, J. C. Burant, S. S. Iyengar, J. Tomasi, 
 M. Cossi, N. Rega, J. M. Millam, M. Klene, J. E. Knox, J. B. Cross, 
 V. Bakken, C. Adamo, J. Jaramillo, R. Gomperts, R. E. Stratmann, 
 O. Yazyev, A. J. Austin, R. Cammi, C. Pomelli, J. W. Ochterski, 
 R. L. Martin, K. Morokuma, V. G. Zakrzewski, G. A. Voth, 
 P. Salvador, J. J. Dannenberg, S. Dapprich, A. D. Daniels, 
 O. Farkas, J. B. Foresman, J. V. Ortiz, J. Cioslowski, 
 and D. J. Fox, Gaussian, Inc., Wallingford CT, 2010.
 
 ******************************************
 Gaussian 09:  EM64L-G09RevB.01 12-Aug-2010
                29-Feb-2016 
 ******************************************
 ------------------------------------------------
 # freq=raman b3lyp/6-31+g(d,p) geom=connectivity
 ------------------------------------------------
 1/10=4,30=1,38=1,57=2/1,3;
 2/12=2,17=6,18=5,40=1/2;
 3/5=1,6=6,7=111,11=2,16=1,25=1,30=1,71=2,74=-5/1,2,3;
 4//1;
 5/5=2,38=5,98=1/2;
 8/6=4,10=90,11=11/1;
 10/13=10,15=4/2;
 11/6=3,8=1,9=11,15=111,16=1/1,2,10;
 10/6=1/2;
 6/7=2,8=2,9=2,10=2,18=1,28=1/1;
 7/8=1,10=1,25=1/1,2,3,16;
 1/10=4,30=1/3;
 99//99;
 ------------
 300 9000.com
 ------------
 Symbolic Z-matrix:
 Charge =  0 Multiplicity = 1
 O                     7.569     7.706     22.861 
 C                     8.139     8.041     24.135 
 C                     7.487     9.294     24.697 
 O                     7.592     10.315    23.694 
 H                     7.215     9.892     22.869 
 C                     8.225     9.684     25.967 
 O                     7.662     10.9      26.481 
 H                     8.156     11.151    27.313 
 C                     8.127     5.526     24.806 
 O                     7.608     4.855     23.649 
 H                     7.902     3.911     23.803 
 C                     7.929     6.98      25.203 
 O                     8.665     7.404     26.359 
 C                     8.026     8.544     26.952 
 O                     8.885     8.828     28.066 
 C                     8.207     8.422     29.263 
 C                     8.89      7.143     29.718 
 O                     8.709     6.135     28.713 
 H                     9.144     6.545     27.911 
 C                     8.302     6.653     31.032 
 O                     8.915     5.487     31.599 
 H                     8.599     5.194     32.501 
 C                     7.718     10.847    29.992 
 O                     8.373     11.605    28.964 
 H                     8.125     12.545    29.197 
 C                     8.308     9.49      30.34 
 O                     7.827     8.972     31.589 
 C                     8.403     7.752     32.077 
 O                     7.649     7.491     33.27 
 H                     8.25102   7.33118   34.0005 
 H                     9.42994   7.91519   32.3293 
 H                     7.266     6.43871   30.87177 
 H                     9.93586   7.32849   29.84714 
 H                     7.17813   8.22419   29.04575 
 H                     9.35503   9.66058   30.47972 
 H                     7.71273   11.43979   30.88277 
 H                     6.70284   10.69483   29.69001 
 H                     8.27259   7.53991   22.22936 
 H                     7.76933   4.95899   25.63994 
 H                     9.1875    5.39482   24.75103 
 H                     6.89749   7.05421   25.47756 
 H                     9.18791   8.21485   24.01475 
 H                     6.4575    9.10242   24.91685 
 H                     9.26674   9.81699   25.76207 
 H                     7.00507   8.37506   27.22414 
 

 GradGradGradGradGradGradGradGradGradGradGradGradGradGradGradGradGradGrad
 Berny optimization.
 Initialization pass.
 Trust Radius=3.00D-01 FncErr=1.00D-07 GrdErr=1.00D-07
 Number of steps in this run=      2 maximum allowed number of steps=      2.
 GradGradGradGradGradGradGradGradGradGradGradGradGradGradGradGradGradGrad

                          Input orientation:                          
 ---------------------------------------------------------------------
 Center     Atomic      Atomic             Coordinates (Angstroms)
 Number     Number       Type             X           Y           Z
 ---------------------------------------------------------------------
      1          8           0        7.569000    7.706000   22.861000
      2          6           0        8.139000    8.041000   24.135000
      3          6           0        7.487000    9.294000   24.697000
      4          8           0        7.592000   10.315000   23.694000
      5          1           0        7.215000    9.892000   22.869000
      6          6           0        8.225000    9.684000   25.967000
      7          8           0        7.662000   10.900000   26.481000
      8          1           0        8.156000   11.151000   27.313000
      9          6           0        8.127000    5.526000   24.806000
     10          8           0        7.608000    4.855000   23.649000
     11          1           0        7.902000    3.911000   23.803000
     12          6           0        7.929000    6.980000   25.203000
     13          8           0        8.665000    7.404000   26.359000
     14          6           0        8.026000    8.544000   26.952000
     15          8           0        8.885000    8.828000   28.066000
     16          6           0        8.207000    8.422000   29.263000
     17          6           0        8.890000    7.143000   29.718000
     18          8           0        8.709000    6.135000   28.713000
     19          1           0        9.144000    6.545000   27.911000
     20          6           0        8.302000    6.653000   31.032000
     21          8           0        8.915000    5.487000   31.599000
     22          1           0        8.599000    5.194000   32.501000
     23          6           0        7.718000   10.847000   29.992000
     24          8           0        8.373000   11.605000   28.964000
     25          1           0        8.125000   12.545000   29.197000
     26          6           0        8.308000    9.490000   30.340000
     27          8           0        7.827000    8.972000   31.589000
     28          6           0        8.403000    7.752000   32.077000
     29          8           0        7.649000    7.491000   33.270000
     30          1           0        8.251021    7.331184   34.000499
     31          1           0        9.429944    7.915193   32.329295
     32          1           0        7.265996    6.438707   30.871768
     33          1           0        9.935857    7.328490   29.847135
     34          1           0        7.178130    8.224191   29.045748
     35          1           0        9.355035    9.660579   30.479718
     36          1           0        7.712733   11.439793   30.882768
     37          1           0        6.702843   10.694829   29.690005
     38          1           0        8.272590    7.539908   22.229356
     39          1           0        7.769325    4.958986   25.639945
     40          1           0        9.187504    5.394818   24.751026
     41          1           0        6.897492    7.054210   25.477562
     42          1           0        9.187912    8.214850   24.014747
     43          1           0        6.457503    9.102422   24.916849
     44          1           0        9.266738    9.816987   25.762069
     45          1           0        7.005069    8.375062   27.224139
 ---------------------------------------------------------------------
                    Distance matrix (angstroms):
                    1          2          3          4          5
     1  O    0.000000
     2  C    1.435340   0.000000
     3  C    2.428861   1.520183   0.000000
     4  O    2.738850   2.380077   1.435087   0.000000
     5  H    2.214492   2.425435   1.942465   1.000841   0.000000
     6  C    3.740328   2.462330   1.519751   2.442413   3.265114
     7  O    4.828528   3.728958   2.406765   2.848595   3.776562
     8  H    5.659761   4.446580   3.277112   3.756881   4.713777
     9  C    2.974355   2.603000   3.823520   4.945431   4.862681
    10  O    2.958152   3.266306   4.562638   5.460209   5.112164
    11  H    3.924319   4.150096   5.472490   6.412425   6.092347
    12  C    2.478233   1.520015   2.409563   3.675986   3.799618
    13  O    3.678101   2.372471   2.778854   4.089924   4.524682
    14  C    4.200878   2.863785   2.436811   3.733545   4.375582
    15  O    5.484776   4.077824   3.677189   4.795561   5.561457
    16  C    6.473431   5.142584   4.703949   5.914003   6.635375
    17  C    7.005745   5.704410   5.639650   6.930726   7.567789
    18  O    6.165513   4.991575   5.253648   6.626496   7.106294
    19  H    5.415814   4.184043   4.542295   5.865551   6.351788
    20  C    8.271115   7.037167   6.911681   8.231682   8.849139
    21  O    9.115280   7.926941   8.010620   9.356759   9.925065
    22  H   10.015021   8.849122   8.885323  10.237282  10.805651
    23  C    7.793539   6.508097   5.522879   6.321685   7.204316
    24  O    7.286647   6.006338   4.932850   5.481511   6.436176
    25  H    7.991868   6.775696   5.588027   5.961543   6.921712
    26  C    7.724262   6.374181   5.705778   6.735176   7.561223
    27  O    8.823112   7.518392   6.907890   8.011860   8.789729
    28  C    9.253774   7.951640   7.594815   8.803487   9.527760
    29  O   10.411528   9.164651   8.762042   9.983887  10.683350
    30  H   11.166651   9.891636   9.538945  10.749949  11.469150
    31  H    9.651709   8.296315   7.995503   9.149068   9.915187
    32  H    8.116048   6.979507   6.806563   8.164084   8.716199
    33  H    7.385839   6.030328   6.031917   7.230075   7.916377
    34  H    6.218714   5.007222   4.489042   5.760553   6.398059
    35  H    8.065678   6.660122   6.088001   7.041486   7.909256
    36  H    8.849330   7.567422   6.551268   7.277234   8.177034
    37  H    7.504575   6.321664   5.244743   6.073463   6.887159
    38  H    0.960000   1.974948   3.127820   3.210844   2.657062
    39  H    3.912640   3.449685   4.445357   5.701319   5.685072
    40  H    3.396074   2.912238   4.254204   5.279312   5.259034
    41  H    2.778875   2.077876   2.444065   3.781029   3.867616
    42  H    2.052056   1.070000   2.126766   2.657149   2.831598
    43  H    2.722487   2.136665   1.070000   2.062229   2.321836
    44  H    3.969230   2.659563   2.139008   2.707337   3.547549
    45  H    4.450016   3.307594   2.731874   4.070593   4.616536
                    6          7          8          9         10
     6  C    0.000000
     7  O    1.435208   0.000000
     8  H    1.992126   0.999630   0.000000
     9  C    4.318158   5.648161   6.158451   0.000000
    10  O    5.391943   6.675715   7.305123   1.434661   0.000000
    11  H    6.173715   7.488351   8.049982   1.914382   1.000644
    12  C    2.825408   4.131703   4.679837   1.520174   2.652090
    13  O    2.354923   3.639081   3.899898   2.495624   3.867654
    14  C    1.519680   2.430036   2.635084   3.704570   4.969231
    15  O    2.360961   2.881170   2.548486   4.701635   6.076623
    16  C    3.529389   3.765240   3.354481   5.315832   6.678270
    17  C    4.579182   5.108934   4.731474   5.227294   6.611447
    18  O    4.513333   5.365003   5.236990   3.996780   5.338042
    19  H    3.804868   4.817390   4.748577   3.422525   4.835291
    20  C    5.903145   6.257652   5.838174   6.329600   7.630408
    21  O    7.057644   7.554105   7.143303   6.838663   8.081471
    22  H    7.936821   8.347263   7.911855   7.716608   8.913748
    23  C    4.220218   3.511847   2.731538   7.441433   8.726386
    24  O    3.562886   2.677281   1.725980   7.369106   8.625367
    25  H    4.316042   3.208902   2.343854   8.279326   9.496510
    26  C    4.378088   4.159002   3.456118   6.809641   8.169621
    27  O    5.680865   5.462241   4.810453   7.614066   8.946578
    28  C    6.410648   6.463296   5.857466   7.609119   8.947392
    29  O    7.646884   7.596840   7.009886   8.702241   9.975661
    30  H    8.370993   8.344235   7.702121   9.370853  10.662950
    31  H    6.712628   6.799798   6.103818   8.000368   9.382526
    32  H    5.958889   6.272065   5.971820   6.194183   7.402261
    33  H    4.850867   5.408972   4.919484   5.651016   7.067811
    34  H    3.564501   3.737916   3.539047   5.114299   6.376608
    35  H    4.652112   4.515781   3.699614   7.126983   8.532551
    36  H    5.244998   4.435033   3.608758   8.489504   9.782529
    37  H    4.147229   3.355562   2.823103   7.252484   8.450838
    38  H    4.309220   5.453395   6.236747   3.273548   3.108987
    39  H    4.758189   6.001212   6.425704   1.070000   2.000175
    40  H    4.560931   5.968836   6.384461   1.070000   2.000175
    41  H    2.986238   4.047401   4.662227   2.073189   2.947030
    42  H    2.626193   3.952321   4.534787   2.996920   3.730748
    43  H    2.136608   2.669956   3.580936   3.948456   4.579485
    44  H    1.070000   2.065178   2.327813   4.541546   5.642499
    45  H    2.186767   2.712771   3.006388   3.901702   5.053314
                   11         12         13         14         15
    11  H    0.000000
    12  C    3.373350   0.000000
    13  O    4.395037   1.434506   0.000000
    14  C    5.603237   2.348299   1.435120   0.000000
    15  O    6.581516   3.539182   2.233836   1.435107   0.000000
    16  C    7.088988   4.317435   3.111158   2.321285   1.434339
    17  C    6.812429   4.619017   3.376630   3.218704   2.359736
    18  O    5.450278   3.693579   2.674624   3.061191   2.775218
    19  H    5.035492   2.999786   1.837397   2.483064   2.302867
    20  C    7.741899   5.850068   4.746862   4.505381   3.723932
    21  O    8.017952   6.641541   5.585247   5.632955   4.862640
    22  H    8.819700   7.543176   6.527834   6.507091   5.740817
    23  C    9.297617   6.158955   5.094089   3.826261   3.024521
    24  O    9.276605   5.977699   4.951736   3.679439   2.963153
    25  H   10.182874   6.852713   5.897095   4.588881   3.958895
    26  C    8.603630   5.729966   4.508570   3.528879   2.437673
    27  O    9.286611   6.690251   5.523927   4.660961   3.681254
    28  C    9.135828   6.933436   5.734568   5.199521   4.180696
    29  O   10.124451   8.088016   6.985825   6.416234   5.513337
    30  H   10.761434   8.810393   7.653051   7.155620   6.153102
    31  H    9.542845   7.342446   6.040769   5.593010   4.393844
    32  H    7.534008   5.733018   4.822248   4.513806   4.025199
    33  H    7.235149   5.071185   3.713202   3.675164   2.554462
    34  H    6.827445   4.108349   3.178381   2.281434   2.058615
    35  H    8.930147   6.087925   4.748538   3.931650   2.596181
    36  H   10.336424   7.224700   6.136686   4.892310   4.016200
    37  H    9.061741   5.952868   5.076929   3.724713   3.299129
    38  H    3.972741   3.045342   4.150472   4.834498   6.008381
    39  H    2.119019   2.073865   2.701364   3.826186   4.701037
    40  H    2.180135   2.073865   2.625910   4.013817   4.781976
    41  H    3.700401   1.070000   2.005834   2.380540   3.714368
    42  H    4.496836   2.126419   2.535042   3.175820   4.108571
    43  H    5.502554   2.598435   3.136476   2.629421   3.985624
    44  H    6.370333   3.186000   2.557523   2.139127   2.536123
    45  H    5.695308   2.623900   2.108743   1.070000   2.109034
                   16         17         18         19         20
    16  C    0.000000
    17  C    1.519656   0.000000
    18  O    2.405176   1.434869   0.000000
    19  H    2.495797   1.920252   1.000264   0.000000
    20  C    2.503547   1.520671   2.410754   3.234389   0.000000
    21  O    3.817379   2.506217   2.965019   3.843585   1.434160
    22  H    4.588931   3.410040   3.904680   4.815633   2.091614
    23  C    2.578990   3.894647   4.982054   4.987107   4.360309
    24  O    3.201319   4.554695   5.486055   5.225596   5.366933
    25  H    4.124343   5.480718   6.454720   6.220302   6.173671
    26  C    1.520116   2.496801   3.750194   3.907936   2.920183
    27  O    2.420160   2.824155   4.134957   4.599185   2.431797
    28  C    2.899295   2.484538   3.744973   4.400169   1.519877
    29  O    4.151406   3.778609   4.871200   5.643476   2.477357
    30  H    4.861658   4.333994   5.440427   6.204635   3.045410
    31  H    3.339852   2.776092   4.094685   4.634709   2.132690
    32  H    2.721594   2.112959   2.614340   3.507755   1.070000
    33  H    2.127423   1.070000   2.053256   2.233722   2.128305
    34  H    1.070000   2.133400   2.611322   2.823470   2.770726
    35  H    2.081457   2.671081   3.996043   4.043474   3.234104
    36  H    3.460495   4.604897   5.817325   5.902452   4.825235
    37  H    2.758727   4.171322   5.076539   5.132756   4.549136
    38  H    7.089043   7.524528   6.648448   5.833548   8.847260
    39  H    5.030960   4.759870   3.421939   3.092388   5.676944
    40  H    5.521153   5.274038   4.058826   3.363071   6.466666
    41  H    4.232636   4.686074   3.820284   3.350778   5.743292
    42  H    5.343151   5.810741   5.160302   4.239235   7.243346
    43  H    4.734210   5.727777   5.318420   4.766824   6.840827
    44  H    3.914786   4.789732   4.751431   3.916487   6.222034
    45  H    2.367234   3.360102   3.184017   2.897573   4.375766
                   21         22         23         24         25
    21  O    0.000000
    22  H    0.999654   0.000000
    23  C    5.722312   6.247211   0.000000
    24  O    6.683331   7.325460   1.435400   0.000000
    25  H    7.497271   8.073307   1.918561   0.999696   0.000000
    26  C    4.239993   4.817698   1.520083   2.524050   3.266950
    27  O    3.650900   3.962450   2.465343   3.757849   4.310081
    28  C    2.370834   2.600299   3.794137   4.953512   5.598619
    29  O    2.900175   2.601936   4.691778   5.999234   6.508365
    30  H    3.099852   2.633846   5.358464   6.606565   7.090371
    31  H    2.587397   2.850411   4.121795   5.104607   5.740145
    32  H    2.038094   2.445525   4.517892   5.617439   6.389800
    33  H    2.739026   3.658720   4.161705   4.637994   5.560023
    34  H    4.126503   4.810374   2.840067   3.586679   4.425927
    35  H    4.343407   4.960594   2.079747   2.653783   3.387955
    36  H    6.115078   6.512609   1.070000   2.035907   2.057489
    37  H    5.971548   6.461905   1.070000   2.035907   2.385103
    38  H    9.613394  10.541181   8.455949   7.867050   8.580256
    39  H    6.091117   6.915032   7.322003   7.455419   8.386105
    40  H    6.854013   7.774880   7.704125   7.548439   8.486501
    41  H    6.633136   7.462185   5.953036   5.919634   6.744610
    42  H    8.064524   9.027117   6.694506   6.054115   6.836353
    43  H    7.985093   8.796654   5.512673   5.129469   5.740346
    44  H    7.276144   8.199456   4.620804   3.774668   4.532590
    45  H    5.579260   6.364356   3.778863   3.915463   4.747084
                   26         27         28         29         30
    26  C    0.000000
    27  O    1.435161   0.000000
    28  C    2.459032   1.434685   0.000000
    29  O    3.607656   2.247400   1.435230   0.000000
    30  H    4.250057   2.947440   1.974850   0.960000   0.000000
    31  H    2.774179   2.057743   1.070000   2.058307   2.126934
    32  H    3.267864   2.691973   2.114261   2.646796   3.399375
    33  H    2.750448   3.191003   2.738852   4.119724   4.482088
    34  H    2.134002   2.729172   3.303296   4.313189   5.147633
    35  H    1.070000   2.009860   2.664649   3.924704   4.363580
    36  H    2.109653   2.569401   3.937318   4.614749   5.185621
    37  H    2.109653   2.799652   4.153134   4.896539   5.682545
    38  H    8.341862   9.479049   9.850791  11.058349  11.773014
    39  H    6.550632   7.176271   7.045435   8.040107   8.703921
    40  H    6.984316   7.836140   7.735738   8.906957   9.496276
    41  H    5.618355   6.472371   6.804855   7.840768   8.634189
    42  H    6.512225   7.732701   8.113584   9.410203  10.068460
    43  H    5.743267   6.812498   7.541642   8.590196   9.426913
    44  H    4.688662   6.061351   6.699893   8.024732   8.665023
    45  H    3.556586   4.481508   5.088485   6.143993   6.968582
                   31         32         33         34         35
    31  H    0.000000
    32  H    2.997844   0.000000
    33  H    2.600248   2.994953   0.000000
    34  H    3.993474   2.555391   3.008249   0.000000
    35  H    2.544193   3.859824   2.485187   2.976305   0.000000
    36  H    4.179002   5.021011   4.787237   3.741730   2.454630
    37  H    4.704180   4.452895   4.670044   2.597117   2.954224
    38  H   10.172958   8.770243   7.800110   6.937527   8.587049
    39  H    7.499616   5.460301   5.292340   4.755058   6.931296
    40  H    7.990071   6.499644   5.501767   5.521555   7.144417
    41  H    7.355329   5.441700   5.329171   3.765576   6.152580
    42  H    8.323466   7.339426   5.946580   5.417590   6.626757
    43  H    8.073988   6.573438   6.289158   4.282335   6.297042
    44  H    6.839000   6.443971   4.829918   4.204976   4.721067
    45  H    5.670460   4.137964   4.070005   1.836020   4.215885
                   36         37         38         39         40
    36  H    0.000000
    37  H    1.731338   0.000000
    38  H    9.508107   8.250995   0.000000
    39  H    8.336142   7.102132   4.306571   0.000000
    40  H    8.735842   7.658797   3.434720   1.729554   0.000000
    41  H    7.008153   5.571057   3.560567   2.275176   2.919862
    42  H    7.729562   6.673411   2.116833   3.905676   2.914565
    43  H    6.529249   5.037755   3.599807   4.405884   4.607248
    44  H    5.591958   4.772090   4.318968   5.085011   4.536967
    45  H    4.824825   3.398993   5.220340   3.842309   4.445353
                   41         42         43         44         45
    41  H    0.000000
    42  H    2.955154   0.000000
    43  H    2.168677   3.009436   0.000000
    44  H    3.650645   2.371960   3.019404   0.000000
    45  H    2.192431   3.884671   2.480417   3.054823   0.000000
 Stoichiometry    C12H22O11
 Framework group  C1[X(C12H22O11)]
 Deg. of freedom   129
 Full point group                 C1      NOp   1
 Largest Abelian subgroup         C1      NOp   1
 Largest concise Abelian subgroup C1      NOp   1
                         Standard orientation:                         
 ---------------------------------------------------------------------
 Center     Atomic      Atomic             Coordinates (Angstroms)
 Number     Number       Type             X           Y           Z
 ---------------------------------------------------------------------
      1          8           0        4.962160   -0.344087   -0.304872
      2          6           0        3.650554   -0.072422    0.210965
      3          6           0        3.103805    1.218151   -0.377630
      4          8           0        4.078940    2.242937   -0.135968
      5          1           0        4.932743    1.862174   -0.493351
      6          6           0        1.785230    1.531907    0.309802
      7          8           0        1.281862    2.779521   -0.190099
      8          1           0        0.417507    2.979783    0.270386
      9          6           0        3.030201   -2.588864   -0.030468
     10          8           0        4.228528   -3.201136   -0.527849
     11          1           0        4.075766   -4.166974   -0.315463
     12          6           0        2.617503   -1.130049   -0.142128
     13          8           0        1.412169   -0.780554    0.552733
     14          6           0        0.835900    0.395910   -0.033285
     15          8           0       -0.332052    0.597077    0.776006
     16          6           0       -1.478956    0.226225   -0.001431
     17          6           0       -1.948574   -1.107709    0.554838
     18          8           0       -0.915346   -2.083975    0.359397
     19          1           0       -0.148445   -1.696472    0.871484
     20          6           0       -3.215929   -1.570901   -0.146378
     21          8           0       -3.795394   -2.788502    0.341970
     22          1           0       -4.671376   -3.069909   -0.048895
     23          6           0       -2.224656    2.670363   -0.349720
     24          8           0       -1.251881    3.391400    0.421115
     25          1           0       -1.488007    4.344008    0.230915
     26          6           0       -2.580493    1.267338    0.114558
     27          8           0       -3.788735    0.769040   -0.478347
     28          6           0       -4.286127   -0.498407   -0.026131
     29          8           0       -5.427367   -0.718846   -0.868072
     30          1           0       -6.188833   -0.934886   -0.324845
     31          1           0       -4.601589   -0.417705    0.993119
     32          1           0       -2.990831   -1.703222   -1.184030
     33          1           0       -2.142658   -1.004394    1.602004
     34          1           0       -1.197687    0.110640   -1.027310
     35          1           0       -2.784920    1.355541    1.161138
     36          1           0       -3.124867    3.248563   -0.364021
     37          1           0       -1.860498    2.600489   -1.353417
     38          1           0        5.554355   -0.553931    0.420987
     39          1           0        2.229899   -3.139273   -0.479318
     40          1           0        3.025135   -2.799652    1.018552
     41          1           0        2.402798   -0.981526   -1.179790
     42          1           0        3.705423    0.022753    1.275311
     43          1           0        2.948730    1.102346   -1.429980
     44          1           0        1.925828    1.588144    1.369033
     45          1           0        0.627693    0.301248   -1.078555
 ---------------------------------------------------------------------
 Rotational constants (GHZ):      0.4013513      0.1504532      0.1130252
 Standard basis: 6-31+G(d,p) (6D, 7F)
 There are   547 symmetry adapted basis functions of A   symmetry.
 Integral buffers will be    131072 words long.
 Raffenetti 2 integral format.
 Two-electron integral symmetry is turned on.
   547 basis functions,   890 primitive gaussians,   547 cartesian basis functions
    91 alpha electrons       91 beta electrons
       nuclear repulsion energy      2301.3426687855 Hartrees.
 NAtoms=   45 NActive=   45 NUniq=   45 SFac= 1.00D+00 NAtFMM=   50 NAOKFM=F Big=F
 One-electron integrals computed using PRISM.
 NBasis=   547 RedAO= T  NBF=   547
 NBsUse=   547 1.00D-06 NBFU=   547
 Harris functional with IExCor=  402 diagonalized for initial guess.
 ExpMin= 4.38D-02 ExpMax= 5.48D+03 ExpMxC= 8.25D+02 IAcc=2 IRadAn=         0 AccDes= 0.00D+00
 HarFok:  IExCor=  402 AccDes= 0.00D+00 IRadAn=         0 IDoV= 1
 ScaDFX=  1.000000  1.000000  1.000000  1.000000
 FoFCou: FMM=F IPFlag=           0 FMFlag=      100000 FMFlg1=           0
         NFxFlg=           0 DoJE=T BraDBF=F KetDBF=T FulRan=T
         Omega=  0.000000  0.000000  1.000000  0.000000  0.000000 ICntrl=     500 IOpCl=  0
         NMat0=    1 NMatS0=    1 NMatT0=    0 NMatD0=    1 NMtDS0=    0 NMtDT0=    0
         I1Cent=           4 NGrid=           0.
 Petite list used in FoFCou.
 Initial guess orbital symmetries:
       Occupied  (A) (A) (A) (A) (A) (A) (A) (A) (A) (A) (A) (A)
                 (A) (A) (A) (A) (A) (A) (A) (A) (A) (A) (A) (A)
                 (A) (A) (A) (A) (A) (A) (A) (A) (A) (A) (A) (A)
                 (A) (A) (A) (A) (A) (A) (A) (A) (A) (A) (A) (A)
                 (A) (A) (A) (A) (A) (A) (A) (A) (A) (A) (A) (A)
                 (A) (A) (A) (A) (A) (A) (A) (A) (A) (A) (A) (A)
                 (A) (A) (A) (A) (A) (A) (A) (A) (A) (A) (A) (A)
                 (A) (A) (A) (A) (A) (A) (A)
       Virtual   (A) (A) (A) (A) (A) (A) (A) (A) (A) (A) (A) (A)
                 (A) (A) (A) (A) (A) (A) (A) (A) (A) (A) (A) (A)
                 (A) (A) (A) (A) (A) (A) (A) (A) (A) (A) (A) (A)
                 (A) (A) (A) (A) (A) (A) (A) (A) (A) (A) (A) (A)
                 (A) (A) (A) (A) (A) (A) (A) (A) (A) (A) (A) (A)
                 (A) (A) (A) (A) (A) (A) (A) (A) (A) (A) (A) (A)
                 (A) (A) (A) (A) (A) (A) (A) (A) (A) (A) (A) (A)
                 (A) (A) (A) (A) (A) (A) (A) (A) (A) (A) (A) (A)
                 (A) (A) (A) (A) (A) (A) (A) (A) (A) (A) (A) (A)
                 (A) (A) (A) (A) (A) (A) (A) (A) (A) (A) (A) (A)
                 (A) (A) (A) (A) (A) (A) (A) (A) (A) (A) (A) (A)
                 (A) (A) (A) (A) (A) (A) (A) (A) (A) (A) (A) (A)
                 (A) (A) (A) (A) (A) (A) (A) (A) (A) (A) (A) (A)
                 (A) (A) (A) (A) (A) (A) (A) (A) (A) (A) (A) (A)
                 (A) (A) (A) (A) (A) (A) (A) (A) (A) (A) (A) (A)
                 (A) (A) (A) (A) (A) (A) (A) (A) (A) (A) (A) (A)
                 (A) (A) (A) (A) (A) (A) (A) (A) (A) (A) (A) (A)
                 (A) (A) (A) (A) (A) (A) (A) (A) (A) (A) (A) (A)
                 (A) (A) (A) (A) (A) (A) (A) (A) (A) (A) (A) (A)
                 (A) (A) (A) (A) (A) (A) (A) (A) (A) (A) (A) (A)
                 (A) (A) (A) (A) (A) (A) (A) (A) (A) (A) (A) (A)
                 (A) (A) (A) (A) (A) (A) (A) (A) (A) (A) (A) (A)
                 (A) (A) (A) (A) (A) (A) (A) (A) (A) (A) (A) (A)
                 (A) (A) (A) (A) (A) (A) (A) (A) (A) (A) (A) (A)
                 (A) (A) (A) (A) (A) (A) (A) (A) (A) (A) (A) (A)
                 (A) (A) (A) (A) (A) (A) (A) (A) (A) (A) (A) (A)
                 (A) (A) (A) (A) (A) (A) (A) (A) (A) (A) (A) (A)
                 (A) (A) (A) (A) (A) (A) (A) (A) (A) (A) (A) (A)
                 (A) (A) (A) (A) (A) (A) (A) (A) (A) (A) (A) (A)
                 (A) (A) (A) (A) (A) (A) (A) (A) (A) (A) (A) (A)
                 (A) (A) (A) (A) (A) (A) (A) (A) (A) (A) (A) (A)
                 (A) (A) (A) (A) (A) (A) (A) (A) (A) (A) (A) (A)
                 (A) (A) (A) (A) (A) (A) (A) (A) (A) (A) (A) (A)
                 (A) (A) (A) (A) (A) (A) (A) (A) (A) (A) (A) (A)
                 (A) (A) (A) (A) (A) (A) (A) (A) (A) (A) (A) (A)
                 (A) (A) (A) (A) (A) (A) (A) (A) (A) (A) (A) (A)
                 (A) (A) (A) (A) (A) (A) (A) (A) (A) (A) (A) (A)
                 (A) (A) (A) (A) (A) (A) (A) (A) (A) (A) (A) (A)
 The electronic state of the initial guess is 1-A.
 Requested convergence on RMS density matrix=1.00D-08 within 128 cycles.
 Requested convergence on MAX density matrix=1.00D-06.
 Requested convergence on             energy=1.00D-06.
 No special actions if energy rises.
 SCF Done:  E(RB3LYP) =  -1297.92423411     A.U. after   13 cycles
             Convg  =    0.8429D-08             -V/T =  2.0086
 Range of M.O.s used for correlation:     1   547
 NBasis=   547 NAE=    91 NBE=    91 NFC=     0 NFV=     0
 NROrb=    547 NOA=    91 NOB=    91 NVA=   456 NVB=   456

 **** Warning!!: The largest alpha MO coefficient is  0.68996406D+02

          Differentiating once with respect to electric field.
                with respect to dipole field.
          Electric field/nuclear overlap derivatives assumed to be zero.
          There are     3 degrees of freedom in the 1st order CPHF.  IDoFFX=0.
      3 vectors produced by pass  0 Test12= 1.38D-12 3.33D-08 XBig12= 1.18D+02 1.51D+00.
 AX will form     3 AO Fock derivatives at one time.
      3 vectors produced by pass  1 Test12= 1.38D-12 3.33D-08 XBig12= 2.44D+01 4.15D-01.
      3 vectors produced by pass  2 Test12= 1.38D-12 3.33D-08 XBig12= 1.04D+01 2.15D-01.
      3 vectors produced by pass  3 Test12= 1.38D-12 3.33D-08 XBig12= 9.80D-01 9.71D-02.
      3 vectors produced by pass  4 Test12= 1.38D-12 3.33D-08 XBig12= 2.91D-01 4.64D-02.
      3 vectors produced by pass  5 Test12= 1.38D-12 3.33D-08 XBig12= 5.57D-02 1.61D-02.
      3 vectors produced by pass  6 Test12= 1.38D-12 3.33D-08 XBig12= 1.82D-02 1.25D-02.
      3 vectors produced by pass  7 Test12= 1.38D-12 3.33D-08 XBig12= 2.37D-03 5.10D-03.
      3 vectors produced by pass  8 Test12= 1.38D-12 3.33D-08 XBig12= 3.66D-04 1.74D-03.
      3 vectors produced by pass  9 Test12= 1.38D-12 3.33D-08 XBig12= 1.02D-04 1.20D-03.
      3 vectors produced by pass 10 Test12= 1.38D-12 3.33D-08 XBig12= 2.55D-05 3.76D-04.
      3 vectors produced by pass 11 Test12= 1.38D-12 3.33D-08 XBig12= 6.95D-06 3.43D-04.
      3 vectors produced by pass 12 Test12= 1.38D-12 3.33D-08 XBig12= 6.92D-07 1.18D-04.
      3 vectors produced by pass 13 Test12= 1.38D-12 3.33D-08 XBig12= 2.04D-07 4.37D-05.
      3 vectors produced by pass 14 Test12= 1.38D-12 3.33D-08 XBig12= 1.97D-08 1.66D-05.
      3 vectors produced by pass 15 Test12= 1.38D-12 3.33D-08 XBig12= 6.36D-09 8.96D-06.
      3 vectors produced by pass 16 Test12= 1.38D-12 3.33D-08 XBig12= 9.93D-10 4.75D-06.
      3 vectors produced by pass 17 Test12= 1.38D-12 3.33D-08 XBig12= 1.14D-10 1.12D-06.
      3 vectors produced by pass 18 Test12= 1.38D-12 3.33D-08 XBig12= 4.17D-11 4.71D-07.
      3 vectors produced by pass 19 Test12= 1.38D-12 3.33D-08 XBig12= 1.57D-11 2.81D-07.
      3 vectors produced by pass 20 Test12= 1.38D-12 3.33D-08 XBig12= 3.69D-12 1.33D-07.
      2 vectors produced by pass 21 Test12= 1.38D-12 3.33D-08 XBig12= 3.83D-13 4.83D-08.
 Inverted reduced A of dimension    65 with in-core refinement.
 End of Minotr Frequency-dependent properties file   721 does not exist.
 End of Minotr Frequency-dependent properties file   722 does not exist.
 Symmetrizing basis deriv contribution to polar:
 IMax=3 JMax=2 DiffMx= 0.00D+00
 G2DrvN: will do    23 centers at a time, making    2 passes doing MaxLOS=2.
 Calling FoFCou, ICntrl=  3107 FMM=F I1Cent=   0 AccDes= 0.00D+00.
 Calling FoFCou, ICntrl=  3107 FMM=F I1Cent=   0 AccDes= 0.00D+00.
 FoFDir/FoFCou used for L=0 through L=2.
 End of G2Drv Frequency-dependent properties file   721 does not exist.
 End of G2Drv Frequency-dependent properties file   722 does not exist.
          IDoAtm=111111111111111111111111111111111111111111111
          Differentiating once with respect to electric field.
                with respect to dipole field.
          Differentiating once with respect to nuclear coordinates.
          There are   138 degrees of freedom in the 1st order CPHF.  IDoFFX=5.
 Will reuse    3 saved solutions.
    135 vectors produced by pass  0 Test12= 4.15D-14 1.00D-09 XBig12= 2.48D-01 5.96D-02.
 AX will form    68 AO Fock derivatives at one time.
    135 vectors produced by pass  1 Test12= 4.15D-14 1.00D-09 XBig12= 4.89D-02 1.57D-02.
    132 vectors produced by pass  2 Test12= 4.15D-14 1.00D-09 XBig12= 2.54D-04 1.51D-03.
    132 vectors produced by pass  3 Test12= 4.15D-14 1.00D-09 XBig12= 7.27D-07 7.42D-05.
    132 vectors produced by pass  4 Test12= 4.15D-14 1.00D-09 XBig12= 1.32D-09 3.15D-06.
    132 vectors produced by pass  5 Test12= 4.15D-14 1.00D-09 XBig12= 3.37D-12 1.20D-07.
     78 vectors produced by pass  6 Test12= 4.15D-14 1.00D-09 XBig12= 1.22D-13 1.92D-08.
 Inverted reduced A of dimension   876 with in-core refinement.
 Isotropic polarizability for W=    0.000000      186.29 Bohr**3.
 End of Minotr Frequency-dependent properties file   721 does not exist.
 End of Minotr Frequency-dependent properties file   722 does not exist.

 **********************************************************************

            Population analysis using the SCF density.

 **********************************************************************

 Orbital symmetries:
       Occupied  (A) (A) (A) (A) (A) (A) (A) (A) (A) (A) (A) (A)
                 (A) (A) (A) (A) (A) (A) (A) (A) (A) (A) (A) (A)
                 (A) (A) (A) (A) (A) (A) (A) (A) (A) (A) (A) (A)
                 (A) (A) (A) (A) (A) (A) (A) (A) (A) (A) (A) (A)
                 (A) (A) (A) (A) (A) (A) (A) (A) (A) (A) (A) (A)
                 (A) (A) (A) (A) (A) (A) (A) (A) (A) (A) (A) (A)
                 (A) (A) (A) (A) (A) (A) (A) (A) (A) (A) (A) (A)
                 (A) (A) (A) (A) (A) (A) (A)
       Virtual   (A) (A) (A) (A) (A) (A) (A) (A) (A) (A) (A) (A)
                 (A) (A) (A) (A) (A) (A) (A) (A) (A) (A) (A) (A)
                 (A) (A) (A) (A) (A) (A) (A) (A) (A) (A) (A) (A)
                 (A) (A) (A) (A) (A) (A) (A) (A) (A) (A) (A) (A)
                 (A) (A) (A) (A) (A) (A) (A) (A) (A) (A) (A) (A)
                 (A) (A) (A) (A) (A) (A) (A) (A) (A) (A) (A) (A)
                 (A) (A) (A) (A) (A) (A) (A) (A) (A) (A) (A) (A)
                 (A) (A) (A) (A) (A) (A) (A) (A) (A) (A) (A) (A)
                 (A) (A) (A) (A) (A) (A) (A) (A) (A) (A) (A) (A)
                 (A) (A) (A) (A) (A) (A) (A) (A) (A) (A) (A) (A)
                 (A) (A) (A) (A) (A) (A) (A) (A) (A) (A) (A) (A)
                 (A) (A) (A) (A) (A) (A) (A) (A) (A) (A) (A) (A)
                 (A) (A) (A) (A) (A) (A) (A) (A) (A) (A) (A) (A)
                 (A) (A) (A) (A) (A) (A) (A) (A) (A) (A) (A) (A)
                 (A) (A) (A) (A) (A) (A) (A) (A) (A) (A) (A) (A)
                 (A) (A) (A) (A) (A) (A) (A) (A) (A) (A) (A) (A)
                 (A) (A) (A) (A) (A) (A) (A) (A) (A) (A) (A) (A)
                 (A) (A) (A) (A) (A) (A) (A) (A) (A) (A) (A) (A)
                 (A) (A) (A) (A) (A) (A) (A) (A) (A) (A) (A) (A)
                 (A) (A) (A) (A) (A) (A) (A) (A) (A) (A) (A) (A)
                 (A) (A) (A) (A) (A) (A) (A) (A) (A) (A) (A) (A)
                 (A) (A) (A) (A) (A) (A) (A) (A) (A) (A) (A) (A)
                 (A) (A) (A) (A) (A) (A) (A) (A) (A) (A) (A) (A)
                 (A) (A) (A) (A) (A) (A) (A) (A) (A) (A) (A) (A)
                 (A) (A) (A) (A) (A) (A) (A) (A) (A) (A) (A) (A)
                 (A) (A) (A) (A) (A) (A) (A) (A) (A) (A) (A) (A)
                 (A) (A) (A) (A) (A) (A) (A) (A) (A) (A) (A) (A)
                 (A) (A) (A) (A) (A) (A) (A) (A) (A) (A) (A) (A)
                 (A) (A) (A) (A) (A) (A) (A) (A) (A) (A) (A) (A)
                 (A) (A) (A) (A) (A) (A) (A) (A) (A) (A) (A) (A)
                 (A) (A) (A) (A) (A) (A) (A) (A) (A) (A) (A) (A)
                 (A) (A) (A) (A) (A) (A) (A) (A) (A) (A) (A) (A)
                 (A) (A) (A) (A) (A) (A) (A) (A) (A) (A) (A) (A)
                 (A) (A) (A) (A) (A) (A) (A) (A) (A) (A) (A) (A)
                 (A) (A) (A) (A) (A) (A) (A) (A) (A) (A) (A) (A)
                 (A) (A) (A) (A) (A) (A) (A) (A) (A) (A) (A) (A)
                 (A) (A) (A) (A) (A) (A) (A) (A) (A) (A) (A) (A)
                 (A) (A) (A) (A) (A) (A) (A) (A) (A) (A) (A) (A)
 The electronic state is 1-A.
 Alpha  occ. eigenvalues --  -19.20225 -19.19673 -19.19637 -19.19024 -19.18335
 Alpha  occ. eigenvalues --  -19.17579 -19.17262 -19.16796 -19.15100 -19.15079
 Alpha  occ. eigenvalues --  -19.13949 -10.31214 -10.31116 -10.26548 -10.26096
 Alpha  occ. eigenvalues --  -10.26008 -10.25916 -10.25405 -10.25065 -10.24898
 Alpha  occ. eigenvalues --  -10.24506 -10.24227 -10.24045  -1.11084  -1.08982
 Alpha  occ. eigenvalues --   -1.06243  -1.05525  -1.04458  -1.03288  -1.03083
 Alpha  occ. eigenvalues --   -1.02685  -1.01529  -1.01071  -0.99665  -0.82173
 Alpha  occ. eigenvalues --   -0.80538  -0.79703  -0.78316  -0.72149  -0.70261
 Alpha  occ. eigenvalues --   -0.66946  -0.65335  -0.63570  -0.62026  -0.61863
 Alpha  occ. eigenvalues --   -0.60642  -0.56840  -0.55959  -0.55132  -0.54486
 Alpha  occ. eigenvalues --   -0.53769  -0.53397  -0.53015  -0.52161  -0.51685
 Alpha  occ. eigenvalues --   -0.50870  -0.50280  -0.49215  -0.48488  -0.46826
 Alpha  occ. eigenvalues --   -0.46599  -0.45438  -0.44470  -0.43885  -0.43518
 Alpha  occ. eigenvalues --   -0.43071  -0.42601  -0.40765  -0.40322  -0.39365
 Alpha  occ. eigenvalues --   -0.39104  -0.38252  -0.37719  -0.36984  -0.36023
 Alpha  occ. eigenvalues --   -0.35472  -0.34816  -0.34108  -0.33670  -0.33501
 Alpha  occ. eigenvalues --   -0.32996  -0.31628  -0.31313  -0.30288  -0.29740
 Alpha  occ. eigenvalues --   -0.29468  -0.28437  -0.28219  -0.27312  -0.26809
 Alpha  occ. eigenvalues --   -0.26201
 Alpha virt. eigenvalues --   -0.02216  -0.02098  -0.01983  -0.00238   0.00228
 Alpha virt. eigenvalues --    0.00572   0.01897   0.02223   0.03015   0.03397
 Alpha virt. eigenvalues --    0.03795   0.04317   0.04925   0.05195   0.05579
 Alpha virt. eigenvalues --    0.06104   0.06678   0.07412   0.07478   0.07887
 Alpha virt. eigenvalues --    0.08307   0.08865   0.09259   0.09665   0.10100
 Alpha virt. eigenvalues --    0.10430   0.10790   0.11622   0.11881   0.12110
 Alpha virt. eigenvalues --    0.12489   0.12816   0.13100   0.13261   0.13436
 Alpha virt. eigenvalues --    0.13945   0.14331   0.14455   0.14768   0.14903
 Alpha virt. eigenvalues --    0.15730   0.16657   0.17091   0.17111   0.17290
 Alpha virt. eigenvalues --    0.17612   0.17804   0.17930   0.18202   0.18616
 Alpha virt. eigenvalues --    0.18762   0.19039   0.19400   0.20312   0.20524
 Alpha virt. eigenvalues --    0.20878   0.21023   0.21435   0.21495   0.21761
 Alpha virt. eigenvalues --    0.22202   0.22392   0.22769   0.22936   0.23121
 Alpha virt. eigenvalues --    0.23493   0.24045   0.24298   0.24376   0.25053
 Alpha virt. eigenvalues --    0.25394   0.25502   0.25538   0.25682   0.25974
 Alpha virt. eigenvalues --    0.26177   0.26486   0.27074   0.27266   0.27488
 Alpha virt. eigenvalues --    0.27771   0.28164   0.28186   0.28752   0.29220
 Alpha virt. eigenvalues --    0.29455   0.29656   0.30027   0.30165   0.30637
 Alpha virt. eigenvalues --    0.31541   0.31745   0.31887   0.32242   0.32414
 Alpha virt. eigenvalues --    0.32762   0.33201   0.33384   0.33783   0.33925
 Alpha virt. eigenvalues --    0.34576   0.35119   0.35233   0.35443   0.35855
 Alpha virt. eigenvalues --    0.36047   0.36180   0.37044   0.37278   0.37544
 Alpha virt. eigenvalues --    0.38015   0.38158   0.38644   0.39139   0.39664
 Alpha virt. eigenvalues --    0.40257   0.40313   0.40889   0.41436   0.42117
 Alpha virt. eigenvalues --    0.42283   0.42654   0.43173   0.43617   0.43806
 Alpha virt. eigenvalues --    0.44300   0.45320   0.45677   0.46155   0.47316
 Alpha virt. eigenvalues --    0.47970   0.48575   0.49607   0.50447   0.50908
 Alpha virt. eigenvalues --    0.51634   0.52453   0.53549   0.63398   0.64876
 Alpha virt. eigenvalues --    0.66643   0.66913   0.68159   0.68418   0.69606
 Alpha virt. eigenvalues --    0.70695   0.71969   0.72427   0.73869   0.74440
 Alpha virt. eigenvalues --    0.74748   0.76444   0.76722   0.77779   0.78139
 Alpha virt. eigenvalues --    0.79675   0.80356   0.82202   0.82454   0.82665
 Alpha virt. eigenvalues --    0.84141   0.85146   0.87590   0.89180   0.89311
 Alpha virt. eigenvalues --    0.90978   0.92009   0.93035   0.94223   0.95024
 Alpha virt. eigenvalues --    0.96071   0.97247   0.98748   0.99518   1.00453
 Alpha virt. eigenvalues --    1.00917   1.01768   1.02354   1.03696   1.04355
 Alpha virt. eigenvalues --    1.04606   1.05570   1.06608   1.07094   1.07653
 Alpha virt. eigenvalues --    1.08201   1.08554   1.08869   1.09758   1.10003
 Alpha virt. eigenvalues --    1.11642   1.12206   1.12476   1.12688   1.13927
 Alpha virt. eigenvalues --    1.15301   1.16906   1.19468   1.20760   1.21794
 Alpha virt. eigenvalues --    1.22354   1.23168   1.23947   1.24769   1.25065
 Alpha virt. eigenvalues --    1.25614   1.26532   1.27208   1.28552   1.29197
 Alpha virt. eigenvalues --    1.29561   1.30351   1.31100   1.31575   1.32485
 Alpha virt. eigenvalues --    1.32819   1.33359   1.33750   1.34423   1.34961
 Alpha virt. eigenvalues --    1.35385   1.35792   1.36671   1.37393   1.38770
 Alpha virt. eigenvalues --    1.39576   1.40470   1.42113   1.43060   1.43822
 Alpha virt. eigenvalues --    1.44104   1.45874   1.46082   1.46450   1.47976
 Alpha virt. eigenvalues --    1.48075   1.50491   1.50817   1.51784   1.52058
 Alpha virt. eigenvalues --    1.53247   1.55685   1.56111   1.56777   1.58136
 Alpha virt. eigenvalues --    1.58398   1.58997   1.59514   1.60796   1.61748
 Alpha virt. eigenvalues --    1.61995   1.62947   1.64168   1.64548   1.65829
 Alpha virt. eigenvalues --    1.66353   1.67378   1.68272   1.70193   1.70511
 Alpha virt. eigenvalues --    1.71183   1.72100   1.72672   1.73290   1.73432
 Alpha virt. eigenvalues --    1.74039   1.75130   1.75789   1.76466   1.77193
 Alpha virt. eigenvalues --    1.77785   1.78557   1.78799   1.80212   1.81750
 Alpha virt. eigenvalues --    1.82181   1.83338   1.85354   1.86017   1.87467
 Alpha virt. eigenvalues --    1.88173   1.88809   1.88899   1.89940   1.91471
 Alpha virt. eigenvalues --    1.92056   1.92412   1.93513   1.94081   1.94583
 Alpha virt. eigenvalues --    1.95331   1.96547   1.97269   1.98142   1.98809
 Alpha virt. eigenvalues --    1.99673   1.99882   2.00709   2.01653   2.02439
 Alpha virt. eigenvalues --    2.03437   2.04103   2.04665   2.05563   2.06490
 Alpha virt. eigenvalues --    2.08674   2.09384   2.10095   2.11482   2.12039
 Alpha virt. eigenvalues --    2.12680   2.13976   2.15143   2.15547   2.16605
 Alpha virt. eigenvalues --    2.16764   2.19127   2.19490   2.20819   2.21666
 Alpha virt. eigenvalues --    2.22260   2.24177   2.25250   2.26035   2.27534
 Alpha virt. eigenvalues --    2.29609   2.31518   2.32854   2.33483   2.34933
 Alpha virt. eigenvalues --    2.35366   2.36315   2.37039   2.38625   2.41193
 Alpha virt. eigenvalues --    2.42363   2.42741   2.43223   2.43790   2.44920
 Alpha virt. eigenvalues --    2.45479   2.46258   2.46851   2.47994   2.49307
 Alpha virt. eigenvalues --    2.49647   2.50306   2.51591   2.54219   2.55889
 Alpha virt. eigenvalues --    2.56594   2.57845   2.58711   2.59284   2.60177
 Alpha virt. eigenvalues --    2.61174   2.61887   2.63318   2.63724   2.65194
 Alpha virt. eigenvalues --    2.65455   2.66783   2.68733   2.70190   2.70951
 Alpha virt. eigenvalues --    2.71905   2.73020   2.73544   2.74743   2.76043
 Alpha virt. eigenvalues --    2.77666   2.79016   2.80559   2.81427   2.81610
 Alpha virt. eigenvalues --    2.82164   2.82429   2.83888   2.84400   2.85189
 Alpha virt. eigenvalues --    2.85802   2.87333   2.87353   2.88964   2.89739
 Alpha virt. eigenvalues --    2.90263   2.91340   2.92445   2.93539   2.94310
 Alpha virt. eigenvalues --    2.94994   2.96132   2.97733   2.98736   3.00083
 Alpha virt. eigenvalues --    3.00647   3.02488   3.02874   3.05870   3.06929
 Alpha virt. eigenvalues --    3.08711   3.09402   3.09962   3.12872   3.15453
 Alpha virt. eigenvalues --    3.19234   3.19843   3.24335   3.26078   3.30600
 Alpha virt. eigenvalues --    3.32353   3.35947   3.38041   3.39381   3.41982
 Alpha virt. eigenvalues --    3.43124   3.45995   3.46523   3.47158   3.47833
 Alpha virt. eigenvalues --    3.49832   3.50358   3.52302   3.54280   3.54887
 Alpha virt. eigenvalues --    3.56303   3.56592   3.59886   3.61057   3.64404
 Alpha virt. eigenvalues --    3.65362   3.66679   3.66971   4.31471   4.31944
 Alpha virt. eigenvalues --    4.34523   4.37196   4.40219   4.45114   4.45828
 Alpha virt. eigenvalues --    4.46991   4.47719   4.51633   4.55616   4.56645
 Alpha virt. eigenvalues --    4.57586   4.59348   4.62522   4.63578   4.71734
 Alpha virt. eigenvalues --    4.76970   4.84522   4.85349   4.89121   4.95167
 Alpha virt. eigenvalues --    4.97069
          Condensed to atoms (all electrons):
              1          2          3          4          5          6
     1  O    8.291113   0.310694  -0.162264  -0.010970   0.031615   0.020996
     2  C    0.310694   9.338395  -0.656496  -0.047556  -0.117941  -2.913754
     3  C   -0.162264  -0.656496   8.112262   0.287957   0.044803   0.810076
     4  O   -0.010970  -0.047556   0.287957   8.208254   0.198920  -0.151222
     5  H    0.031615  -0.117941   0.044803   0.198920   0.423848   0.036791
     6  C    0.020996  -2.913754   0.810076  -0.151222   0.036791  12.868875
     7  O   -0.000961   0.027655  -0.179643   0.008837  -0.001161   0.367693
     8  H    0.000028  -0.008534   0.028247  -0.000723   0.000014   0.082334
     9  C   -0.083125  -0.473115  -0.080182   0.003303  -0.009813   0.478683
    10  O   -0.023062   0.008950  -0.013904   0.000101  -0.000001  -0.006511
    11  H    0.000872   0.003830   0.001442  -0.000004   0.000000  -0.000413
    12  C   -0.147396  -1.796489  -0.298840   0.015212   0.010687   1.232719
    13  O    0.005623  -0.014679  -0.076216   0.002739  -0.000149  -0.108131
    14  C    0.098164   1.632954  -1.035493  -0.001642   0.027545  -4.464164
    15  O    0.000387  -0.038894   0.007937  -0.000556   0.000056   0.164610
    16  C    0.007733   0.243246  -0.504316  -0.001800   0.002446  -1.265909
    17  C    0.000698   0.007684  -0.066919   0.001115   0.000086  -0.043847
    18  O    0.000019   0.005266   0.001758  -0.000016   0.000000   0.005710
    19  H   -0.000018  -0.001325   0.002181   0.000000   0.000000   0.010203
    20  C    0.000142  -0.005052  -0.001014  -0.000139   0.000005   0.130766
    21  O    0.000000  -0.000076  -0.000064   0.000000   0.000000  -0.000794
    22  H    0.000000   0.000004  -0.000001   0.000000   0.000000  -0.000110
    23  C    0.000169   0.025441  -0.015615   0.000268   0.000004  -0.412686
    24  O    0.000004   0.004625  -0.008727  -0.000328  -0.000005  -0.008065
    25  H    0.000000  -0.000066   0.000699  -0.000002   0.000000  -0.002628
    26  C   -0.000133  -0.000963  -0.090367   0.000891   0.000025  -0.357279
    27  O    0.000000  -0.000177   0.000668   0.000001   0.000000   0.004997
    28  C    0.000000   0.001980  -0.003373   0.000019   0.000000  -0.005055
    29  O    0.000000   0.000006   0.000044   0.000000   0.000000  -0.000642
    30  H    0.000000   0.000000   0.000001   0.000000   0.000000   0.000008
    31  H    0.000000  -0.000002   0.000013   0.000000   0.000000   0.000143
    32  H    0.000000   0.000107   0.000083   0.000000   0.000000   0.000232
    33  H    0.000000   0.000112   0.000605   0.000000   0.000000   0.003745
    34  H   -0.000003  -0.000805   0.002312   0.000012   0.000000   0.017987
    35  H    0.000000   0.000059   0.000780   0.000000   0.000000   0.002038
    36  H    0.000000   0.000015   0.000065   0.000000   0.000000   0.000081
    37  H    0.000000   0.000031   0.000821   0.000007   0.000000   0.000732
    38  H    0.228907   0.074535  -0.013028  -0.000074  -0.002736   0.003623
    39  H   -0.000306   0.004204  -0.017905   0.000055   0.000000   0.000393
    40  H    0.002491  -0.057647   0.010265  -0.000045   0.000001   0.008723
    41  H    0.007828  -0.016344  -0.009916   0.000504   0.000018  -0.083187
    42  H   -0.042723   0.431710  -0.035333   0.000225  -0.000294  -0.062136
    43  H    0.001737   0.063525   0.248631  -0.034221  -0.005593  -0.285115
    44  H   -0.000086   0.089265  -0.182773   0.008552  -0.000134   0.197102
    45  H    0.000152   0.028987  -0.033865  -0.000031  -0.000001  -0.141743
              7          8          9         10         11         12
     1  O   -0.000961   0.000028  -0.083125  -0.023062   0.000872  -0.147396
     2  C    0.027655  -0.008534  -0.473115   0.008950   0.003830  -1.796489
     3  C   -0.179643   0.028247  -0.080182  -0.013904   0.001442  -0.298840
     4  O    0.008837  -0.000723   0.003303   0.000101  -0.000004   0.015212
     5  H   -0.001161   0.000014  -0.009813  -0.000001   0.000000   0.010687
     6  C    0.367693   0.082334   0.478683  -0.006511  -0.000413   1.232719
     7  O    8.198752   0.213576   0.007327   0.000017   0.000000   0.048415
     8  H    0.213576   0.359156   0.000314   0.000000   0.000000  -0.002634
     9  C    0.007327   0.000314   9.036039   0.095544  -0.032379  -1.996867
    10  O    0.000017   0.000000   0.095544   8.301628   0.198431   0.043536
    11  H    0.000000   0.000000  -0.032379   0.198431   0.449871   0.049205
    12  C    0.048415  -0.002634  -1.996867   0.043536   0.049205  11.724593
    13  O    0.011801  -0.000690  -0.014984   0.000332  -0.000498  -0.046582
    14  C   -0.153794  -0.116302  -1.464189   0.013813  -0.005689  -2.129026
    15  O    0.003635   0.020298  -0.009103   0.000075   0.000008   0.039107
    16  C   -0.011078   0.019685  -0.412715  -0.004029   0.000281  -0.548022
    17  C    0.000842   0.003017  -0.027073  -0.000112  -0.000188  -0.259215
    18  O   -0.000043  -0.000017   0.003898  -0.000025   0.000012   0.000988
    19  H   -0.000075  -0.000004  -0.001607   0.000014  -0.000001   0.004110
    20  C    0.004394   0.001644  -0.002634   0.000027  -0.000003  -0.085782
    21  O   -0.000005   0.000000   0.000435   0.000000   0.000000  -0.000209
    22  H    0.000000   0.000000  -0.000011   0.000000   0.000000   0.000125
    23  C    0.031215   0.021106  -0.008457  -0.000037  -0.000001  -0.079759
    24  O   -0.028645  -0.017331   0.000370   0.000000   0.000000   0.010150
    25  H    0.000942  -0.000630  -0.000020   0.000000   0.000000  -0.000709
    26  C   -0.023756  -0.030504   0.000568  -0.000072   0.000006   0.183369
    27  O    0.000149   0.000028  -0.000048   0.000000   0.000000   0.000330
    28  C   -0.000121  -0.000283  -0.004902  -0.000002   0.000000   0.007714
    29  O   -0.000004   0.000000  -0.000011   0.000000   0.000000   0.000288
    30  H    0.000000   0.000000   0.000000   0.000000   0.000000  -0.000002
    31  H    0.000001   0.000000   0.000006   0.000000   0.000000   0.000072
    32  H    0.000004   0.000000  -0.000186   0.000000   0.000000   0.000828
    33  H    0.000004   0.000003   0.000427   0.000000   0.000000   0.004053
    34  H   -0.000268   0.000078   0.000188   0.000003   0.000000   0.013937
    35  H    0.000152   0.000012   0.000119   0.000000   0.000000   0.001778
    36  H   -0.000493   0.000263  -0.000010   0.000000   0.000000  -0.000235
    37  H    0.002531   0.000897   0.000019   0.000000   0.000000   0.000669
    38  H    0.000006   0.000000   0.016618   0.002062  -0.000018  -0.053442
    39  H   -0.000002   0.000000   0.525582  -0.056266  -0.008881  -0.126923
    40  H   -0.000005   0.000000   0.573978  -0.065557  -0.006881  -0.194185
    41  H   -0.000031   0.000008  -0.058138   0.002093  -0.000141   0.205619
    42  H    0.000186  -0.000001  -0.053932  -0.001209   0.000000  -0.118198
    43  H    0.011396  -0.000085   0.021061  -0.000175   0.000000  -0.022938
    44  H   -0.031371  -0.007886   0.013107   0.000009   0.000000   0.010745
    45  H    0.005956  -0.000437  -0.000388   0.000023   0.000000  -0.010933
             13         14         15         16         17         18
     1  O    0.005623   0.098164   0.000387   0.007733   0.000698   0.000019
     2  C   -0.014679   1.632954  -0.038894   0.243246   0.007684   0.005266
     3  C   -0.076216  -1.035493   0.007937  -0.504316  -0.066919   0.001758
     4  O    0.002739  -0.001642  -0.000556  -0.001800   0.001115  -0.000016
     5  H   -0.000149   0.027545   0.000056   0.002446   0.000086   0.000000
     6  C   -0.108131  -4.464164   0.164610  -1.265909  -0.043847   0.005710
     7  O    0.011801  -0.153794   0.003635  -0.011078   0.000842  -0.000043
     8  H   -0.000690  -0.116302   0.020298   0.019685   0.003017  -0.000017
     9  C   -0.014984  -1.464189  -0.009103  -0.412715  -0.027073   0.003898
    10  O    0.000332   0.013813   0.000075  -0.004029  -0.000112  -0.000025
    11  H   -0.000498  -0.005689   0.000008   0.000281  -0.000188   0.000012
    12  C   -0.046582  -2.129026   0.039107  -0.548022  -0.259215   0.000988
    13  O    8.415715   0.308952  -0.006329   0.060769  -0.060548   0.014367
    14  C    0.308952  15.761310   0.031137  -1.252878  -0.557078  -0.091804
    15  O   -0.006329   0.031137   8.277363   0.021019  -0.076639   0.001231
    16  C    0.060769  -1.252878   0.021019  17.252587  -3.066778  -0.178078
    17  C   -0.060548  -0.557078  -0.076639  -3.066778   8.914856   0.418534
    18  O    0.014367  -0.091804   0.001231  -0.178078   0.418534   8.128221
    19  H    0.003101  -0.003581   0.025319  -0.101378   0.067634   0.197481
    20  C   -0.013066  -0.383169   0.042702  -1.522729   0.218328  -0.085793
    21  O   -0.000121   0.004423  -0.000275  -0.004621  -0.135090   0.010614
    22  H    0.000003  -0.001843   0.000007  -0.013357   0.021255  -0.000710
    23  C    0.017681  -0.506282   0.012933   0.155078  -0.248785   0.002707
    24  O   -0.000839   0.145410  -0.013741  -0.031504  -0.010594   0.000155
    25  H    0.000011  -0.013458   0.001383  -0.010051  -0.000174   0.000001
    26  C   -0.011141  -1.099576  -0.046187  -4.821645   1.223899   0.076034
    27  O    0.000270   0.004612   0.006956  -0.072202  -0.057287   0.001230
    28  C    0.003306  -0.012828   0.004062   1.099211  -0.338554  -0.002077
    29  O    0.000025  -0.001735   0.000027  -0.026536   0.001422  -0.000453
    30  H    0.000000   0.000314   0.000001  -0.002623   0.010163  -0.000035
    31  H    0.000001   0.010787  -0.000048   0.154422  -0.015163  -0.000570
    32  H    0.000387   0.011424  -0.001371   0.158175  -0.201119   0.004488
    33  H    0.002523   0.070295  -0.008030   0.031431   0.329231  -0.041215
    34  H    0.001559   0.043342  -0.070245   0.283020   0.020219  -0.003708
    35  H   -0.000106   0.090259   0.003854   0.039068  -0.021675  -0.000385
    36  H   -0.000004  -0.004633  -0.000100   0.029376  -0.002048   0.000027
    37  H    0.000136   0.003415   0.002321  -0.015594   0.001969  -0.000001
    38  H   -0.000716  -0.008115  -0.000005   0.000240  -0.000090   0.000001
    39  H    0.003400  -0.009463  -0.000082   0.007178   0.000267  -0.001099
    40  H    0.002593   0.013359  -0.000102  -0.005661   0.001397   0.000200
    41  H   -0.053528   0.204421   0.000523   0.013289   0.005947   0.000342
    42  H    0.007590   0.124351  -0.000447  -0.001541   0.001406   0.000072
    43  H    0.010432   0.187494  -0.000829   0.011765   0.002628   0.000112
    44  H    0.013628   0.089747  -0.006980   0.028942   0.007842   0.000095
    45  H   -0.051691   0.353752  -0.056124   0.042049   0.047483  -0.000825
             19         20         21         22         23         24
     1  O   -0.000018   0.000142   0.000000   0.000000   0.000169   0.000004
     2  C   -0.001325  -0.005052  -0.000076   0.000004   0.025441   0.004625
     3  C    0.002181  -0.001014  -0.000064  -0.000001  -0.015615  -0.008727
     4  O    0.000000  -0.000139   0.000000   0.000000   0.000268  -0.000328
     5  H    0.000000   0.000005   0.000000   0.000000   0.000004  -0.000005
     6  C    0.010203   0.130766  -0.000794  -0.000110  -0.412686  -0.008065
     7  O   -0.000075   0.004394  -0.000005   0.000000   0.031215  -0.028645
     8  H   -0.000004   0.001644   0.000000   0.000000   0.021106  -0.017331
     9  C   -0.001607  -0.002634   0.000435  -0.000011  -0.008457   0.000370
    10  O    0.000014   0.000027   0.000000   0.000000  -0.000037   0.000000
    11  H   -0.000001  -0.000003   0.000000   0.000000  -0.000001   0.000000
    12  C    0.004110  -0.085782  -0.000209   0.000125  -0.079759   0.010150
    13  O    0.003101  -0.013066  -0.000121   0.000003   0.017681  -0.000839
    14  C   -0.003581  -0.383169   0.004423  -0.001843  -0.506282   0.145410
    15  O    0.025319   0.042702  -0.000275   0.000007   0.012933  -0.013741
    16  C   -0.101378  -1.522729  -0.004621  -0.013357   0.155078  -0.031504
    17  C    0.067634   0.218328  -0.135090   0.021255  -0.248785  -0.010594
    18  O    0.197481  -0.085793   0.010614  -0.000710   0.002707   0.000155
    19  H    0.387815   0.027419  -0.000658   0.000013  -0.004746   0.000013
    20  C    0.027419   8.540741   0.209774  -0.006774   0.107396  -0.007645
    21  O   -0.000658   0.209774   8.264932   0.208839   0.004939   0.000031
    22  H    0.000013  -0.006774   0.208839   0.421609   0.000232   0.000000
    23  C   -0.004746   0.107396   0.004939   0.000232   7.187451  -0.194067
    24  O    0.000013  -0.007645   0.000031   0.000000  -0.194067   8.498571
    25  H    0.000000   0.000899   0.000000   0.000000   0.065750   0.196363
    26  C    0.003849   0.194482   0.023843   0.013168  -0.848789   0.133846
    27  O    0.000039  -0.189650   0.011036   0.000419  -0.065713   0.004551
    28  C   -0.003201  -1.141626  -0.029805  -0.010143  -0.187362   0.010626
    29  O    0.000020  -0.119242   0.003217   0.017783  -0.010297   0.000084
    30  H    0.000000  -0.017067  -0.001902  -0.001951   0.000438   0.000000
    31  H    0.000010  -0.184922   0.005750  -0.000875  -0.007026  -0.000001
    32  H   -0.000043   0.329477  -0.044418  -0.004607   0.011815  -0.000002
    33  H   -0.008659  -0.097931   0.001667  -0.000107   0.011391   0.000017
    34  H   -0.000152   0.004898  -0.000491   0.000005  -0.006862   0.000091
    35  H    0.000048  -0.048239   0.000240   0.000003  -0.036520   0.004814
    36  H    0.000000   0.002074  -0.000008   0.000000   0.450794  -0.041561
    37  H    0.000001  -0.002278   0.000000   0.000000   0.498237  -0.072658
    38  H    0.000000   0.000001   0.000000   0.000000   0.000006   0.000000
    39  H    0.000403  -0.000964  -0.000001   0.000000   0.000008   0.000000
    40  H   -0.000084   0.000361   0.000000   0.000000   0.000007   0.000000
    41  H    0.000287   0.001401   0.000001   0.000000   0.001106   0.000010
    42  H   -0.000007   0.000055   0.000000   0.000000   0.000141   0.000010
    43  H   -0.000005   0.000051   0.000000   0.000000   0.001589   0.000162
    44  H   -0.000023   0.000623   0.000000   0.000000   0.006591   0.001323
    45  H    0.000695   0.011532   0.000014   0.000000   0.015206   0.000819
             25         26         27         28         29         30
     1  O    0.000000  -0.000133   0.000000   0.000000   0.000000   0.000000
     2  C   -0.000066  -0.000963  -0.000177   0.001980   0.000006   0.000000
     3  C    0.000699  -0.090367   0.000668  -0.003373   0.000044   0.000001
     4  O   -0.000002   0.000891   0.000001   0.000019   0.000000   0.000000
     5  H    0.000000   0.000025   0.000000   0.000000   0.000000   0.000000
     6  C   -0.002628  -0.357279   0.004997  -0.005055  -0.000642   0.000008
     7  O    0.000942  -0.023756   0.000149  -0.000121  -0.000004   0.000000
     8  H   -0.000630  -0.030504   0.000028  -0.000283   0.000000   0.000000
     9  C   -0.000020   0.000568  -0.000048  -0.004902  -0.000011   0.000000
    10  O    0.000000  -0.000072   0.000000  -0.000002   0.000000   0.000000
    11  H    0.000000   0.000006   0.000000   0.000000   0.000000   0.000000
    12  C   -0.000709   0.183369   0.000330   0.007714   0.000288  -0.000002
    13  O    0.000011  -0.011141   0.000270   0.003306   0.000025   0.000000
    14  C   -0.013458  -1.099576   0.004612  -0.012828  -0.001735   0.000314
    15  O    0.001383  -0.046187   0.006956   0.004062   0.000027   0.000001
    16  C   -0.010051  -4.821645  -0.072202   1.099211  -0.026536  -0.002623
    17  C   -0.000174   1.223899  -0.057287  -0.338554   0.001422   0.010163
    18  O    0.000001   0.076034   0.001230  -0.002077  -0.000453  -0.000035
    19  H    0.000000   0.003849   0.000039  -0.003201   0.000020   0.000000
    20  C    0.000899   0.194482  -0.189650  -1.141626  -0.119242  -0.017067
    21  O    0.000000   0.023843   0.011036  -0.029805   0.003217  -0.001902
    22  H    0.000000   0.013168   0.000419  -0.010143   0.017783  -0.001951
    23  C    0.065750  -0.848789  -0.065713  -0.187362  -0.010297   0.000438
    24  O    0.196363   0.133846   0.004551   0.010626   0.000084   0.000000
    25  H    0.414206  -0.014170  -0.000624  -0.002574   0.000002   0.000000
    26  C   -0.014170  12.379615   0.328814  -0.851544  -0.019316   0.005668
    27  O   -0.000624   0.328814   8.399405   0.101020  -0.066490   0.001051
    28  C   -0.002574  -0.851544   0.101020   6.224838   0.382462   0.011144
    29  O    0.000002  -0.019316  -0.066490   0.382462   8.223262   0.230841
    30  H    0.000000   0.005668   0.001051   0.011144   0.230841   0.409766
    31  H    0.000000  -0.103835  -0.060249   0.486941  -0.059444  -0.007089
    32  H    0.000000  -0.046790   0.005789   0.018744  -0.004269   0.000093
    33  H    0.000000  -0.070632   0.003292   0.001396  -0.000288   0.000000
    34  H    0.000000  -0.085590   0.005283   0.003122  -0.000499   0.000001
    35  H   -0.000224   0.201771  -0.047833   0.040088  -0.001273   0.000024
    36  H   -0.011785  -0.091715  -0.003240   0.001177  -0.000313  -0.000001
    37  H   -0.001733  -0.146601   0.006922   0.006055  -0.000055   0.000000
    38  H    0.000000  -0.000013   0.000000   0.000000   0.000000   0.000000
    39  H    0.000000   0.000434   0.000000   0.000070   0.000000   0.000000
    40  H    0.000000  -0.000149   0.000000  -0.000035   0.000000   0.000000
    41  H    0.000000  -0.002211  -0.000002  -0.000151   0.000000   0.000000
    42  H    0.000000  -0.000275   0.000000  -0.000009   0.000000   0.000000
    43  H    0.000000   0.000514   0.000000  -0.000033   0.000000   0.000000
    44  H   -0.000004  -0.001623  -0.000004  -0.000114   0.000000   0.000000
    45  H    0.000009   0.013892   0.000016  -0.002439  -0.000001   0.000000
             31         32         33         34         35         36
     1  O    0.000000   0.000000   0.000000  -0.000003   0.000000   0.000000
     2  C   -0.000002   0.000107   0.000112  -0.000805   0.000059   0.000015
     3  C    0.000013   0.000083   0.000605   0.002312   0.000780   0.000065
     4  O    0.000000   0.000000   0.000000   0.000012   0.000000   0.000000
     5  H    0.000000   0.000000   0.000000   0.000000   0.000000   0.000000
     6  C    0.000143   0.000232   0.003745   0.017987   0.002038   0.000081
     7  O    0.000001   0.000004   0.000004  -0.000268   0.000152  -0.000493
     8  H    0.000000   0.000000   0.000003   0.000078   0.000012   0.000263
     9  C    0.000006  -0.000186   0.000427   0.000188   0.000119  -0.000010
    10  O    0.000000   0.000000   0.000000   0.000003   0.000000   0.000000
    11  H    0.000000   0.000000   0.000000   0.000000   0.000000   0.000000
    12  C    0.000072   0.000828   0.004053   0.013937   0.001778  -0.000235
    13  O    0.000001   0.000387   0.002523   0.001559  -0.000106  -0.000004
    14  C    0.010787   0.011424   0.070295   0.043342   0.090259  -0.004633
    15  O   -0.000048  -0.001371  -0.008030  -0.070245   0.003854  -0.000100
    16  C    0.154422   0.158175   0.031431   0.283020   0.039068   0.029376
    17  C   -0.015163  -0.201119   0.329231   0.020219  -0.021675  -0.002048
    18  O   -0.000570   0.004488  -0.041215  -0.003708  -0.000385   0.000027
    19  H    0.000010  -0.000043  -0.008659  -0.000152   0.000048   0.000000
    20  C   -0.184922   0.329477  -0.097931   0.004898  -0.048239   0.002074
    21  O    0.005750  -0.044418   0.001667  -0.000491   0.000240  -0.000008
    22  H   -0.000875  -0.004607  -0.000107   0.000005   0.000003   0.000000
    23  C   -0.007026   0.011815   0.011391  -0.006862  -0.036520   0.450794
    24  O   -0.000001  -0.000002   0.000017   0.000091   0.004814  -0.041561
    25  H    0.000000   0.000000   0.000000   0.000000  -0.000224  -0.011785
    26  C   -0.103835  -0.046790  -0.070632  -0.085590   0.201771  -0.091715
    27  O   -0.060249   0.005789   0.003292   0.005283  -0.047833  -0.003240
    28  C    0.486941   0.018744   0.001396   0.003122   0.040088   0.001177
    29  O   -0.059444  -0.004269  -0.000288  -0.000499  -0.001273  -0.000313
    30  H   -0.007089   0.000093   0.000000   0.000001   0.000024  -0.000001
    31  H    0.640620   0.005684   0.003084   0.000035   0.006446  -0.000042
    32  H    0.005684   0.601797   0.006417   0.002810   0.000071   0.000001
    33  H    0.003084   0.006417   0.605926   0.005682   0.003016   0.000004
    34  H    0.000035   0.002810   0.005682   0.623639   0.006909  -0.000008
    35  H    0.006446   0.000071   0.003016   0.006909   0.621530  -0.006612
    36  H   -0.000042   0.000001   0.000004  -0.000008  -0.006612   0.581000
    37  H    0.000002   0.000000   0.000005   0.004487   0.006906  -0.044083
    38  H    0.000000   0.000000   0.000000   0.000000   0.000000   0.000000
    39  H    0.000000   0.000000   0.000000   0.000000   0.000000   0.000000
    40  H    0.000000   0.000000   0.000000   0.000000   0.000000   0.000000
    41  H    0.000000   0.000000  -0.000001  -0.000094   0.000000   0.000000
    42  H    0.000000   0.000000   0.000000   0.000000   0.000000   0.000000
    43  H    0.000000   0.000000   0.000000  -0.000021   0.000000   0.000000
    44  H    0.000000   0.000000  -0.000007  -0.000032  -0.000007   0.000001
    45  H    0.000000  -0.000058  -0.000084   0.013116  -0.000022   0.000004
             37         38         39         40         41         42
     1  O    0.000000   0.228907  -0.000306   0.002491   0.007828  -0.042723
     2  C    0.000031   0.074535   0.004204  -0.057647  -0.016344   0.431710
     3  C    0.000821  -0.013028  -0.017905   0.010265  -0.009916  -0.035333
     4  O    0.000007  -0.000074   0.000055  -0.000045   0.000504   0.000225
     5  H    0.000000  -0.002736   0.000000   0.000001   0.000018  -0.000294
     6  C    0.000732   0.003623   0.000393   0.008723  -0.083187  -0.062136
     7  O    0.002531   0.000006  -0.000002  -0.000005  -0.000031   0.000186
     8  H    0.000897   0.000000   0.000000   0.000000   0.000008  -0.000001
     9  C    0.000019   0.016618   0.525582   0.573978  -0.058138  -0.053932
    10  O    0.000000   0.002062  -0.056266  -0.065557   0.002093  -0.001209
    11  H    0.000000  -0.000018  -0.008881  -0.006881  -0.000141   0.000000
    12  C    0.000669  -0.053442  -0.126923  -0.194185   0.205619  -0.118198
    13  O    0.000136  -0.000716   0.003400   0.002593  -0.053528   0.007590
    14  C    0.003415  -0.008115  -0.009463   0.013359   0.204421   0.124351
    15  O    0.002321  -0.000005  -0.000082  -0.000102   0.000523  -0.000447
    16  C   -0.015594   0.000240   0.007178  -0.005661   0.013289  -0.001541
    17  C    0.001969  -0.000090   0.000267   0.001397   0.005947   0.001406
    18  O   -0.000001   0.000001  -0.001099   0.000200   0.000342   0.000072
    19  H    0.000001   0.000000   0.000403  -0.000084   0.000287  -0.000007
    20  C   -0.002278   0.000001  -0.000964   0.000361   0.001401   0.000055
    21  O    0.000000   0.000000  -0.000001   0.000000   0.000001   0.000000
    22  H    0.000000   0.000000   0.000000   0.000000   0.000000   0.000000
    23  C    0.498237   0.000006   0.000008   0.000007   0.001106   0.000141
    24  O   -0.072658   0.000000   0.000000   0.000000   0.000010   0.000010
    25  H   -0.001733   0.000000   0.000000   0.000000   0.000000   0.000000
    26  C   -0.146601  -0.000013   0.000434  -0.000149  -0.002211  -0.000275
    27  O    0.006922   0.000000   0.000000   0.000000  -0.000002   0.000000
    28  C    0.006055   0.000000   0.000070  -0.000035  -0.000151  -0.000009
    29  O   -0.000055   0.000000   0.000000   0.000000   0.000000   0.000000
    30  H    0.000000   0.000000   0.000000   0.000000   0.000000   0.000000
    31  H    0.000002   0.000000   0.000000   0.000000   0.000000   0.000000
    32  H    0.000000   0.000000   0.000000   0.000000   0.000000   0.000000
    33  H    0.000005   0.000000   0.000000   0.000000  -0.000001   0.000000
    34  H    0.004487   0.000000   0.000000   0.000000  -0.000094   0.000000
    35  H    0.006906   0.000000   0.000000   0.000000   0.000000   0.000000
    36  H   -0.044083   0.000000   0.000000   0.000000   0.000000   0.000000
    37  H    0.597044   0.000000   0.000000   0.000000   0.000000   0.000000
    38  H    0.000000   0.396168  -0.000009  -0.000112  -0.000179  -0.011235
    39  H    0.000000  -0.000009   0.603610  -0.052957  -0.014520  -0.000145
    40  H    0.000000  -0.000112  -0.052957   0.630207   0.008656   0.002597
    41  H    0.000000  -0.000179  -0.014520   0.008656   0.649440   0.006959
    42  H    0.000000  -0.011235  -0.000145   0.002597   0.006959   0.607638
    43  H   -0.000001  -0.000188   0.000007  -0.000006   0.005476   0.005708
    44  H   -0.000008   0.000007   0.000002  -0.000011   0.000108   0.003131
    45  H   -0.000039   0.000003   0.000020  -0.000007   0.007460  -0.000060
             43         44         45
     1  O    0.001737  -0.000086   0.000152
     2  C    0.063525   0.089265   0.028987
     3  C    0.248631  -0.182773  -0.033865
     4  O   -0.034221   0.008552  -0.000031
     5  H   -0.005593  -0.000134  -0.000001
     6  C   -0.285115   0.197102  -0.141743
     7  O    0.011396  -0.031371   0.005956
     8  H   -0.000085  -0.007886  -0.000437
     9  C    0.021061   0.013107  -0.000388
    10  O   -0.000175   0.000009   0.000023
    11  H    0.000000   0.000000   0.000000
    12  C   -0.022938   0.010745  -0.010933
    13  O    0.010432   0.013628  -0.051691
    14  C    0.187494   0.089747   0.353752
    15  O   -0.000829  -0.006980  -0.056124
    16  C    0.011765   0.028942   0.042049
    17  C    0.002628   0.007842   0.047483
    18  O    0.000112   0.000095  -0.000825
    19  H   -0.000005  -0.000023   0.000695
    20  C    0.000051   0.000623   0.011532
    21  O    0.000000   0.000000   0.000014
    22  H    0.000000   0.000000   0.000000
    23  C    0.001589   0.006591   0.015206
    24  O    0.000162   0.001323   0.000819
    25  H    0.000000  -0.000004   0.000009
    26  C    0.000514  -0.001623   0.013892
    27  O    0.000000  -0.000004   0.000016
    28  C   -0.000033  -0.000114  -0.002439
    29  O    0.000000   0.000000  -0.000001
    30  H    0.000000   0.000000   0.000000
    31  H    0.000000   0.000000   0.000000
    32  H    0.000000   0.000000  -0.000058
    33  H    0.000000  -0.000007  -0.000084
    34  H   -0.000021  -0.000032   0.013116
    35  H    0.000000  -0.000007  -0.000022
    36  H    0.000000   0.000001   0.000004
    37  H   -0.000001  -0.000008  -0.000039
    38  H   -0.000188   0.000007   0.000003
    39  H    0.000007   0.000002   0.000020
    40  H   -0.000006  -0.000011  -0.000007
    41  H    0.005476   0.000108   0.007460
    42  H    0.005708   0.003131  -0.000060
    43  H    0.633214   0.006514   0.003203
    44  H    0.006514   0.603836   0.004581
    45  H    0.003203   0.004581   0.619250
 Mulliken atomic charges:
              1
     1  O   -0.538324
     2  C   -0.153363
     3  C   -0.075397
     4  O   -0.487643
     5  H    0.360964
     6  C   -0.135872
     7  O   -0.514030
     8  H    0.435354
     9  C   -0.043699
    10  O   -0.495694
    11  H    0.351137
    12  C    0.310134
    13  O   -0.426925
    14  C    0.085463
    15  O   -0.330862
    16  C    0.214036
    17  C   -0.118943
    18  O   -0.466709
    19  H    0.394913
    20  C    0.086527
    21  O   -0.531218
    22  H    0.357026
    23  C    0.003304
    24  O   -0.576329
    25  H    0.378588
    26  C   -0.019816
    27  O   -0.323360
    28  C    0.192256
    29  O   -0.548615
    30  H    0.361160
    31  H    0.125249
    32  H    0.144440
    33  H    0.142624
    34  H    0.116043
    35  H    0.132909
    36  H    0.142007
    37  H    0.149845
    38  H    0.367784
    39  H    0.143889
    40  H    0.128608
    41  H    0.116946
    42  H    0.135766
    43  H    0.133992
    44  H    0.145311
    45  H    0.130525
 Sum of Mulliken atomic charges =   0.00000
 Mulliken charges with hydrogens summed into heavy atoms:
              1
     1  O   -0.170541
     2  C   -0.017597
     3  C    0.058595
     4  O   -0.126678
     6  C    0.009439
     7  O   -0.078676
     9  C    0.228798
    10  O   -0.144557
    12  C    0.427080
    13  O   -0.426925
    14  C    0.215988
    15  O   -0.330862
    16  C    0.330079
    17  C    0.023681
    18  O   -0.071796
    20  C    0.230966
    21  O   -0.174192
    23  C    0.295156
    24  O   -0.197741
    26  C    0.113092
    27  O   -0.323360
    28  C    0.317506
    29  O   -0.187455
 Sum of Mulliken charges with hydrogens summed into heavy atoms =   0.00000
 APT atomic charges:
              1
     1  O   -0.648449
     2  C    0.406311
     3  C    0.406335
     4  O   -0.640061
     5  H    0.274722
     6  C    0.398244
     7  O   -0.732683
     8  H    0.454554
     9  C    0.446651
    10  O   -0.586032
    11  H    0.249905
    12  C    0.443192
    13  O   -0.838075
    14  C    0.869106
    15  O   -0.827477
    16  C    0.399235
    17  C    0.394908
    18  O   -0.687410
    19  H    0.385778
    20  C    0.388532
    21  O   -0.659979
    22  H    0.269211
    23  C    0.430856
    24  O   -0.641800
    25  H    0.257215
    26  C    0.459323
    27  O   -0.813562
    28  C    0.943924
    29  O   -0.669408
    30  H    0.264849
    31  H   -0.085974
    32  H   -0.038276
    33  H   -0.047538
    34  H   -0.026227
    35  H   -0.061792
    36  H   -0.033762
    37  H   -0.035829
    38  H    0.266167
    39  H   -0.053515
    40  H   -0.064741
    41  H   -0.054821
    42  H   -0.042737
    43  H   -0.054546
    44  H   -0.032145
    45  H   -0.032181
 Sum of APT charges=   0.00000
 APT Atomic charges with hydrogens summed into heavy atoms:
              1
     1  O   -0.382283
     2  C    0.363574
     3  C    0.351789
     4  O   -0.365339
[...]
 ,0.00000281,0.00001926,-0.00000906,-0.00002117,-0.00001784,0.00000999,
 0.00001982,-0.00000972,-0.00000573,0.00000221,0.00000858,0.00000357,0.
 00000056,-0.00000283,-0.00000153,-0.00000227,-0.00002545,-0.00001700,0
 .00001254,0.00001805,0.00001374,-0.00001237,-0.00000671,-0.00000078,0.
 00000340,-0.00000925,-0.00000791,0.00000843,0.00000989,0.00000727,-0.0
 0000490,-0.00000863,-0.00000155,0.00000419,0.00000665,0.00000186,-0.00
 000648,-0.00000124,-0.00000051,0.00000032,0.00000303,0.00000112,0.0000
 0132,0.00000433,0.00000151,-0.00000247,0.00000491,0.00000081,0.0000068
 5,0.00000645,0.00000218,-0.00001122,0.00000674,0.00000052,0.00000375,0
 .00000159,0.00000050,-0.00000236,0.00000731,0.00000242,-0.00000031,0.0
 0125368,0.00026109,-0.00067529,0.00006178,-0.00011304,-0.00001928,0.00
 014417,-0.00057985,-0.00000653,0.00047219,-0.00057529,0.00026971,0.371
 51762,-0.00909967,-0.00042305,-0.00492570,-0.04890735,-0.05331709,0.00
 911757,0.02972784,0.00325224,-0.00595037,-0.00204605,0.00252043,-0.000
 45954,0.00038020,-0.00009282,0.00009981,0.00144273,0.00101207,0.000303
 64,-0.00041241,-0.00017012,0.00016526,-0.00007617,0.00003922,0.0000326
 4,-0.00060259,0.00159816,-0.00050872,0.00025094,-0.00006398,-0.0000273
 0,-0.00005586,-0.00003525,0.00000406,-0.02858340,-0.00399388,0.0070347
 3,0.00133260,0.00129314,-0.00313338,0.00016398,-0.00023154,-0.00008245
 ,0.00003751,0.00007606,0.00000016,-0.00003674,0.00001908,-0.00001926,0
 .00000419,0.00001304,-0.00000606,0.00003446,0.00001141,-0.00005885,-0.
 00002048,-0.00001034,0.00007298,-0.00000924,-0.00000219,-0.00000485,0.
 00000768,-0.00000047,0.00000346,-0.00000233,-0.00000026,-0.00000211,0.
 00000839,0.00000346,-0.00000103,-0.00000272,-0.00000753,-0.00000247,0.
 00000206,0.00000224,-0.00000386,0.00000351,-0.00000223,0.00000140,0.00
 000085,-0.00000183,0.00000113,-0.00000246,0.00000315,-0.00000068,0.000
 00146,-0.00000087,-0.00000180,-0.00000039,0.00000011,0.00000009,0.0000
 0088,0.00000070,0.00000091,0.00000301,-0.00000051,-0.00000132,0.000003
 20,0.00000389,0.00000388,0.00000320,-0.00000879,0.00000402,-0.00000013
 ,0.00000213,0.00000097,-0.00000152,-0.00000014,-0.00000045,-0.00000299
 ,-0.00000201,0.00000208,-0.00092797,0.00118088,-0.00001318,0.00046017,
 0.00001893,-0.00008905,0.00072055,-0.00039293,-0.00008021,-0.00058105,
 -0.00289480,0.00360040,0.05531229,0.05538032,-0.04025799,-0.01042766,-
 0.01442296,0.04727688,0.00744610,-0.04705738,0.01183961,0.00245979,-0.
 00207713,-0.00145256,0.00044251,0.00076466,-0.00012455,-0.00052415,-0.
 00016897,0.00178632,-0.00033973,-0.00013744,-0.00040364,0.00001384,-0.
 00009820,0.00005575,0.00002100,-0.00001666,-0.00017933,-0.00070360,-0.
 00002593,-0.00005379,0.00004734,0.00023087,0.00004118,-0.00006144,0.00
 007663,0.02233780,0.00397320,-0.00438134,-0.00011039,-0.00005007,0.002
 51017,0.00058068,-0.00027378,-0.00043931,-0.00011211,0.00000325,-0.000
 11289,0.00001010,-0.00002866,-0.00000814,0.00001014,0.00000883,0.00002
 373,-0.00005554,-0.00001708,-0.00000950,0.00006583,0.00001898,-0.00003
 947,0.00001225,-0.00000670,0.00000846,-0.00001285,0.00000702,-0.000013
 22,0.00000428,-0.00000040,0.00000323,0.00001729,0.00001129,-0.00000382
 ,-0.00001839,-0.00001515,-0.00000976,0.00000442,0.00000331,-0.00000035
 ,0.00000191,0.00000820,0.00000721,-0.00000825,0.00000164,-0.00001446,0
 .00000614,-0.00000329,0.00001876,0.00000080,-0.00000057,-0.00001258,0.
 00000064,0.00000060,0.00000277,-0.00000262,-0.00000086,-0.00000310,-0.
 00000570,-0.00000031,0.00000427,-0.00000813,-0.00000556,-0.00001543,-0
 .00001364,0.00000147,0.00002178,-0.00000585,-0.00000267,-0.00000676,-0
 .00000236,-0.00000286,-0.00000070,-0.00000612,0.00000020,0.00000258,-0
 .00295622,0.00032662,0.00312896,-0.00018008,0.00002774,0.00012787,-0.0
 0036175,0.00031351,0.00013408,0.00040331,0.00271928,-0.00324908,-0.038
 45022,-0.00278409,0.06621957,0.00145847,0.00036036,0.00022374,-0.01540
 765,-0.00195306,0.00121528,-0.34007163,-0.04695459,0.05417031,0.005214
 07,-0.00415632,0.00555895,0.00041358,-0.00079155,0.00011423,-0.0171115
 6,-0.00053143,0.00267328,0.00202395,0.00020480,0.00024002,0.00021599,0
 .00006367,0.00005211,0.00069613,0.00016801,-0.00021595,0.00002709,-0.0
 0004922,-0.00005830,-0.00000553,0.00001710,-0.00000416,-0.00113961,-0.
 00164339,0.00120628,0.00076339,0.00055655,-0.00015196,-0.00126857,-0.0
 0140120,0.00106109,0.00065187,0.00014246,-0.00012087,-0.00006340,0.000
 05585,-0.00011154,0.00001582,-0.00000361,-0.00004982,0.00004723,0.0000
 0463,0.00003519,-0.00002695,-0.00000327,0.00000520,-0.00002681,0.00001
 848,-0.00001017,0.00001997,-0.00000625,0.00001510,-0.00000632,0.000000
 61,-0.00000598,-0.00008151,-0.00005131,0.00004339,0.00003276,0.0000413
 5,-0.00004675,-0.00001523,-0.00001065,0.00000946,0.00000643,-0.0000057
 0,-0.00000981,0.00001760,0.00000854,0.00000266,-0.00000951,-0.00000629
 ,-0.00001802,0.00000168,0.00000384,0.00001233,-0.00000099,-0.00000130,
 -0.00000333,0.00000452,0.00000174,0.00000385,0.00000804,0.00000099,-0.
 00000398,0.00001195,-0.00000438,0.00001304,0.00003379,0.00001646,-0.00
 007275,0.00001195,0.00000237,0.00001554,0.00001280,0.00000767,-0.00000
 254,0.00002628,0.00000329,-0.00000870,0.00026458,-0.00018978,-0.000191
 85,-0.00003570,0.00014887,0.00000215,0.00011992,-0.00036154,-0.0000517
 3,0.00141363,0.00057743,-0.00077749,-0.00031946,0.00189941,0.00077994,
 0.36193132,-0.00197653,0.00166899,0.00095881,0.02909130,0.00089776,-0.
 00364897,-0.04911604,-0.04725274,0.00444597,-0.02540769,-0.01361472,0.
 01917995,-0.00036353,-0.00021956,-0.00091978,-0.01111939,-0.00012878,0
 .00103633,0.00045250,0.00091669,0.00096397,0.00012981,0.00001744,-0.00
 000837,-0.00000104,0.00000401,0.00010870,-0.00005810,-0.00001138,-0.00
 005050,0.00000591,0.00001848,0.00000639,0.00298091,0.00108477,-0.00193
 444,-0.00036088,-0.00011049,0.00034218,0.00048429,-0.00035117,0.000732
 04,0.00028141,-0.00005745,-0.00016526,-0.00000430,0.00004911,-0.000054
 06,0.00000672,-0.00001118,-0.00003056,-0.00001089,-0.00000239,0.000033
 64,0.00000878,0.00000971,-0.00003816,-0.00001037,0.00000882,-0.0000009
 0,0.00000419,-0.00000540,-0.00000222,-0.00000127,0.00000218,-0.0000007
 6,-0.00004292,-0.00000204,-0.00000877,0.00004221,0.00002279,0.00006258
 ,-0.00002293,-0.00001060,0.00000566,-0.00000876,0.00002710,0.00000024,
 0.00001138,-0.00001832,0.00000219,-0.00000490,0.00001147,-0.00001043,-
 0.00000074,-0.00000250,0.00000710,-0.00000054,-0.00000014,-0.00000166,
 0.00000204,-0.00000047,0.00000135,0.00000122,0.00000112,0.00000168,0.0
 0000016,0.00000011,0.00000269,-0.00000115,0.00001250,-0.00002839,0.000
 00676,-0.00000636,0.00000341,0.00000608,-0.00000172,0.00000396,0.00001
 526,0.00000589,-0.00001049,-0.00006903,0.00011057,0.00037852,-0.000061
 64,-0.00005935,-0.00001812,-0.00018331,0.00003415,0.00004549,0.0001292
 6,-0.00095015,0.00032184,0.00205643,-0.00422954,-0.00182696,0.05354208
 ,0.06178596,-0.00080402,0.00062650,0.00147069,0.01533516,-0.00051694,-
 0.00125235,0.05608645,0.00347788,-0.05310453,0.02294429,0.01755644,-0.
 01478177,0.00136192,0.00070085,0.00061539,-0.03028628,-0.00436979,0.00
 443485,0.00172834,0.00127748,0.00180371,0.00003322,0.00028652,0.000013
 80,-0.00033637,-0.00011462,0.00011084,-0.00002250,0.00002471,0.0000180
 0,0.00000071,0.00000112,-0.00000328,-0.00035911,0.00161446,-0.00067493
 ,0.00002987,0.00029199,-0.00031087,-0.00150305,-0.00053652,0.00090413,
 0.00034027,0.00003050,-0.00003893,0.00003343,0.00002668,0.00006146,0.0
 0001468,-0.00000158,-0.00000854,0.00001145,0.00001486,-0.00001676,-0.0
 0000821,-0.00003304,0.00002810,-0.00000787,0.00000086,0.00000899,-0.00
 000053,0.00000994,-0.00001334,-0.00000110,0.00000067,0.00000069,-0.000
 01568,0.00001571,0.00000296,0.00001671,-0.00000741,0.00008651,0.000001
 91,0.00000577,-0.00000212,-0.00000858,0.00002370,0.00002543,0.00000715
 ,-0.00000509,-0.00003118,-0.00000159,-0.00000696,0.00001884,0.00000654
 ,0.00000029,-0.00001340,-0.00000073,0.00000144,0.00000305,-0.00000020,
 0.00000072,-0.00000075,-0.00000022,0.00000069,-0.00000109,0.00000181,-
 0.00000626,0.00000482,0.00002850,0.00001913,-0.00004682,0.00000490,-0.
 00000051,0.00000637,0.00000269,-0.00000613,0.00000280,0.00000866,0.000
 00061,-0.00000180,-0.00015830,0.00037914,0.00016711,-0.00001920,-0.000
 10106,-0.00001065,-0.00005449,0.00017494,-0.00001221,-0.00078390,0.000
 51668,0.00064012,0.00097989,-0.00177701,-0.00072377,-0.06257354,-0.018
 46497,0.06564814,0.00074916,0.00028942,0.00007867,-0.00106024,0.001126
 30,0.00086732,-0.01617372,-0.00484391,0.00286531,0.00167847,0.00054332
 ,0.00036533,0.00016662,0.00006416,0.00011499,-0.34548365,-0.05082701,0
 .05561360,-0.01025025,0.01077666,0.00790374,0.00012124,0.00026486,-0.0
 0131964,0.00004983,-0.00003444,0.00000114,0.00003249,0.00004577,0.0000
 1198,-0.00001115,-0.00000528,0.00000459,-0.00007522,-0.00019818,-0.000
 04358,0.00195304,0.00011419,-0.00091928,-0.00443734,0.00106927,-0.0007
 6933,0.00095277,0.00016126,-0.00053743,0.00030083,0.00012477,0.0002161
 1,0.00003348,0.00006334,0.00003246,0.00001052,0.00000223,-0.00013586,0
 .00001025,-0.00006847,0.00008626,-0.00002040,0.00000903,0.00001869,0.0
 0001184,-0.00001034,-0.00002529,-0.00000353,0.00000521,0.,-0.00001039,
 0.00018620,-0.00014264,0.00013063,-0.00005498,0.00059531,-0.00005921,-
 0.00003735,-0.00004760,-0.00003377,0.00011979,0.00002446,0.00003553,-0
 .00011113,-0.00000673,-0.00003002,0.00006891,0.00000062,0.00000892,-0.
 00001825,-0.00000785,-0.00000094,0.00000181,0.00000191,0.00000620,-0.0
 0000422,0.00000145,0.00000247,0.00000278,-0.00000028,-0.00000607,-0.00
 001979,0.00001019,0.00004243,0.00007025,-0.00028193,0.00001175,-0.0000
 1569,0.00000838,0.00000489,-0.00003794,0.00004807,0.00003256,0.0000022
 8,-0.00003808,-0.00002318,-0.00015816,-0.00013865,-0.00000045,0.000002
 61,-0.00000984,0.00002474,-0.00004262,-0.00000342,0.00010654,0.0002208
 7,-0.00006379,0.00119882,-0.00037886,-0.00013928,-0.00049178,-0.000722
 59,-0.00223566,0.37016869,0.00020553,-0.00008001,0.00002053,-0.0014197
 5,-0.00003514,-0.00023955,-0.00776863,-0.00089832,0.00144503,0.0008254
 0,0.00051237,-0.00035164,-0.00002566,-0.00004438,0.00006748,-0.0480542
 0,-0.04647678,0.01104888,0.03749642,-0.00985812,-0.01332191,0.00096432
 ,0.00143485,0.00160980,-0.00002189,0.00005063,0.00002960,0.00002334,-0
 .00001825,0.00000047,-0.00000974,0.00000029,0.00000121,-0.00028291,-0.
 00027482,-0.00019383,0.00012163,0.00184321,0.00016800,-0.02564747,-0.0
 0502860,0.00489699,0.00095929,0.00095418,-0.00150476,-0.00034607,0.000
 10772,0.00000590,0.00009663,0.00003558,-0.00014333,0.00012670,-0.00005
 601,0.00008025,-0.00011574,0.00001367,0.00004067,-0.00002997,0.0000234
 2,-0.00001144,0.00001188,0.00000807,0.00001106,-0.00000368,-0.00000256
 ,-0.00000414,-0.00004635,-0.00019016,0.00021364,-0.00027742,-0.0000792
 8,-0.00065744,0.00009942,0.00004928,0.00002539,0.00015855,-0.00007940,
 -0.00001080,-0.00003005,0.00009144,-0.00003284,0.00002378,-0.00007028,
 0.00000445,-0.00000170,0.00001958,0.00000039,0.00000089,-0.00000116,-0
 .00000096,-0.00000311,0.00000623,0.00000034,0.00000974,0.00000451,-0.0
 0000681,0.00002886,-0.00002063,0.00003086,0.00028243,0.00004966,0.0000
 0776,-0.00000816,0.00005211,0.00003563,-0.00000428,0.00002927,-0.00004
 099,-0.00002750,-0.00001657,0.00005188,-0.00000173,-0.00000430,-0.0000
 2781,0.00000367,-0.00000766,0.00001468,0.00003761,-0.00005517,-0.00001
 516,0.00028347,0.00018921,-0.00001251,-0.00001327,-0.00034755,-0.00074
 391,-0.00039586,-0.00004538,-0.00152851,0.04218914,0.06121109,0.000422
 87,0.00018470,-0.00020474,-0.00183431,0.00052935,0.00090429,-0.0299273
 1,-0.00682417,0.00439582,0.00192975,0.00023042,0.00209610,0.00022284,-
 0.00021567,0.00035264,0.05458658,0.01200866,-0.05500766,0.01424906,-0.
 00761509,-0.00207608,0.00118078,0.00021869,0.00081671,-0.00006475,0.00
 000049,0.00006227,0.00000473,-0.00001689,-0.00000434,0.00000410,0.0000
 0049,-0.00000064,-0.00021974,-0.00018655,-0.00028273,-0.00133840,-0.00
 192120,0.00077000,0.02522880,0.00709858,-0.00544621,-0.00023125,-0.000
 66686,0.00215205,0.00062786,-0.00009952,-0.00018811,-0.00007347,-0.000
 05357,0.00017877,-0.00012245,0.00005149,-0.00003921,0.00010164,0.00002
 165,0.00000510,0.00004028,-0.00005212,-0.00001356,-0.00002002,-0.00000
 285,0.00001534,0.00000477,-0.00000554,0.00000538,0.00008984,0.00001393
 ,0.00002033,-0.00021907,-0.00006469,-0.00025741,0.00003399,0.00001012,
 0.00004958,-0.00008951,-0.00006376,-0.00000550,-0.00003835,0.00002727,
 0.00006570,0.00001801,0.00000338,0.00000147,-0.00000649,-0.00000091,-0
 .00000214,0.00000167,-0.00000060,0.00000002,-0.00000442,-0.00000096,-0
 .00000484,-0.00001302,-0.00000564,0.00000826,-0.00004773,0.00003541,-0
 .00002919,-0.00039055,-0.00010294,-0.00009237,-0.00003590,-0.00002533,
 -0.00007712,-0.00002048,-0.00000596,-0.00000430,-0.00004595,-0.0000096
 8,0.00003335,0.00006111,-0.00005537,-0.00005173,0.00000628,-0.00003302
 ,0.00000687,0.00001108,-0.00001587,-0.00000082,0.00009979,0.00007478,-
 0.00023216,0.00034091,-0.00042310,-0.00036505,-0.00236706,-0.00152021,
 -0.00461689,-0.06199854,-0.00337408,0.05930888,0.00011129,-0.00014350,
 0.00024266,0.00022407,0.00067050,-0.00008529,-0.00007244,-0.00031444,-
 0.00003892,0.00021146,0.00010568,-0.00028056,-0.00003578,0.00003771,0.
 00007949,-0.00082756,0.00106863,0.00047212,0.00108190,-0.00059632,-0.0
 0081457,-0.00021410,-0.00005676,-0.00000375,0.00065853,-0.00026231,0.0
 0005590,0.00001146,0.00013181,0.00002100,-0.00000397,0.00000184,0.0000
 2525,-0.00025807,-0.00096373,-0.00153962,-0.01159735,0.00626572,0.0071
 6140,-0.33105079,-0.05517768,0.07837140,-0.01801210,-0.00527969,-0.004
 37613,-0.00099163,-0.00158083,0.00532724,0.00041530,0.00050155,-0.0000
 8804,0.00053971,-0.00019290,-0.00031110,-0.00024602,-0.00038882,0.0006
 7620,-0.00005058,0.00013403,-0.00003471,0.00004393,-0.00003094,0.00000
 181,-0.00001084,0.00000902,-0.00001295,-0.00034007,-0.00003820,0.00005
 152,0.00010981,-0.00002132,-0.00001416,0.00001203,-0.00003219,-0.00002
 139,0.00088546,0.00017962,-0.00009323,0.00004331,-0.00010284,-0.000251
 92,-0.00001567,-0.00001195,-0.00003127,-0.00000218,0.00000316,0.000017
 79,-0.00000096,0.00000197,-0.00000419,0.00000515,0.00000740,0.00000660
 ,0.00004131,0.00002521,-0.00003541,0.00018768,-0.00030536,0.00019747,0
 .00250701,0.00045674,-0.00025940,0.00010581,0.00025534,0.00036561,0.00
 006103,0.00002425,0.00000640,0.00014101,0.00001571,-0.00000686,-0.0000
 0067,-0.00000537,-0.00000526,-0.00003181,0.00002550,-0.00002075,0.0000
 3818,-0.00026366,-0.00009038,0.00113684,0.00018271,0.00066089,-0.00000
 433,-0.00005072,-0.00031389,0.00063737,0.00028982,0.00020259,0.0003266
 0,0.00058644,-0.00015795,0.35423067,-0.00008522,0.00031147,-0.00024340
 ,-0.00045846,-0.00042024,-0.00011739,-0.00140992,-0.00031556,-0.001095
 34,0.00058776,0.00005902,0.00025555,0.00012286,-0.00010704,0.00002691,
 -0.02307843,-0.00032378,0.00725180,0.00140917,0.00290835,-0.00134397,-
 0.00038768,-0.00025353,0.00005581,0.00017881,0.00004770,0.00000671,-0.
 00016968,-0.00016014,-0.00010169,0.00001102,0.00003899,-0.00001247,0.0
 0533683,0.00156057,0.00391223,0.03049978,-0.00491961,-0.01721759,-0.05
 931289,-0.05673199,0.01819776,-0.00762496,0.00165596,-0.00113107,-0.00
 001060,0.00009062,0.00192917,0.00019788,-0.00000842,-0.00006832,-0.000
 30128,0.00003049,0.00033344,-0.00001149,0.00018642,-0.00101681,0.00003
 035,0.00003637,0.00011587,-0.00002290,0.00005898,-0.00008846,-0.000002
 48,0.00000582,0.00000418,-0.00024741,-0.00002617,-0.00005031,0.0000862
 6,-0.00003928,-0.00001128,-0.00001761,-0.00002056,-0.00002305,0.000050
 56,0.00016456,0.00003132,0.00001997,-0.00006324,-0.00013224,-0.0000094
 1,-0.00000173,0.00008441,0.00001716,0.00000076,-0.00005133,0.00000015,
 0.00000199,0.00001005,-0.00000141,-0.00000367,-0.00000628,-0.00001401,
 -0.00000118,0.00000804,0.00002723,-0.00005438,0.00004078,0.00038605,0.
 00093526,0.00057621,0.00002893,0.00000384,0.00007272,0.00006092,-0.000
 01178,0.00001188,0.00009352,-0.00000945,-0.00005492,-0.00001451,0.0000
 1292,0.00002026,-0.00001376,-0.00006474,-0.00000223,-0.00020601,0.0000
 6164,0.00001034,-0.00128111,0.00022385,0.00014388,-0.00004211,-0.00020
 094,-0.00003621,0.00067416,0.00040222,0.00039613,0.00006476,-0.0029958
 5,0.00285275,0.05483919,0.05793551,-0.00008175,-0.00003182,-0.00022578
 ,-0.00029747,0.00029442,-0.00016895,0.00194770,0.00031664,0.00071536,-
 0.00058207,-0.00010544,0.00008502,0.00001081,-0.00002789,-0.00003760,0
 .02049744,0.00275803,-0.00234000,-0.00185843,-0.00040407,0.00122136,-0
 .00018368,0.00000368,-0.00015533,-0.00013768,-0.00007776,-0.00006005,-
 0.00005358,-0.00010744,-0.00006868,0.00000726,0.00000865,-0.00001730,0
 .00395390,-0.00002507,0.00245845,0.01104628,-0.00471923,-0.00497075,0.
 08803255,0.02054546,-0.06598588,-0.02581784,-0.00432877,-0.00715436,-0
 .00951408,-0.00307869,-0.00022997,-0.00010225,0.00006099,-0.00053777,0
 .00015275,0.00013684,0.00036495,-0.00007931,-0.00012870,-0.00044260,-0
 .00006116,0.00005716,0.00006489,0.00003542,0.00004091,-0.00003131,-0.0
 0000626,0.00000458,-0.00000957,-0.00010590,0.00006720,0.00009242,0.000
 07457,-0.00009403,0.00004590,0.00002362,-0.00001295,-0.00003484,-0.000
 38521,-0.00008192,-0.00022634,0.00015297,0.00010895,-0.00018191,0.0000
 0775,-0.00009742,0.00006573,0.00001489,0.00002297,-0.00003538,0.000001
 32,0.00000137,0.00000352,0.,0.00000567,0.00001033,0.00005309,0.0000301
 7,-0.00005366,0.00027189,0.00005151,-0.00004223,-0.00041418,0.00030384
 ,-0.00397076,0.00023376,0.00002097,-0.00003723,0.00003227,-0.00000108,
 0.00000734,0.00005762,-0.00006942,-0.00000721,-0.00001672,0.00000421,0
 .00000373,-0.00000850,-0.00000057,-0.00001632,-0.00014127,0.00011853,0
 .00002755,-0.00083320,-0.00044504,-0.00023442,-0.00027297,-0.00009236,
 0.00012779,-0.00059685,0.00009928,-0.00041085,-0.00000586,0.00241150,-
 0.00224615,-0.08505166,-0.01354386,0.08463884\\0.00823715,-0.00626080,
 -0.00981794,0.00824531,0.01023733,0.00190893,-0.02514494,-0.02020911,0
 .03236068,0.01258815,0.00913646,0.01237445,-0.01099384,-0.01197346,-0.
 02202509,0.03908985,-0.02417117,-0.00412442,-0.01125393,0.00809920,-0.
 00687072,0.01202099,0.00546264,0.01486296,-0.02980638,0.02028134,-0.01
 915217,0.00293521,0.00641113,0.00345906,0.01165766,-0.02889362,0.00812
 472,0.02860323,-0.00166752,0.03028702,0.00539417,0.02391778,0.01127517
 ,-0.07464155,-0.01697590,0.01175195,0.04208748,0.00059687,0.00261319,-
 0.01907056,-0.00200261,-0.01707081,0.01246519,0.03335422,-0.00093465,-
 0.01682340,-0.01712177,0.00529224,0.01488140,0.01868487,-0.01253064,0.
 00529170,0.00751312,-0.03273924,-0.01420552,0.01351251,-0.00260165,0.0
 0238367,-0.02054283,0.03058177,0.01585237,0.00622077,-0.00605482,-0.00
 326709,-0.02445886,-0.01889922,-0.01153611,0.02585025,0.01467701,-0.02
 783627,0.01009219,0.00298894,0.01705448,-0.01320023,0.00259624,0.02713
 348,-0.02090421,-0.00279354,-0.00515933,0.00687217,0.02179114,-0.00409
 985,-0.00256073,-0.00344538,-0.02057927,-0.00287373,-0.00481796,0.0202
 1990,0.00225082,0.00384940,-0.02052193,-0.00542813,-0.00234229,0.01598
 345,0.00418698,-0.00038284,-0.02448845,-0.00549822,-0.00008242,0.00062
 224,-0.00600570,-0.01717363,0.02076433,0.00110833,0.00414685,-0.002250
 67,0.00342366,0.00133033,0.00148571,0.00690890,-0.02029151,-0.02374531
 ,0.00285039,-0.00456229,0.02259670,0.00029113,-0.00362288,-0.01804136,
 -0.00387680,0.00174230,0.02017388,0.00204791,-0.00385469,-0.01808861,0
 .00084861,0.00165634,0.01378668,0.00446581,-0.00347990\\\@


 O WAD SOME POWER THE GIFTIE GIE US       
 TO SEE OURSELS AS OTHERS SEE US.....     
 IT WOULD FRAE MONIE A BLUNDER FREE US,   
                     AND FOOLISH NOTION...
 WHAT AIRS IN DRESS AND GAIT WAD LEA'E US,
                     AND EV'N DEVOTION....
                                          
              (ROBERT BURNS 'TO A LOUSE') 
 Job cpu time:  0 days 12 hours 55 minutes 49.2 seconds.
 File lengths (MBytes):  RWF=   1324 Int=      0 D2E=      0 Chk=     19 Scr=      1
 Normal termination of Gaussian 09 at Tue Mar  1 03:19:37 2016.
Gaussian '09 finished on node013 at Tue Mar  1 03:19:37 EST 2016.
