Gaussian '09 started on node017 at Wed Jan 20 15:58:13 EST 2016.
 Entering Gaussian System, Link 0=/usr/local/gaussian/g09/g09
 Initial command:
 /usr/local/gaussian/g09/l1.exe /home/srmcgrat/thesis/gaussian/cellobiose/300/6000/gaussian3362/Gau-3398.inp -scrdir=/home/srmcgrat/thesis/gaussian/cellobiose/300/6000/gaussian3362/
 Entering Link 1 = /usr/local/gaussian/g09/l1.exe PID=      3400.
  
 Copyright (c) 1988,1990,1992,1993,1995,1998,2003,2009,2010,
            Gaussian, Inc.  All Rights Reserved.
  
 This is part of the Gaussian(R) 09 program.  It is based on
 the Gaussian(R) 03 system (copyright 2003, Gaussian, Inc.),
 the Gaussian(R) 98 system (copyright 1998, Gaussian, Inc.),
 the Gaussian(R) 94 system (copyright 1995, Gaussian, Inc.),
 the Gaussian 92(TM) system (copyright 1992, Gaussian, Inc.),
 the Gaussian 90(TM) system (copyright 1990, Gaussian, Inc.),
 the Gaussian 88(TM) system (copyright 1988, Gaussian, Inc.),
 the Gaussian 86(TM) system (copyright 1986, Carnegie Mellon
 University), and the Gaussian 82(TM) system (copyright 1983,
 Carnegie Mellon University). Gaussian is a federally registered
 trademark of Gaussian, Inc.
  
 This software contains proprietary and confidential information,
 including trade secrets, belonging to Gaussian, Inc.
  
 This software is provided under written license and may be
 used, copied, transmitted, or stored only in accord with that
 written license.
  
 The following legend is applicable only to US Government
 contracts under FAR:
  
                    RESTRICTED RIGHTS LEGEND
  
 Use, reproduction and disclosure by the US Government is
 subject to restrictions as set forth in subparagraphs (a)
 and (c) of the Commercial Computer Software - Restricted
 Rights clause in FAR 52.227-19.
  
 Gaussian, Inc.
 340 Quinnipiac St., Bldg. 40, Wallingford CT 06492
  
  
 ---------------------------------------------------------------
 Warning -- This program may not be used in any manner that
 competes with the business of Gaussian, Inc. or will provide
 assistance to any competitor of Gaussian, Inc.  The licensee
 of this program is prohibited from giving any competitor of
 Gaussian, Inc. access to this program.  By using this program,
 the user acknowledges that Gaussian, Inc. is engaged in the
 business of creating and licensing software in the field of
 computational chemistry and represents and warrants to the
 licensee that it is not a competitor of Gaussian, Inc. and that
 it will not use this program in any manner prohibited above.
 ---------------------------------------------------------------
  

 Cite this work as:
 Gaussian 09, Revision B.01,
 M. J. Frisch, G. W. Trucks, H. B. Schlegel, G. E. Scuseria, 
 M. A. Robb, J. R. Cheeseman, G. Scalmani, V. Barone, B. Mennucci, 
 G. A. Petersson, H. Nakatsuji, M. Caricato, X. Li, H. P. Hratchian, 
 A. F. Izmaylov, J. Bloino, G. Zheng, J. L. Sonnenberg, M. Hada, 
 M. Ehara, K. Toyota, R. Fukuda, J. Hasegawa, M. Ishida, T. Nakajima, 
 Y. Honda, O. Kitao, H. Nakai, T. Vreven, J. A. Montgomery, Jr., 
 J. E. Peralta, F. Ogliaro, M. Bearpark, J. J. Heyd, E. Brothers, 
 K. N. Kudin, V. N. Staroverov, T. Keith, R. Kobayashi, J. Normand, 
 K. Raghavachari, A. Rendell, J. C. Burant, S. S. Iyengar, J. Tomasi, 
 M. Cossi, N. Rega, J. M. Millam, M. Klene, J. E. Knox, J. B. Cross, 
 V. Bakken, C. Adamo, J. Jaramillo, R. Gomperts, R. E. Stratmann, 
 O. Yazyev, A. J. Austin, R. Cammi, C. Pomelli, J. W. Ochterski, 
 R. L. Martin, K. Morokuma, V. G. Zakrzewski, G. A. Voth, 
 P. Salvador, J. J. Dannenberg, S. Dapprich, A. D. Daniels, 
 O. Farkas, J. B. Foresman, J. V. Ortiz, J. Cioslowski, 
 and D. J. Fox, Gaussian, Inc., Wallingford CT, 2010.
 
 ******************************************
 Gaussian 09:  EM64L-G09RevB.01 12-Aug-2010
                20-Jan-2016 
 ******************************************
 ------------------------------------------------
 # freq=raman b3lyp/6-31+g(d,p) geom=connectivity
 ------------------------------------------------
 1/10=4,30=1,38=1,57=2/1,3;
 2/12=2,17=6,18=5,40=1/2;
 3/5=1,6=6,7=111,11=2,16=1,25=1,30=1,71=2,74=-5/1,2,3;
 4//1;
 5/5=2,38=5,98=1/2;
 8/6=4,10=90,11=11/1;
 10/13=10,15=4/2;
 11/6=3,8=1,9=11,15=111,16=1/1,2,10;
 10/6=1/2;
 6/7=2,8=2,9=2,10=2,18=1,28=1/1;
 7/8=1,10=1,25=1/1,2,3,16;
 1/10=4,30=1/3;
 99//99;
 ------------
 300 6000.com
 ------------
 Symbolic Z-matrix:
 Charge =  0 Multiplicity = 1
 O                     7.723     7.548     12.042 
 C                     8.19      7.927     13.345 
 C                     7.732     9.278     13.87 
 O                     7.927     10.312    12.894 
 H                     7.794     9.999     11.954 
 C                     8.361     9.669     15.197 
 O                     7.817     10.802    15.889 
 H                     8.369     10.969    16.707 
 C                     8.415     5.504     14.125 
 O                     8.115     4.76      12.936 
 H                     8.15      3.788     13.168 
 C                     7.909     6.904     14.433 
 O                     8.59      7.307     15.631 
 C                     8.149     8.548     16.201 
 O                     8.979     8.632     17.368 
 C                     8.382     8.344     18.641 
 C                     8.983     7.013     19.065 
 O                     8.637     5.889     18.243 
 H                     8.816     6.133     17.29 
 C                     8.527     6.634     20.465 
 O                     9.126     5.499     21.107 
 H                     8.578     5.266     21.911 
 C                     8.225     10.801    19.445 
 O                     8.707     11.503    18.29 
 H                     8.369     12.439    18.392 
 C                     8.668     9.374     19.721 
 O                     8.102     8.939     20.966 
 C                     8.65      7.73      21.51 
 O                     7.667     7.635     22.551 
 H                     8.4747    7.38123   11.46865 
 H                     8.10714   7.55746   23.40063 
 H                     9.64469   7.85789   21.88302 
 H                     7.48338   6.41321   20.38132 
 H                     10.04843   7.11166   19.07086 
 H                     7.32409   8.23597   18.52246 
 H                     9.72978   9.39916   19.85096 
 H                     8.49267   11.38411   20.30129 
 H                     7.15678   10.79196   19.3839 
 H                     7.11792   8.48412   16.47972 
 H                     9.41102   9.81776   15.0548 
 H                     6.67781   9.20329   14.03734 
 H                     9.25517   7.98843   13.26413 
 H                     6.85611   6.86652   14.61985 
 H                     8.09905   4.89077   14.94294 
 H                     9.48237   5.5596    14.1754 
 

 GradGradGradGradGradGradGradGradGradGradGradGradGradGradGradGradGradGrad
 Berny optimization.
 Initialization pass.
 Trust Radius=3.00D-01 FncErr=1.00D-07 GrdErr=1.00D-07
 Number of steps in this run=      2 maximum allowed number of steps=      2.
 GradGradGradGradGradGradGradGradGradGradGradGradGradGradGradGradGradGrad

                          Input orientation:                          
 ---------------------------------------------------------------------
 Center     Atomic      Atomic             Coordinates (Angstroms)
 Number     Number       Type             X           Y           Z
 ---------------------------------------------------------------------
      1          8           0        7.723000    7.548000   12.042000
      2          6           0        8.190000    7.927000   13.345000
      3          6           0        7.732000    9.278000   13.870000
      4          8           0        7.927000   10.312000   12.894000
      5          1           0        7.794000    9.999000   11.954000
      6          6           0        8.361000    9.669000   15.197000
      7          8           0        7.817000   10.802000   15.889000
      8          1           0        8.369000   10.969000   16.707000
      9          6           0        8.415000    5.504000   14.125000
     10          8           0        8.115000    4.760000   12.936000
     11          1           0        8.150000    3.788000   13.168000
     12          6           0        7.909000    6.904000   14.433000
     13          8           0        8.590000    7.307000   15.631000
     14          6           0        8.149000    8.548000   16.201000
     15          8           0        8.979000    8.632000   17.368000
     16          6           0        8.382000    8.344000   18.641000
     17          6           0        8.983000    7.013000   19.065000
     18          8           0        8.637000    5.889000   18.243000
     19          1           0        8.816000    6.133000   17.290000
     20          6           0        8.527000    6.634000   20.465000
     21          8           0        9.126000    5.499000   21.107000
     22          1           0        8.578000    5.266000   21.911000
     23          6           0        8.225000   10.801000   19.445000
     24          8           0        8.707000   11.503000   18.290000
     25          1           0        8.369000   12.439000   18.392000
     26          6           0        8.668000    9.374000   19.721000
     27          8           0        8.102000    8.939000   20.966000
     28          6           0        8.650000    7.730000   21.510000
     29          8           0        7.667000    7.635000   22.551000
     30          1           0        8.474703    7.381231   11.468650
     31          1           0        8.107137    7.557464   23.400628
     32          1           0        9.644685    7.857888   21.883024
     33          1           0        7.483377    6.413211   20.381317
     34          1           0       10.048426    7.111658   19.070855
     35          1           0        7.324088    8.235968   18.522461
     36          1           0        9.729781    9.399159   19.850958
     37          1           0        8.492669   11.384112   20.301291
     38          1           0        7.156784   10.791963   19.383901
     39          1           0        7.117916    8.484122   16.479722
     40          1           0        9.411024    9.817758   15.054804
     41          1           0        6.677811    9.203291   14.037343
     42          1           0        9.255170    7.988435   13.264134
     43          1           0        6.856107    6.866518   14.619848
     44          1           0        8.099050    4.890769   14.942938
     45          1           0        9.482365    5.559597   14.175400
 ---------------------------------------------------------------------
                    Distance matrix (angstroms):
                    1          2          3          4          5
     1  O    0.000000
     2  C    1.435109   0.000000
     3  C    2.516856   1.520062   0.000000
     4  O    2.899520   2.441474   1.435185   0.000000
     5  H    2.453607   2.526832   2.048107   0.999629   0.000000
     6  C    3.854829   2.548276   1.519688   2.430147   3.308691
     7  O    5.039520   3.857031   2.531040   3.036812   4.016163
     8  H    5.820892   4.537494   3.363602   3.894353   4.884929
     9  C    2.999281   2.555377   3.843773   4.987020   5.030299
    10  O    2.953954   3.194181   4.629403   5.555341   5.339896
    11  H    3.948139   4.142976   5.550462   6.533558   6.338537
    12  C    2.483186   1.519616   2.446257   3.739426   3.967076
    13  O    3.700093   2.402123   2.778871   4.118345   4.626101
    14  C    4.298692   2.923022   2.477973   3.754628   4.502048
    15  O    5.578429   4.159817   3.769394   4.893443   5.708267
    16  C    6.679423   5.315860   4.904824   6.091638   6.913808
    17  C    7.155163   5.846593   5.803727   7.076707   7.803604
    18  O    6.483832   5.323876   5.606021   6.977022   7.560044
    19  H    5.544220   4.378737   4.771004   6.130186   6.668083
    20  C    8.510508   7.244296   7.149600   8.438467   9.181374
    21  O    9.398991   8.186570   8.282406   9.594579  10.285992
    22  H   10.165417   8.978186   9.026048  10.353367  11.052502
    23  C    8.101754   6.743226   5.800276   6.575981   7.546128
    24  O    7.459744   6.124385   5.043575   5.580654   6.575749
    25  H    8.041250   6.772178   5.553933   5.911641   6.908840
    26  C    7.949487   6.555583   5.926172   6.930862   7.840969
    27  O    9.039707   7.688402   7.113722   8.189807   9.079351
    28  C    9.515013   8.180320   7.849116   9.023575   9.858916
    29  O   10.509509   9.225466   8.835351  10.024549  10.858224
    30  H    0.960000   1.974743   3.148940   3.304695   2.748024
    31  H   11.365126  10.062757   9.691947  10.863202  11.708307
    32  H   10.031682   8.661335   8.359643   9.475001  10.324481
    33  H    8.419583   7.231918   7.118011   8.453240   9.163735
    34  H    7.416388   6.074862   6.091614   7.272976   8.004299
    35  H    6.529074   5.258457   4.785146   6.029344   6.817168
    36  H    8.272472   6.845850   6.306954   7.244485   8.152853
    37  H    9.139148   7.773880   6.809980   7.505822   8.490226
    38  H    8.046577   6.763422   5.746831   6.553046   7.499218
    39  H    4.575569   3.359499   2.796067   4.105259   4.820177
    40  H    4.132580   2.826535   2.124670   2.667523   3.501800
    41  H    2.795318   2.096419   1.070000   2.024091   2.493863
    42  H    2.008765   1.070000   2.085689   2.701849   2.809598
    43  H    2.803787   2.128175   2.672959   3.999589   4.218867
    44  H    3.951928   3.432256   4.531415   5.798060   5.926283
    45  H    3.405952   2.822122   4.121113   5.162023   5.243424
                    6          7          8          9         10
     6  C    0.000000
     7  O    1.434744   0.000000
     8  H    1.992527   1.000858   0.000000
     9  C    4.301084   5.615880   6.044424   0.000000
    10  O    5.410260   6.731625   7.268881   1.434314   0.000000
    11  H    6.224751   7.530666   8.008698   1.982607   0.999916
    12  C    2.904002   4.162067   4.680481   1.520164   2.623010
    13  O    2.412435   3.588749   3.823200   2.355731   3.738430
    14  C    1.519737   2.299583   2.483078   3.694113   5.001032
    15  O    2.484056   2.871687   2.504115   4.540873   5.948235
    16  C    3.690149   3.732893   3.260544   5.334880   6.742653
    17  C    4.733143   5.079671   4.646192   5.196470   6.587418
    18  O    4.862375   5.509200   5.313899   4.141912   5.450814
    19  H    4.134123   4.975979   4.891482   3.251718   4.618858
    20  C    6.081990   6.230257   5.739316   6.440888   7.769650
    21  O    7.273392   7.553993   7.060733   7.018110   8.266407
    22  H    8.031892   8.215285   7.723309   7.791342   9.001168
    23  C    4.398343   3.579330   2.746926   7.509774   8.881039
    24  O    3.612467   2.654864   1.704491   7.308932   8.630401
    25  H    4.228592   3.041296   2.236096   8.142704   9.423348
    26  C    4.543991   4.177034   3.423101   6.808533   8.223809
    27  O    5.820768   5.415526   4.725597   7.661362   9.052354
    28  C    6.610387   6.459622   5.799904   7.716769   9.089588
    29  O    7.661600   7.377983   6.764665   8.723425  10.045624
    30  H    4.375775   5.627942   6.350084   3.253269   3.025451
    31  H    8.474818   8.187536   7.517433   9.505197  10.832096
    32  H    7.044919   6.923622   6.172326   8.199990   9.590937
    33  H    6.184458   6.289172   5.919472   6.390312   7.652764
    34  H    4.939044   5.359299   4.825699   5.451067   6.848714
    35  H    3.766624   3.709798   3.443429   5.290690   6.626948
    36  H    4.858570   4.617771   3.768368   7.048937   8.482096
    37  H    5.386347   4.501521   3.620295   8.528090   9.913072
    38  H    4.499036   3.556729   2.943911   7.563181   8.881339
    39  H    2.143494   2.492033   2.791323   4.013511   5.236528
    40  H    1.070000   2.050739   2.267360   4.523838   5.634707
    41  H    2.096381   2.698566   3.620071   4.087819   4.798052
    42  H    2.712897   4.107847   4.639223   2.760324   3.439542
    43  H    3.232911   4.245242   4.845143   2.128726   2.976167
    44  H    4.792146   5.993099   6.334799   1.070000   2.011257
    45  H    4.380448   5.761307   6.075378   1.070000   2.011257
                   11         12         13         14         15
    11  H    0.000000
    12  C    3.371611   0.000000
    13  O    4.317792   1.435749   0.000000
    14  C    5.644173   2.426141   1.435083   0.000000
    15  O    6.464641   3.570029   2.219035   1.434519   0.000000
    16  C    7.124934   4.472649   3.190413   2.459574   1.435229
    17  C    6.772675   4.756131   3.468896   3.354739   2.345418
    18  O    5.514254   4.009527   2.972453   3.387948   2.899420
    19  H    4.788890   3.095083   2.044904   2.731856   2.505525
    20  C    7.841432   6.069584   4.881030   4.689134   3.713182
    21  O    8.179720   6.928015   5.791609   5.858307   4.880309
    22  H    8.877371   7.684471   6.603350   6.599975   5.668298
    23  C    9.412148   6.356619   5.185350   3.950357   3.096289
    24  O    9.277196   6.055085   4.968942   3.661599   3.027657
    25  H   10.108310   6.820668   5.831757   4.470879   3.989226
    26  C    8.626328   5.885569   4.583304   3.652675   2.486744
    27  O    9.345796   6.845331   5.600339   4.781246   3.716044
    28  C    9.240039   7.163469   5.894503   5.394961   4.251824
    29  O   10.152506   8.154437   6.988985   6.433381   5.438643
    30  H    3.988049   3.055346   4.164608   4.884933   6.051534
    31  H   10.904924   8.993588   7.788646   7.267569   6.189295
    32  H    9.733946   7.708784   6.364247   5.915972   4.629020
    33  H    7.705067   5.983687   4.958728   4.740826   4.029887
    34  H    7.035227   5.111748   3.741359   3.729204   2.520878
    35  H    7.009765   4.340502   3.290298   2.483350   2.056297
    36  H    8.868074   6.236612   4.846058   4.067620   2.705048
    37  H   10.426034   7.406005   6.200317   4.997402   4.051522
    38  H    9.416974   6.339835   5.318209   4.018796   3.471278
    39  H    5.838344   2.704010   2.067118   1.070000   2.067496
    40  H    6.442685   3.336571   2.703699   2.125737   2.635060
    41  H    5.678774   2.638012   3.129237   2.697260   4.088413
    42  H    4.344455   2.086724   2.551247   3.187775   4.163191
    43  H    3.641331   1.070000   2.054954   2.645561   3.895631
    44  H    2.090239   2.085487   2.559811   3.867888   4.544452
    45  H    2.434873   2.085487   2.443052   3.848567   4.459342
                   16         17         18         19         20
    16  C    0.000000
    17  C    1.520703   0.000000
    18  O    2.500091   1.434844   0.000000
    19  H    2.627181   1.988194   0.999893   0.000000
    20  C    2.504416   1.520387   2.346148   3.227251   0.000000
    21  O    3.837801   2.546058   2.931504   3.881694   1.434988
    22  H    4.495042   3.363889   3.720999   4.707651   1.991216
    23  C    2.589964   3.881740   5.073686   5.175281   4.300639
    24  O    3.195013   4.564745   5.614633   5.463404   5.335746
    25  H    4.102584   5.501945   6.557174   6.417153   6.166062
    26  C    1.519571   2.470604   3.785587   4.054102   2.842713
    27  O    2.416206   2.845951   4.123524   4.679360   2.396800
    28  C    2.946181   2.569631   3.750032   4.515126   1.519332
    29  O    4.037574   3.777689   4.748503   5.590557   2.468400
    30  H    7.237273   7.622237   6.938654   5.963445   9.027480
    31  H    4.832002   4.456596   5.446619   6.314377   3.105959
    32  H    3.513032   3.015447   4.259310   4.975723   2.181264
    33  H    2.750304   2.083580   2.485567   3.377965   1.070000
    34  H    2.116700   1.070000   2.042636   2.376571   2.118144
    35  H    1.070000   2.131194   2.703719   2.857838   2.790476
    36  H    2.096156   2.620909   4.012595   4.249858   3.077309
    37  H    3.465702   4.568967   5.869723   6.061897   4.753056
    38  H    2.836473   4.209195   5.247070   5.370601   4.509426
    39  H    2.507721   3.510898   3.485890   3.011281   4.614208
    40  H    4.011440   4.912387   5.118481   4.350586   6.339403
    41  H    4.983603   5.948832   5.701797   4.957652   7.164881
    42  H    5.458896   5.888599   5.438646   4.454560   7.363233
    43  H    4.547633   4.929960   4.153835   3.392482   6.083728
    44  H    5.067596   4.719812   3.489450   2.750610   5.806476
    45  H    5.376364   5.125420   4.167555   3.236289   6.451832
                   21         22         23         24         25
    21  O    0.000000
    22  H    1.000504   0.000000
    23  C    5.628965   6.069760   0.000000
    24  O    6.645229   7.213075   1.434975   0.000000
    25  H    7.490519   7.992432   1.952585   1.000372   0.000000
    26  C    4.140819   4.656164   1.519458   2.565526   3.354082
    27  O    3.591943   3.822372   2.407408   3.755143   4.352788
    28  C    2.316538   2.497455   3.725036   4.960562   5.654694
    29  O    2.962484   2.617572   4.470140   5.848004   6.392848
    30  H    9.841990  10.654931   8.682127   7.973315   8.574670
    31  H    3.245934   2.773358   5.116777   6.484258   6.998880
    32  H    2.536848   2.802941   4.076932   5.203452   5.899255
    33  H    2.015095   2.203230   4.547459   5.637092   6.407171
    34  H    2.756342   3.692564   4.132325   4.657579   5.626890
    35  H    4.173454   4.677093   2.870907   3.555275   4.332936
    36  H    4.141670   4.759556   2.096264   2.812262   3.636058
    37  H    5.973677   6.326906   1.070000   2.026170   2.184828
    38  H    5.904434   6.240381   1.070000   2.026170   2.272898
    39  H    5.861319   6.479733   3.922554   3.862113   4.567611
    40  H    7.440563   8.271629   4.652659   3.715129   4.369622
    41  H    8.348380   9.005967   5.847155   5.243220   5.682690
    42  H    8.229491   9.090572   6.868397   6.157271   6.847470
    43  H    7.007543   7.660774   6.374646   6.196191   6.897139
    44  H    6.278553   6.994575   7.430697   7.435995   8.303294
    45  H    6.941019   7.793817   7.538034   7.270156   8.145274
                   26         27         28         29         30
    26  C    0.000000
    27  O    1.435133   0.000000
    28  C    2.429729   1.434546   0.000000
    29  O    3.469153   2.098062   1.434920   0.000000
    30  H    8.491747   9.631470  10.048934  11.114642   0.000000
    31  H    4.141743   2.799300   1.974574   0.960000  11.938939
    32  H    2.815467   2.095140   1.070000   2.099312  10.490721
    33  H    3.256627   2.665363   2.090184   2.496800   9.019724
    34  H    2.728819   3.274038   2.878779   4.249292   7.768063
    35  H    2.130190   2.659000   3.307482   4.087527   7.197968
    36  H    1.070000   2.026014   2.589293   3.828518   8.712654
    37  H    2.099530   2.563793   3.852047   4.449580   9.697367
    38  H    2.099530   2.613416   4.015670   4.500806   8.719014
    39  H    3.701422   4.615412   5.312220   6.154910   5.307361
    40  H    4.745776   6.117842   6.826964   7.999938   4.435523
    41  H    6.024446   7.078450   7.867701   8.713230   3.625867
    42  H    6.629908   7.845516   8.272081   9.428313   2.049777
    43  H    5.965917   6.791250   7.172018   8.009449   3.579781
    44  H    6.576697   7.257097   7.175729   8.099387   4.291177
    45  H    6.779863   7.709606   7.694143   8.817796   3.414708
                   31         32         33         34         35
    31  H    0.000000
    32  H    2.181154   0.000000
    33  H    3.288561   3.002243   0.000000
    34  H    4.765950   2.937372   2.963885   0.000000
    35  H    4.986988   4.101401   2.608287   2.997803   0.000000
    36  H    4.315666   2.551872   3.774055   2.437777   2.984170
    37  H    4.939409   4.032775   5.072960   4.710436   3.800082
    38  H    5.243972   4.587381   4.502773   4.690867   2.702439
    39  H    7.052389   5.997699   4.432232   4.145542   2.068060
    40  H    8.744245   7.107761   6.608971   4.884457   4.345343
    41  H    9.613679   8.495125   6.977068   6.408761   4.633537
    42  H   10.210398   8.628674   7.501658   5.925876   5.607170
    43  H    8.896324   7.843003   5.813216   5.482924   4.162306
    44  H    8.868137   7.704386   5.680920   5.076624   4.960233
    45  H    9.538740   8.044622   6.575562   5.166701   5.542388
                   36         37         38         39         40
    36  H    0.000000
    37  H    2.381865   0.000000
    38  H    2.962829   1.725350   0.000000
    39  H    4.361692   4.990418   3.709703   0.000000
    40  H    4.824927   5.551798   4.977123   3.011199   0.000000
    41  H    6.568942   6.876535   5.598123   2.583817   2.980479
    42  H    6.752900   7.850708   7.050854   3.892758   2.564608
    43  H    6.483578   7.440818   6.180269   2.478774   3.927672
    44  H    6.861015   8.427953   7.445409   4.029456   5.099903
    45  H    6.856778   8.510641   7.740444   4.410597   4.348607
                   41         42         43         44         45
    41  H    0.000000
    42  H    2.952373   0.000000
    43  H    2.414873   2.975258   0.000000
    44  H    4.630105   3.708171   2.356454   0.000000
    45  H    4.600119   2.604089   2.966952   1.717558   0.000000
 Stoichiometry    C12H22O11
 Framework group  C1[X(C12H22O11)]
 Deg. of freedom   129
 Full point group                 C1      NOp   1
 Largest Abelian subgroup         C1      NOp   1
 Largest concise Abelian subgroup C1      NOp   1
                         Standard orientation:                         
 ---------------------------------------------------------------------
 Center     Atomic      Atomic             Coordinates (Angstroms)
 Number     Number       Type             X           Y           Z
 ---------------------------------------------------------------------
      1          8           0       -5.115626   -0.401894    0.346279
      2          6           0       -3.779376   -0.080057   -0.066509
      3          6           0       -3.245480    1.282480    0.344635
      4          8           0       -4.181943    2.325755    0.037436
      5          1           0       -5.135692    2.042445    0.134173
      6          6           0       -1.876007    1.606511   -0.228950
      7          8           0       -1.185856    2.752538    0.289511
      8          1           0       -0.334523    2.869033   -0.223693
      9          6           0       -3.051513   -2.529162   -0.111821
     10          8           0       -4.274254   -3.227439    0.161258
     11          1           0       -4.066072   -4.204909    0.193583
     12          6           0       -2.735589   -1.110015    0.332152
     13          8           0       -1.491688   -0.774017   -0.301244
     14          6           0       -0.914802    0.476728    0.101621
     15          8           0        0.298083    0.486545   -0.664315
     16          6           0        1.528203    0.203976    0.018942
     17          6           0        1.949959   -1.168474   -0.482098
     18          8           0        1.081092   -2.251812   -0.121234
     19          1           0        0.146122   -1.996660   -0.367234
     20          6           0        3.312266   -1.552815    0.072862
     21          8           0        3.956610   -2.734511   -0.424737
     22          1           0        4.722748   -2.954240    0.180045
     23          6           0        2.386025    2.646881    0.084317
     24          8           0        1.278112    3.346521   -0.500648
     25          1           0        1.385620    4.297685   -0.210004
     26          6           0        2.648824    1.191006   -0.262266
     27          8           0        3.848881    0.760589    0.396681
     28          6           0        4.390661   -0.489817   -0.051515
     29          8           0        5.372907   -0.552437    0.992644
     30          1           0       -5.650699   -0.598070   -0.426257
     31          1           0        6.243256   -0.674364    0.606345
     32          1           0        4.821299   -0.427408   -1.029040
     33          1           0        3.165303   -1.711784    1.120731
     34          1           0        2.017264   -1.130865   -1.549316
     35          1           0        1.348597    0.159163    1.072808
     36          1           0        2.837883    1.152621   -1.314731
     37          1           0        3.270700    3.194032   -0.166431
     38          1           0        2.265760    2.700148    1.146202
     39          1           0       -0.695257    0.465363    1.148794
     40          1           0       -1.956023    1.698391   -1.291990
     41          1           0       -3.138665    1.264170    1.409132
     42          1           0       -3.799614   -0.077602   -1.136315
     43          1           0       -2.608263   -1.091688    1.394391
     44          1           0       -2.268541   -3.141951    0.283585
     45          1           0       -2.940761   -2.535664   -1.176053
 ---------------------------------------------------------------------
 Rotational constants (GHZ):      0.4036365      0.1443136      0.1092824
 Standard basis: 6-31+G(d,p) (6D, 7F)
 There are   547 symmetry adapted basis functions of A   symmetry.
 Integral buffers will be    131072 words long.
 Raffenetti 2 integral format.
 Two-electron integral symmetry is turned on.
   547 basis functions,   890 primitive gaussians,   547 cartesian basis functions
    91 alpha electrons       91 beta electrons
       nuclear repulsion energy      2279.5767959939 Hartrees.
 NAtoms=   45 NActive=   45 NUniq=   45 SFac= 1.00D+00 NAtFMM=   50 NAOKFM=F Big=F
 One-electron integrals computed using PRISM.
 NBasis=   547 RedAO= T  NBF=   547
 NBsUse=   547 1.00D-06 NBFU=   547
 Harris functional with IExCor=  402 diagonalized for initial guess.
 ExpMin= 4.38D-02 ExpMax= 5.48D+03 ExpMxC= 8.25D+02 IAcc=2 IRadAn=         0 AccDes= 0.00D+00
 HarFok:  IExCor=  402 AccDes= 0.00D+00 IRadAn=         0 IDoV= 1
 ScaDFX=  1.000000  1.000000  1.000000  1.000000
 FoFCou: FMM=F IPFlag=           0 FMFlag=      100000 FMFlg1=           0
         NFxFlg=           0 DoJE=T BraDBF=F KetDBF=T FulRan=T
         Omega=  0.000000  0.000000  1.000000  0.000000  0.000000 ICntrl=     500 IOpCl=  0
         NMat0=    1 NMatS0=    1 NMatT0=    0 NMatD0=    1 NMtDS0=    0 NMtDT0=    0
         I1Cent=           4 NGrid=           0.
 Petite list used in FoFCou.
 Initial guess orbital symmetries:
       Occupied  (A) (A) (A) (A) (A) (A) (A) (A) (A) (A) (A) (A)
                 (A) (A) (A) (A) (A) (A) (A) (A) (A) (A) (A) (A)
                 (A) (A) (A) (A) (A) (A) (A) (A) (A) (A) (A) (A)
                 (A) (A) (A) (A) (A) (A) (A) (A) (A) (A) (A) (A)
                 (A) (A) (A) (A) (A) (A) (A) (A) (A) (A) (A) (A)
                 (A) (A) (A) (A) (A) (A) (A) (A) (A) (A) (A) (A)
                 (A) (A) (A) (A) (A) (A) (A) (A) (A) (A) (A) (A)
                 (A) (A) (A) (A) (A) (A) (A)
       Virtual   (A) (A) (A) (A) (A) (A) (A) (A) (A) (A) (A) (A)
                 (A) (A) (A) (A) (A) (A) (A) (A) (A) (A) (A) (A)
                 (A) (A) (A) (A) (A) (A) (A) (A) (A) (A) (A) (A)
                 (A) (A) (A) (A) (A) (A) (A) (A) (A) (A) (A) (A)
                 (A) (A) (A) (A) (A) (A) (A) (A) (A) (A) (A) (A)
                 (A) (A) (A) (A) (A) (A) (A) (A) (A) (A) (A) (A)
                 (A) (A) (A) (A) (A) (A) (A) (A) (A) (A) (A) (A)
                 (A) (A) (A) (A) (A) (A) (A) (A) (A) (A) (A) (A)
                 (A) (A) (A) (A) (A) (A) (A) (A) (A) (A) (A) (A)
                 (A) (A) (A) (A) (A) (A) (A) (A) (A) (A) (A) (A)
                 (A) (A) (A) (A) (A) (A) (A) (A) (A) (A) (A) (A)
                 (A) (A) (A) (A) (A) (A) (A) (A) (A) (A) (A) (A)
                 (A) (A) (A) (A) (A) (A) (A) (A) (A) (A) (A) (A)
                 (A) (A) (A) (A) (A) (A) (A) (A) (A) (A) (A) (A)
                 (A) (A) (A) (A) (A) (A) (A) (A) (A) (A) (A) (A)
                 (A) (A) (A) (A) (A) (A) (A) (A) (A) (A) (A) (A)
                 (A) (A) (A) (A) (A) (A) (A) (A) (A) (A) (A) (A)
                 (A) (A) (A) (A) (A) (A) (A) (A) (A) (A) (A) (A)
                 (A) (A) (A) (A) (A) (A) (A) (A) (A) (A) (A) (A)
                 (A) (A) (A) (A) (A) (A) (A) (A) (A) (A) (A) (A)
                 (A) (A) (A) (A) (A) (A) (A) (A) (A) (A) (A) (A)
                 (A) (A) (A) (A) (A) (A) (A) (A) (A) (A) (A) (A)
                 (A) (A) (A) (A) (A) (A) (A) (A) (A) (A) (A) (A)
                 (A) (A) (A) (A) (A) (A) (A) (A) (A) (A) (A) (A)
                 (A) (A) (A) (A) (A) (A) (A) (A) (A) (A) (A) (A)
                 (A) (A) (A) (A) (A) (A) (A) (A) (A) (A) (A) (A)
                 (A) (A) (A) (A) (A) (A) (A) (A) (A) (A) (A) (A)
                 (A) (A) (A) (A) (A) (A) (A) (A) (A) (A) (A) (A)
                 (A) (A) (A) (A) (A) (A) (A) (A) (A) (A) (A) (A)
                 (A) (A) (A) (A) (A) (A) (A) (A) (A) (A) (A) (A)
                 (A) (A) (A) (A) (A) (A) (A) (A) (A) (A) (A) (A)
                 (A) (A) (A) (A) (A) (A) (A) (A) (A) (A) (A) (A)
                 (A) (A) (A) (A) (A) (A) (A) (A) (A) (A) (A) (A)
                 (A) (A) (A) (A) (A) (A) (A) (A) (A) (A) (A) (A)
                 (A) (A) (A) (A) (A) (A) (A) (A) (A) (A) (A) (A)
                 (A) (A) (A) (A) (A) (A) (A) (A) (A) (A) (A) (A)
                 (A) (A) (A) (A) (A) (A) (A) (A) (A) (A) (A) (A)
                 (A) (A) (A) (A) (A) (A) (A) (A) (A) (A) (A) (A)
 The electronic state of the initial guess is 1-A.
 Requested convergence on RMS density matrix=1.00D-08 within 128 cycles.
 Requested convergence on MAX density matrix=1.00D-06.
 Requested convergence on             energy=1.00D-06.
 No special actions if energy rises.
 SCF Done:  E(RB3LYP) =  -1297.92779220     A.U. after   13 cycles
             Convg  =    0.6279D-08             -V/T =  2.0087
 Range of M.O.s used for correlation:     1   547
 NBasis=   547 NAE=    91 NBE=    91 NFC=     0 NFV=     0
 NROrb=    547 NOA=    91 NOB=    91 NVA=   456 NVB=   456

 **** Warning!!: The largest alpha MO coefficient is  0.59841795D+02

          Differentiating once with respect to electric field.
                with respect to dipole field.
          Electric field/nuclear overlap derivatives assumed to be zero.
          There are     3 degrees of freedom in the 1st order CPHF.  IDoFFX=0.
      3 vectors produced by pass  0 Test12= 1.38D-12 3.33D-08 XBig12= 1.22D+02 1.38D+00.
 AX will form     3 AO Fock derivatives at one time.
      3 vectors produced by pass  1 Test12= 1.38D-12 3.33D-08 XBig12= 2.25D+01 3.38D-01.
      3 vectors produced by pass  2 Test12= 1.38D-12 3.33D-08 XBig12= 9.96D+00 2.34D-01.
      3 vectors produced by pass  3 Test12= 1.38D-12 3.33D-08 XBig12= 8.53D-01 8.61D-02.
      3 vectors produced by pass  4 Test12= 1.38D-12 3.33D-08 XBig12= 2.54D-01 4.28D-02.
      3 vectors produced by pass  5 Test12= 1.38D-12 3.33D-08 XBig12= 5.59D-02 2.30D-02.
      3 vectors produced by pass  6 Test12= 1.38D-12 3.33D-08 XBig12= 1.72D-02 1.44D-02.
      3 vectors produced by pass  7 Test12= 1.38D-12 3.33D-08 XBig12= 2.49D-03 7.42D-03.
      3 vectors produced by pass  8 Test12= 1.38D-12 3.33D-08 XBig12= 4.45D-04 2.24D-03.
      3 vectors produced by pass  9 Test12= 1.38D-12 3.33D-08 XBig12= 1.27D-04 1.41D-03.
      3 vectors produced by pass 10 Test12= 1.38D-12 3.33D-08 XBig12= 2.98D-05 4.88D-04.
      3 vectors produced by pass 11 Test12= 1.38D-12 3.33D-08 XBig12= 8.81D-06 3.12D-04.
      3 vectors produced by pass 12 Test12= 1.38D-12 3.33D-08 XBig12= 9.54D-07 1.08D-04.
      3 vectors produced by pass 13 Test12= 1.38D-12 3.33D-08 XBig12= 3.62D-07 4.88D-05.
      3 vectors produced by pass 14 Test12= 1.38D-12 3.33D-08 XBig12= 3.01D-08 1.55D-05.
      3 vectors produced by pass 15 Test12= 1.38D-12 3.33D-08 XBig12= 1.04D-08 6.58D-06.
      3 vectors produced by pass 16 Test12= 1.38D-12 3.33D-08 XBig12= 9.65D-10 1.92D-06.
      3 vectors produced by pass 17 Test12= 1.38D-12 3.33D-08 XBig12= 1.16D-10 5.74D-07.
      3 vectors produced by pass 18 Test12= 1.38D-12 3.33D-08 XBig12= 3.24D-11 4.12D-07.
      3 vectors produced by pass 19 Test12= 1.38D-12 3.33D-08 XBig12= 1.11D-11 2.99D-07.
      2 vectors produced by pass 20 Test12= 1.38D-12 3.33D-08 XBig12= 2.96D-12 1.26D-07.
      1 vectors produced by pass 21 Test12= 1.38D-12 3.33D-08 XBig12= 8.90D-13 5.65D-08.
 Inverted reduced A of dimension    63 with in-core refinement.
 End of Minotr Frequency-dependent properties file   721 does not exist.
 End of Minotr Frequency-dependent properties file   722 does not exist.
 Symmetrizing basis deriv contribution to polar:
 IMax=3 JMax=2 DiffMx= 0.00D+00
 G2DrvN: will do    23 centers at a time, making    2 passes doing MaxLOS=2.
 Calling FoFCou, ICntrl=  3107 FMM=F I1Cent=   0 AccDes= 0.00D+00.
 Calling FoFCou, ICntrl=  3107 FMM=F I1Cent=   0 AccDes= 0.00D+00.
 FoFDir/FoFCou used for L=0 through L=2.
 End of G2Drv Frequency-dependent properties file   721 does not exist.
 End of G2Drv Frequency-dependent properties file   722 does not exist.
          IDoAtm=111111111111111111111111111111111111111111111
          Differentiating once with respect to electric field.
                with respect to dipole field.
          Differentiating once with respect to nuclear coordinates.
          There are   138 degrees of freedom in the 1st order CPHF.  IDoFFX=5.
 Will reuse    3 saved solutions.
    135 vectors produced by pass  0 Test12= 4.15D-14 1.00D-09 XBig12= 2.10D-01 1.03D-01.
 AX will form    68 AO Fock derivatives at one time.
    135 vectors produced by pass  1 Test12= 4.15D-14 1.00D-09 XBig12= 3.70D-02 1.62D-02.
    132 vectors produced by pass  2 Test12= 4.15D-14 1.00D-09 XBig12= 2.27D-04 2.07D-03.
    132 vectors produced by pass  3 Test12= 4.15D-14 1.00D-09 XBig12= 8.00D-07 7.29D-05.
    132 vectors produced by pass  4 Test12= 4.15D-14 1.00D-09 XBig12= 1.34D-09 2.70D-06.
    131 vectors produced by pass  5 Test12= 4.15D-14 1.00D-09 XBig12= 2.89D-12 1.28D-07.
     77 vectors produced by pass  6 Test12= 4.15D-14 1.00D-09 XBig12= 1.18D-13 2.51D-08.
 Inverted reduced A of dimension   874 with in-core refinement.
 Isotropic polarizability for W=    0.000000      188.61 Bohr**3.
 End of Minotr Frequency-dependent properties file   721 does not exist.
 End of Minotr Frequency-dependent properties file   722 does not exist.

 **********************************************************************

            Population analysis using the SCF density.

 **********************************************************************

 Orbital symmetries:
       Occupied  (A) (A) (A) (A) (A) (A) (A) (A) (A) (A) (A) (A)
                 (A) (A) (A) (A) (A) (A) (A) (A) (A) (A) (A) (A)
                 (A) (A) (A) (A) (A) (A) (A) (A) (A) (A) (A) (A)
                 (A) (A) (A) (A) (A) (A) (A) (A) (A) (A) (A) (A)
                 (A) (A) (A) (A) (A) (A) (A) (A) (A) (A) (A) (A)
                 (A) (A) (A) (A) (A) (A) (A) (A) (A) (A) (A) (A)
                 (A) (A) (A) (A) (A) (A) (A) (A) (A) (A) (A) (A)
                 (A) (A) (A) (A) (A) (A) (A)
       Virtual   (A) (A) (A) (A) (A) (A) (A) (A) (A) (A) (A) (A)
                 (A) (A) (A) (A) (A) (A) (A) (A) (A) (A) (A) (A)
                 (A) (A) (A) (A) (A) (A) (A) (A) (A) (A) (A) (A)
                 (A) (A) (A) (A) (A) (A) (A) (A) (A) (A) (A) (A)
                 (A) (A) (A) (A) (A) (A) (A) (A) (A) (A) (A) (A)
                 (A) (A) (A) (A) (A) (A) (A) (A) (A) (A) (A) (A)
                 (A) (A) (A) (A) (A) (A) (A) (A) (A) (A) (A) (A)
                 (A) (A) (A) (A) (A) (A) (A) (A) (A) (A) (A) (A)
                 (A) (A) (A) (A) (A) (A) (A) (A) (A) (A) (A) (A)
                 (A) (A) (A) (A) (A) (A) (A) (A) (A) (A) (A) (A)
                 (A) (A) (A) (A) (A) (A) (A) (A) (A) (A) (A) (A)
                 (A) (A) (A) (A) (A) (A) (A) (A) (A) (A) (A) (A)
                 (A) (A) (A) (A) (A) (A) (A) (A) (A) (A) (A) (A)
                 (A) (A) (A) (A) (A) (A) (A) (A) (A) (A) (A) (A)
                 (A) (A) (A) (A) (A) (A) (A) (A) (A) (A) (A) (A)
                 (A) (A) (A) (A) (A) (A) (A) (A) (A) (A) (A) (A)
                 (A) (A) (A) (A) (A) (A) (A) (A) (A) (A) (A) (A)
                 (A) (A) (A) (A) (A) (A) (A) (A) (A) (A) (A) (A)
                 (A) (A) (A) (A) (A) (A) (A) (A) (A) (A) (A) (A)
                 (A) (A) (A) (A) (A) (A) (A) (A) (A) (A) (A) (A)
                 (A) (A) (A) (A) (A) (A) (A) (A) (A) (A) (A) (A)
                 (A) (A) (A) (A) (A) (A) (A) (A) (A) (A) (A) (A)
                 (A) (A) (A) (A) (A) (A) (A) (A) (A) (A) (A) (A)
                 (A) (A) (A) (A) (A) (A) (A) (A) (A) (A) (A) (A)
                 (A) (A) (A) (A) (A) (A) (A) (A) (A) (A) (A) (A)
                 (A) (A) (A) (A) (A) (A) (A) (A) (A) (A) (A) (A)
                 (A) (A) (A) (A) (A) (A) (A) (A) (A) (A) (A) (A)
                 (A) (A) (A) (A) (A) (A) (A) (A) (A) (A) (A) (A)
                 (A) (A) (A) (A) (A) (A) (A) (A) (A) (A) (A) (A)
                 (A) (A) (A) (A) (A) (A) (A) (A) (A) (A) (A) (A)
                 (A) (A) (A) (A) (A) (A) (A) (A) (A) (A) (A) (A)
                 (A) (A) (A) (A) (A) (A) (A) (A) (A) (A) (A) (A)
                 (A) (A) (A) (A) (A) (A) (A) (A) (A) (A) (A) (A)
                 (A) (A) (A) (A) (A) (A) (A) (A) (A) (A) (A) (A)
                 (A) (A) (A) (A) (A) (A) (A) (A) (A) (A) (A) (A)
                 (A) (A) (A) (A) (A) (A) (A) (A) (A) (A) (A) (A)
                 (A) (A) (A) (A) (A) (A) (A) (A) (A) (A) (A) (A)
                 (A) (A) (A) (A) (A) (A) (A) (A) (A) (A) (A) (A)
 The electronic state is 1-A.
 Alpha  occ. eigenvalues --  -19.20030 -19.18959 -19.18883 -19.18691 -19.18090
 Alpha  occ. eigenvalues --  -19.17912 -19.17110 -19.16865 -19.15764 -19.15623
 Alpha  occ. eigenvalues --  -19.14166 -10.31017 -10.30879 -10.26504 -10.26262
 Alpha  occ. eigenvalues --  -10.26058 -10.25822 -10.25588 -10.25250 -10.25090
 Alpha  occ. eigenvalues --  -10.25015 -10.24867 -10.24418  -1.10032  -1.09493
 Alpha  occ. eigenvalues --   -1.05943  -1.05213  -1.03968  -1.03328  -1.02749
 Alpha  occ. eigenvalues --   -1.02287  -1.01825  -1.01163  -1.00258  -0.82397
 Alpha  occ. eigenvalues --   -0.80515  -0.79359  -0.78563  -0.72095  -0.70157
 Alpha  occ. eigenvalues --   -0.67617  -0.65106  -0.63403  -0.62435  -0.61538
 Alpha  occ. eigenvalues --   -0.60452  -0.56960  -0.55737  -0.54911  -0.54713
 Alpha  occ. eigenvalues --   -0.53991  -0.53462  -0.53318  -0.52293  -0.51743
 Alpha  occ. eigenvalues --   -0.50903  -0.50206  -0.49329  -0.48819  -0.46566
 Alpha  occ. eigenvalues --   -0.46188  -0.45283  -0.44710  -0.43920  -0.43459
 Alpha  occ. eigenvalues --   -0.43061  -0.42323  -0.41678  -0.40326  -0.38939
 Alpha  occ. eigenvalues --   -0.38506  -0.38276  -0.37570  -0.35879  -0.35416
 Alpha  occ. eigenvalues --   -0.34842  -0.34802  -0.34137  -0.33962  -0.33669
 Alpha  occ. eigenvalues --   -0.32775  -0.31414  -0.31004  -0.30559  -0.29839
 Alpha  occ. eigenvalues --   -0.29268  -0.28647  -0.28350  -0.27623  -0.26976
 Alpha  occ. eigenvalues --   -0.26349
 Alpha virt. eigenvalues --   -0.02080  -0.02024  -0.01765  -0.00477   0.00215
 Alpha virt. eigenvalues --    0.00969   0.01858   0.02271   0.02568   0.03458
 Alpha virt. eigenvalues --    0.03695   0.04321   0.04683   0.05299   0.05731
 Alpha virt. eigenvalues --    0.05839   0.06394   0.07057   0.07689   0.08267
 Alpha virt. eigenvalues --    0.08524   0.08720   0.08987   0.09571   0.10041
 Alpha virt. eigenvalues --    0.10467   0.11155   0.11442   0.11739   0.12108
 Alpha virt. eigenvalues --    0.12469   0.12661   0.13074   0.13308   0.13637
 Alpha virt. eigenvalues --    0.13686   0.13862   0.14107   0.14757   0.15099
 Alpha virt. eigenvalues --    0.15550   0.16067   0.16731   0.17067   0.17271
 Alpha virt. eigenvalues --    0.17596   0.17691   0.17779   0.18055   0.18516
 Alpha virt. eigenvalues --    0.18771   0.19189   0.19371   0.19821   0.19948
 Alpha virt. eigenvalues --    0.20760   0.21042   0.21171   0.21533   0.21554
 Alpha virt. eigenvalues --    0.22199   0.22355   0.22482   0.23013   0.23175
 Alpha virt. eigenvalues --    0.23656   0.23742   0.23948   0.24135   0.24593
 Alpha virt. eigenvalues --    0.24985   0.25422   0.25638   0.25952   0.26017
 Alpha virt. eigenvalues --    0.26192   0.26550   0.26971   0.27192   0.27436
 Alpha virt. eigenvalues --    0.28054   0.28127   0.28199   0.28282   0.28472
 Alpha virt. eigenvalues --    0.28841   0.29239   0.29544   0.30280   0.30640
 Alpha virt. eigenvalues --    0.31131   0.31723   0.31948   0.32065   0.32100
 Alpha virt. eigenvalues --    0.32748   0.32940   0.33298   0.33531   0.33919
 Alpha virt. eigenvalues --    0.34187   0.34642   0.34790   0.35342   0.35768
 Alpha virt. eigenvalues --    0.36046   0.36402   0.36904   0.37250   0.37657
 Alpha virt. eigenvalues --    0.38039   0.38331   0.38513   0.39111   0.39562
 Alpha virt. eigenvalues --    0.39706   0.39917   0.41038   0.41298   0.41422
 Alpha virt. eigenvalues --    0.42418   0.42708   0.42986   0.43432   0.44141
 Alpha virt. eigenvalues --    0.44520   0.45100   0.45552   0.46602   0.47380
 Alpha virt. eigenvalues --    0.47751   0.48397   0.49157   0.49854   0.50698
 Alpha virt. eigenvalues --    0.51449   0.51898   0.55881   0.62241   0.63648
 Alpha virt. eigenvalues --    0.65310   0.65993   0.67614   0.68416   0.69355
 Alpha virt. eigenvalues --    0.70745   0.71432   0.72160   0.72638   0.74331
 Alpha virt. eigenvalues --    0.75116   0.75755   0.76161   0.77575   0.78727
 Alpha virt. eigenvalues --    0.79489   0.80402   0.81817   0.82419   0.83480
 Alpha virt. eigenvalues --    0.84538   0.86740   0.87228   0.88168   0.89628
 Alpha virt. eigenvalues --    0.89884   0.91884   0.92984   0.93324   0.95088
 Alpha virt. eigenvalues --    0.95512   0.95652   0.97597   0.98627   0.99666
 Alpha virt. eigenvalues --    1.00565   1.02046   1.02622   1.03610   1.04198
 Alpha virt. eigenvalues --    1.04543   1.04936   1.06463   1.06879   1.07801
 Alpha virt. eigenvalues --    1.08082   1.08279   1.08816   1.10168   1.10850
 Alpha virt. eigenvalues --    1.11644   1.12677   1.13992   1.14171   1.14907
 Alpha virt. eigenvalues --    1.16461   1.18045   1.18270   1.20436   1.20751
 Alpha virt. eigenvalues --    1.21960   1.22290   1.23571   1.24226   1.24377
 Alpha virt. eigenvalues --    1.24831   1.25716   1.26092   1.27824   1.28914
 Alpha virt. eigenvalues --    1.29110   1.29663   1.29947   1.31053   1.31108
 Alpha virt. eigenvalues --    1.32580   1.32834   1.33040   1.34118   1.34487
 Alpha virt. eigenvalues --    1.34818   1.35706   1.36380   1.36813   1.37224
 Alpha virt. eigenvalues --    1.38845   1.39677   1.41842   1.42094   1.43600
 Alpha virt. eigenvalues --    1.44765   1.45831   1.47187   1.47307   1.48461
 Alpha virt. eigenvalues --    1.49314   1.49889   1.50316   1.51052   1.52446
 Alpha virt. eigenvalues --    1.53465   1.55515   1.56443   1.57109   1.57831
 Alpha virt. eigenvalues --    1.58403   1.59145   1.60573   1.60616   1.61456
 Alpha virt. eigenvalues --    1.61659   1.63406   1.64327   1.64814   1.65371
 Alpha virt. eigenvalues --    1.65760   1.66559   1.67565   1.68336   1.69554
 Alpha virt. eigenvalues --    1.69722   1.71210   1.71728   1.72054   1.73957
 Alpha virt. eigenvalues --    1.74339   1.75114   1.75411   1.76627   1.76970
 Alpha virt. eigenvalues --    1.77614   1.78858   1.80358   1.81178   1.82055
 Alpha virt. eigenvalues --    1.82544   1.84067   1.84206   1.84857   1.86125
 Alpha virt. eigenvalues --    1.88638   1.89017   1.89594   1.89934   1.90964
 Alpha virt. eigenvalues --    1.92225   1.92570   1.93645   1.93903   1.94438
 Alpha virt. eigenvalues --    1.95454   1.96046   1.96397   1.97147   1.97829
 Alpha virt. eigenvalues --    2.00105   2.00690   2.01205   2.01378   2.02611
 Alpha virt. eigenvalues --    2.03359   2.03567   2.04226   2.05826   2.07198
 Alpha virt. eigenvalues --    2.07875   2.08771   2.09015   2.12260   2.12895
 Alpha virt. eigenvalues --    2.13557   2.13975   2.14024   2.15252   2.15542
 Alpha virt. eigenvalues --    2.16673   2.17602   2.18390   2.19480   2.19975
 Alpha virt. eigenvalues --    2.22051   2.22769   2.24457   2.25889   2.26688
 Alpha virt. eigenvalues --    2.28855   2.30127   2.31156   2.33108   2.34035
 Alpha virt. eigenvalues --    2.34741   2.36505   2.37685   2.38085   2.39094
 Alpha virt. eigenvalues --    2.39808   2.40732   2.41233   2.42453   2.43924
 Alpha virt. eigenvalues --    2.46017   2.46183   2.48008   2.48312   2.49020
 Alpha virt. eigenvalues --    2.49281   2.50149   2.50785   2.52535   2.54145
 Alpha virt. eigenvalues --    2.56731   2.57380   2.58314   2.59659   2.60401
 Alpha virt. eigenvalues --    2.61066   2.61638   2.62688   2.64065   2.64755
 Alpha virt. eigenvalues --    2.65784   2.66427   2.67307   2.67916   2.69742
 Alpha virt. eigenvalues --    2.70034   2.71123   2.73154   2.74167   2.74850
 Alpha virt. eigenvalues --    2.75809   2.76468   2.77195   2.79195   2.80075
 Alpha virt. eigenvalues --    2.81488   2.82472   2.83189   2.84322   2.84704
 Alpha virt. eigenvalues --    2.86923   2.87422   2.88269   2.89252   2.89886
 Alpha virt. eigenvalues --    2.90945   2.91072   2.91577   2.92162   2.93737
 Alpha virt. eigenvalues --    2.95352   2.95503   2.98139   2.98544   2.98910
 Alpha virt. eigenvalues --    3.00317   3.01635   3.04850   3.04898   3.05860
 Alpha virt. eigenvalues --    3.06671   3.07991   3.09451   3.09985   3.12801
 Alpha virt. eigenvalues --    3.15978   3.19256   3.21697   3.25134   3.28994
 Alpha virt. eigenvalues --    3.30840   3.36273   3.38313   3.38508   3.40880
 Alpha virt. eigenvalues --    3.42652   3.44127   3.45528   3.46499   3.49198
 Alpha virt. eigenvalues --    3.49565   3.51406   3.52308   3.52597   3.53642
 Alpha virt. eigenvalues --    3.56067   3.56767   3.59531   3.61676   3.65251
 Alpha virt. eigenvalues --    3.66035   3.67761   3.68600   4.29693   4.33393
 Alpha virt. eigenvalues --    4.34875   4.35276   4.40882   4.41687   4.45306
 Alpha virt. eigenvalues --    4.46298   4.50454   4.51358   4.52023   4.54343
 Alpha virt. eigenvalues --    4.55431   4.57974   4.61445   4.64709   4.70046
 Alpha virt. eigenvalues --    4.79641   4.80924   4.83559   4.85943   4.88838
 Alpha virt. eigenvalues --    4.90407
          Condensed to atoms (all electrons):
              1          2          3          4          5          6
     1  O    8.224377   0.353495  -0.114327  -0.011752   0.025610   0.049901
     2  C    0.353495   9.330210  -1.603402   0.031837  -0.097560  -3.061441
     3  C   -0.114327  -1.603402   8.814462   0.193264   0.056187   0.498511
     4  O   -0.011752   0.031837   0.193264   8.246862   0.200974  -0.129132
     5  H    0.025610  -0.097560   0.056187   0.200974   0.419960   0.011187
     6  C    0.049901  -3.061441   0.498511  -0.129132   0.011187  13.653696
     7  O   -0.000890   0.041647  -0.178372   0.010998  -0.000747   0.304347
     8  H    0.000020  -0.013580   0.040412  -0.000602   0.000008   0.058228
     9  C   -0.012009   0.022517  -0.343300   0.009156  -0.003471   0.544218
    10  O    0.002753   0.014735   0.021745   0.000114  -0.000028  -0.006185
    11  H    0.001356  -0.008873  -0.001787   0.000001   0.000000   0.000563
    12  C   -0.223796  -0.994472  -0.248592   0.011073   0.016579   0.167435
    13  O    0.003768  -0.049927   0.003550   0.000852  -0.000030  -0.121564
    14  C    0.027015   1.448361  -0.752633  -0.011714   0.014570  -4.314220
    15  O    0.000403  -0.037878   0.009210  -0.000391   0.000067   0.128522
    16  C    0.003640   0.048172  -0.195884   0.000179   0.001245  -0.927799
    17  C    0.000059  -0.008426  -0.005188   0.000988   0.000047  -0.022820
    18  O    0.000023   0.006492  -0.001062  -0.000008   0.000000  -0.013417
    19  H   -0.000028  -0.001678   0.004282  -0.000003   0.000000   0.009644
    20  C    0.000093   0.002074  -0.011051  -0.000017   0.000003   0.048635
    21  O    0.000000   0.000029  -0.000057   0.000000   0.000000  -0.000569
    22  H    0.000000   0.000000   0.000001   0.000000   0.000000  -0.000049
    23  C    0.000041   0.010844  -0.004251   0.000320  -0.000006  -0.296378
    24  O   -0.000005   0.006155  -0.009825  -0.000142  -0.000003  -0.001975
    25  H    0.000000  -0.000084   0.000645   0.000001   0.000000  -0.002857
    26  C   -0.000146   0.015689  -0.076546   0.000685   0.000018  -0.235785
    27  O    0.000000  -0.000314   0.001025   0.000001   0.000000   0.002669
    28  C    0.000000  -0.002326   0.002480  -0.000002   0.000000   0.010367
    29  O    0.000000  -0.000002   0.000039   0.000000   0.000000  -0.000230
    30  H    0.247102   0.011541   0.013824   0.000127  -0.002278   0.002027
    31  H    0.000000   0.000000   0.000000   0.000000   0.000000   0.000000
    32  H    0.000000  -0.000002   0.000008   0.000000   0.000000   0.000175
    33  H    0.000000   0.000016   0.000034   0.000000   0.000000   0.000101
    34  H    0.000000   0.000180   0.000237   0.000000   0.000000   0.000199
    35  H   -0.000001  -0.000941   0.001070   0.000006   0.000000   0.009842
    36  H    0.000000  -0.000020   0.000646   0.000000   0.000000   0.003913
    37  H    0.000000   0.000021  -0.000040   0.000000   0.000000  -0.000964
    38  H    0.000000  -0.000069   0.000804   0.000002   0.000000   0.001728
    39  H   -0.000001   0.015480  -0.041495  -0.000078   0.000001  -0.093955
    40  H   -0.001125   0.113286  -0.205031   0.008051  -0.000054   0.202862
    41  H   -0.007670   0.211063   0.187208  -0.044547  -0.001661  -0.375863
    42  H   -0.052425   0.487145  -0.154579   0.003408  -0.000733  -0.019486
    43  H    0.006130   0.023884  -0.054910   0.000168  -0.000007  -0.021787
    44  H    0.000694   0.001612  -0.004445   0.000031   0.000000  -0.002689
    45  H    0.000636  -0.019658  -0.006379  -0.000024   0.000000   0.024691
              7          8          9         10         11         12
     1  O   -0.000890   0.000020  -0.012009   0.002753   0.001356  -0.223796
     2  C    0.041647  -0.013580   0.022517   0.014735  -0.008873  -0.994472
     3  C   -0.178372   0.040412  -0.343300   0.021745  -0.001787  -0.248592
     4  O    0.010998  -0.000602   0.009156   0.000114   0.000001   0.011073
     5  H   -0.000747   0.000008  -0.003471  -0.000028   0.000000   0.016579
     6  C    0.304347   0.058228   0.544218  -0.006185   0.000563   0.167435
     7  O    8.206376   0.212567  -0.000591   0.000009   0.000000   0.027881
     8  H    0.212567   0.349386   0.000217   0.000000   0.000000  -0.001758
     9  C   -0.000591   0.000217   8.333302   0.122094   0.009650  -2.953663
    10  O    0.000009   0.000000   0.122094   8.347257   0.195696  -0.048257
    11  H    0.000000   0.000000   0.009650   0.195696   0.437447   0.024791
    12  C    0.027881  -0.001758  -2.953663  -0.048257   0.024791  10.836050
    13  O    0.012965   0.000299   0.090985  -0.004321   0.000180  -0.185476
    14  C   -0.091112  -0.090663  -0.563857   0.006373  -0.003662  -0.535755
    15  O   -0.001522   0.022600  -0.013098  -0.000071   0.000006   0.036491
    16  C    0.007830   0.018390  -0.265251  -0.002406  -0.000139   0.098250
    17  C    0.007640   0.004243   0.027743   0.000411  -0.000059  -0.115354
    18  O   -0.000063  -0.000018   0.001480  -0.000056   0.000011  -0.002643
    19  H   -0.000095  -0.000003  -0.001826  -0.000023  -0.000005   0.001244
    20  C    0.004976   0.001400   0.002458   0.000027   0.000010  -0.030491
    21  O   -0.000006   0.000000   0.000038   0.000000   0.000000  -0.000069
    22  H    0.000000   0.000000   0.000000   0.000000   0.000000   0.000036
    23  C    0.008644   0.014308  -0.001760  -0.000009   0.000000  -0.002457
    24  O   -0.028720  -0.012849   0.000354   0.000000   0.000000   0.000472
    25  H    0.001314  -0.001342  -0.000010   0.000000   0.000000  -0.000277
    26  C   -0.000504  -0.035951  -0.009408  -0.000026   0.000003   0.065219
    27  O    0.000138   0.000048  -0.000106   0.000000   0.000000   0.000059
    28  C   -0.000173  -0.000025  -0.002175  -0.000002  -0.000001   0.004845
    29  O   -0.000007  -0.000001   0.000002   0.000000   0.000000   0.000059
    30  H   -0.000014   0.000000  -0.002773  -0.001686  -0.000031  -0.010861
    31  H    0.000000   0.000000   0.000000   0.000000   0.000000  -0.000002
    32  H    0.000001   0.000000   0.000000   0.000000   0.000000  -0.000001
    33  H    0.000006   0.000000  -0.000107   0.000000   0.000000   0.000342
    34  H    0.000020   0.000004  -0.000407   0.000000   0.000000   0.001712
    35  H   -0.000509   0.000112   0.000115   0.000001   0.000000   0.005249
    36  H    0.000040   0.000013   0.000048   0.000000   0.000000   0.000536
    37  H   -0.000631   0.000240  -0.000003   0.000000   0.000000  -0.000030
    38  H    0.001480   0.000718   0.000001   0.000000   0.000000   0.000435
    39  H    0.001193  -0.000792   0.006779   0.000064   0.000000   0.006455
    40  H   -0.036019  -0.008609   0.011537   0.000024   0.000000   0.008481
    41  H    0.011310  -0.000136   0.026931   0.000073   0.000001  -0.017812
    42  H    0.000585   0.000003   0.030917  -0.000470   0.000007  -0.144308
    43  H    0.000250   0.000003   0.058896   0.005652  -0.000060   0.163340
    44  H   -0.000014   0.000000   0.406855  -0.040778  -0.015054  -0.042292
    45  H    0.000006   0.000000   0.706535  -0.071911   0.000179  -0.341789
             13         14         15         16         17         18
     1  O    0.003768   0.027015   0.000403   0.003640   0.000059   0.000023
     2  C   -0.049927   1.448361  -0.037878   0.048172  -0.008426   0.006492
     3  C    0.003550  -0.752633   0.009210  -0.195884  -0.005188  -0.001062
     4  O    0.000852  -0.011714  -0.000391   0.000179   0.000988  -0.000008
     5  H   -0.000030   0.014570   0.000067   0.001245   0.000047   0.000000
     6  C   -0.121564  -4.314220   0.128522  -0.927799  -0.022820  -0.013417
     7  O    0.012965  -0.091112  -0.001522   0.007830   0.007640  -0.000063
     8  H    0.000299  -0.090663   0.022600   0.018390   0.004243  -0.000018
     9  C    0.090985  -0.563857  -0.013098  -0.265251   0.027743   0.001480
    10  O   -0.004321   0.006373  -0.000071  -0.002406   0.000411  -0.000056
    11  H    0.000180  -0.003662   0.000006  -0.000139  -0.000059   0.000011
    12  C   -0.185476  -0.535755   0.036491   0.098250  -0.115354  -0.002643
    13  O    8.519741   0.182517  -0.020596   0.063180  -0.033362   0.011031
    14  C    0.182517  11.518572   0.133592  -0.584139  -0.109995  -0.056973
    15  O   -0.020596   0.133592   8.265293   0.006005  -0.021105  -0.001331
    16  C    0.063180  -0.584139   0.006005  13.547401  -2.030292  -0.091890
    17  C   -0.033362  -0.109995  -0.021105  -2.030292   8.658221   0.323734
    18  O    0.011031  -0.056973  -0.001331  -0.091890   0.323734   8.219269
    19  H    0.021349  -0.012838   0.015006  -0.075351   0.062516   0.192093
    20  C   -0.006882  -0.481390   0.012234  -0.940529  -1.479519  -0.117839
    21  O    0.000056   0.001050   0.000082   0.013441  -0.155699   0.006945
    22  H   -0.000001  -0.000194   0.000031  -0.013815   0.058717  -0.000742
    23  C    0.023337  -0.058773  -0.024203   0.072062  -0.328274   0.008729
    24  O   -0.001503   0.089791  -0.013951  -0.028966  -0.004547   0.000118
    25  H    0.000009  -0.007362   0.000963  -0.001337  -0.001530   0.000000
    26  C   -0.019308  -1.037316  -0.031812  -3.901132   0.126643   0.067773
    27  O    0.000358   0.000951   0.007893  -0.149704   0.054305   0.000519
    28  C    0.000887   0.068438   0.011562   0.640095   0.621648   0.012783
    29  O    0.000017   0.005227   0.000028   0.072474   0.026385  -0.000625
    30  H   -0.000779  -0.003522  -0.000014   0.000202  -0.000065   0.000000
    31  H    0.000000  -0.000136  -0.000003  -0.013579   0.003059  -0.000040
    32  H   -0.000002   0.005456   0.000120   0.107102  -0.001502  -0.000774
    33  H    0.000219   0.003507  -0.000998   0.088619  -0.136150   0.000681
    34  H    0.002073   0.043543  -0.011240   0.034085   0.363158  -0.046280
    35  H    0.000853   0.019255  -0.065522   0.345544   0.015501  -0.002401
    36  H   -0.000143   0.058950   0.004844   0.065184   0.032470  -0.000320
    37  H   -0.000007   0.002204  -0.000242   0.003461  -0.008639   0.000022
    38  H    0.000143   0.003277   0.001961   0.004060   0.014217   0.000017
    39  H   -0.060086   0.368843  -0.069089   0.025273   0.033005  -0.001071
    40  H    0.014129   0.093120  -0.008533   0.026454   0.005514   0.000080
    41  H    0.008015   0.189766  -0.000813   0.008318   0.001885   0.000038
    42  H    0.010554   0.066766  -0.000611  -0.002055   0.001547   0.000031
    43  H   -0.045477   0.092650  -0.001480   0.002504   0.005371   0.000030
    44  H    0.001578   0.003424  -0.000062   0.010852  -0.001573  -0.000692
    45  H    0.008399  -0.005309  -0.000283  -0.009427   0.002464   0.000079
             19         20         21         22         23         24
     1  O   -0.000028   0.000093   0.000000   0.000000   0.000041  -0.000005
     2  C   -0.001678   0.002074   0.000029   0.000000   0.010844   0.006155
     3  C    0.004282  -0.011051  -0.000057   0.000001  -0.004251  -0.009825
     4  O   -0.000003  -0.000017   0.000000   0.000000   0.000320  -0.000142
     5  H    0.000000   0.000003   0.000000   0.000000  -0.000006  -0.000003
     6  C    0.009644   0.048635  -0.000569  -0.000049  -0.296378  -0.001975
     7  O   -0.000095   0.004976  -0.000006   0.000000   0.008644  -0.028720
     8  H   -0.000003   0.001400   0.000000   0.000000   0.014308  -0.012849
     9  C   -0.001826   0.002458   0.000038   0.000000  -0.001760   0.000354
    10  O   -0.000023   0.000027   0.000000   0.000000  -0.000009   0.000000
    11  H   -0.000005   0.000010   0.000000   0.000000   0.000000   0.000000
    12  C    0.001244  -0.030491  -0.000069   0.000036  -0.002457   0.000472
    13  O    0.021349  -0.006882   0.000056  -0.000001   0.023337  -0.001503
    14  C   -0.012838  -0.481390   0.001050  -0.000194  -0.058773   0.089791
    15  O    0.015006   0.012234   0.000082   0.000031  -0.024203  -0.013951
    16  C   -0.075351  -0.940529   0.013441  -0.013815   0.072062  -0.028966
    17  C    0.062516  -1.479519  -0.155699   0.058717  -0.328274  -0.004547
    18  O    0.192093  -0.117839   0.006945  -0.000742   0.008729   0.000118
    19  H    0.375090   0.009014  -0.000870   0.000018  -0.003059  -0.000001
    20  C    0.009014   9.714340   0.290788  -0.055308   0.193594  -0.007509
    21  O   -0.000870   0.290788   8.235038   0.216110  -0.000897   0.000025
    22  H    0.000018  -0.055308   0.216110   0.425843  -0.000321   0.000000
    23  C   -0.003059   0.193594  -0.000897  -0.000321   6.397830  -0.093586
    24  O   -0.000001  -0.007509   0.000025   0.000000  -0.093586   8.482180
    25  H    0.000000   0.001037   0.000000   0.000000   0.022945   0.207336
    26  C    0.012495   0.905435  -0.005534   0.004706  -0.592086   0.107645
    27  O    0.000133  -0.279270   0.007657   0.000053  -0.105835   0.001354
    28  C   -0.003569  -1.760846  -0.059765   0.009813  -0.185260   0.009075
    29  O    0.000034  -0.163529  -0.003272   0.017510  -0.005882   0.000138
    30  H    0.000000   0.000001   0.000000   0.000000   0.000004   0.000000
    31  H    0.000000  -0.003765  -0.002603  -0.001553   0.002205   0.000000
    32  H    0.000005  -0.121948   0.000676  -0.000863  -0.003878  -0.000003
    33  H    0.000055   0.380020  -0.043297  -0.009932   0.014552  -0.000021
    34  H   -0.005223  -0.123536   0.000974  -0.000174   0.025793  -0.000074
    35  H   -0.000310  -0.011384  -0.000706   0.000006   0.016943  -0.000501
    36  H    0.000005  -0.082668  -0.000028   0.000003  -0.025512   0.004263
    37  H    0.000000   0.002003   0.000002   0.000000   0.459138  -0.047757
    38  H    0.000000  -0.009209  -0.000008   0.000000   0.499971  -0.071299
    39  H    0.000227   0.011229   0.000001   0.000000   0.006937   0.000243
    40  H   -0.000013   0.000787   0.000000   0.000000   0.005842   0.001574
    41  H   -0.000001   0.000056   0.000000   0.000000   0.000946   0.000118
    42  H    0.000000   0.000042   0.000000   0.000000   0.000120   0.000009
    43  H    0.000133   0.000911   0.000000   0.000000   0.000360   0.000004
    44  H    0.000640  -0.001036   0.000000   0.000000   0.000013   0.000000
    45  H   -0.000112   0.000240   0.000000   0.000000  -0.000008   0.000000
             25         26         27         28         29         30
     1  O    0.000000  -0.000146   0.000000   0.000000   0.000000   0.247102
     2  C   -0.000084   0.015689  -0.000314  -0.002326  -0.000002   0.011541
     3  C    0.000645  -0.076546   0.001025   0.002480   0.000039   0.013824
     4  O    0.000001   0.000685   0.000001  -0.000002   0.000000   0.000127
     5  H    0.000000   0.000018   0.000000   0.000000   0.000000  -0.002278
     6  C   -0.002857  -0.235785   0.002669   0.010367  -0.000230   0.002027
     7  O    0.001314  -0.000504   0.000138  -0.000173  -0.000007  -0.000014
     8  H   -0.001342  -0.035951   0.000048  -0.000025  -0.000001   0.000000
     9  C   -0.000010  -0.009408  -0.000106  -0.002175   0.000002  -0.002773
    10  O    0.000000  -0.000026   0.000000  -0.000002   0.000000  -0.001686
    11  H    0.000000   0.000003   0.000000  -0.000001   0.000000  -0.000031
    12  C   -0.000277   0.065219   0.000059   0.004845   0.000059  -0.010861
    13  O    0.000009  -0.019308   0.000358   0.000887   0.000017  -0.000779
    14  C   -0.007362  -1.037316   0.000951   0.068438   0.005227  -0.003522
    15  O    0.000963  -0.031812   0.007893   0.011562   0.000028  -0.000014
    16  C   -0.001337  -3.901132  -0.149704   0.640095   0.072474   0.000202
    17  C   -0.001530   0.126643   0.054305   0.621648   0.026385  -0.000065
    18  O    0.000000   0.067773   0.000519   0.012783  -0.000625   0.000000
    19  H    0.000000   0.012495   0.000133  -0.003569   0.000034   0.000000
    20  C    0.001037   0.905435  -0.279270  -1.760846  -0.163529   0.000001
    21  O    0.000000  -0.005534   0.007657  -0.059765  -0.003272   0.000000
    22  H    0.000000   0.004706   0.000053   0.009813   0.017510   0.000000
    23  C    0.022945  -0.592086  -0.105835  -0.185260  -0.005882   0.000004
    24  O    0.207336   0.107645   0.001354   0.009075   0.000138   0.000000
    25  H    0.410955   0.006576  -0.000342  -0.002491   0.000002   0.000000
    26  C    0.006576  11.813165   0.335569  -1.025868  -0.119464  -0.000009
    27  O   -0.000342   0.335569   8.487066   0.161304  -0.151861   0.000000
    28  C   -0.002491  -1.025868   0.161304   6.355694   0.449480   0.000000
    29  O    0.000002  -0.119464  -0.151861   0.449480   8.261784   0.000000
    30  H    0.000000  -0.000009   0.000000   0.000000   0.000000   0.384562
    31  H    0.000000   0.010032   0.000877   0.015954   0.223383   0.000000
    32  H    0.000000  -0.085169  -0.050834   0.447205  -0.054012   0.000000
    33  H    0.000000  -0.029442   0.007157  -0.024652  -0.008800   0.000000
    34  H    0.000000  -0.061750   0.003351   0.005065  -0.000376   0.000000
    35  H    0.000002  -0.124077   0.006081   0.020991  -0.000742   0.000000
    36  H   -0.000169   0.131386  -0.043354   0.077064  -0.001684   0.000000
    37  H   -0.008081  -0.063818  -0.004506  -0.002349  -0.000345   0.000000
    38  H   -0.004287  -0.180305   0.008217   0.015848  -0.000242   0.000000
    39  H    0.000014   0.011512   0.000101  -0.001756  -0.000002   0.000002
    40  H   -0.000015  -0.002744   0.000001  -0.000163   0.000000   0.000019
    41  H    0.000000   0.000095   0.000000  -0.000030   0.000000  -0.000058
    42  H    0.000000  -0.000103   0.000000  -0.000009   0.000000  -0.012502
    43  H    0.000000  -0.000676   0.000000  -0.000085   0.000000  -0.000101
    44  H    0.000000   0.000264   0.000001   0.000085   0.000000  -0.000029
    45  H    0.000000  -0.000255   0.000000  -0.000023   0.000000   0.000064
             31         32         33         34         35         36
     1  O    0.000000   0.000000   0.000000   0.000000  -0.000001   0.000000
     2  C    0.000000  -0.000002   0.000016   0.000180  -0.000941  -0.000020
     3  C    0.000000   0.000008   0.000034   0.000237   0.001070   0.000646
     4  O    0.000000   0.000000   0.000000   0.000000   0.000006   0.000000
     5  H    0.000000   0.000000   0.000000   0.000000   0.000000   0.000000
     6  C    0.000000   0.000175   0.000101   0.000199   0.009842   0.003913
     7  O    0.000000   0.000001   0.000006   0.000020  -0.000509   0.000040
     8  H    0.000000   0.000000   0.000000   0.000004   0.000112   0.000013
     9  C    0.000000   0.000000  -0.000107  -0.000407   0.000115   0.000048
    10  O    0.000000   0.000000   0.000000   0.000000   0.000001   0.000000
    11  H    0.000000   0.000000   0.000000   0.000000   0.000000   0.000000
    12  C   -0.000002  -0.000001   0.000342   0.001712   0.005249   0.000536
    13  O    0.000000  -0.000002   0.000219   0.002073   0.000853  -0.000143
    14  C   -0.000136   0.005456   0.003507   0.043543   0.019255   0.058950
    15  O   -0.000003   0.000120  -0.000998  -0.011240  -0.065522   0.004844
    16  C   -0.013579   0.107102   0.088619   0.034085   0.345544   0.065184
    17  C    0.003059  -0.001502  -0.136150   0.363158   0.015501   0.032470
    18  O   -0.000040  -0.000774   0.000681  -0.046280  -0.002401  -0.000320
    19  H    0.000000   0.000005   0.000055  -0.005223  -0.000310   0.000005
    20  C   -0.003765  -0.121948   0.380020  -0.123536  -0.011384  -0.082668
    21  O   -0.002603   0.000676  -0.043297   0.000974  -0.000706  -0.000028
    22  H   -0.001553  -0.000863  -0.009932  -0.000174   0.000006   0.000003
    23  C    0.002205  -0.003878   0.014552   0.025793   0.016943  -0.025512
    24  O    0.000000  -0.000003  -0.000021  -0.000074  -0.000501   0.004263
    25  H    0.000000   0.000000   0.000000   0.000000   0.000002  -0.000169
    26  C    0.010032  -0.085169  -0.029442  -0.061750  -0.124077   0.131386
    27  O    0.000877  -0.050834   0.007157   0.003351   0.006081  -0.043354
    28  C    0.015954   0.447205  -0.024652   0.005065   0.020991   0.077064
    29  O    0.223383  -0.054012  -0.008800  -0.000376  -0.000742  -0.001684
    30  H    0.000000   0.000000   0.000000   0.000000   0.000000   0.000000
    31  H    0.417343  -0.006065   0.000233   0.000004   0.000003   0.000041
    32  H   -0.006065   0.611957   0.004899   0.001545  -0.000003   0.005555
    33  H    0.000233   0.004899   0.587192   0.006818   0.002969   0.000158
    34  H    0.000004   0.001545   0.006818   0.609150   0.005728   0.003669
    35  H    0.000003  -0.000003   0.002969   0.005728   0.603792   0.006692
    36  H    0.000041   0.005555   0.000158   0.003669   0.006692   0.631434
    37  H   -0.000002  -0.000017   0.000003   0.000007  -0.000063  -0.009625
    38  H    0.000000   0.000001   0.000004   0.000002   0.003920   0.007216
    39  H    0.000000   0.000000  -0.000018  -0.000043   0.012398  -0.000008
    40  H    0.000000   0.000000   0.000000  -0.000004   0.000002  -0.000004
    41  H    0.000000   0.000000   0.000000   0.000000  -0.000004   0.000000
    42  H    0.000000   0.000000   0.000000   0.000000   0.000000   0.000000
    43  H    0.000000   0.000000   0.000000   0.000000  -0.000015   0.000000
    44  H    0.000000   0.000000   0.000000   0.000000   0.000000   0.000000
    45  H    0.000000   0.000000   0.000000   0.000000   0.000000   0.000000
             37         38         39         40         41         42
     1  O    0.000000   0.000000  -0.000001  -0.001125  -0.007670  -0.052425
     2  C    0.000021  -0.000069   0.015480   0.113286   0.211063   0.487145
     3  C   -0.000040   0.000804  -0.041495  -0.205031   0.187208  -0.154579
     4  O    0.000000   0.000002  -0.000078   0.008051  -0.044547   0.003408
     5  H    0.000000   0.000000   0.000001  -0.000054  -0.001661  -0.000733
     6  C   -0.000964   0.001728  -0.093955   0.202862  -0.375863  -0.019486
     7  O   -0.000631   0.001480   0.001193  -0.036019   0.011310   0.000585
     8  H    0.000240   0.000718  -0.000792  -0.008609  -0.000136   0.000003
     9  C   -0.000003   0.000001   0.006779   0.011537   0.026931   0.030917
    10  O    0.000000   0.000000   0.000064   0.000024   0.000073  -0.000470
    11  H    0.000000   0.000000   0.000000   0.000000   0.000001   0.000007
    12  C   -0.000030   0.000435   0.006455   0.008481  -0.017812  -0.144308
    13  O   -0.000007   0.000143  -0.060086   0.014129   0.008015   0.010554
    14  C    0.002204   0.003277   0.368843   0.093120   0.189766   0.066766
    15  O   -0.000242   0.001961  -0.069089  -0.008533  -0.000813  -0.000611
    16  C    0.003461   0.004060   0.025273   0.026454   0.008318  -0.002055
    17  C   -0.008639   0.014217   0.033005   0.005514   0.001885   0.001547
    18  O    0.000022   0.000017  -0.001071   0.000080   0.000038   0.000031
    19  H    0.000000   0.000000   0.000227  -0.000013  -0.000001   0.000000
    20  C    0.002003  -0.009209   0.011229   0.000787   0.000056   0.000042
    21  O    0.000002  -0.000008   0.000001   0.000000   0.000000   0.000000
    22  H    0.000000   0.000000   0.000000   0.000000   0.000000   0.000000
    23  C    0.459138   0.499971   0.006937   0.005842   0.000946   0.000120
    24  O   -0.047757  -0.071299   0.000243   0.001574   0.000118   0.000009
    25  H   -0.008081  -0.004287   0.000014  -0.000015   0.000000   0.000000
    26  C   -0.063818  -0.180305   0.011512  -0.002744   0.000095  -0.000103
    27  O   -0.004506   0.008217   0.000101   0.000001   0.000000   0.000000
    28  C   -0.002349   0.015848  -0.001756  -0.000163  -0.000030  -0.000009
    29  O   -0.000345  -0.000242  -0.000002   0.000000   0.000000   0.000000
    30  H    0.000000   0.000000   0.000002   0.000019  -0.000058  -0.012502
    31  H   -0.000002   0.000000   0.000000   0.000000   0.000000   0.000000
    32  H   -0.000017   0.000001   0.000000   0.000000   0.000000   0.000000
    33  H    0.000003   0.000004  -0.000018   0.000000   0.000000   0.000000
    34  H    0.000007   0.000002  -0.000043  -0.000004   0.000000   0.000000
    35  H   -0.000063   0.003920   0.012398   0.000002  -0.000004   0.000000
    36  H   -0.009625   0.007216  -0.000008  -0.000004   0.000000   0.000000
    37  H    0.585103  -0.047477   0.000002   0.000001   0.000000   0.000000
    38  H   -0.047477   0.599692   0.000030  -0.000004   0.000000   0.000000
    39  H    0.000002   0.000030   0.631468   0.005363   0.003850   0.000057
    40  H    0.000001  -0.000004   0.005363   0.608440   0.007783   0.004288
    41  H    0.000000   0.000000   0.003850   0.007783   0.652095   0.007774
    42  H    0.000000   0.000000   0.000057   0.004288   0.007774   0.633247
    43  H    0.000000   0.000000   0.006074   0.000024   0.004719   0.006816
    44  H    0.000000   0.000000  -0.000001   0.000001   0.000000  -0.000030
    45  H    0.000000   0.000000  -0.000002  -0.000008   0.000005   0.004645
             43         44         45
     1  O    0.006130   0.000694   0.000636
     2  C    0.023884   0.001612  -0.019658
     3  C   -0.054910  -0.004445  -0.006379
     4  O    0.000168   0.000031  -0.000024
     5  H   -0.000007   0.000000   0.000000
     6  C   -0.021787  -0.002689   0.024691
     7  O    0.000250  -0.000014   0.000006
     8  H    0.000003   0.000000   0.000000
     9  C    0.058896   0.406855   0.706535
    10  O    0.005652  -0.040778  -0.071911
    11  H   -0.000060  -0.015054   0.000179
    12  C    0.163340  -0.042292  -0.341789
    13  O   -0.045477   0.001578   0.008399
    14  C    0.092650   0.003424  -0.005309
    15  O   -0.001480  -0.000062  -0.000283
    16  C    0.002504   0.010852  -0.009427
    17  C    0.005371  -0.001573   0.002464
    18  O    0.000030  -0.000692   0.000079
    19  H    0.000133   0.000640  -0.000112
    20  C    0.000911  -0.001036   0.000240
    21  O    0.000000   0.000000   0.000000
    22  H    0.000000   0.000000   0.000000
    23  C    0.000360   0.000013  -0.000008
    24  O    0.000004   0.000000   0.000000
    25  H    0.000000   0.000000   0.000000
    26  C   -0.000676   0.000264  -0.000255
    27  O    0.000000   0.000001   0.000000
    28  C   -0.000085   0.000085  -0.000023
    29  O    0.000000   0.000000   0.000000
    30  H   -0.000101  -0.000029   0.000064
    31  H    0.000000   0.000000   0.000000
    32  H    0.000000   0.000000   0.000000
    33  H    0.000000   0.000000   0.000000
    34  H    0.000000   0.000000   0.000000
    35  H   -0.000015   0.000000   0.000000
    36  H    0.000000   0.000000   0.000000
    37  H    0.000000   0.000000   0.000000
    38  H    0.000000   0.000000   0.000000
    39  H    0.006074  -0.000001  -0.000002
    40  H    0.000024   0.000001  -0.000008
    41  H    0.004719   0.000000   0.000005
    42  H    0.006816  -0.000030   0.004645
    43  H    0.620763  -0.010351   0.007262
    44  H   -0.010351   0.612568  -0.050065
    45  H    0.007262  -0.050065   0.608530
 Mulliken atomic charges:
              1
     1  O   -0.522940
     2  C   -0.295832
     3  C    0.163515
     4  O   -0.520682
     5  H    0.360124
     6  C   -0.084295
     7  O   -0.522233
     8  H    0.443108
     9  C   -0.239011
    10  O   -0.540799
    11  H    0.359769
    12  C    0.423122
    13  O   -0.431581
    14  C    0.274346
    15  O   -0.332064
    16  C   -0.080327
    17  C    0.012609
    18  O   -0.513734
    19  H    0.401026
    20  C    0.106326
    21  O   -0.499531
    22  H    0.350103
    23  C   -0.053042
    24  O   -0.587618
    25  H    0.378385
    26  C    0.024325
    27  O   -0.300761
    28  C    0.130885
    29  O   -0.545484
    30  H    0.375248
    31  H    0.354613
    32  H    0.140369
    33  H    0.155832
    34  H    0.141790
    35  H    0.130106
    36  H    0.129406
    37  H    0.142393
    38  H    0.149156
    39  H    0.121799
    40  H    0.144666
    41  H    0.126547
    42  H    0.129349
    43  H    0.129007
    44  H    0.130491
    45  H    0.141519
 Sum of Mulliken atomic charges =   0.00000
 Mulliken charges with hydrogens summed into heavy atoms:
              1
     1  O   -0.147693
     2  C   -0.166483
     3  C    0.290062
     4  O   -0.160558
     6  C    0.060371
     7  O   -0.079125
     9  C    0.032999
    10  O   -0.181030
    12  C    0.552130
    13  O   -0.431581
    14  C    0.396145
    15  O   -0.332064
    16  C    0.049780
    17  C    0.154399
    18  O   -0.112708
    20  C    0.262158
    21  O   -0.149427
    23  C    0.238507
    24  O   -0.209233
    26  C    0.153731
    27  O   -0.300761
    28  C    0.271254
    29  O   -0.190871
 Sum of Mulliken charges with hydrogens summed into heavy atoms =   0.00000
 APT atomic charges:
              1
     1  O   -0.637905
     2  C    0.418231
     3  C    0.427473
     4  O   -0.661988
     5  H    0.273125
     6  C    0.362503
     7  O   -0.760713
     8  H    0.485140
     9  C    0.474742
    10  O   -0.620023
    11  H    0.252930
    12  C    0.442892
    13  O   -0.863594
    14  C    0.965984
    15  O   -0.877295
    16  C    0.435068
    17  C    0.403839
    18  O   -0.668918
    19  H    0.350883
    20  C    0.364767
    21  O   -0.630172
    22  H    0.255435
    23  C    0.449483
    24  O   -0.672107
    25  H    0.266761
    26  C    0.431094
    27  O   -0.760301
    28  C    0.902926
    29  O   -0.641197
    30  H    0.269873
    31  H    0.254905
    32  H   -0.073029
    33  H   -0.030383
    34  H   -0.046117
    35  H   -0.031416
    36  H   -0.060390
    37  H   -0.046904
    38  H   -0.037722
    39  H   -0.056668
    40  H   -0.035645
    41  H   -0.061420
    42  H   -0.050898
    43  H   -0.059927
    44  H   -0.053381
    45  H   -0.049944
 Sum of APT charges=   0.00000
 APT Atomic charges with hydrogens summed into heavy atoms:
              1
     1  O   -0.368032
     2  C    0.367334
     3  C    0.366054
     4  O   -0.388863
[...]
 422,0.00001791,0.00001344,0.00003203,-0.00001824,-0.00002095,-0.000026
 55,0.00000582,0.00002399,-0.00000682,-0.00000297,-0.00000086,0.0000088
 8,-0.00000338,0.00000164,-0.00000243,-0.00000126,-0.00000130,-0.000013
 81,0.00000119,0.00000358,0.00002804,0.00001254,0.00003236,-0.00001386,
 -0.00000415,-0.00000223,-0.00001614,-0.00000819,0.00000123,0.00001428,
 -0.00000289,0.00000477,-0.00001285,0.00000940,-0.00000044,0.00000812,-
 0.00000164,-0.00000489,0.00187295,0.00003504,-0.00075925,-0.00000163,-
 0.00000004,0.00000092,0.00000261,0.00000002,0.00000157,0.00000421,0.00
 000157,-0.00000310,0.00000749,0.00000015,0.00000855,0.00001186,0.00000
 107,-0.00000814,0.00000839,0.00000007,0.00000576,0.00000012,-0.0000011
 3,0.00000252,0.00000613,0.00000021,-0.00000308,0.00002840,-0.00004295,
 -0.00021441,0.00084456,0.00026395,0.00070946,0.00024182,0.00223440,0.0
 0100424,0.37870874,-0.01057403,0.00037356,-0.00705875,-0.01320806,-0.0
 4534384,0.00378881,0.03595694,-0.00212948,-0.00679349,-0.00241619,0.00
 325453,-0.00026642,0.00039830,-0.00022141,0.00039035,0.00118427,0.0013
 3305,0.00088051,-0.00044563,-0.00015164,0.00018752,-0.00007805,0.00002
 782,0.00002278,-0.00153921,0.00136830,-0.00081792,0.00023376,-0.000080
 69,0.00010368,-0.00000703,-0.00005406,-0.00003505,-0.02889249,-0.00337
 935,0.00689464,0.00130629,0.00114349,-0.00265521,0.00012836,-0.0002655
 1,-0.00009084,0.00001259,0.00005345,-0.00002009,-0.00003702,0.00002042
 ,-0.00000243,0.00001258,0.00001780,0.00000052,0.00002513,-0.00000659,-
 0.00004909,-0.00002932,-0.00001318,0.00006159,-0.00000753,-0.00000074,
 -0.00000174,0.00000408,-0.00000025,-0.00000178,-0.00000122,-0.00000022
 ,-0.00000062,0.00000563,0.00000202,-0.00000502,-0.00000392,-0.00000901
 ,-0.00001012,0.00000549,0.00000207,-0.00000123,0.00000337,-0.00000021,
 0.00000585,-0.00000047,-0.00000235,-0.00000141,-0.00000144,0.00000358,
 0.00000285,0.00000254,-0.00000111,-0.00000420,-0.00116925,0.00131597,-
 0.00022141,-0.00000036,0.00000014,0.00000072,0.00000019,0.,-0.00000018
 ,0.00000107,-0.00000030,-0.00000029,0.00000171,0.00000217,0.00000102,0
 .00000459,-0.00000609,0.00000436,-0.00000043,0.00000159,-0.00000016,-0
 .00000068,-0.00000037,-0.00000103,-0.00000209,-0.00000167,0.00000218,-
 0.00008213,-0.00017446,0.00000044,-0.00065451,-0.00013254,-0.00026591,
 0.00179532,-0.00541203,-0.00213699,0.01759998,0.05114518,-0.04321844,-
 0.00965462,-0.02097490,0.03655448,0.00327670,-0.04262986,0.01233626,-0
 .00028596,-0.00116002,-0.00112329,-0.00006323,0.00085398,-0.00030010,-
 0.00033452,-0.00009300,0.00137858,-0.00013416,0.00022323,-0.00037383,0
 .00006981,-0.00002109,0.00002929,0.00002495,-0.00000777,0.00006430,-0.
 00116203,0.00073701,-0.00004570,0.00010199,0.00008171,0.00000735,-0.00
 001696,0.00006671,0.02469972,0.00347704,-0.00432484,-0.00034749,-0.000
 02734,0.00255649,0.00044822,-0.00036164,-0.00049748,-0.00006981,0.0000
 2954,-0.00009971,0.00001720,-0.00002462,-0.00002324,0.00001517,0.00000
 513,0.00001338,-0.00005139,-0.00001022,0.00001129,0.00006231,0.0000252
 4,-0.00003666,0.00000860,-0.00000533,0.00000510,-0.00000899,0.00000595
 ,-0.00000870,0.00000303,-0.00000048,0.00000278,0.00001193,0.00000376,-
 0.00000186,-0.00001603,-0.00001059,-0.00001417,0.00000736,0.00000352,0
 .00000224,0.00000485,0.00000745,0.00000466,-0.00000846,0.00000221,-0.0
 0001009,0.00000582,-0.00000454,0.00001082,-0.00000055,0.00000042,-0.00
 000554,-0.00388241,0.00050732,0.00254046,0.00000028,-0.00000002,0.0000
 0109,-0.00000175,-0.00000059,-0.00000228,-0.00000422,-0.00000071,0.000
 00405,-0.00000889,-0.00000339,-0.00001178,-0.00001236,0.00000053,0.000
 01192,-0.00000607,-0.00000130,-0.00000548,-0.00000142,-0.00000154,-0.0
 0000121,-0.00000391,0.00000070,0.00000292,-0.00021217,0.00002929,0.000
 17283,-0.00030763,-0.00033142,-0.00009769,0.00047942,-0.00219405,-0.00
 052188,-0.02577024,0.00432629,0.06656046,0.00084382,0.00001168,0.00159
 103,-0.00746416,-0.00052474,0.00228191,-0.00039989,0.00094655,-0.00001
 603,0.00059546,0.00022010,-0.00019217,-0.00010597,0.00008137,0.0000475
 1,0.00015920,0.00003065,-0.00021319,0.00013494,-0.00034732,0.00002198,
 0.00000869,0.00005233,0.00002217,-0.01057289,0.00043209,0.00257814,0.0
 0092446,0.00087500,0.00089045,-0.00018920,0.00001800,0.00018007,-0.341
 45160,-0.00903338,0.06380058,-0.01837053,-0.00534196,-0.01126050,-0.00
 034917,0.00288764,0.00170447,0.00060219,-0.00010048,-0.00057369,-0.000
 23652,-0.00014051,0.00020089,0.00001064,0.00008743,0.00005739,0.000178
 11,0.00005374,-0.00027402,-0.00021417,-0.00032229,0.00051720,-0.000041
 81,-0.00003849,0.00002084,0.00001908,0.00003148,-0.00003001,-0.0000098
 9,-0.00000826,-0.00000443,-0.00003732,0.00000788,0.00001841,0.00001459
 ,-0.00002528,-0.00002716,-0.00000579,0.00000441,-0.00000555,0.00004916
 ,0.00003935,0.00001924,0.00001061,0.00000064,-0.00007964,-0.00000757,-
 0.00000624,0.00005044,0.00003400,0.00000375,-0.00005088,0.00017046,-0.
 00003136,0.00003177,-0.00000231,-0.00000043,0.00000617,0.00000161,0.00
 000155,-0.00000230,0.00000973,0.00000337,-0.00001223,0.00002103,0.0000
 0448,0.00002351,0.00004434,-0.00000384,-0.00003923,0.00000893,0.000003
 45,0.00001076,0.00000268,-0.00000817,-0.00000505,0.00001065,-0.0000007
 1,0.00000079,0.00046146,-0.00135666,-0.00093890,0.00008762,0.00019064,
 0.00010636,0.00097595,-0.00053250,-0.00040842,0.00057350,-0.00071606,0
 .00036547,0.37230683,0.00131385,0.00047449,-0.00000654,-0.02443814,-0.
 00202731,0.00666988,-0.00228953,0.00096147,0.00091126,0.00076707,0.000
 04416,-0.00038005,-0.00010120,0.00012458,-0.00001863,-0.00001763,-0.00
 023481,-0.00010414,0.00015164,-0.00011082,-0.00002481,-0.00000447,-0.0
 0000031,-0.00001853,0.03519610,-0.00116600,-0.00521916,-0.00227650,0.0
 0077614,-0.00009813,0.00018250,0.00007974,0.00002970,-0.00812265,-0.04
 577394,0.00354059,-0.01201790,-0.00094035,-0.00480184,-0.00293809,0.00
 152924,0.00074645,0.00035911,-0.00014638,-0.00014424,0.00003068,-0.000
 03630,-0.00001768,0.00001341,0.00008519,0.00007604,-0.00010119,-0.0000
 0032,-0.00014720,0.00014695,-0.00014283,0.00013242,0.00000980,-0.00001
 458,0.00000205,-0.00001114,-0.00000045,-0.00001037,0.00000348,0.000001
 36,0.00000392,-0.00000719,0.00000867,-0.00001180,0.00000512,-0.0000055
 2,0.00001685,-0.00000363,-0.00000153,-0.00000222,0.00002006,0.00001125
 ,-0.00000146,-0.00000087,-0.00001482,-0.00000484,-0.00000198,0.0000202
 6,0.00000339,0.00000079,-0.00000637,-0.00000741,0.00015241,-0.00006675
 ,-0.00017350,0.00000079,0.00000054,0.00000141,-0.00000100,-0.00000321,
 -0.00000230,-0.00000503,0.00000293,0.00000462,-0.00001033,-0.00002351,
 -0.00001034,0.00001034,0.00002046,-0.00002782,-0.00000067,0.00000083,0
 .00000273,0.00000256,-0.00000270,0.00000163,0.00000283,-0.00000186,-0.
 00000277,0.00057714,0.00019679,-0.00006455,0.00018092,0.00009818,0.000
 00814,0.00069770,-0.00049043,-0.00006288,-0.00082546,-0.00286187,0.002
 69668,0.01080220,0.05387350,-0.00206390,-0.00076950,0.00134868,0.02792
 492,0.00321192,-0.00322816,0.00100887,-0.00179830,-0.00008888,-0.00079
 649,0.00015220,0.00011895,0.00022237,-0.00010880,0.00004810,0.00023342
 ,-0.00007762,-0.00053091,0.00008261,-0.00035078,0.00026171,-0.00000698
 ,0.00008476,-0.00001151,0.00873634,0.00169488,0.00052940,-0.00090685,0
 .00048044,0.00028022,0.00002820,0.00002260,0.00002036,0.06832554,0.002
 32763,-0.05715759,-0.04051658,-0.00754518,-0.00712925,-0.00354085,0.00
 356940,0.00298527,0.00052831,-0.00010025,-0.00075039,-0.00006710,-0.00
 018283,0.00022999,0.00000062,-0.00000641,0.00002220,0.00015138,0.00011
 171,-0.00008781,-0.00017044,-0.00037574,0.00041709,-0.00001664,-0.0000
 3463,0.00003165,0.00000161,0.00004308,-0.00003177,-0.00000502,-0.00000
 641,-0.00000242,-0.00000815,0.00002457,0.00000203,-0.00000203,-0.00003
 282,0.00000638,0.00000545,0.00000589,-0.00000505,0.00004908,0.00005677
 ,0.00002767,-0.00000834,0.00000711,-0.00008579,0.00001058,-0.00002739,
 0.00004797,0.00001934,0.00000749,-0.00003827,-0.00005549,-0.00016491,0
 .00054362,-0.00000018,-0.00000079,0.00000438,-0.00000251,0.00000257,-0
 .00000389,0.00000344,0.00000193,-0.00001039,0.00001735,0.00000770,0.00
 002085,0.00002872,-0.00000060,-0.00007312,-0.00000061,0.00000015,0.000
 00165,-0.00000040,-0.00000934,-0.00000224,0.00000112,-0.00000005,0.000
 00389,0.00112531,0.00001893,-0.00003629,-0.00004067,-0.00000069,-0.000
 13319,-0.00072405,0.00036210,0.00041076,0.00085428,0.00377833,-0.00340
 496,-0.05962239,-0.00251079,0.06459633,0.00002167,-0.00027665,0.000108
 72,-0.00059008,0.00250714,0.00160035,0.00071097,0.00019557,-0.00064287
 ,-0.00012453,0.00045348,-0.00005489,-0.00000340,-0.00000062,0.00004953
 ,-0.00003689,-0.00000390,-0.00000624,0.00000622,-0.00001282,-0.0000150
 3,0.00000486,0.00000903,0.00003048,-0.07999686,-0.05963532,0.07614819,
 0.00635476,0.00515276,-0.01417773,0.00193036,0.00131655,0.00080445,0.0
 0430245,0.01412357,-0.01158333,0.00009337,-0.00141666,-0.00082264,-0.0
 0008548,0.00017742,0.00006232,-0.00008715,0.00000254,-0.00022060,0.000
 02488,-0.00004283,0.00015039,-0.00011725,-0.00026321,-0.00015610,-0.00
 007817,0.00045213,0.00025076,0.00014792,-0.00063671,-0.00035503,0.0000
 4337,0.00005277,0.00002544,-0.00000771,0.00002592,0.00002470,0.0000001
 1,-0.00000013,-0.00000768,0.00000457,-0.00001573,0.00003793,-0.0000011
 4,0.00001357,-0.00003099,0.00000314,-0.00000243,0.00000214,-0.00001354
 ,0.00002077,-0.00002313,-0.00001478,0.00004316,-0.00002393,0.00001908,
 -0.00008667,-0.00001192,-0.00002024,0.00002306,0.00003435,-0.00012697,
 0.00007353,-0.00014908,0.00000066,-0.00000209,-0.00000659,-0.00000172,
 0.00000716,0.00000333,-0.00000212,-0.00000268,-0.00000575,0.00002273,0
 .00001930,0.00001295,-0.00000202,0.00000277,-0.00000366,-0.00000271,-0
 .00000408,-0.00000181,-0.00000208,0.00000822,-0.00000303,-0.00000206,0
 .00000319,-0.00000138,-0.00002369,0.00000218,-0.00000203,0.00001191,0.
 00001033,0.00000937,-0.00003249,-0.00010869,-0.00003208,0.00030782,0.0
 0037217,-0.00014052,0.00093777,-0.00056115,-0.00105543,0.07582841,-0.0
 0005844,0.00061448,0.00011632,0.00299551,-0.00510583,-0.00458910,-0.00
 077799,0.00009326,0.00191957,0.00029238,-0.00139171,0.00015400,-0.0001
 0400,0.00013254,-0.00019809,0.00001385,0.00026208,0.00056206,-0.000053
 62,0.00002346,-0.00040096,0.00005928,-0.00000780,0.00016288,-0.0568097
 6,-0.15297088,0.14389030,0.00317015,0.00534669,-0.02679858,0.00037021,
 0.00376388,-0.00242066,-0.00961367,-0.02339682,0.02537188,0.00054364,0
 .00258294,0.00020576,0.00019989,-0.00024703,-0.00015682,-0.00000359,0.
 00007802,-0.00035174,-0.00006962,-0.00004546,0.00018130,-0.00009962,-0
 .00041446,-0.00026879,0.00023680,0.00054629,0.00037860,-0.00044533,-0.
 00065639,-0.00049573,0.00000900,0.00009398,0.00001246,0.00001988,0.000
 01035,0.00004847,-0.00000707,0.00000004,-0.00001692,-0.00001776,-0.000
 06450,0.00009568,-0.00000949,0.00003814,-0.00014511,0.00000692,-0.0000
 0332,0.00001558,-0.00000471,-0.00000364,-0.00003932,-0.00001061,0.0000
 7527,-0.00002855,0.00002404,-0.00012842,-0.00002310,-0.00002109,0.0000
 3617,0.00005074,0.00006243,-0.00016628,-0.00013395,-0.00000037,-0.0000
 0211,-0.00000975,0.00000082,0.00001361,0.00000870,0.00001072,-0.000008
 69,-0.00001942,0.00005171,0.00006886,0.00004732,0.00001977,-0.00001765
 ,-0.00001336,0.00000167,0.00000065,0.00000471,0.00000066,0.00001929,-0
 .00001388,0.00000321,0.00000516,-0.00000395,0.00000315,-0.00002319,0.0
 0000278,-0.00000286,-0.00001782,-0.00003465,0.00013414,-0.00004420,-0.
 00008201,0.00003635,0.00037294,-0.00026256,0.00020793,0.00139670,0.000
 03157,0.05947193,0.16854153,0.00004731,0.00047107,0.00022140,-0.000511
 52,-0.00106991,-0.00028906,0.00009573,-0.00008001,0.00009050,0.0000217
 2,-0.00007742,0.00008332,0.00000260,-0.00004843,-0.00002128,-0.0000142
 5,-0.00004019,-0.00007467,0.00000679,-0.00000774,0.00004956,-0.0000055
 5,0.00000726,-0.00002326,0.07175296,0.13805991,-0.21241623,0.00448893,
 0.00187491,-0.04375052,-0.00041817,0.00086758,0.00018081,0.00062261,-0
 .00194758,0.00217994,0.00038120,-0.00053814,0.00129170,-0.00006856,-0.
 00003133,0.00022406,0.00001543,0.00000495,0.00013009,0.00002932,0.0000
 3543,-0.00005363,0.00003396,0.00009645,0.00003397,-0.00003720,-0.00020
 674,-0.00015733,-0.00003796,0.00015405,0.00000994,-0.00000425,-0.00001
 224,-0.00001207,-0.00000725,-0.00002149,-0.00001525,0.00000536,0.00000
 497,0.00000949,0.00000499,0.00001584,-0.00002259,-0.00000350,-0.000014
 84,0.00002590,0.00000052,0.00000398,-0.00000268,0.00000093,-0.00000124
 ,0.00000857,0.00000349,-0.00002833,0.00001156,-0.00000853,0.00004383,0
 .00000978,0.00000761,-0.00001590,-0.00001784,-0.00003603,-0.00031028,0
 .00001487,-0.00000054,0.00000307,0.00000481,-0.00000038,-0.00000367,-0
 .00000256,-0.00000337,0.00000256,0.00000526,-0.00001173,-0.00000926,-0
 .00000794,-0.00000593,0.00000215,0.00000175,-0.00000116,0.00000048,-0.
 00000119,-0.00000062,-0.00000478,0.00000170,-0.00000075,-0.00000082,0.
 00000155,-0.00001194,0.00002188,-0.00000557,-0.00000985,-0.00000133,0.
 00000912,-0.00000282,-0.00001213,-0.00000384,-0.00001025,-0.00004582,0
 .00000666,-0.00037527,-0.00007058,0.00065485,-0.07666538,-0.13775741,0
 .24901894,0.00028064,0.00013263,-0.00007200,0.00027601,-0.00107598,0.0
 0044600,0.00032917,-0.00001721,-0.00015909,0.00009128,0.00021832,-0.00
 001753,-0.00003861,-0.00002275,0.00002364,-0.00009275,-0.00002008,-0.0
 0011143,0.00005694,-0.00007817,0.00005408,-0.00001455,0.00000987,-0.00
 000699,-0.35505294,-0.01026745,0.00007905,-0.00229266,-0.00944755,-0.0
 1262502,-0.00072006,0.00045358,-0.00074322,-0.01877804,0.00102123,0.00
 157990,0.00212825,-0.00128297,-0.00045459,0.00055226,0.00005333,0.0001
 3174,0.00008835,0.00010714,0.00016555,-0.00003914,0.00003174,-0.000003
 63,0.00000201,0.00009206,0.00005470,0.00019204,-0.00013989,-0.00005005
 ,-0.00036813,0.00015154,0.00015239,-0.00002384,-0.00002133,0.00000122,
 0.00001789,0.00000235,-0.00001511,-0.00000452,-0.00000609,-0.00000057,
 -0.00001288,0.00000602,-0.00000716,0.00001506,-0.00000388,0.00000966,-
 0.00000703,0.00000215,-0.00000317,-0.00001156,-0.00000946,0.00001871,0
 .00001710,-0.00001210,-0.00000257,-0.00002103,0.00002961,0.00001993,0.
 00002272,-0.00000668,-0.00002839,-0.00018396,0.00004771,-0.00018696,-0
 .00000307,0.00000032,0.00000514,0.00000346,-0.00000076,0.00000023,0.00
 000759,0.00000122,-0.00000591,0.00000950,0.00001125,0.00002490,0.00001
 668,-0.00000713,-0.00000388,0.00000911,0.00000240,0.00000577,0.0000002
 2,-0.00000423,0.00000032,0.00000552,-0.00000142,0.00000040,0.00006961,
 -0.00030572,-0.00020446,0.00004648,0.00004573,0.00001696,0.00014998,-0
 .00026101,-0.00006919,0.00058028,0.00081276,-0.00058394,0.00026130,0.0
 0310835,0.00025225,-0.00940391,0.00016356,0.00073131,0.38183923,-0.000
 23379,0.00019835,0.00043818,0.00128000,0.00232994,-0.00109898,0.000163
 68,0.00000559,-0.00020404,-0.00020814,-0.00012326,0.00016255,0.0000266
 7,-0.00004870,-0.00002236,0.00004493,0.00008453,0.00003410,-0.00004923
 ,0.00003735,0.00001300,0.00000432,0.00000482,-0.00000007,-0.01162327,-
 0.04492061,0.00821055,-0.01971132,-0.00578684,-0.01615130,-0.00159587,
 -0.00022509,-0.00037640,0.03730183,-0.00431351,-0.00202219,-0.00060525
 ,0.00218393,0.00194052,0.00026271,-0.00003659,-0.00003897,-0.00012964,
 -0.00003096,-0.00005979,0.00000174,-0.00000369,0.00001181,0.00002365,0
 .00000825,0.00000493,0.00006816,-0.00003543,-0.00000148,-0.00012377,0.
 00007855,-0.00000572,-0.00001413,-0.00000319,-0.00000243,0.00000581,0.
 00000066,-0.00000632,-0.00000122,-0.00000189,-0.00000012,0.00000393,0.
 00000581,-0.00000369,-0.00000654,-0.00000767,0.00000250,0.00000253,0.0
 0000264,-0.00000076,0.00000036,0.00000455,0.00000636,-0.00000021,-0.00
 000406,-0.00000629,-0.00000286,0.00000465,0.00000955,0.00000735,-0.000
 00185,-0.00000992,0.00003637,-0.00020958,0.00014212,-0.00000148,0.0000
 0047,0.00000196,0.00000029,0.00000045,-0.00000058,0.00000139,-0.000002
 56,-0.00000009,-0.00000113,0.00001017,0.00000242,-0.00000175,-0.000005
 31,0.00000852,-0.00000087,-0.00000039,-0.00000163,-0.00000134,-0.00000
 236,-0.00000009,-0.00000106,0.00000070,0.00000219,-0.00023919,0.000059
 49,0.00008866,-0.00004160,-0.00005268,-0.00002027,-0.00033132,0.000050
 16,0.00013327,-0.00087080,-0.00018912,0.00029728,0.00154093,-0.0056335
 1,-0.00189988,-0.02146788,0.00059985,0.00068728,0.01648702,0.05596795,
 0.00020816,0.00008819,0.00011447,-0.00083240,-0.00032109,0.00010026,0.
 00004510,0.00010000,0.00007686,0.00002426,-0.00008729,0.00000122,-0.00
 002412,0.00002448,-0.00001991,0.00001135,0.00004689,0.00009051,-0.0000
 2450,0.00000591,-0.00006343,0.00001459,0.00000222,0.00003164,0.0003550
 6,0.00879741,-0.04037145,-0.03775886,-0.01804227,-0.01721895,-0.001949
 89,0.00019013,-0.00072286,0.00096075,-0.00006066,0.00212272,0.00081369
 ,-0.00066227,0.00024305,0.00024013,0.00008481,-0.00011159,-0.00010735,
 0.00005236,-0.00011649,0.00002138,-0.00002226,0.00001929,-0.00002046,-
 0.00007315,-0.00004046,-0.00015480,0.00009507,0.00003651,0.00033940,-0
 .00008553,-0.00016893,0.00001411,0.00001462,0.00000735,-0.00001228,0.0
 0000597,0.00000274,0.00000204,0.00000280,0.00000115,0.00000080,-0.0000
 1112,0.00001642,-0.00000611,0.00000417,-0.00002847,0.00000276,0.000000
 49,0.00000394,0.00000106,0.00000377,-0.00000130,-0.00000933,0.00001732
 ,-0.00000840,0.00000926,-0.00002754,0.00000010,-0.00000778,0.00000653,
 0.00000942,-0.00014116,0.00001454,-0.00012745,0.00000046,-0.00000033,-
 0.00000187,-0.00000153,0.00000073,-0.00000077,-0.00000490,0.00000052,0
 .00000432,-0.00000590,-0.00001282,-0.00002071,-0.00001104,0.00000290,0
 .00000211,-0.00000429,-0.00000261,-0.00000326,-0.00000062,0.00000288,-
 0.00000280,-0.00000125,0.00000259,-0.00000016,-0.00009557,-0.00004025,
 -0.00002066,-0.00000267,-0.00001097,0.00000383,0.00001385,0.00002199,-
 0.00004030,0.00009067,0.00003475,0.00008442,-0.00041652,-0.00090319,0.
 00019793,0.02684343,0.00100371,0.00259747,0.01158102,0.00973561,0.0533
 2250\\0.01945350,-0.01579685,-0.01351641,-0.02262515,0.00500386,-0.003
 74962,0.01906739,-0.02204673,0.03250860,-0.00778631,-0.00086185,0.0162
 2964,0.00049425,0.00079713,-0.03225651,-0.00135743,-0.00549098,-0.0345
 7330,-0.00127967,-0.00436675,0.01457395,0.01125445,0.00373162,0.014529
 82,-0.01422379,0.02405930,-0.00922040,0.01267596,0.01093488,0.00365433
 ,0.00138591,-0.03267669,0.00541729,0.00476113,0.00487305,0.02226390,0.
 00221715,0.01714256,0.00740949,-0.03563929,0.02788996,-0.00346875,0.01
 168796,-0.02549908,0.01364829,-0.00502243,0.01492336,0.00942688,-0.000
 68332,0.03448470,-0.01254873,-0.00086507,-0.01727533,0.02183161,0.0034
 0701,0.00294053,-0.02141329,0.00917274,0.00739080,-0.03778222,-0.00161
 621,0.01542883,-0.00559274,-0.01307334,-0.00889604,0.02753398,0.017464
 37,-0.00534644,-0.00691873,-0.00418006,-0.01802865,-0.00433118,-0.0116
 1265,0.02825733,0.00566520,-0.01877805,0.00003298,0.01082999,-0.008173
 24,-0.02704334,0.02635475,0.05795418,-0.03734447,0.01204797,-0.0180170
 8,0.03099382,-0.00091289,-0.00290961,0.00304080,-0.00065639,-0.0024682
 3,-0.00005589,-0.00631319,-0.01745830,-0.00146790,-0.00688189,0.020748
 12,-0.00041468,0.00332732,-0.02165328,-0.00520201,0.00285198,0.0195462
 4,0.00124786,0.00140548,-0.02392585,-0.00138756,0.00010449,-0.00412593
 ,-0.00632369,-0.01721656,0.02130005,0.00087732,-0.00139536,0.01857528,
 -0.00000024,-0.00500063,-0.01984637,-0.00092103,0.00429066,0.02416762,
 0.00043604,-0.00358231,-0.02194200,-0.00075308,-0.00168100,0.02156978,
 0.00024314,-0.00362705,0.00374921,0.00661372,-0.01910377,-0.02138963,-
 0.00414429,-0.00416268\\\@


 "WOULD YOU TELL ME PLEASE, WHICH WAY I OUGHT TO WALK FROM HERE?"
 "THAT DEPENDS A GREAT DEAL ON WHERE YOU WANT TO GO," SAID THE CAT.
 "I DON'T MUCH CARE WHERE -- ", SAID ALICE.
 "THEN IT DOESN'T MATTER WHICH WAY YOU WALK," SAID THE CAT.

                                      -- LEWIS CARROLL
 Job cpu time:  0 days 13 hours  9 minutes 32.3 seconds.
 File lengths (MBytes):  RWF=   1323 Int=      0 D2E=      0 Chk=     19 Scr=      1
 Normal termination of Gaussian 09 at Thu Jan 21 05:08:45 2016.
Gaussian '09 finished on node017 at Thu Jan 21 05:08:45 EST 2016.
