Gaussian '09 started on node031 at Mon Oct  5 10:44:37 EDT 2015.
 Entering Gaussian System, Link 0=/usr/local/gaussian/g09/g09
 Initial command:
 /usr/local/gaussian/g09/l1.exe /home/srmcgrat/data/gaussian/cellobiose/450/6-31gdp/gaussian969/Gau-1005.inp -scrdir=/home/srmcgrat/data/gaussian/cellobiose/450/6-31gdp/gaussian969/
 Entering Link 1 = /usr/local/gaussian/g09/l1.exe PID=      1007.
  
 Copyright (c) 1988,1990,1992,1993,1995,1998,2003,2009,2010,
            Gaussian, Inc.  All Rights Reserved.
  
 This is part of the Gaussian(R) 09 program.  It is based on
 the Gaussian(R) 03 system (copyright 2003, Gaussian, Inc.),
 the Gaussian(R) 98 system (copyright 1998, Gaussian, Inc.),
 the Gaussian(R) 94 system (copyright 1995, Gaussian, Inc.),
 the Gaussian 92(TM) system (copyright 1992, Gaussian, Inc.),
 the Gaussian 90(TM) system (copyright 1990, Gaussian, Inc.),
 the Gaussian 88(TM) system (copyright 1988, Gaussian, Inc.),
 the Gaussian 86(TM) system (copyright 1986, Carnegie Mellon
 University), and the Gaussian 82(TM) system (copyright 1983,
 Carnegie Mellon University). Gaussian is a federally registered
 trademark of Gaussian, Inc.
  
 This software contains proprietary and confidential information,
 including trade secrets, belonging to Gaussian, Inc.
  
 This software is provided under written license and may be
 used, copied, transmitted, or stored only in accord with that
 written license.
  
 The following legend is applicable only to US Government
 contracts under FAR:
  
                    RESTRICTED RIGHTS LEGEND
  
 Use, reproduction and disclosure by the US Government is
 subject to restrictions as set forth in subparagraphs (a)
 and (c) of the Commercial Computer Software - Restricted
 Rights clause in FAR 52.227-19.
  
 Gaussian, Inc.
 340 Quinnipiac St., Bldg. 40, Wallingford CT 06492
  
  
 ---------------------------------------------------------------
 Warning -- This program may not be used in any manner that
 competes with the business of Gaussian, Inc. or will provide
 assistance to any competitor of Gaussian, Inc.  The licensee
 of this program is prohibited from giving any competitor of
 Gaussian, Inc. access to this program.  By using this program,
 the user acknowledges that Gaussian, Inc. is engaged in the
 business of creating and licensing software in the field of
 computational chemistry and represents and warrants to the
 licensee that it is not a competitor of Gaussian, Inc. and that
 it will not use this program in any manner prohibited above.
 ---------------------------------------------------------------
  

 Cite this work as:
 Gaussian 09, Revision B.01,
 M. J. Frisch, G. W. Trucks, H. B. Schlegel, G. E. Scuseria, 
 M. A. Robb, J. R. Cheeseman, G. Scalmani, V. Barone, B. Mennucci, 
 G. A. Petersson, H. Nakatsuji, M. Caricato, X. Li, H. P. Hratchian, 
 A. F. Izmaylov, J. Bloino, G. Zheng, J. L. Sonnenberg, M. Hada, 
 M. Ehara, K. Toyota, R. Fukuda, J. Hasegawa, M. Ishida, T. Nakajima, 
 Y. Honda, O. Kitao, H. Nakai, T. Vreven, J. A. Montgomery, Jr., 
 J. E. Peralta, F. Ogliaro, M. Bearpark, J. J. Heyd, E. Brothers, 
 K. N. Kudin, V. N. Staroverov, T. Keith, R. Kobayashi, J. Normand, 
 K. Raghavachari, A. Rendell, J. C. Burant, S. S. Iyengar, J. Tomasi, 
 M. Cossi, N. Rega, J. M. Millam, M. Klene, J. E. Knox, J. B. Cross, 
 V. Bakken, C. Adamo, J. Jaramillo, R. Gomperts, R. E. Stratmann, 
 O. Yazyev, A. J. Austin, R. Cammi, C. Pomelli, J. W. Ochterski, 
 R. L. Martin, K. Morokuma, V. G. Zakrzewski, G. A. Voth, 
 P. Salvador, J. J. Dannenberg, S. Dapprich, A. D. Daniels, 
 O. Farkas, J. B. Foresman, J. V. Ortiz, J. Cioslowski, 
 and D. J. Fox, Gaussian, Inc., Wallingford CT, 2010.
 
 ******************************************
 Gaussian 09:  EM64L-G09RevB.01 12-Aug-2010
                 5-Oct-2015 
 ******************************************
 ------------------------------
 # freq=raman b3lyp/6-31+g(d,p)
 ------------------------------
 1/10=4,30=1,38=1/1,3;
 2/12=2,17=6,18=5,40=1/2;
 3/5=1,6=6,7=111,11=2,16=1,25=1,30=1,71=2,74=-5/1,2,3;
 4//1;
 5/5=2,38=5,98=1/2;
 8/6=4,10=90,11=11/1;
 10/13=10,15=4/2;
 11/6=3,8=1,9=11,15=111,16=1/1,2,10;
 10/6=1/2;
 6/7=2,8=2,9=2,10=2,18=1,28=1/1;
 7/8=1,10=1,25=1/1,2,3,16;
 1/10=4,30=1/3;
 99//99;
 -----------------------------
 450K 5000ps Cellobiose Unit 1
 -----------------------------
 Symbolic Z-matrix:
 Charge =  0 Multiplicity = 2
 C(PDBName=C4,ResName=GLC,ResNum=1)  11.09     7.535     1.992 
 C(PDBName=C3,ResName=GLC,ResNum=1)  11.438    8.923     2.504 
 O(PDBName=O3,ResName=GLC,ResNum=1)  12.458    9.43      1.631 
 H(PDBName=HO3,ResName=GLC,ResNum=1)  12.064    9.585     0.725 
 C(PDBName=C2,ResName=GLC,ResNum=1)  12.131    8.969     3.856 
 O(PDBName=O2,ResName=GLC,ResNum=1)  12.359    10.294    4.358 
 H(PDBName=HO2,ResName=GLC,ResNum=1)  12.518    10.863    3.551 
 C(PDBName=C6,ResName=GLC,ResNum=1)  10.112    5.271     2.628 
 O(PDBName=O6,ResName=GLC,ResNum=1)  9.424     4.423     3.559 
 H(PDBName=HO6,ResName=GLC,ResNum=1)  9.312     3.496     3.202 
 C(PDBName=C5,ResName=GLC,ResNum=1)  10.356    6.714     3.04 
 O(PDBName=O5,ResName=GLC,ResNum=1)  11.133    6.84      4.24 
 C(PDBName=C1,ResName=GLC,ResNum=1)  11.339    8.126     4.842 
 O(PDBName=O1,ResName=GLC,ResNum=1)  12.028    7.813     6.061 
 C(PDBName=C4,ResName=GLC,ResNum=2)  11.22     7.999     7.232 
 C(PDBName=C3,ResName=GLC,ResNum=2)  10.738    6.64      7.714 
 O(PDBName=O3,ResName=GLC,ResNum=2)  9.858     5.96      6.808 
 H(PDBName=HO3,ResName=GLC,ResNum=2)  10.222    6.028     5.879 
 C(PDBName=C2,ResName=GLC,ResNum=2)  9.917     6.636     8.992 
 O(PDBName=O2,ResName=GLC,ResNum=2)  9.385     5.385     9.454 
 H(PDBName=HO2,ResName=GLC,ResNum=2)  9.133     4.987     8.572 
 C(PDBName=C6,ResName=GLC,ResNum=2)  12.225    10.16     7.975 
 O(PDBName=O6,ResName=GLC,ResNum=2)  12.707    11.122    8.923 
 H(PDBName=HO6,ResName=GLC,ResNum=2)  13.671    10.937    9.112 
 C(PDBName=C5,ResName=GLC,ResNum=2)  11.947    8.715     8.359 
 O(PDBName=O5,ResName=GLC,ResNum=2)  11.2      8.583     9.577 
 C(PDBName=C1,ResName=GLC,ResNum=2)  10.818    7.278     10.034 
 O(PDBName=O1,ResName=GLC,ResNum=2)  10.111    7.42      11.275 
 H                     10.74105   7.50234   11.99462 
 
 Residue   3                        charge    0.00000000 ave dist*************
 Residue   1 PDB Number     1_0 GLC charge    0.00000000 ave dist*************
 Residue   2 PDB Number     2_0 GLC charge    0.00000000 ave dist*************

 GradGradGradGradGradGradGradGradGradGradGradGradGradGradGradGradGradGrad
 Berny optimization.
 Initialization pass.
 Trust Radius=3.00D-01 FncErr=1.00D-07 GrdErr=1.00D-07
 Number of steps in this run=      2 maximum allowed number of steps=      2.
 GradGradGradGradGradGradGradGradGradGradGradGradGradGradGradGradGradGrad

                          Input orientation:                          
 ---------------------------------------------------------------------
 Center     Atomic      Atomic             Coordinates (Angstroms)
 Number     Number       Type             X           Y           Z
 ---------------------------------------------------------------------
      1          6           0       11.090000    7.535000    1.992000
      2          6           0       11.438000    8.923000    2.504000
      3          8           0       12.458000    9.430000    1.631000
      4          1           0       12.064000    9.585000    0.725000
      5          6           0       12.131000    8.969000    3.856000
      6          8           0       12.359000   10.294000    4.358000
      7          1           0       12.518000   10.863000    3.551000
      8          6           0       10.112000    5.271000    2.628000
      9          8           0        9.424000    4.423000    3.559000
     10          1           0        9.312000    3.496000    3.202000
     11          6           0       10.356000    6.714000    3.040000
     12          8           0       11.133000    6.840000    4.240000
     13          6           0       11.339000    8.126000    4.842000
     14          8           0       12.028000    7.813000    6.061000
     15          6           0       11.220000    7.999000    7.232000
     16          6           0       10.738000    6.640000    7.714000
     17          8           0        9.858000    5.960000    6.808000
     18          1           0       10.222000    6.028000    5.879000
     19          6           0        9.917000    6.636000    8.992000
     20          8           0        9.385000    5.385000    9.454000
     21          1           0        9.133000    4.987000    8.572000
     22          6           0       12.225000   10.160000    7.975000
     23          8           0       12.707000   11.122000    8.923000
     24          1           0       13.671000   10.937000    9.112000
     25          6           0       11.947000    8.715000    8.359000
     26          8           0       11.200000    8.583000    9.577000
     27          6           0       10.818000    7.278000   10.034000
     28          8           0       10.111000    7.420000   11.275000
     29          1           0       10.741051    7.502342   11.994622
 ---------------------------------------------------------------------
                    Distance matrix (angstroms):
                    1          2          3          4          5
     1  C    0.000000
     2  C    1.519800   0.000000
     3  O    2.364904   1.435123   0.000000
     4  H    2.599320   1.998740   1.000048   0.000000
     5  C    2.571873   1.519957   2.295664   3.191725   0.000000
     6  O    3.849727   2.482982   2.862311   3.713273   1.435135
     7  H    3.942746   2.454834   2.396558   3.134593   1.957046
     8  C    2.546895   3.887256   4.878013   5.103167   4.388570
     9  O    3.862071   5.041748   6.163797   6.453480   5.299262
    10  H    4.575905   5.870214   6.897660   7.126356   6.190978
    11  C    1.520231   2.517479   3.712188   4.064373   2.983539
    12  O    2.353376   2.728665   3.907762   4.555986   2.382457
    13  C    2.921264   2.472095   3.641854   4.427640   1.519904
    14  O    4.184960   3.772592   4.735450   5.622648   2.491780
    15  C    5.262109   4.822373   5.911988   6.750465   3.628801
    16  C    5.802259   5.731159   6.909804   7.699183   4.716869
    17  O    5.214624   5.458955   6.752942   7.416869   4.789041
    18  H    4.258314   4.609805   5.883775   6.527552   4.047998
    19  C    7.154308   7.045421   8.273297   9.036011   6.059965
    20  O    7.950533   8.064413   9.327630  10.050497   7.191883
    21  H    7.322469   7.591162   8.886695   9.555510   6.861850
    22  C    6.631375   5.664043   6.390112   7.274548   4.288762
    23  O    7.969945   6.902863   7.489868   8.365586   5.535492
    24  H    8.302383   7.260038   7.727081   8.645931   5.819808
    25  C    6.531886   5.880763   6.785155   7.684305   4.513910
    26  O    7.657848   7.085166   8.089431   8.950330   5.809096
    27  C    8.050702   7.732485   8.827860   9.671207   6.538435
    28  O    9.335189   8.997243  10.126956  10.945498   7.843555
    29  H   10.008760   9.621637  10.680282  11.536552   8.385714
                    6          7          8          9         10
     6  O    0.000000
     7  H    1.000145   0.000000
     8  C    5.768227   6.157210   0.000000
     9  O    6.612206   7.144683   1.434994   0.000000
    10  H    7.538790   8.041948   2.029803   0.999661   0.000000
    11  C    4.308774   4.706333   1.520371   2.527185   3.386990
    12  O    3.667031   4.310160   2.470374   3.037488   3.946621
    13  C    2.444357   3.247752   3.815541   4.361826   5.313683
    14  O    3.027397   3.980289   4.681699   4.953072   5.846967
    15  C    3.850224   4.841184   5.465022   5.431788   6.337063
    16  C    5.219396   6.191341   5.304096   4.889347   5.681228
    17  O    5.571450   6.459339   4.244012   3.620321   4.401437
    18  H    5.007890   5.836816   3.339783   2.931762   3.795452
    19  C    6.388919   7.364592   6.511662   5.887097   6.614357
    20  O    7.675427   8.641156   6.865552   5.973106   6.531551
    21  H    7.505273   8.437775   6.030774   5.053014   5.576022
    22  C    3.621961   4.489079   7.547019   7.762720   8.699195
    23  O    4.652517   5.381560   8.977486   9.188427  10.119869
    24  H    4.973460   5.679754   9.317311   9.555366  10.454543
    25  C    4.320994   5.296868   6.933450   6.915692   7.795886
    26  O    5.613267   6.576336   7.774425   7.528353   8.371543
    27  C    6.609683   7.600757   7.705538   7.212481   7.952848
    28  O    7.820375   8.792501   8.910040   8.306060   9.011632
    29  H    8.290302   9.259931   9.649259   9.076160   9.767454
                   11         12         13         14         15
    11  C    0.000000
    12  O    1.435132   0.000000
    13  C    2.491433   1.434795   0.000000
    14  O    3.623510   2.250288   1.434800   0.000000
    15  C    4.468846   3.209815   2.396328   1.434817   0.000000
    16  C    4.690168   3.502100   3.289040   2.402590   1.520371
    17  O    3.874835   2.999108   3.278730   2.949664   2.488441
    18  H    2.923777   2.043425   2.593195   2.545778   2.590647
    19  C    5.968677   4.909356   4.632999   3.799001   2.579376
    20  O    6.621818   5.688438   5.709793   4.938935   3.890695
    21  H    5.922945   5.118577   5.350949   4.761557   3.901706
    22  C    6.302563   5.115182   3.838990   3.034899   2.496396
    23  O    7.717989   6.537850   5.244235   4.427366   3.850166
    24  H    8.105069   6.852973   5.618972   4.665557   4.263056
    25  C    5.901444   4.598302   3.617440   2.470014   1.520301
    26  O    6.851122   5.614811   4.759033   3.693337   2.416709
    27  C    7.031897   5.819064   5.286531   4.187488   2.921070
    28  O    8.268838   7.132469   6.587102   5.569123   4.232136
    29  H    8.997499   7.792720   7.204616   6.079524   4.812341
                   16         17         18         19         20
    16  C    0.000000
    17  O    1.434446   0.000000
    18  H    2.002005   1.000080   0.000000
    19  C    1.518993   2.286988   3.186449   0.000000
    20  O    2.536382   2.748758   3.727552   1.435782   0.000000
    21  H    2.458576   2.141039   3.085750   1.873568   0.999916
    22  C    3.830103   4.960300   5.047638   4.333558   5.749232
    23  O    5.042516   6.263886   6.433506   5.283281   6.650625
    24  H    5.387124   6.679664   6.815143   5.710124   7.022212
    25  C    2.486630   3.789399   4.043018   2.973858   4.341862
    26  O    2.731202   4.043322   4.599969   2.403981   3.679206
    27  C    2.407456   3.614665   4.379696   1.519779   2.444041
    28  O    3.698953   4.706347   5.573760   2.421648   2.825658
    29  H    4.366619   5.482667   6.312205   3.231926   3.574461
                   21         22         23         24         25
    21  H    0.000000
    22  C    6.056138   0.000000
    23  O    7.108790   1.434040   0.000000
    24  H    7.502503   1.996851   0.999621   0.000000
    25  C    4.675676   1.520778   2.586377   2.911438   0.000000
    26  O    4.267755   2.470619   3.024117   3.444326   1.434907
    27  C    3.197710   3.811175   4.424814   4.730536   2.478958
    28  O    3.765924   4.781903   5.096658   5.451739   3.681165
    29  H    4.541708   5.042084   5.138262   5.356397   4.017785
                   26         27         28         29
    26  O    0.000000
    27  C    1.434503   0.000000
    28  O    2.328453   1.435303   0.000000
    29  H    2.687629   1.974915   0.960000   0.000000
 Stoichiometry    C12H7O10(2)
 Framework group  C1[X(C12H7O10)]
 Deg. of freedom    81
 Full point group                 C1      NOp   1
 Largest Abelian subgroup         C1      NOp   1
 Largest concise Abelian subgroup C1      NOp   1
                         Standard orientation:                         
 ---------------------------------------------------------------------
 Center     Atomic      Atomic             Coordinates (Angstroms)
 Number     Number       Type             X           Y           Z
 ---------------------------------------------------------------------
      1          6           0       -4.195983    0.277653   -0.165131
      2          6           0       -3.696640   -1.115236   -0.511986
      3          8           0       -4.631813   -2.034750    0.070701
      4          1           0       -5.507935   -1.953470   -0.404588
      5          6           0       -2.393905   -1.529611    0.152427
      6          8           0       -1.897017   -2.808524   -0.268403
      7          1           0       -2.707968   -3.361579   -0.460182
      8          6           0       -3.515148    2.713277    0.136321
      9          8           0       -2.547335    3.765598    0.013162
     10          1           0       -2.903937    4.637205    0.348509
     11          6           0       -3.108117    1.326019   -0.334177
     12          8           0       -1.961991    0.804644    0.354422
     13          6           0       -1.364188   -0.432059   -0.060108
     14          8           0       -0.196957   -0.528326    0.768720
     15          6           0        1.027230   -0.324089    0.048751
     16          6           0        1.528855    1.083860    0.327281
     17          8           0        0.678224    2.130862   -0.160420
     18          1           0       -0.272513    1.916866    0.064225
     19          6           0        2.859041    1.457262   -0.304001
     20          8           0        3.344997    2.796151   -0.123190
     21          1           0        2.478539    3.288954   -0.202115
     22          6           0        1.719532   -2.718427   -0.092175
     23          8           0        2.641221   -3.817028   -0.086117
     24          1           0        2.763440   -4.133345    0.854228
     25          6           0        2.108940   -1.333078    0.399692
     26          8           0        3.373196   -0.882917   -0.108216
     27          6           0        3.843623    0.429597    0.229133
     28          8           0        5.130487    0.620856   -0.377081
     29          1           0        5.806835    0.221830    0.175125
 ---------------------------------------------------------------------
 Rotational constants (GHZ):      0.3922332      0.1854468      0.1276745
 Standard basis: 6-31+G(d,p) (6D, 7F)
 There are   453 symmetry adapted basis functions of A   symmetry.
 Integral buffers will be    131072 words long.
 Raffenetti 2 integral format.
 Two-electron integral symmetry is turned on.
   453 basis functions,   753 primitive gaussians,   453 cartesian basis functions
    80 alpha electrons       79 beta electrons
       nuclear repulsion energy      1744.7386014511 Hartrees.
 NAtoms=   29 NActive=   29 NUniq=   29 SFac= 1.00D+00 NAtFMM=   50 NAOKFM=F Big=F
 One-electron integrals computed using PRISM.
 NBasis=   453 RedAO= T  NBF=   453
 NBsUse=   453 1.00D-06 NBFU=   453
 Harris functional with IExCor=  402 diagonalized for initial guess.
 ExpMin= 4.38D-02 ExpMax= 5.48D+03 ExpMxC= 8.25D+02 IAcc=2 IRadAn=         0 AccDes= 0.00D+00
 HarFok:  IExCor=  402 AccDes= 0.00D+00 IRadAn=         0 IDoV= 1
 ScaDFX=  1.000000  1.000000  1.000000  1.000000
 FoFCou: FMM=F IPFlag=           0 FMFlag=      100000 FMFlg1=           0
         NFxFlg=           0 DoJE=T BraDBF=F KetDBF=T FulRan=T
         Omega=  0.000000  0.000000  1.000000  0.000000  0.000000 ICntrl=     500 IOpCl=  0
         NMat0=    1 NMatS0=    1 NMatT0=    0 NMatD0=    1 NMtDS0=    0 NMtDT0=    0
         I1Cent=           4 NGrid=           0.
 Petite list used in FoFCou.
 Initial guess orbital symmetries:
 Alpha Orbitals:
       Occupied  (A) (A) (A) (A) (A) (A) (A) (A) (A) (A) (A) (A)
                 (A) (A) (A) (A) (A) (A) (A) (A) (A) (A) (A) (A)
                 (A) (A) (A) (A) (A) (A) (A) (A) (A) (A) (A) (A)
                 (A) (A) (A) (A) (A) (A) (A) (A) (A) (A) (A) (A)
                 (A) (A) (A) (A) (A) (A) (A) (A) (A) (A) (A) (A)
                 (A) (A) (A) (A) (A) (A) (A) (A) (A) (A) (A) (A)
                 (A) (A) (A) (A) (A) (A) (A) (A)
       Virtual   (A) (A) (A) (A) (A) (A) (A) (A) (A) (A) (A) (A)
                 (A) (A) (A) (A) (A) (A) (A) (A) (A) (A) (A) (A)
                 (A) (A) (A) (A) (A) (A) (A) (A) (A) (A) (A) (A)
                 (A) (A) (A) (A) (A) (A) (A) (A) (A) (A) (A) (A)
                 (A) (A) (A) (A) (A) (A) (A) (A) (A) (A) (A) (A)
                 (A) (A) (A) (A) (A) (A) (A) (A) (A) (A) (A) (A)
                 (A) (A) (A) (A) (A) (A) (A) (A) (A) (A) (A) (A)
                 (A) (A) (A) (A) (A) (A) (A) (A) (A) (A) (A) (A)
                 (A) (A) (A) (A) (A) (A) (A) (A) (A) (A) (A) (A)
                 (A) (A) (A) (A) (A) (A) (A) (A) (A) (A) (A) (A)
                 (A) (A) (A) (A) (A) (A) (A) (A) (A) (A) (A) (A)
                 (A) (A) (A) (A) (A) (A) (A) (A) (A) (A) (A) (A)
                 (A) (A) (A) (A) (A) (A) (A) (A) (A) (A) (A) (A)
                 (A) (A) (A) (A) (A) (A) (A) (A) (A) (A) (A) (A)
                 (A) (A) (A) (A) (A) (A) (A) (A) (A) (A) (A) (A)
                 (A) (A) (A) (A) (A) (A) (A) (A) (A) (A) (A) (A)
                 (A) (A) (A) (A) (A) (A) (A) (A) (A) (A) (A) (A)
                 (A) (A) (A) (A) (A) (A) (A) (A) (A) (A) (A) (A)
                 (A) (A) (A) (A) (A) (A) (A) (A) (A) (A) (A) (A)
                 (A) (A) (A) (A) (A) (A) (A) (A) (A) (A) (A) (A)
                 (A) (A) (A) (A) (A) (A) (A) (A) (A) (A) (A) (A)
                 (A) (A) (A) (A) (A) (A) (A) (A) (A) (A) (A) (A)
                 (A) (A) (A) (A) (A) (A) (A) (A) (A) (A) (A) (A)
                 (A) (A) (A) (A) (A) (A) (A) (A) (A) (A) (A) (A)
                 (A) (A) (A) (A) (A) (A) (A) (A) (A) (A) (A) (A)
                 (A) (A) (A) (A) (A) (A) (A) (A) (A) (A) (A) (A)
                 (A) (A) (A) (A) (A) (A) (A) (A) (A) (A) (A) (A)
                 (A) (A) (A) (A) (A) (A) (A) (A) (A) (A) (A) (A)
                 (A) (A) (A) (A) (A) (A) (A) (A) (A) (A) (A) (A)
                 (A) (A) (A) (A) (A) (A) (A) (A) (A) (A) (A) (A)
                 (A) (A) (A) (A) (A) (A) (A) (A) (A) (A) (A) (A)
                 (A)
 Beta  Orbitals:
       Occupied  (A) (A) (A) (A) (A) (A) (A) (A) (A) (A) (A) (A)
                 (A) (A) (A) (A) (A) (A) (A) (A) (A) (A) (A) (A)
                 (A) (A) (A) (A) (A) (A) (A) (A) (A) (A) (A) (A)
                 (A) (A) (A) (A) (A) (A) (A) (A) (A) (A) (A) (A)
                 (A) (A) (A) (A) (A) (A) (A) (A) (A) (A) (A) (A)
                 (A) (A) (A) (A) (A) (A) (A) (A) (A) (A) (A) (A)
                 (A) (A) (A) (A) (A) (A) (A)
       Virtual   (A) (A) (A) (A) (A) (A) (A) (A) (A) (A) (A) (A)
                 (A) (A) (A) (A) (A) (A) (A) (A) (A) (A) (A) (A)
                 (A) (A) (A) (A) (A) (A) (A) (A) (A) (A) (A) (A)
                 (A) (A) (A) (A) (A) (A) (A) (A) (A) (A) (A) (A)
                 (A) (A) (A) (A) (A) (A) (A) (A) (A) (A) (A) (A)
                 (A) (A) (A) (A) (A) (A) (A) (A) (A) (A) (A) (A)
                 (A) (A) (A) (A) (A) (A) (A) (A) (A) (A) (A) (A)
                 (A) (A) (A) (A) (A) (A) (A) (A) (A) (A) (A) (A)
                 (A) (A) (A) (A) (A) (A) (A) (A) (A) (A) (A) (A)
                 (A) (A) (A) (A) (A) (A) (A) (A) (A) (A) (A) (A)
                 (A) (A) (A) (A) (A) (A) (A) (A) (A) (A) (A) (A)
                 (A) (A) (A) (A) (A) (A) (A) (A) (A) (A) (A) (A)
                 (A) (A) (A) (A) (A) (A) (A) (A) (A) (A) (A) (A)
                 (A) (A) (A) (A) (A) (A) (A) (A) (A) (A) (A) (A)
                 (A) (A) (A) (A) (A) (A) (A) (A) (A) (A) (A) (A)
                 (A) (A) (A) (A) (A) (A) (A) (A) (A) (A) (A) (A)
                 (A) (A) (A) (A) (A) (A) (A) (A) (A) (A) (A) (A)
                 (A) (A) (A) (A) (A) (A) (A) (A) (A) (A) (A) (A)
                 (A) (A) (A) (A) (A) (A) (A) (A) (A) (A) (A) (A)
                 (A) (A) (A) (A) (A) (A) (A) (A) (A) (A) (A) (A)
                 (A) (A) (A) (A) (A) (A) (A) (A) (A) (A) (A) (A)
                 (A) (A) (A) (A) (A) (A) (A) (A) (A) (A) (A) (A)
                 (A) (A) (A) (A) (A) (A) (A) (A) (A) (A) (A) (A)
                 (A) (A) (A) (A) (A) (A) (A) (A) (A) (A) (A) (A)
                 (A) (A) (A) (A) (A) (A) (A) (A) (A) (A) (A) (A)
                 (A) (A) (A) (A) (A) (A) (A) (A) (A) (A) (A) (A)
                 (A) (A) (A) (A) (A) (A) (A) (A) (A) (A) (A) (A)
                 (A) (A) (A) (A) (A) (A) (A) (A) (A) (A) (A) (A)
                 (A) (A) (A) (A) (A) (A) (A) (A) (A) (A) (A) (A)
                 (A) (A) (A) (A) (A) (A) (A) (A) (A) (A) (A) (A)
                 (A) (A) (A) (A) (A) (A) (A) (A) (A) (A) (A) (A)
                 (A) (A)
 The electronic state of the initial guess is 2-A.
 Initial guess <Sx>= 0.0000 <Sy>= 0.0000 <Sz>= 0.5000 <S**2>= 0.7500 S= 0.5000
 Requested convergence on RMS density matrix=1.00D-08 within 128 cycles.
 Requested convergence on MAX density matrix=1.00D-06.
 Requested convergence on             energy=1.00D-06.
 No special actions if energy rises.
 Rare condition: small coef for last iteration:  0.000D+00
 EnCoef did   100 forward-backward iterations
 EnCoef did   100 forward-backward iterations
 EnCoef did     3 forward-backward iterations
 EnCoef did     6 forward-backward iterations
 EnCoef did     2 forward-backward iterations
 Restarting incremental Fock formation.
 Rare condition: small coef for last iteration:  0.000D+00
 Restarting incremental Fock formation.
 SCF Done:  E(UB3LYP) =  -1213.00569494     A.U. after   50 cycles
             Convg  =    0.4559D-08             -V/T =  2.0108
 <Sx>= 0.0000 <Sy>= 0.0000 <Sz>= 0.5000 <S**2>= 2.6724 S= 1.2095
 <L.S>= 0.000000000000E+00
 Annihilation of the first spin contaminant:
 S**2 before annihilation     2.6724,   after     5.4978
 Range of M.O.s used for correlation:     1   453
 NBasis=   453 NAE=    80 NBE=    79 NFC=     0 NFV=     0
 NROrb=    453 NOA=    80 NOB=    79 NVA=   373 NVB=   374

 **** Warning!!: The largest alpha MO coefficient is  0.74504651D+02


 **** Warning!!: The smallest alpha delta epsilon is  0.36299605D-01


 **** Warning!!: The largest beta MO coefficient is  0.70347736D+02


 **** Warning!!: The smallest beta delta epsilon is  0.70261951D-01

          Differentiating once with respect to electric field.
                with respect to dipole field.
          Electric field/nuclear overlap derivatives assumed to be zero.
          There are     3 degrees of freedom in the 1st order CPHF.  IDoFFX=0.
      3 vectors produced by pass  0 Test12= 1.98D-12 3.33D-08 XBig12= 1.61D+03 1.91D+01.
 AX will form     3 AO Fock derivatives at one time.
      3 vectors produced by pass  1 Test12= 1.98D-12 3.33D-08 XBig12= 6.53D+02 4.79D+00.
      3 vectors produced by pass  2 Test12= 1.98D-12 3.33D-08 XBig12= 5.56D+02 1.45D+01.
      3 vectors produced by pass  3 Test12= 1.98D-12 3.33D-08 XBig12= 5.15D+02 7.01D+00.
      3 vectors produced by pass  4 Test12= 1.98D-12 3.33D-08 XBig12= 1.94D+02 2.97D+00.
      3 vectors produced by pass  5 Test12= 1.98D-12 3.33D-08 XBig12= 1.17D+02 2.01D+00.
      3 vectors produced by pass  6 Test12= 1.98D-12 3.33D-08 XBig12= 6.06D+01 1.45D+00.
      3 vectors produced by pass  7 Test12= 1.98D-12 3.33D-08 XBig12= 2.92D+01 1.37D+00.
      3 vectors produced by pass  8 Test12= 1.98D-12 3.33D-08 XBig12= 1.30D+01 5.73D-01.
      3 vectors produced by pass  9 Test12= 1.98D-12 3.33D-08 XBig12= 7.63D+00 4.82D-01.
      3 vectors produced by pass 10 Test12= 1.98D-12 3.33D-08 XBig12= 2.78D+00 2.82D-01.
      3 vectors produced by pass 11 Test12= 1.98D-12 3.33D-08 XBig12= 1.05D+00 1.60D-01.
      3 vectors produced by pass 12 Test12= 1.98D-12 3.33D-08 XBig12= 7.45D-01 1.66D-01.
      3 vectors produced by pass 13 Test12= 1.98D-12 3.33D-08 XBig12= 2.09D-01 7.02D-02.
      3 vectors produced by pass 14 Test12= 1.98D-12 3.33D-08 XBig12= 2.73D-02 3.09D-02.
      3 vectors produced by pass 15 Test12= 1.98D-12 3.33D-08 XBig12= 5.84D-03 1.12D-02.
      3 vectors produced by pass 16 Test12= 1.98D-12 3.33D-08 XBig12= 4.26D-03 1.12D-02.
      3 vectors produced by pass 17 Test12= 1.98D-12 3.33D-08 XBig12= 1.29D-03 6.04D-03.
      3 vectors produced by pass 18 Test12= 1.98D-12 3.33D-08 XBig12= 2.80D-04 2.78D-03.
      3 vectors produced by pass 19 Test12= 1.98D-12 3.33D-08 XBig12= 3.36D-05 9.31D-04.
      3 vectors produced by pass 20 Test12= 1.98D-12 3.33D-08 XBig12= 3.58D-06 3.53D-04.
      3 vectors produced by pass 21 Test12= 1.98D-12 3.33D-08 XBig12= 3.35D-07 7.99D-05.
      3 vectors produced by pass 22 Test12= 1.98D-12 3.33D-08 XBig12= 3.40D-08 1.99D-05.
      3 vectors produced by pass 23 Test12= 1.98D-12 3.33D-08 XBig12= 2.65D-09 8.08D-06.
      3 vectors produced by pass 24 Test12= 1.98D-12 3.33D-08 XBig12= 1.79D-10 1.65D-06.
      3 vectors produced by pass 25 Test12= 1.98D-12 3.33D-08 XBig12= 1.61D-11 4.28D-07.
      3 vectors produced by pass 26 Test12= 1.98D-12 3.33D-08 XBig12= 8.67D-12 2.98D-07.
      2 vectors produced by pass 27 Test12= 1.98D-12 3.33D-08 XBig12= 1.72D-12 8.77D-08.
 Inverted reduced A of dimension    83 with in-core refinement.
 End of Minotr Frequency-dependent properties file   721 does not exist.
 End of Minotr Frequency-dependent properties file   722 does not exist.
 Symmetrizing basis deriv contribution to polar:
 IMax=3 JMax=2 DiffMx= 0.00D+00
 G2DrvN: will do    15 centers at a time, making    2 passes doing MaxLOS=2.
 Calling FoFCou, ICntrl=  3107 FMM=F I1Cent=   0 AccDes= 0.00D+00.
 Calling FoFCou, ICntrl=  3107 FMM=F I1Cent=   0 AccDes= 0.00D+00.
 FoFDir/FoFCou used for L=0 through L=2.
 End of G2Drv Frequency-dependent properties file   721 does not exist.
 End of G2Drv Frequency-dependent properties file   722 does not exist.
          IDoAtm=11111111111111111111111111111
          Differentiating once with respect to electric field.
                with respect to dipole field.
          Differentiating once with respect to nuclear coordinates.
          There are    90 degrees of freedom in the 1st order CPHF.  IDoFFX=5.
 Will reuse    3 saved solutions.
     87 vectors produced by pass  0 Test12= 6.60D-14 1.11D-09 XBig12= 6.36D-01 3.55D-01.
 AX will form    44 AO Fock derivatives at one time.
     87 vectors produced by pass  1 Test12= 6.60D-14 1.11D-09 XBig12= 1.39D-01 8.41D-02.
     86 vectors produced by pass  2 Test12= 6.60D-14 1.11D-09 XBig12= 6.34D-03 1.33D-02.
     84 vectors produced by pass  3 Test12= 6.60D-14 1.11D-09 XBig12= 1.08D-04 1.40D-03.
     84 vectors produced by pass  4 Test12= 6.60D-14 1.11D-09 XBig12= 1.82D-06 1.46D-04.
     84 vectors produced by pass  5 Test12= 6.60D-14 1.11D-09 XBig12= 1.85D-08 1.11D-05.
     84 vectors produced by pass  6 Test12= 6.60D-14 1.11D-09 XBig12= 1.25D-10 1.08D-06.
     84 vectors produced by pass  7 Test12= 6.60D-14 1.11D-09 XBig12= 2.85D-12 1.26D-07.
     56 vectors produced by pass  8 Test12= 6.60D-14 1.11D-09 XBig12= 1.51D-13 2.63D-08.
      6 vectors produced by pass  9 Test12= 6.60D-14 1.11D-09 XBig12= 6.56D-16 1.77D-09.
      2 vectors produced by pass 10 Test12= 6.60D-14 1.11D-09 XBig12= 2.71D-16 1.18D-09.
 Inverted reduced A of dimension   744 with in-core refinement.
 Isotropic polarizability for W=    0.000000      257.16 Bohr**3.
 End of Minotr Frequency-dependent properties file   721 does not exist.
 End of Minotr Frequency-dependent properties file   722 does not exist.

 **********************************************************************

            Population analysis using the SCF density.

 **********************************************************************

 Orbital symmetries:
 Alpha Orbitals:
       Occupied  (A) (A) (A) (A) (A) (A) (A) (A) (A) (A) (A) (A)
                 (A) (A) (A) (A) (A) (A) (A) (A) (A) (A) (A) (A)
                 (A) (A) (A) (A) (A) (A) (A) (A) (A) (A) (A) (A)
                 (A) (A) (A) (A) (A) (A) (A) (A) (A) (A) (A) (A)
                 (A) (A) (A) (A) (A) (A) (A) (A) (A) (A) (A) (A)
                 (A) (A) (A) (A) (A) (A) (A) (A) (A) (A) (A) (A)
                 (A) (A) (A) (A) (A) (A) (A) (A)
       Virtual   (A) (A) (A) (A) (A) (A) (A) (A) (A) (A) (A) (A)
                 (A) (A) (A) (A) (A) (A) (A) (A) (A) (A) (A) (A)
                 (A) (A) (A) (A) (A) (A) (A) (A) (A) (A) (A) (A)
                 (A) (A) (A) (A) (A) (A) (A) (A) (A) (A) (A) (A)
                 (A) (A) (A) (A) (A) (A) (A) (A) (A) (A) (A) (A)
                 (A) (A) (A) (A) (A) (A) (A) (A) (A) (A) (A) (A)
                 (A) (A) (A) (A) (A) (A) (A) (A) (A) (A) (A) (A)
                 (A) (A) (A) (A) (A) (A) (A) (A) (A) (A) (A) (A)
                 (A) (A) (A) (A) (A) (A) (A) (A) (A) (A) (A) (A)
                 (A) (A) (A) (A) (A) (A) (A) (A) (A) (A) (A) (A)
                 (A) (A) (A) (A) (A) (A) (A) (A) (A) (A) (A) (A)
                 (A) (A) (A) (A) (A) (A) (A) (A) (A) (A) (A) (A)
                 (A) (A) (A) (A) (A) (A) (A) (A) (A) (A) (A) (A)
                 (A) (A) (A) (A) (A) (A) (A) (A) (A) (A) (A) (A)
                 (A) (A) (A) (A) (A) (A) (A) (A) (A) (A) (A) (A)
                 (A) (A) (A) (A) (A) (A) (A) (A) (A) (A) (A) (A)
                 (A) (A) (A) (A) (A) (A) (A) (A) (A) (A) (A) (A)
                 (A) (A) (A) (A) (A) (A) (A) (A) (A) (A) (A) (A)
                 (A) (A) (A) (A) (A) (A) (A) (A) (A) (A) (A) (A)
                 (A) (A) (A) (A) (A) (A) (A) (A) (A) (A) (A) (A)
                 (A) (A) (A) (A) (A) (A) (A) (A) (A) (A) (A) (A)
                 (A) (A) (A) (A) (A) (A) (A) (A) (A) (A) (A) (A)
                 (A) (A) (A) (A) (A) (A) (A) (A) (A) (A) (A) (A)
                 (A) (A) (A) (A) (A) (A) (A) (A) (A) (A) (A) (A)
                 (A) (A) (A) (A) (A) (A) (A) (A) (A) (A) (A) (A)
                 (A) (A) (A) (A) (A) (A) (A) (A) (A) (A) (A) (A)
                 (A) (A) (A) (A) (A) (A) (A) (A) (A) (A) (A) (A)
                 (A) (A) (A) (A) (A) (A) (A) (A) (A) (A) (A) (A)
                 (A) (A) (A) (A) (A) (A) (A) (A) (A) (A) (A) (A)
                 (A) (A) (A) (A) (A) (A) (A) (A) (A) (A) (A) (A)
                 (A) (A) (A) (A) (A) (A) (A) (A) (A) (A) (A) (A)
                 (A)
 Beta  Orbitals:
       Occupied  (A) (A) (A) (A) (A) (A) (A) (A) (A) (A) (A) (A)
                 (A) (A) (A) (A) (A) (A) (A) (A) (A) (A) (A) (A)
                 (A) (A) (A) (A) (A) (A) (A) (A) (A) (A) (A) (A)
                 (A) (A) (A) (A) (A) (A) (A) (A) (A) (A) (A) (A)
                 (A) (A) (A) (A) (A) (A) (A) (A) (A) (A) (A) (A)
                 (A) (A) (A) (A) (A) (A) (A) (A) (A) (A) (A) (A)
                 (A) (A) (A) (A) (A) (A) (A)
       Virtual   (A) (A) (A) (A) (A) (A) (A) (A) (A) (A) (A) (A)
                 (A) (A) (A) (A) (A) (A) (A) (A) (A) (A) (A) (A)
                 (A) (A) (A) (A) (A) (A) (A) (A) (A) (A) (A) (A)
                 (A) (A) (A) (A) (A) (A) (A) (A) (A) (A) (A) (A)
                 (A) (A) (A) (A) (A) (A) (A) (A) (A) (A) (A) (A)
                 (A) (A) (A) (A) (A) (A) (A) (A) (A) (A) (A) (A)
                 (A) (A) (A) (A) (A) (A) (A) (A) (A) (A) (A) (A)
                 (A) (A) (A) (A) (A) (A) (A) (A) (A) (A) (A) (A)
                 (A) (A) (A) (A) (A) (A) (A) (A) (A) (A) (A) (A)
                 (A) (A) (A) (A) (A) (A) (A) (A) (A) (A) (A) (A)
                 (A) (A) (A) (A) (A) (A) (A) (A) (A) (A) (A) (A)
                 (A) (A) (A) (A) (A) (A) (A) (A) (A) (A) (A) (A)
                 (A) (A) (A) (A) (A) (A) (A) (A) (A) (A) (A) (A)
                 (A) (A) (A) (A) (A) (A) (A) (A) (A) (A) (A) (A)
                 (A) (A) (A) (A) (A) (A) (A) (A) (A) (A) (A) (A)
                 (A) (A) (A) (A) (A) (A) (A) (A) (A) (A) (A) (A)
                 (A) (A) (A) (A) (A) (A) (A) (A) (A) (A) (A) (A)
                 (A) (A) (A) (A) (A) (A) (A) (A) (A) (A) (A) (A)
                 (A) (A) (A) (A) (A) (A) (A) (A) (A) (A) (A) (A)
                 (A) (A) (A) (A) (A) (A) (A) (A) (A) (A) (A) (A)
                 (A) (A) (A) (A) (A) (A) (A) (A) (A) (A) (A) (A)
                 (A) (A) (A) (A) (A) (A) (A) (A) (A) (A) (A) (A)
                 (A) (A) (A) (A) (A) (A) (A) (A) (A) (A) (A) (A)
                 (A) (A) (A) (A) (A) (A) (A) (A) (A) (A) (A) (A)
                 (A) (A) (A) (A) (A) (A) (A) (A) (A) (A) (A) (A)
                 (A) (A) (A) (A) (A) (A) (A) (A) (A) (A) (A) (A)
                 (A) (A) (A) (A) (A) (A) (A) (A) (A) (A) (A) (A)
                 (A) (A) (A) (A) (A) (A) (A) (A) (A) (A) (A) (A)
                 (A) (A) (A) (A) (A) (A) (A) (A) (A) (A) (A) (A)
                 (A) (A) (A) (A) (A) (A) (A) (A) (A) (A) (A) (A)
                 (A) (A) (A) (A) (A) (A) (A) (A) (A) (A) (A) (A)
                 (A) (A)
 The electronic state is 2-A.
 Alpha  occ. eigenvalues --  -19.25407 -19.25314 -19.22795 -19.22306 -19.21621
 Alpha  occ. eigenvalues --  -19.21563 -19.21391 -19.20551 -19.20385 -19.19391
 Alpha  occ. eigenvalues --  -10.35224 -10.32517 -10.32390 -10.32020 -10.31452
 Alpha  occ. eigenvalues --  -10.30879 -10.29627 -10.29538 -10.29259 -10.28733
 Alpha  occ. eigenvalues --  -10.28593 -10.27290  -1.13190  -1.09658  -1.08491
 Alpha  occ. eigenvalues --   -1.07954  -1.07246  -1.06396  -1.05718  -1.05526
 Alpha  occ. eigenvalues --   -1.04226  -1.03344  -0.82128  -0.80383  -0.78423
 Alpha  occ. eigenvalues --   -0.77830  -0.70811  -0.67918  -0.66661  -0.64468
 Alpha  occ. eigenvalues --   -0.63174  -0.61014  -0.56883  -0.56652  -0.55576
 Alpha  occ. eigenvalues --   -0.54986  -0.53544  -0.52234  -0.50726  -0.50443
 Alpha  occ. eigenvalues --   -0.49773  -0.48649  -0.47983  -0.47605  -0.46343
 Alpha  occ. eigenvalues --   -0.45608  -0.44401  -0.44079  -0.42812  -0.41800
 Alpha  occ. eigenvalues --   -0.41767  -0.41557  -0.40596  -0.39865  -0.38935
 Alpha  occ. eigenvalues --   -0.38116  -0.37549  -0.35972  -0.35937  -0.35441
 Alpha  occ. eigenvalues --   -0.33584  -0.32304  -0.32011  -0.29419  -0.28768
 Alpha  occ. eigenvalues --   -0.27101  -0.26647  -0.24196  -0.23454  -0.20383
 Alpha virt. eigenvalues --   -0.16753  -0.11750  -0.10854  -0.08633  -0.07316
 Alpha virt. eigenvalues --   -0.06620  -0.05719  -0.02026  -0.01166  -0.00266
 Alpha virt. eigenvalues --    0.01183   0.01586   0.01884   0.03386   0.04730
 Alpha virt. eigenvalues --    0.05378   0.05813   0.06020   0.06507   0.07211
 Alpha virt. eigenvalues --    0.07457   0.07630   0.08339   0.08394   0.08976
 Alpha virt. eigenvalues --    0.09219   0.09455   0.09728   0.10896   0.11183
 Alpha virt. eigenvalues --    0.11558   0.11780   0.12211   0.12543   0.12875
 Alpha virt. eigenvalues --    0.13076   0.13560   0.13627   0.14352   0.14556
 Alpha virt. eigenvalues --    0.14774   0.15015   0.15861   0.15892   0.16065
 Alpha virt. eigenvalues --    0.16632   0.16738   0.17188   0.17351   0.17713
 Alpha virt. eigenvalues --    0.18107   0.19039   0.19105   0.19352   0.19754
 Alpha virt. eigenvalues --    0.20179   0.20417   0.20685   0.20801   0.21013
 Alpha virt. eigenvalues --    0.21328   0.21850   0.22082   0.22581   0.23010
 Alpha virt. eigenvalues --    0.23227   0.23460   0.23851   0.24365   0.24635
 Alpha virt. eigenvalues --    0.24912   0.25042   0.25532   0.26069   0.26189
 Alpha virt. eigenvalues --    0.26310   0.26636   0.27213   0.27578   0.27779
 Alpha virt. eigenvalues --    0.28201   0.28559   0.28914   0.29215   0.29679
 Alpha virt. eigenvalues --    0.29932   0.30385   0.30652   0.30786   0.31362
 Alpha virt. eigenvalues --    0.31382   0.31821   0.32010   0.32482   0.32654
 Alpha virt. eigenvalues --    0.33198   0.33329   0.34154   0.34336   0.34751
 Alpha virt. eigenvalues --    0.35368   0.35688   0.36181   0.36847   0.37083
 Alpha virt. eigenvalues --    0.37479   0.37900   0.38631   0.39222   0.40376
 Alpha virt. eigenvalues --    0.40625   0.41263   0.41415   0.41813   0.43482
 Alpha virt. eigenvalues --    0.43549   0.44097   0.44546   0.45321   0.46024
 Alpha virt. eigenvalues --    0.46885   0.48670   0.49152   0.50112   0.51583
 Alpha virt. eigenvalues --    0.63240   0.64452   0.65375   0.65391   0.67993
 Alpha virt. eigenvalues --    0.69419   0.69855   0.71325   0.71803   0.72199
 Alpha virt. eigenvalues --    0.74078   0.75012   0.75465   0.76046   0.76943
 Alpha virt. eigenvalues --    0.77560   0.78111   0.78252   0.78939   0.80042
 Alpha virt. eigenvalues --    0.80695   0.81575   0.82320   0.84508   0.85910
 Alpha virt. eigenvalues --    0.86724   0.87565   0.88447   0.89720   0.90267
 Alpha virt. eigenvalues --    0.90797   0.92272   0.94033   0.97122   0.97673
 Alpha virt. eigenvalues --    0.98771   0.99696   1.00503   1.01585   1.02228
 Alpha virt. eigenvalues --    1.04724   1.05883   1.07720   1.09539   1.10516
 Alpha virt. eigenvalues --    1.11660   1.13149   1.14513   1.14623   1.15832
 Alpha virt. eigenvalues --    1.16035   1.16765   1.17462   1.17775   1.19173
 Alpha virt. eigenvalues --    1.20561   1.21213   1.21672   1.21805   1.23375
 Alpha virt. eigenvalues --    1.24355   1.24840   1.25439   1.25894   1.26200
 Alpha virt. eigenvalues --    1.26338   1.27599   1.28615   1.28948   1.29537
 Alpha virt. eigenvalues --    1.30603   1.31400   1.32390   1.32717   1.33549
 Alpha virt. eigenvalues --    1.34380   1.35596   1.36395   1.37433   1.38605
 Alpha virt. eigenvalues --    1.38759   1.40338   1.42821   1.43180   1.43647
 Alpha virt. eigenvalues --    1.44805   1.45567   1.47182   1.48754   1.50874
 Alpha virt. eigenvalues --    1.51188   1.53284   1.54571   1.54717   1.55626
 Alpha virt. eigenvalues --    1.56137   1.56772   1.58212   1.58525   1.59037
 Alpha virt. eigenvalues --    1.59408   1.60812   1.61488   1.61932   1.63344
 Alpha virt. eigenvalues --    1.64035   1.65560   1.66489   1.67103   1.67311
 Alpha virt. eigenvalues --    1.68375   1.69872   1.70902   1.71613   1.72925
 Alpha virt. eigenvalues --    1.73465   1.74448   1.75925   1.76728   1.78048
 Alpha virt. eigenvalues --    1.79040   1.80230   1.81663   1.82544   1.83440
 Alpha virt. eigenvalues --    1.83780   1.84091   1.84763   1.85594   1.85910
 Alpha virt. eigenvalues --    1.87633   1.88265   1.88763   1.90259   1.90812
 Alpha virt. eigenvalues --    1.92809   1.92963   1.94058   1.94759   1.96017
 Alpha virt. eigenvalues --    1.96468   1.96886   1.98286   1.98903   2.01195
 Alpha virt. eigenvalues --    2.01518   2.02595   2.04079   2.06114   2.06552
 Alpha virt. eigenvalues --    2.08356   2.09576   2.09747   2.11162   2.12226
 Alpha virt. eigenvalues --    2.14094   2.16101   2.18731   2.20008   2.23793
 Alpha virt. eigenvalues --    2.25542   2.26674   2.27356   2.29641   2.31054
 Alpha virt. eigenvalues --    2.32313   2.34004   2.34696   2.35548   2.36100
 Alpha virt. eigenvalues --    2.38716   2.40107   2.41520   2.42276   2.43395
 Alpha virt. eigenvalues --    2.43879   2.45919   2.46790   2.48823   2.50148
 Alpha virt. eigenvalues --    2.53023   2.54123   2.54571   2.56268   2.56612
 Alpha virt. eigenvalues --    2.58472   2.59006   2.60166   2.60681   2.63224
 Alpha virt. eigenvalues --    2.63444   2.65469   2.66414   2.66812   2.67869
 Alpha virt. eigenvalues --    2.70516   2.71124   2.72639   2.79057   2.80491
 Alpha virt. eigenvalues --    2.82290   2.85749   2.86899   2.87363   2.88581
 Alpha virt. eigenvalues --    2.89709   2.92711   2.94677   2.95505   2.96856
 Alpha virt. eigenvalues --    2.98281   2.99061   3.02872   3.04021   3.04692
 Alpha virt. eigenvalues --    3.08740   3.12637   3.15241   3.18490   3.39151
 Alpha virt. eigenvalues --    3.41544   3.42420   3.46881   3.48069   3.51829
 Alpha virt. eigenvalues --    3.61793   4.13469   4.19096   4.20993   4.21902
 Alpha virt. eigenvalues --    4.24829   4.25727   4.28310   4.31874   4.33223
 Alpha virt. eigenvalues --    4.35894   4.37248   4.38702   4.43591   4.44195
 Alpha virt. eigenvalues --    4.45210   4.51205   4.51515   4.55336   4.58246
 Alpha virt. eigenvalues --    4.62548   4.66216   4.70316
  Beta  occ. eigenvalues --  -19.25291 -19.25215 -19.22771 -19.22542 -19.21204
  Beta  occ. eigenvalues --  -19.21159 -19.21140 -19.20790 -19.20196 -19.19207
  Beta  occ. eigenvalues --  -10.34413 -10.32577 -10.32149 -10.31435 -10.31174
  Beta  occ. eigenvalues --  -10.30193 -10.29939 -10.29167 -10.29144 -10.28936
  Beta  occ. eigenvalues --  -10.28917 -10.28183  -1.12869  -1.08820  -1.08249
  Beta  occ. eigenvalues --   -1.08024  -1.07066  -1.06397  -1.05723  -1.04681
  Beta  occ. eigenvalues --   -1.04146  -1.02778  -0.82041  -0.81074  -0.78271
  Beta  occ. eigenvalues --   -0.77028  -0.70485  -0.68011  -0.66559  -0.64268
  Beta  occ. eigenvalues --   -0.63326  -0.60558  -0.56845  -0.56488  -0.55709
  Beta  occ. eigenvalues --   -0.54698  -0.53455  -0.51488  -0.50219  -0.49940
  Beta  occ. eigenvalues --   -0.49598  -0.48208  -0.47429  -0.47024  -0.45476
  Beta  occ. eigenvalues --   -0.44914  -0.43486  -0.43001  -0.42588  -0.41809
  Beta  occ. eigenvalues --   -0.41230  -0.41022  -0.40474  -0.39613  -0.39094
  Beta  occ. eigenvalues --   -0.38072  -0.36485  -0.36099  -0.35925  -0.35021
  Beta  occ. eigenvalues --   -0.33054  -0.33005  -0.31991  -0.29747  -0.28711
  Beta  occ. eigenvalues --   -0.27747  -0.26284  -0.24700  -0.21548
  Beta virt. eigenvalues --   -0.14522  -0.12072  -0.10957  -0.09216  -0.08455
  Beta virt. eigenvalues --   -0.07245  -0.06532  -0.05183  -0.02027  -0.01218
  Beta virt. eigenvalues --   -0.00081   0.01267   0.01499   0.01890   0.03537
  Beta virt. eigenvalues --    0.04857   0.05307   0.05937   0.06178   0.06633
  Beta virt. eigenvalues --    0.07123   0.07457   0.07762   0.08503   0.08556
  Beta virt. eigenvalues --    0.09056   0.09293   0.09511   0.09806   0.10984
  Beta virt. eigenvalues --    0.11281   0.11665   0.12049   0.12409   0.12678
  Beta virt. eigenvalues --    0.12985   0.13163   0.13606   0.13767   0.14532
  Beta virt. eigenvalues --    0.14741   0.14858   0.14979   0.15962   0.15974
  Beta virt. eigenvalues --    0.16162   0.16690   0.16842   0.17328   0.17553
  Beta virt. eigenvalues --    0.18006   0.18270   0.19042   0.19332   0.19380
  Beta virt. eigenvalues --    0.19953   0.20167   0.20625   0.20676   0.20944
  Beta virt. eigenvalues --    0.21210   0.21391   0.21894   0.22318   0.22685
  Beta virt. eigenvalues --    0.23098   0.23381   0.23455   0.23951   0.24479
  Beta virt. eigenvalues --    0.24745   0.24855   0.25181   0.25626   0.26009
  Beta virt. eigenvalues --    0.26329   0.26443   0.26840   0.27163   0.27535
  Beta virt. eigenvalues --    0.27963   0.28256   0.28711   0.29192   0.29452
  Beta virt. eigenvalues --    0.29803   0.30057   0.30367   0.30594   0.30896
  Beta virt. eigenvalues --    0.31467   0.31627   0.31969   0.32070   0.32595
  Beta virt. eigenvalues --    0.32766   0.33377   0.33436   0.34274   0.34423
  Beta virt. eigenvalues --    0.35019   0.35582   0.35819   0.36274   0.36801
  Beta virt. eigenvalues --    0.37207   0.37559   0.38028   0.38673   0.39288
  Beta virt. eigenvalues --    0.40427   0.40713   0.41355   0.41384   0.41830
  Beta virt. eigenvalues --    0.43519   0.43619   0.44152   0.44491   0.45412
  Beta virt. eigenvalues --    0.46067   0.46922   0.48800   0.49444   0.50263
  Beta virt. eigenvalues --    0.51707   0.63341   0.64099   0.65310   0.65683
  Beta virt. eigenvalues --    0.67857   0.69105   0.69640   0.71096   0.71692
  Beta virt. eigenvalues --    0.73121   0.73879   0.74380   0.75393   0.75797
  Beta virt. eigenvalues --    0.76154   0.77273   0.78493   0.79347   0.79471
  Beta virt. eigenvalues --    0.79840   0.80618   0.81628   0.82938   0.85676
  Beta virt. eigenvalues --    0.86561   0.87200   0.88246   0.88832   0.89821
  Beta virt. eigenvalues --    0.90555   0.91628   0.92935   0.94166   0.97060
  Beta virt. eigenvalues --    0.97742   0.98938   0.99931   1.00646   1.01618
  Beta virt. eigenvalues --    1.02398   1.04766   1.05933   1.07514   1.09773
  Beta virt. eigenvalues --    1.10831   1.11778   1.13598   1.14615   1.14963
  Beta virt. eigenvalues --    1.16139   1.16265   1.16776   1.17584   1.17853
  Beta virt. eigenvalues --    1.19854   1.20672   1.21225   1.21762   1.22062
  Beta virt. eigenvalues --    1.23719   1.24810   1.25113   1.25664   1.25974
  Beta virt. eigenvalues --    1.26468   1.26659   1.27638   1.28605   1.29008
  Beta virt. eigenvalues --    1.29600   1.30711   1.31623   1.32584   1.32792
  Beta virt. eigenvalues --    1.33641   1.34427   1.35696   1.36249   1.37500
  Beta virt. eigenvalues --    1.38794   1.38951   1.40454   1.42708   1.43465
  Beta virt. eigenvalues --    1.43983   1.44992   1.45706   1.47324   1.49220
  Beta virt. eigenvalues --    1.51125   1.51382   1.53404   1.54568   1.55029
  Beta virt. eigenvalues --    1.55942   1.56253   1.56900   1.58255   1.58769
  Beta virt. eigenvalues --    1.59174   1.59480   1.60927   1.61891   1.62080
  Beta virt. eigenvalues --    1.63502   1.64248   1.65926   1.66102   1.67287
  Beta virt. eigenvalues --    1.67386   1.68705   1.70182   1.71003   1.71628
  Beta virt. eigenvalues --    1.72969   1.73753   1.74988   1.76208   1.76474
  Beta virt. eigenvalues --    1.78275   1.78866   1.80428   1.82225   1.82734
  Beta virt. eigenvalues --    1.82964   1.83652   1.84507   1.84588   1.85342
  Beta virt. eigenvalues --    1.86148   1.87396   1.88293   1.89118   1.90170
  Beta virt. eigenvalues --    1.90720   1.92736   1.93036   1.94312   1.94970
  Beta virt. eigenvalues --    1.96281   1.96811   1.97736   1.98691   1.99192
  Beta virt. eigenvalues --    2.00968   2.02070   2.02874   2.04150   2.06490
  Beta virt. eigenvalues --    2.07215   2.09052   2.09693   2.10270   2.11597
  Beta virt. eigenvalues --    2.12219   2.14168   2.16672   2.19485   2.20373
  Beta virt. eigenvalues --    2.23503   2.25868   2.27168   2.28417   2.29851
  Beta virt. eigenvalues --    2.31527   2.32230   2.34365   2.34671   2.35610
  Beta virt. eigenvalues --    2.36307   2.38852   2.40517   2.41769   2.42329
  Beta virt. eigenvalues --    2.43381   2.44143   2.45975   2.47183   2.49266
  Beta virt. eigenvalues --    2.50406   2.53329   2.54317   2.55153   2.56434
  Beta virt. eigenvalues --    2.57046   2.58542   2.59200   2.60108   2.60611
  Beta virt. eigenvalues --    2.63346   2.63608   2.65635   2.66529   2.66942
  Beta virt. eigenvalues --    2.67717   2.70706   2.70875   2.72338   2.79127
  Beta virt. eigenvalues --    2.80825   2.82377   2.86266   2.87222   2.87617
  Beta virt. eigenvalues --    2.88872   2.90037   2.92818   2.95038   2.95432
  Beta virt. eigenvalues --    2.97130   2.98890   2.99282   3.03373   3.04467
  Beta virt. eigenvalues --    3.05259   3.09103   3.12913   3.15440   3.18682
  Beta virt. eigenvalues --    3.39223   3.41434   3.42550   3.46796   3.48241
  Beta virt. eigenvalues --    3.51835   3.61844   4.12806   4.19566   4.21171
  Beta virt. eigenvalues --    4.22184   4.24612   4.26297   4.28550   4.31453
  Beta virt. eigenvalues --    4.33525   4.36044   4.37494   4.39221   4.43789
  Beta virt. eigenvalues --    4.44472   4.45580   4.51483   4.51786   4.55728
  Beta virt. eigenvalues --    4.58047   4.62833   4.66716   4.70795
          Condensed to atoms (all electrons):
              1          2          3          4          5          6
     1  C    8.735591  -1.306554  -0.187934  -0.021520  -0.051636  -0.006515
     2  C   -1.306554   7.603281   0.066510   0.040147  -0.714716  -0.037068
     3  O   -0.187934   0.066510   8.264956   0.209501   0.116030  -0.018679
     4  H   -0.021520   0.040147   0.209501   0.414319  -0.022278   0.001826
     5  C   -0.051636  -0.714716   0.116030  -0.022278  13.153697   0.208369
     6  O   -0.006515  -0.037068  -0.018679   0.001826   0.208369   8.102234
     7  H    0.029196  -0.111878   0.020851  -0.001103   0.109255   0.181556
     8  C    0.236583  -0.378553  -0.016807  -0.000807   0.491478  -0.004767
     9  O    0.045122  -0.002923   0.000082   0.000001  -0.007425  -0.000014
    10  H   -0.000897   0.001960   0.000000   0.000000   0.000650   0.000000
    11  C   -1.654304   0.533268   0.057864   0.008611   0.054405   0.031888
    12  O    0.098148  -0.110729  -0.002786   0.000290   0.158562   0.011780
    13  C    0.043001   0.104534  -0.008452   0.004226  -5.654111  -0.079770
    14  O    0.001348   0.038369  -0.001637   0.000038  -0.105478   0.014084
    15  C    0.168084  -0.108520  -0.002785   0.000367  -0.557596  -0.033591
    16  C    0.010647  -0.008077  -0.000002   0.000069   0.300970  -0.000083
    17  O    0.001166   0.002580  -0.000003   0.000000  -0.007004   0.000234
    18  H   -0.000407  -0.001552   0.000001   0.000000   0.015223  -0.000078
    19  C    0.009562  -0.005273   0.000003   0.000002  -0.001259   0.000263
    20  O    0.000038   0.000019   0.000000   0.000000   0.000101  -0.000001
    21  H   -0.000016   0.000001   0.000000   0.000000   0.000355   0.000000
    22  C    0.016417  -0.008279  -0.001224  -0.000017  -0.015313   0.029572
    23  O   -0.000107  -0.000439   0.000005   0.000000  -0.004166  -0.000627
    24  H    0.000012  -0.000123   0.000000   0.000000   0.002926   0.000081
    25  C   -0.033034  -0.001057   0.002088  -0.000009  -1.087583  -0.024767
    26  O    0.000211   0.000022   0.000000   0.000000  -0.001808   0.000064
    27  C   -0.003632  -0.002267   0.000044   0.000000  -0.004431   0.000425
    28  O    0.000000   0.000020   0.000000   0.000000   0.000388  -0.000002
    29  H    0.000000   0.000000   0.000000   0.000000   0.000013   0.000000
              7          8          9         10         11         12
     1  C    0.029196   0.236583   0.045122  -0.000897  -1.654304   0.098148
     2  C   -0.111878  -0.378553  -0.002923   0.001960   0.533268  -0.110729
     3  O    0.020851  -0.016807   0.000082   0.000000   0.057864  -0.002786
     4  H   -0.001103  -0.000807   0.000001   0.000000   0.008611   0.000290
     5  C    0.109255   0.491478  -0.007425   0.000650   0.054405   0.158562
     6  O    0.181556  -0.004767  -0.000014   0.000000   0.031888   0.011780
     7  H    0.414235   0.001026   0.000001   0.000000  -0.004643  -0.000706
     8  C    0.001026   8.170887   0.125492  -0.065897  -1.722757   0.140451
     9  O    0.000001   0.125492   8.123977   0.205035  -0.056114   0.022419
    10  H    0.000000  -0.065897   0.205035   0.404483   0.049018  -0.001779
    11  C   -0.004643  -1.722757  -0.056114   0.049018   8.937176  -0.234438
    12  O   -0.000706   0.140451   0.022419  -0.001779  -0.234438   8.391213
    13  C   -0.010312  -0.684167  -0.000438   0.001496  -0.171013  -0.091866
    14  O   -0.000105  -0.007927  -0.001135  -0.000025   0.014637  -0.042234
    15  C    0.005558  -0.142272   0.011021   0.000105   0.004370  -0.101506
    16  C    0.000002   0.014066  -0.000884  -0.000688  -0.246784   0.053929
    17  O   -0.000002  -0.002005   0.001936  -0.000045  -0.005464   0.009713
    18  H    0.000000   0.000820   0.004259  -0.000079   0.002303   0.021106
    19  C   -0.000079  -0.002681  -0.001884   0.000103   0.003801  -0.004864
    20  O    0.000000   0.000120   0.000014  -0.000001   0.000330   0.000081
    21  H    0.000000  -0.000087  -0.000004   0.000000  -0.000045  -0.000014
    22  C   -0.001254  -0.004020  -0.000077  -0.000001  -0.028489   0.005359
    23  O   -0.000020   0.000021   0.000000   0.000000   0.000278  -0.000064
    24  H    0.000000   0.000000   0.000000   0.000000  -0.000041  -0.000003
    25  C   -0.000939  -0.005750  -0.000602   0.000000   0.119795  -0.035829
    26  O   -0.000001  -0.000124   0.000004   0.000000  -0.000787   0.000338
    27  C    0.000015  -0.002164   0.000274   0.000003  -0.000477   0.002495
    28  O    0.000000   0.000010   0.000000   0.000000   0.000030  -0.000004
    29  H    0.000000   0.000000   0.000000   0.000000   0.000000   0.000000
             13         14         15         16         17         18
     1  C    0.043001   0.001348   0.168084   0.010647   0.001166  -0.000407
     2  C    0.104534   0.038369  -0.108520  -0.008077   0.002580  -0.001552
     3  O   -0.008452  -0.001637  -0.002785  -0.000002  -0.000003   0.000001
     4  H    0.004226   0.000038   0.000367   0.000069   0.000000   0.000000
     5  C   -5.654111  -0.105478  -0.557596   0.300970  -0.007004   0.015223
     6  O   -0.079770   0.014084  -0.033591  -0.000083   0.000234  -0.000078
     7  H   -0.010312  -0.000105   0.005558   0.000002  -0.000002   0.000000
     8  C   -0.684167  -0.007927  -0.142272   0.014066  -0.002005   0.000820
     9  O   -0.000438  -0.001135   0.011021  -0.000884   0.001936   0.004259
    10  H    0.001496  -0.000025   0.000105  -0.000688  -0.000045  -0.000079
    11  C   -0.171013   0.014637   0.004370  -0.246784  -0.005464   0.002303
    12  O   -0.091866  -0.042234  -0.101506   0.053929   0.009713   0.021106
    13  C   13.217660   0.297942  -1.114524  -0.035139  -0.022154  -0.016792
    14  O    0.297942   8.074356   0.111704  -0.159340   0.002652   0.014637
    15  C   -1.114524   0.111704  18.431937  -4.392607  -0.170513  -0.056238
    16  C   -0.035139  -0.159340  -4.392607  12.231481   0.328458   0.016256
    17  O   -0.022154   0.002652  -0.170513   0.328458   8.227856   0.195897
    18  H   -0.016792   0.014637  -0.056238   0.016256   0.195897   0.355920
    19  C   -0.289808   0.039584  -0.824804  -1.664857  -0.134974   0.028286
    20  O    0.002302  -0.000185  -0.060600  -0.039167  -0.000977   0.000986
    21  H    0.005137  -0.000035   0.052866  -0.097520   0.030267  -0.000980
    22  C   -0.574452   0.010333   1.782862  -0.445792  -0.000742  -0.001615
    23  O    0.025234  -0.002521  -0.081478  -0.010187   0.000174   0.000002
    24  H   -0.005722  -0.000474   0.073419   0.006586   0.000004   0.000000
    25  C    0.468568  -0.026256  -8.014525  -0.197451   0.013614   0.013948
    26  O   -0.046447   0.005697  -0.077450  -0.127434   0.003152   0.000074
    27  C    0.069444  -0.008576   0.570545   0.125812   0.044140  -0.003501
    28  O    0.004372   0.000358   0.014906   0.083277  -0.001235   0.000049
    29  H    0.000476   0.000010   0.011554  -0.011122   0.000025   0.000000
             19         20         21         22         23         24
     1  C    0.009562   0.000038  -0.000016   0.016417  -0.000107   0.000012
     2  C   -0.005273   0.000019   0.000001  -0.008279  -0.000439  -0.000123
     3  O    0.000003   0.000000   0.000000  -0.001224   0.000005   0.000000
     4  H    0.000002   0.000000   0.000000  -0.000017   0.000000   0.000000
     5  C   -0.001259   0.000101   0.000355  -0.015313  -0.004166   0.002926
     6  O    0.000263  -0.000001   0.000000   0.029572  -0.000627   0.000081
     7  H   -0.000079   0.000000   0.000000  -0.001254  -0.000020   0.000000
     8  C   -0.002681   0.000120  -0.000087  -0.004020   0.000021   0.000000
     9  O   -0.001884   0.000014  -0.000004  -0.000077   0.000000   0.000000
    10  H    0.000103  -0.000001   0.000000  -0.000001   0.000000   0.000000
    11  C    0.003801   0.000330  -0.000045  -0.028489   0.000278  -0.000041
    12  O   -0.004864   0.000081  -0.000014   0.005359  -0.000064  -0.000003
    13  C   -0.289808   0.002302   0.005137  -0.574452   0.025234  -0.005722
    14  O    0.039584  -0.000185  -0.000035   0.010333  -0.002521  -0.000474
    15  C   -0.824804  -0.060600   0.052866   1.782862  -0.081478   0.073419
    16  C   -1.664857  -0.039167  -0.097520  -0.445792  -0.010187   0.006586
    17  O   -0.134974  -0.000977   0.030267  -0.000742   0.000174   0.000004
    18  H    0.028286   0.000986  -0.000980  -0.001615   0.000002   0.000000
    19  C    9.805880   0.418959  -0.006037   0.651783  -0.021993   0.000639
    20  O    0.418959   8.060957   0.209849  -0.008502   0.000030   0.000000
    21  H   -0.006037   0.209849   0.397599   0.000749   0.000000   0.000000
    22  C    0.651783  -0.008502   0.000749  10.491085  -0.106797   0.088431
    23  O   -0.021993   0.000030   0.000000  -0.106797   8.129941   0.223973
    24  H    0.000639   0.000000   0.000000   0.088431   0.223973   0.405411
    25  C    0.792905   0.050540  -0.018042  -5.061629   0.236147  -0.157214
    26  O   -0.001362   0.006349  -0.000255   0.185693  -0.000729   0.000411
    27  C   -2.572329  -0.245327   0.050915  -0.883061   0.029748  -0.006449
    28  O   -0.149318   0.007965  -0.000848   0.009190  -0.000464   0.000029
    29  H    0.051078  -0.001262   0.000022   0.003768  -0.000019   0.000001
             25         26         27         28         29
     1  C   -0.033034   0.000211  -0.003632   0.000000   0.000000
     2  C   -0.001057   0.000022  -0.002267   0.000020   0.000000
     3  O    0.002088   0.000000   0.000044   0.000000   0.000000
     4  H   -0.000009   0.000000   0.000000   0.000000   0.000000
     5  C   -1.087583  -0.001808  -0.004431   0.000388   0.000013
     6  O   -0.024767   0.000064   0.000425  -0.000002   0.000000
     7  H   -0.000939  -0.000001   0.000015   0.000000   0.000000
     8  C   -0.005750  -0.000124  -0.002164   0.000010   0.000000
     9  O   -0.000602   0.000004   0.000274   0.000000   0.000000
    10  H    0.000000   0.000000   0.000003   0.000000   0.000000
    11  C    0.119795  -0.000787  -0.000477   0.000030   0.000000
    12  O   -0.035829   0.000338   0.002495  -0.000004   0.000000
    13  C    0.468568  -0.046447   0.069444   0.004372   0.000476
    14  O   -0.026256   0.005697  -0.008576   0.000358   0.000010
    15  C   -8.014525  -0.077450   0.570545   0.014906   0.011554
    16  C   -0.197451  -0.127434   0.125812   0.083277  -0.011122
    17  O    0.013614   0.003152   0.044140  -0.001235   0.000025
    18  H    0.013948   0.000074  -0.003501   0.000049   0.000000
    19  C    0.792905  -0.001362  -2.572329  -0.149318   0.051078
    20  O    0.050540   0.006349  -0.245327   0.007965  -0.001262
    21  H   -0.018042  -0.000255   0.050915  -0.000848   0.000022
    22  C   -5.061629   0.185693  -0.883061   0.009190   0.003768
    23  O    0.236147  -0.000729   0.029748  -0.000464  -0.000019
    24  H   -0.157214   0.000411  -0.006449   0.000029   0.000001
    25  C   19.297269   0.181372  -0.311773  -0.058394  -0.008577
    26  O    0.181372   8.303130  -0.138047  -0.055185  -0.001550
    27  C   -0.311773  -0.138047   8.779937   0.255850  -0.041726
    28  O   -0.058394  -0.055185   0.255850   8.146735   0.226653
    29  H   -0.008577  -0.001550  -0.041726   0.226653   0.413091
 Mulliken atomic charges:
              1
     1  C   -0.128569
     2  C    0.407296
     3  O   -0.497627
     4  H    0.366338
     5  C   -0.377617
     6  O   -0.376417
     7  H    0.369349
     8  C   -0.140172
     9  O   -0.468136
    10  H    0.406558
    11  C    0.307577
    12  O   -0.289064
    13  C    0.560777
    14  O   -0.269821
    15  C    0.499713
    16  C    0.265579
    17  O   -0.516750
    18  H    0.411476
    19  C   -0.121325
    20  O   -0.402617
    21  H    0.376121
    22  C   -0.133977
    23  O   -0.415941
    24  H    0.368104
    25  C   -0.132816
    26  O   -0.235337
    27  C    0.294113
    28  O   -0.484381
    29  H    0.357564
 Sum of Mulliken atomic charges =   0.00000
 Mulliken charges with hydrogens summed into heavy atoms:
              1
     1  C   -0.128569
     2  C    0.407296
     3  O   -0.131289
     5  C   -0.377617
     6  O   -0.007068
     8  C   -0.140172
     9  O   -0.061577
    11  C    0.307577
    12  O   -0.289064
    13  C    0.560777
    14  O   -0.269821
    15  C    0.499713
    16  C    0.265579
    17  O   -0.105274
    19  C   -0.121325
    20  O   -0.026496
    22  C   -0.133977
    23  O   -0.047837
    25  C   -0.132816
    26  O   -0.235337
    27  C    0.294113
    28  O   -0.126816
 Sum of Mulliken charges with hydrogens summed into heavy atoms =   0.00000
          Atomic-Atomic Spin Densities.
              1          2          3          4          5          6
     1  C   -1.171736  -0.083045   0.044333  -0.007086   0.307456   0.006193
     2  C   -0.083045   0.968249  -0.094833  -0.012841   0.214047  -0.004809
     3  O    0.044333  -0.094833   0.084422   0.007728   0.014130   0.000245
     4  H   -0.007086  -0.012841   0.007728   0.000437  -0.000434   0.000166
     5  C    0.307456   0.214047   0.014130  -0.000434  -1.768263   0.063095
     6  O    0.006193  -0.004809   0.000245   0.000166   0.063095  -0.115607
     7  H    0.004166  -0.000409  -0.001154   0.000007  -0.004680  -0.002321
     8  C    0.248863   0.011337   0.001911  -0.000209  -0.231019   0.001510
     9  O    0.003578   0.000361   0.000002   0.000000   0.000727  -0.000004
    10  H   -0.000206  -0.000029   0.000000   0.000000   0.000388   0.000000
    11  C   -0.258197  -0.105320  -0.000223   0.003834  -0.205857  -0.000754
    12  O   -0.005517   0.007396   0.002096  -0.000014  -0.031922   0.001595
    13  C   -0.248672  -0.336651  -0.005033   0.003302   1.006759  -0.009198
    14  O   -0.001863   0.004317  -0.000245  -0.000021   0.057379  -0.000764
    15  C   -0.031341  -0.021093   0.000147  -0.000040   0.091572  -0.003603
    16  C    0.012403   0.017436  -0.000028   0.000001  -0.010639   0.000248
    17  O   -0.000888   0.000394  -0.000004   0.000000   0.006372  -0.000026
    18  H    0.001574  -0.000281  -0.000001   0.000000  -0.003912  -0.000002
    19  C   -0.001827   0.000719   0.000024   0.000000   0.004406  -0.000171
    20  O   -0.000009  -0.000013   0.000000   0.000000  -0.000019   0.000000
    21  H    0.000010   0.000000   0.000000   0.000000   0.000026   0.000000
    22  C   -0.005356   0.018449  -0.000091  -0.000010  -0.066619  -0.002335
    23  O    0.000059   0.000051   0.000000   0.000000   0.004283  -0.000084
    24  H   -0.000005   0.000037   0.000000   0.000000  -0.000463  -0.000015
    25  C   -0.000962  -0.050594  -0.000024   0.000013   0.146426   0.003665
    26  O   -0.000023  -0.000084   0.000000   0.000000  -0.001312   0.000021
    27  C   -0.000694  -0.005726   0.000015   0.000000  -0.015804   0.000268
    28  O    0.000003   0.000014   0.000000   0.000000   0.000000   0.000000
    29  H    0.000000   0.000000   0.000000   0.000000   0.000007   0.000000
              7          8          9         10         11         12
     1  C    0.004166   0.248863   0.003578  -0.000206  -0.258197  -0.005517
     2  C   -0.000409   0.011337   0.000361  -0.000029  -0.105320   0.007396
     3  O   -0.001154   0.001911   0.000002   0.000000  -0.000223   0.002096
     4  H    0.000007  -0.000209   0.000000   0.000000   0.003834  -0.000014
     5  C   -0.004680  -0.231019   0.000727   0.000388  -0.205857  -0.031922
     6  O   -0.002321   0.001510  -0.000004   0.000000  -0.000754   0.001595
     7  H    0.002785  -0.000031   0.000000   0.000000  -0.001424   0.000018
     8  C   -0.000031  -0.366663  -0.034709   0.010253   0.202436   0.008029
     9  O    0.000000  -0.034709   0.055947   0.000730  -0.002847   0.001238
    10  H    0.000000   0.010253   0.000730  -0.000699  -0.010114   0.000186
    11  C   -0.001424   0.202436  -0.002847  -0.010114   0.468334  -0.016829
    12  O    0.000018   0.008029   0.001238   0.000186  -0.016829   0.093241
    13  C    0.004287   0.272823  -0.003545  -0.000850   0.199062  -0.044763
    14  O    0.000137   0.001420  -0.000017   0.000008   0.000637   0.007150
    15  C    0.000261   0.027266  -0.001654   0.000065   0.029022  -0.039354
    16  C   -0.000160   0.001862   0.001988  -0.000208   0.000360   0.024249
    17  O    0.000000   0.000980  -0.000661   0.000060   0.001420  -0.000574
    18  H    0.000000  -0.001592   0.000430   0.000000   0.000421  -0.000923
    19  C   -0.000007   0.005682   0.000268  -0.000019   0.005922   0.001326
    20  O    0.000000  -0.000062  -0.000003   0.000000  -0.000087  -0.000002
    21  H    0.000000  -0.000009  -0.000002   0.000000  -0.000003  -0.000006
    22  C    0.000598   0.001130  -0.000035   0.000000   0.015380  -0.000571
    23  O   -0.000013  -0.000003   0.000000   0.000000  -0.000198  -0.000010
    24  H    0.000000   0.000000   0.000000   0.000000   0.000014   0.000000
    25  C    0.000348   0.000586   0.000123   0.000001  -0.013362   0.002840
    26  O    0.000000   0.000031   0.000000   0.000000   0.000192  -0.000081
    27  C    0.000005  -0.000488   0.000192   0.000000   0.000317   0.000386
    28  O    0.000000  -0.000002   0.000000   0.000000   0.000004  -0.000005
    29  H    0.000000   0.000000   0.000000   0.000000   0.000000   0.000000
             13         14         15         16         17         18
     1  C   -0.248672  -0.001863  -0.031341   0.012403  -0.000888   0.001574
     2  C   -0.336651   0.004317  -0.021093   0.017436   0.000394  -0.000281
     3  O   -0.005033  -0.000245   0.000147  -0.000028  -0.000004  -0.000001
     4  H    0.003302  -0.000021  -0.000040   0.000001   0.000000   0.000000
     5  C    1.006759   0.057379   0.091572  -0.010639   0.006372  -0.003912
     6  O   -0.009198  -0.000764  -0.003603   0.000248  -0.000026  -0.000002
     7  H    0.004287   0.000137   0.000261  -0.000160   0.000000   0.000000
     8  C    0.272823   0.001420   0.027266   0.001862   0.000980  -0.001592
     9  O   -0.003545  -0.000017  -0.001654   0.001988  -0.000661   0.000430
    10  H   -0.000850   0.000008   0.000065  -0.000208   0.000060   0.000000
    11  C    0.199062   0.000637   0.029022   0.000360   0.001420   0.000421
    12  O   -0.044763   0.007150  -0.039354   0.024249  -0.000574  -0.000923
    13  C   -0.070382  -0.103785  -0.033387   0.147746   0.000470  -0.003903
    14  O   -0.103785  -0.003532   0.069810  -0.023075  -0.001763   0.000527
    15  C   -0.033387   0.069810  -0.490808  -0.311153   0.009506   0.011074
    16  C    0.147746  -0.023075  -0.311153   1.289014  -0.077570  -0.013887
    17  O    0.000470  -0.001763   0.009506  -0.077570   0.090514   0.002497
    18  H   -0.003903   0.000527   0.011074  -0.013887   0.002497  -0.001285
    19  C    0.065275  -0.002449   0.075631   0.188015   0.014860   0.000063
    20  O   -0.000843   0.000003  -0.000975  -0.002518  -0.000145  -0.000013
    21  H    0.000052   0.000015  -0.000378   0.000558  -0.000765  -0.000002
    22  C    0.181888  -0.004026  -0.456592  -0.017120  -0.002930  -0.000330
    23  O   -0.009530  -0.000470   0.053971   0.001117   0.000025   0.000000
    24  H    0.002629   0.000011  -0.014875   0.001012  -0.000001   0.000000
    25  C   -0.353172   0.005162   0.609238  -0.252509   0.007367   0.003160
    26  O   -0.005615  -0.000834   0.015319  -0.036914   0.000080   0.000034
    27  C   -0.073187   0.002809  -0.122686  -0.557717  -0.000580   0.002938
    28  O    0.000264   0.000049  -0.003194   0.008039  -0.000230  -0.000010
    29  H    0.000066   0.000001   0.002225   0.004681  -0.000012   0.000000
             19         20         21         22         23         24
     1  C   -0.001827  -0.000009   0.000010  -0.005356   0.000059  -0.000005
     2  C    0.000719  -0.000013   0.000000   0.018449   0.000051   0.000037
     3  O    0.000024   0.000000   0.000000  -0.000091   0.000000   0.000000
     4  H    0.000000   0.000000   0.000000  -0.000010   0.000000   0.000000
     5  C    0.004406  -0.000019   0.000026  -0.066619   0.004283  -0.000463
     6  O   -0.000171   0.000000   0.000000  -0.002335  -0.000084  -0.000015
     7  H   -0.000007   0.000000   0.000000   0.000598  -0.000013   0.000000
     8  C    0.005682  -0.000062  -0.000009   0.001130  -0.000003   0.000000
     9  O    0.000268  -0.000003  -0.000002  -0.000035   0.000000   0.000000
    10  H   -0.000019   0.000000   0.000000   0.000000   0.000000   0.000000
    11  C    0.005922  -0.000087  -0.000003   0.015380  -0.000198   0.000014
    12  O    0.001326  -0.000002  -0.000006  -0.000571  -0.000010   0.000000
    13  C    0.065275  -0.000843   0.000052   0.181888  -0.009530   0.002629
    14  O   -0.002449   0.000003   0.000015  -0.004026  -0.000470   0.000011
    15  C    0.075631  -0.000975  -0.000378  -0.456592   0.053971  -0.014875
    16  C    0.188015  -0.002518   0.000558  -0.017120   0.001117   0.001012
    17  O    0.014860  -0.000145  -0.000765  -0.002930   0.000025  -0.000001
    18  H    0.000063  -0.000013  -0.000002  -0.000330   0.000000   0.000000
    19  C   -0.920429   0.065707   0.005144  -0.212294   0.003942  -0.000867
    20  O    0.065707  -0.117783  -0.000099   0.002509  -0.000010   0.000000
    21  H    0.005144  -0.000099   0.001893   0.000122   0.000000   0.000000
    22  C   -0.212294   0.002509   0.000122  -0.632764   0.060450  -0.056669
    23  O    0.003942  -0.000010   0.000000   0.060450   0.163026   0.018162
    24  H   -0.000867   0.000000   0.000000  -0.056669   0.018162  -0.033715
    25  C    0.131720  -0.003138  -0.000061   1.409387  -0.165493   0.060812
    26  O   -0.010376   0.000018   0.000048  -0.008643   0.003327  -0.000884
    27  C    0.078621  -0.001236  -0.004662   0.099950  -0.005128   0.001000
    28  O    0.028989  -0.001037   0.000162   0.003812   0.000072  -0.000015
    29  H    0.003196  -0.000071   0.000004   0.000165  -0.000019   0.000000
             25         26         27         28         29
     1  C   -0.000962  -0.000023  -0.000694   0.000003   0.000000
     2  C   -0.050594  -0.000084  -0.005726   0.000014   0.000000
     3  O   -0.000024   0.000000   0.000015   0.000000   0.000000
     4  H    0.000013   0.000000   0.000000   0.000000   0.000000
     5  C    0.146426  -0.001312  -0.015804   0.000000   0.000007
     6  O    0.003665   0.000021   0.000268   0.000000   0.000000
     7  H    0.000348   0.000000   0.000005   0.000000   0.000000
     8  C    0.000586   0.000031  -0.000488  -0.000002   0.000000
     9  O    0.000123   0.000000   0.000192   0.000000   0.000000
    10  H    0.000001   0.000000   0.000000   0.000000   0.000000
    11  C   -0.013362   0.000192   0.000317   0.000004   0.000000
    12  O    0.002840  -0.000081   0.000386  -0.000005   0.000000
    13  C   -0.353172  -0.005615  -0.073187   0.000264   0.000066
    14  O    0.005162  -0.000834   0.002809   0.000049   0.000001
    15  C    0.609238   0.015319  -0.122686  -0.003194   0.002225
    16  C   -0.252509  -0.036914  -0.557717   0.008039   0.004681
    17  O    0.007367   0.000080  -0.000580  -0.000230  -0.000012
    18  H    0.003160   0.000034   0.002938  -0.000010   0.000000
    19  C    0.131720  -0.010376   0.078621   0.028989   0.003196
    20  O   -0.003138   0.000018  -0.001236  -0.001037  -0.000071
    21  H   -0.000061   0.000048  -0.004662   0.000162   0.000004
    22  C    1.409387  -0.008643   0.099950   0.003812   0.000165
    23  O   -0.165493   0.003327  -0.005128   0.000072  -0.000019
    24  H    0.060812  -0.000884   0.001000  -0.000015   0.000000
    25  C   -1.255058  -0.024864   0.097955   0.002676   0.000876
    26  O   -0.024864   0.264057  -0.103078   0.007721   0.002544
    27  C    0.097955  -0.103078   1.419481  -0.093013  -0.028257
    28  O    0.002676   0.007721  -0.093013   0.083247   0.002613
    29  H    0.000876   0.002544  -0.028257   0.002613   0.012297
 Mulliken atomic spin densities:
              1
     1  C   -1.188790
     2  C    0.527081
     3  O    0.053417
     4  H   -0.005169
     5  C   -0.423870
     6  O   -0.062686
     7  H    0.002414
     8  C    0.161331
     9  O    0.022107
    10  H   -0.000435
    11  C    0.312138
    12  O    0.009180
    13  C    0.582109
    14  O    0.006591
    15  C   -0.536026
    16  C    0.395232
    17  O    0.048396
    18  H   -0.003425
    19  C   -0.468929
    20  O   -0.059824
    21  H    0.002048
    22  C    0.327454
    23  O    0.127526
    24  H   -0.023830
    25  C    0.363119
    26  O    0.100683
    27  C    0.691681
    28  O    0.040159
    29  H    0.000317
 Sum of Mulliken atomic spin densities =   1.00000
 APT atomic charges:
              1
     1  C   -0.580569
     2  C    0.580556
     3  O   -0.598699
     4  H    0.298964
     5  C    0.361789
     6  O   -0.543588
     7  H    0.302378
     8  C    0.245009
     9  O   -0.561363
    10  H    0.351399
    11  C    0.371288
    12  O   -0.431878
    13  C    0.615603
    14  O   -0.911341
    15  C    0.574263
    16  C    0.255837
    17  O   -0.670918
    18  H    0.352174
    19  C    0.451753
    20  O   -0.660990
    21  H    0.309412
    22  C    0.388008
    23  O   -0.753482
    24  H    0.295805
    25  C    0.183918
    26  O   -0.472773
    27  C    0.621185
    28  O   -0.692082
    29  H    0.318341
 Sum of APT charges=   0.00000
 APT Atomic charges with hydrogens summed into heavy atoms:
              1
     1  C   -0.580569
     2  C    0.580556
     3  O   -0.299735
     4  H    0.000000
     5  C    0.361789
     6  O   -0.241210
     7  H    0.000000
     8  C    0.245009
     9  O   -0.209964
    10  H    0.000000
    11  C    0.371288
    12  O   -0.431878
    13  C    0.615603
    14  O   -0.911341
    15  C    0.574263
    16  C    0.255837
    17  O   -0.318745
    18  H    0.000000
    19  C    0.451753
    20  O   -0.351579
    21  H    0.000000
    22  C    0.388008
    23  O   -0.457676
    24  H    0.000000
    25  C    0.183918
    26  O   -0.472773
    27  C    0.621185
    28  O   -0.373741
    29  H    0.000000
 Sum of APT charges=   0.00000
 Electronic spatial extent (au):  <R**2>=           7667.4934
 Charge=              0.0000 electrons
 Dipole moment (field-independent basis, Debye):
    X=             -4.0930    Y=              0.3108    Z=              1.8048  Tot=              4.4840
 Quadrupole moment (field-independent basis, Debye-Ang):
   XX=           -112.6005   YY=           -108.7806   ZZ=           -128.1283
   XY=             -5.1576   XZ=             17.1720   YZ=             -2.1991
 Traceless Quadrupole moment (field-independent basis, Debye-Ang):
   XX=              3.9026   YY=              7.7225   ZZ=            -11.6251
   XY=             -5.1576   XZ=             17.1720   YZ=             -2.1991
 Octapole moment (field-independent basis, Debye-Ang**2):
  XXX=            -10.0458  YYY=             66.6517  ZZZ=              3.4978  XYY=            -62.6826
  XXY=            -78.1702  XXZ=             18.9233  XZZ=             10.8654  YZZ=             -6.8971
  YYZ=             37.2306  XYZ=            -38.8334
 Hexadecapole moment (field-independent basis, Debye-Ang**3):
 XXXX=          -5793.0855 YYYY=          -2348.0557 ZZZZ=           -203.6893 XXXY=            127.0936
 XXXZ=            403.2434 YYYX=           -235.3215 YYYZ=            -46.2473 ZZZX=            -17.4688
 ZZZY=             -6.0831 XXYY=          -1485.3361 XXZZ=          -1163.1295 YYZZ=           -520.4393
 XXYZ=             25.4014 YYXZ=             91.7366 ZZXY=             -3.9561
 N-N= 1.744738601451D+03 E-N=-9.478155243704D+03  KE= 1.798841313322D+03
  Exact polarizability: 318.534   3.059 336.987   6.504   4.647 115.962
 Approx polarizability: 425.301  30.709 569.489  10.330  14.197 217.151
                          Isotropic Fermi Contact Couplings
        Atom                 a.u.       MegaHertz       Gauss      10(-4) cm-1
     1  C(13)             -0.36424    -409.47102    -146.10944    -136.58483
     2  C(13)              0.16674     187.44646      66.88556      62.52541
     3  O(17)             -0.00857       5.19289       1.85295       1.73216
     4  H(1)               0.00080       3.57077       1.27414       1.19108
     5  C(13)             -0.14455    -162.49853     -57.98351     -54.20367
     6  O(17)             -0.00632       3.83171       1.36725       1.27812
     7  H(1)               0.00072       3.19599       1.14041       1.06607
     8  C(13)              0.05216      58.63840      20.92364      19.55966
     9  O(17)              0.01017      -6.16347      -2.19928      -2.05591
    10  H(1)               0.00019       0.84497       0.30151       0.28185
    11  C(13)              0.08531      95.90176      34.22013      31.98938
    12  O(17)              0.01860     -11.27492      -4.02317      -3.76091
    13  C(13)              0.19925     223.99985      79.92871      74.71831
    14  O(17)             -0.00138       0.83673       0.29857       0.27910
    15  C(13)             -0.16552    -186.08145     -66.39848     -62.07009
[...]
 81,0.00091441,-0.00152046,0.00217780,-0.00112373,-0.00036594,-0.002272
 90,0.00061087,0.00016066,0.00030447,0.00010411,-0.06409876,-0.04484251
 ,-0.03019367,0.44018284,-0.00004478,0.00044614,-0.00082579,-0.00082482
 ,-0.00037914,0.00068858,0.00063001,0.00006069,-0.00050197,-0.00005037,
 -0.00017545,0.00011549,-0.00052864,-0.00104764,-0.00057527,0.00028931,
 0.00156085,0.00043324,-0.00019519,-0.00038603,-0.00014394,0.00003938,-
 0.00050660,-0.00006357,-0.00009578,0.00011272,-0.00007178,0.00005232,0
 .00007403,0.00001391,0.00081283,0.00058529,0.00080674,-0.00086368,0.00
 018209,-0.00101912,0.00236655,-0.00115301,0.00230407,0.00064975,0.0005
 3879,-0.00343599,-0.00479486,0.00042545,0.01088347,0.00088646,-0.00122
 051,0.00041219,-0.00270583,-0.00222153,-0.00286726,-0.00021620,-0.0000
 9105,0.00115187,0.00064068,0.00257335,-0.00222913,-0.00070891,-0.00145
 543,0.00070585,0.00022883,0.00037072,-0.00005030,-0.00609669,-0.092178
 29,-0.03460033,-0.04557745,0.17417599,-0.00009279,0.00059005,-0.001094
 66,-0.00105745,-0.00050747,0.00084858,0.00080890,0.00003643,-0.0006521
 2,-0.00006150,-0.00022346,0.00015641,-0.00073943,-0.00126419,-0.000609
 06,0.00023848,0.00186185,0.00052946,-0.00017553,-0.00039615,-0.0000975
 4,0.00009108,-0.00063984,-0.00020806,-0.00015358,0.00009754,0.00000237
 ,0.00006925,0.00012085,0.00001290,0.00114371,0.00079474,0.00110327,-0.
 00118258,0.00025533,-0.00120059,0.00319918,-0.00115092,0.00344572,0.00
 155630,-0.00061006,-0.00457967,-0.00912512,0.00300484,0.00033080,0.005
 23344,-0.00175361,0.00345721,-0.00283190,-0.00083291,-0.00318521,-0.00
 019275,-0.00012034,0.00131093,-0.00195386,0.00467957,-0.00321952,-0.00
 071203,-0.00365656,0.00142896,0.00034623,0.00059441,0.00018585,-0.0309
 6594,-0.06694089,-0.08244669,0.10134330,0.05594623,0.10906111,0.000014
 69,-0.00009208,0.00017012,0.00017431,0.00008126,-0.00014986,-0.0001491
 5,-0.00000822,0.00010754,0.00001437,0.00002994,-0.00002532,0.00012699,
 0.00026328,0.00015649,-0.00008702,-0.00030051,-0.00012920,0.00006675,0
 .00004338,-0.00000006,0.00000363,0.00013102,0.00001296,0.00000415,-0.0
 0003955,0.00002123,-0.00000621,-0.00001653,-0.00000087,-0.00016908,-0.
 00013052,-0.00017583,0.00016742,-0.00006386,0.00021022,-0.00049168,0.0
 0026093,-0.00053556,-0.00037912,0.00008293,0.00096061,0.00153097,-0.00
 091382,-0.00133350,-0.00041391,0.00012031,-0.00049219,0.00047218,0.000
 39644,0.00068449,0.00007088,0.00001631,-0.00023731,-0.00007599,-0.0006
 1058,0.00046324,0.00017439,0.00045598,-0.00015780,-0.00003231,-0.00009
 472,-0.00001999,-0.00957650,-0.00072006,-0.00710887,-0.37654697,0.0648
 0339,-0.07499483,0.38439615,-0.00000618,-0.00006386,0.00009263,0.00010
 200,0.00002124,-0.00008905,-0.00007842,-0.00001969,0.00005391,0.000005
 43,0.00002366,-0.00001143,0.00007393,0.00034259,0.00012815,-0.00001655
 ,-0.00034849,-0.00013402,0.00003625,0.00005822,0.00000132,0.00000186,0
 .00005867,-0.00003228,0.00000858,-0.00002806,0.00003486,-0.00000710,0.
 00000349,-0.00000719,-0.00007960,-0.00007515,-0.00007232,0.00011525,-0
 .00003519,0.00010182,-0.00037457,0.00015953,-0.00036855,-0.00032174,-0
 .00000918,0.00064199,0.00305003,0.00107639,0.00054909,-0.00016113,-0.0
 0137363,0.00000452,-0.00042016,0.00034844,-0.00004220,0.00002715,-0.00
 005627,-0.00000222,0.00003901,-0.00005993,-0.00007658,0.00013051,0.000
 40938,-0.00004643,-0.00000971,-0.00001993,-0.00006828,-0.02651916,0.00
 162953,-0.01034551,0.09066750,-0.04696158,0.00529156,-0.06658058,0.046
 46113,0.00002562,0.00004245,-0.00000997,-0.00003712,0.00008723,0.00004
 977,0.00004098,0.00002883,0.00001294,0.00000393,-0.00000169,-0.0000159
 1,-0.00011148,-0.00084665,-0.00028873,0.00009991,0.00074353,0.00030485
 ,-0.00005768,-0.00005014,-0.00003365,-0.00006558,-0.00009185,0.0001997
 0,0.00005891,0.00010535,-0.00016003,-0.00000578,-0.00004368,0.00001029
 ,-0.00004870,0.00004712,-0.00002810,0.00003356,0.00013060,-0.00001171,
 0.00034071,-0.00017797,0.00036167,0.00070838,0.00000445,-0.00053808,-0
 .00352815,-0.00305535,-0.00286334,0.00067493,0.00173535,-0.00056779,0.
 00048677,-0.00014671,0.00042482,-0.00000496,0.00005413,0.00001920,-0.0
 0071571,0.00000241,0.00043267,-0.00000959,-0.00063092,0.00003529,-0.00
 000886,0.00000327,0.00011191,-0.01642790,-0.01367013,-0.00792935,-0.06
 099523,0.00193426,-0.02545238,0.07983615,0.00498669,0.03704084,0.00013
 698,-0.00038422,0.00054433,0.00045289,0.00016887,-0.00039770,-0.000360
 18,-0.00000547,0.00023774,0.00000800,0.00010816,-0.00004071,0.00067467
 ,0.00172068,0.00098801,0.00001469,-0.00168975,-0.00073719,0.00002330,0
 .00012994,-0.00009025,-0.00022310,0.00002788,0.00030420,0.00021105,0.0
 0010535,-0.00031185,-0.00001586,-0.00004804,-0.00000096,-0.00031388,-0
 .00018289,0.00006215,0.00138993,0.00068307,0.00122418,-0.00437619,0.00
 242833,-0.00302984,0.00515458,0.00817591,0.02237900,-0.06575969,-0.021
 84046,-0.01162651,-0.00181006,-0.01967315,-0.00153458,-0.00571035,-0.0
 0304472,-0.00628547,-0.00062068,-0.00052167,0.00136068,0.00145628,0.00
 202844,-0.00848226,0.00100367,0.00515312,0.00095692,0.00042626,0.00032
 916,-0.00101849,-0.05894609,-0.02458126,-0.02713714,0.00419223,-0.0110
 1495,0.01163419,0.00143840,0.00078967,0.00062266,0.18773088,0.00010371
 ,-0.00027039,0.00032646,0.00034875,-0.00000182,-0.00018682,-0.00025041
 ,0.00002939,0.00017666,-0.00000792,0.00006454,-0.00002484,0.00044439,0
 .00148945,0.00092147,0.00014484,-0.00120984,-0.00071882,-0.00000732,0.
 00002654,-0.00016330,-0.00025228,-0.00016532,0.00038925,0.00022596,0.0
 0020083,-0.00041403,-0.00001095,-0.00005544,0.00001119,-0.00020325,-0.
 00014147,0.00007625,0.00090353,0.00022381,0.00023261,-0.00308797,0.000
 37946,-0.00149551,0.00116289,0.00445602,0.00162122,-0.00824473,-0.0576
 5251,-0.00613676,-0.03071588,-0.04564562,-0.00853689,-0.00982070,-0.00
 103115,-0.00516478,-0.00021500,-0.00068227,0.00194570,0.00280814,0.000
 10899,-0.00906335,0.00095679,0.00430655,0.00013430,0.00017427,0.000179
 44,-0.00090300,-0.02224254,-0.03665086,-0.04902663,-0.00091435,-0.0363
 1984,0.00360269,0.00291919,-0.00230332,0.00873631,0.08778689,0.2487085
 7,0.00011185,0.00016210,-0.00010363,-0.00001543,0.00011112,0.00016075,
 0.00006426,0.00006229,0.00003593,0.00001243,-0.00001112,-0.00002831,-0
 .00035129,-0.00184915,-0.00110451,0.00002855,0.00137614,0.00080954,0.0
 0001068,0.00005811,0.00013093,-0.00021052,-0.00037489,0.00057309,0.000
 17053,0.00034881,-0.00051402,-0.00001425,-0.00013325,0.00005587,0.0000
 2848,0.00007188,0.00010373,-0.00056100,-0.00002728,-0.00139430,0.00100
 924,-0.00333345,-0.00038179,-0.00349252,-0.00526699,-0.03225897,-0.029
 56666,-0.03532621,-0.09761425,-0.00440840,-0.00400503,0.01671780,0.004
 16478,0.00563883,-0.00164169,-0.00032618,-0.00020479,-0.00047855,-0.00
 086462,-0.00511962,-0.00184248,-0.00150249,-0.00603497,-0.00093831,-0.
 00039271,-0.00021410,0.00119188,0.00217895,0.01709552,-0.04955790,-0.0
 0934285,-0.03188458,-0.00883189,0.00327064,-0.00140709,-0.00016627,-0.
 02170370,0.04731762,0.31532886,0.00007123,0.00002421,0.00005655,0.0000
 2251,0.00014539,0.00001310,-0.00000412,0.00005443,0.00010060,0.0000061
 0,0.00001199,-0.00003259,-0.00010443,-0.00115791,-0.00044648,-0.000018
 31,0.00093020,0.00043047,0.00000084,-0.00001122,0.00003277,-0.00019117
 ,-0.00021156,0.00055709,0.00019526,0.00030190,-0.00045805,-0.00002665,
 -0.00012020,0.00004455,-0.00025019,0.00005024,-0.00014876,0.00029628,0
 .00028144,0.00012081,0.00002275,-0.00031955,-0.00000392,0.00282677,-0.
 00134065,-0.00140496,0.00157143,-0.00246270,-0.00222553,-0.00936379,0.
 00451446,0.00456345,0.00320727,0.00009097,-0.00047406,-0.00021774,0.00
 002474,-0.00018648,-0.01520260,-0.03987770,-0.00343659,0.00125945,-0.0
 0390170,-0.00516940,-0.00038965,-0.00182171,0.00072854,0.00435619,-0.0
 0198444,0.02606537,-0.00475957,0.00000452,-0.00637406,-0.00000447,-0.0
 0059456,-0.00059657,-0.05693340,-0.00845221,0.04902018,0.11990449,0.00
 004734,-0.00001236,0.00000767,-0.00002853,0.00004213,0.00004327,0.0000
 2217,0.00004148,-0.00004550,0.00000295,-0.00000469,0.00000366,0.000047
 83,-0.00007472,-0.00022960,0.00001255,0.00010958,-0.00001826,-0.000015
 62,-0.00002616,-0.00000797,-0.00009234,-0.00012532,0.00018086,0.000086
 29,0.00013928,-0.00018604,-0.00001289,-0.00004095,0.00003987,-0.000056
 01,-0.00001251,-0.00001155,0.00012148,0.00006525,-0.00014496,-0.000183
 70,-0.00030220,-0.00141045,-0.00348507,0.00442583,-0.00172736,0.004942
 51,-0.00887038,-0.00350949,-0.00070430,0.00906721,-0.00137728,0.004054
 04,-0.00041485,0.00193869,-0.00001863,0.00027504,-0.00023323,-0.012358
 80,-0.03557613,0.01490222,-0.00407062,-0.00976586,-0.00671628,-0.00161
 065,-0.00109665,0.00212683,-0.01719392,-0.01624740,0.03037253,0.003600
 88,0.00407307,0.00426276,0.00007070,0.00161392,-0.00092239,-0.00011739
 ,-0.06500662,-0.01626989,0.07733206,0.25061398,-0.00020205,0.00023897,
 -0.00059544,-0.00039739,-0.00040596,0.00041063,0.00033338,-0.00007499,
 -0.00038392,-0.00002978,-0.00010704,0.00009642,-0.00034998,0.00080569,
 -0.00016514,0.00005215,-0.00023718,-0.00015798,-0.00004153,-0.00011199
 ,-0.00002480,0.00041319,0.00015475,-0.00099872,-0.00041274,-0.00044733
 ,0.00083170,0.00005515,0.00022368,-0.00007081,0.00067111,0.00016682,0.
 00037398,-0.00148690,-0.00090909,-0.00142257,0.00351666,-0.00176556,0.
 00310778,-0.00513543,-0.00520548,-0.00954735,0.02560172,0.00754234,-0.
 04178059,-0.00032014,-0.00055840,0.00119384,-0.00226592,-0.00027580,-0
 .00035238,0.00053781,-0.00007837,0.00000778,-0.00208734,-0.01008682,0.
 00854032,-0.00119839,0.00460392,-0.00173679,-0.00054859,-0.00064823,-0
 .00082441,0.01084616,0.01535909,-0.02795988,0.00139984,0.00207540,0.00
 734819,-0.00052464,0.00031450,-0.00032859,0.02318038,-0.01803080,-0.11
 436063,-0.09356359,-0.01186288,0.25705098,-0.00019371,0.00015162,-0.00
 050714,-0.00039178,-0.00036630,0.00034397,0.00032474,-0.00004579,-0.00
 042466,-0.00003366,-0.00009529,0.00010377,-0.00016896,0.00086046,0.000
 01837,-0.00002702,-0.00044768,-0.00029173,-0.00003181,-0.00011863,-0.0
 0001964,0.00034092,0.00012992,-0.00099209,-0.00032229,-0.00040747,0.00
 077301,0.00004049,0.00022999,-0.00003921,0.00069503,0.00021405,0.00039
 821,-0.00108021,-0.00060456,-0.00043606,0.00197212,0.00029408,0.002459
 73,-0.00106738,0.00106009,-0.00306458,-0.00382318,-0.01215191,0.001831
 69,0.02831650,0.01883341,-0.01218995,-0.00493018,-0.00121320,0.0099984
 5,0.00191829,0.00061727,0.00130472,-0.05825118,0.00097822,0.01396272,-
 0.01682391,-0.03086974,-0.00520609,-0.00088292,0.00076099,0.00399628,0
 .00023775,-0.00291836,-0.00993748,0.00268536,0.00411835,0.00760478,-0.
 00102250,0.00026828,-0.00064869,-0.00826351,-0.00811276,0.01231095,-0.
 03243513,-0.04550210,0.02355364,0.15890671,-0.00002776,-0.00011484,0.0
 0027754,0.00028785,0.00009213,-0.00020658,-0.00020605,-0.00005219,0.00
 016170,0.00001611,0.00005336,-0.00004378,0.00005039,0.00044812,0.00019
 621,-0.00000969,-0.00048531,-0.00013772,0.00002492,0.00008997,-0.00001
 190,0.00012071,0.00036999,-0.00022612,-0.00008276,-0.00019118,0.000301
 62,-0.00001760,0.00000248,-0.00002359,-0.00030670,-0.00030032,-0.00050
 935,-0.00018892,-0.00065729,0.00003191,0.00030080,-0.00029148,0.000193
 31,-0.00191321,-0.00347419,-0.00288467,0.01255997,0.01305957,-0.003893
 87,-0.00169069,0.00106099,-0.01415498,-0.00241142,0.00188111,0.0032252
 2,0.00045121,0.00050595,-0.00032199,-0.02540349,-0.08482588,-0.0214282
 3,-0.02407558,-0.01430018,-0.02112117,-0.00466594,-0.00340870,0.000863
 27,-0.00221645,0.00693179,-0.00477990,-0.00023377,-0.00178158,-0.00412
 898,0.00000429,-0.00092754,0.00114183,-0.02909093,-0.01157464,0.040517
 23,-0.00106301,-0.13362485,-0.01842701,0.07948149,0.29684763,0.0000832
 7,-0.00022071,0.00054472,0.00047150,0.00029780,-0.00042257,-0.00036184
 ,0.00002585,0.00033560,0.00003758,0.00010176,-0.00009906,0.00027042,-0
 .00027690,0.00012116,-0.00006937,-0.00012555,0.00000444,0.00004943,0.0
 0011756,-0.00000576,-0.00010728,0.00028074,0.00038950,0.00015596,0.000
 06816,-0.00020147,-0.00006347,-0.00014342,0.00001934,-0.00062160,-0.00
 035401,-0.00065923,0.00066437,-0.00000250,0.00083382,-0.00149230,0.001
 08272,-0.00090139,0.00079115,0.00065175,0.00348768,-0.00565792,-0.0097
 6356,-0.00378039,-0.00207109,-0.00145576,-0.05190978,0.00271056,0.0011
 9280,0.00186196,0.00011742,-0.00055465,-0.00150423,-0.02109517,-0.0306
 7393,-0.08246225,0.00250310,0.00575086,0.00796431,0.00067091,0.0035440
 7,0.00006865,0.00135306,-0.00448611,0.00248577,-0.00123403,-0.00081523
 ,-0.00029647,0.00027174,0.00045095,-0.00027259,0.01954269,0.03217142,-
 0.02763119,0.01127753,-0.03331173,-0.05008339,-0.06093502,0.07802819,0
 .37134597,0.00012174,-0.00021749,0.00052311,0.00043854,0.00029496,-0.0
 0036850,-0.00033877,0.00002316,0.00034933,0.00002789,0.00009776,-0.000
 08819,0.00027336,-0.00007092,0.00017652,-0.00001436,-0.00020231,-0.000
 02837,0.00003700,0.00012568,-0.00001468,-0.00020536,0.00007902,0.00056
 011,0.00022319,0.00020415,-0.00039938,-0.00004882,-0.00015325,0.000027
 06,-0.00063690,-0.00030417,-0.00050723,0.00079064,0.00015775,0.0005201
 7,-0.00176328,0.00020607,-0.00210050,-0.00089862,0.00032700,0.00283163
 ,0.00422359,0.00227862,0.00040474,-0.00771790,-0.00579336,0.00142452,0
 .00204085,0.00066836,-0.00181583,-0.00038154,-0.00028099,-0.00071552,0
 .00811356,-0.01274805,-0.02057857,0.00083994,0.00864004,-0.00298961,-0
 .00005612,-0.00035876,-0.00088015,0.00091037,0.00312631,0.00189599,-0.
 00136858,-0.00172533,-0.00237541,0.00028832,-0.00007697,0.00022314,-0.
 00063295,-0.00502711,0.00023561,-0.01265503,-0.00386042,0.01770567,-0.
 07891386,-0.00402549,0.03091209,0.35257068,-0.00002157,0.00011932,-0.0
 0027490,-0.00025733,-0.00013632,0.00019843,0.00018759,0.00001636,-0.00
 016682,-0.00001427,-0.00005391,0.00004507,-0.00010062,-0.00011450,-0.0
 0011001,0.00001762,0.00025024,0.00005179,-0.00001908,-0.00008082,0.000
 00247,0.00000803,-0.00017892,-0.00005890,-0.00003443,0.00003340,-0.000
 01789,0.00002484,0.00003458,0.00000940,0.00030405,0.00020214,0.0003413
 0,-0.00020256,0.00016213,-0.00026004,0.00052674,-0.00011636,0.00065843
 ,0.00093295,0.00042498,-0.00043556,-0.00344193,-0.00233157,0.00016259,
 -0.00179678,0.00175000,-0.00018632,0.00045062,-0.00020775,-0.00174372,
 -0.00016635,-0.00022868,0.00027501,0.00839271,0.00413403,-0.01139485,0
 .00044395,-0.00183140,0.00103788,0.00029786,0.00070027,-0.00003177,0.0
 0014653,-0.00124701,-0.00070547,0.00042246,0.00108916,0.00203755,-0.00
 008556,0.00016051,-0.00035584,0.00425703,-0.00084898,-0.00239103,-0.02
 108925,0.00081786,0.03792058,-0.00357823,-0.06198347,-0.03557254,0.045
 55090,0.05760172,-0.00014936,0.00034724,-0.00085267,-0.00071316,-0.000
 46001,0.00060845,0.00054336,-0.00002393,-0.00051605,-0.00005027,-0.000
 15286,0.00014157,-0.00038654,0.00009244,-0.00025568,0.00005859,0.00038
 117,0.00007186,-0.00006523,-0.00018667,0.00002202,0.00022412,-0.000294
 74,-0.00064050,-0.00027956,-0.00020812,0.00039607,0.00007771,0.0002202
 3,-0.00004800,0.00100657,0.00053919,0.00097570,-0.00097481,0.00013129,
 -0.00106001,0.00226188,-0.00082567,0.00224005,0.00062008,0.00000479,-0
 .00383755,-0.00287403,0.00076002,0.00132197,-0.00418054,-0.00368717,0.
 00244962,-0.00009001,-0.00125147,-0.00538787,-0.00082216,-0.00029457,0
 .00048865,0.01792326,-0.00356240,-0.04940674,-0.00103179,-0.00377906,0
 .00413072,0.00042094,0.00094133,0.00005633,-0.00055948,-0.00279305,-0.
 00398315,0.00158233,0.00214246,0.00324457,-0.00038523,0.00002180,-0.00
 037168,-0.00052299,0.00312521,0.00396248,0.02272722,0.02234652,-0.0289
 9785,0.03456999,-0.02561427,-0.14395972,0.20636304,0.04423785,0.526138
 50,-0.00000019,-0.00000107,0.00000715,0.00000832,0.00000263,-0.0000080
 0,-0.00000824,-0.00000080,0.00000434,0.00000210,-0.00000033,-0.0000008
 8,-0.00000092,0.00000913,0.00000714,-0.00000825,-0.00001160,-0.0000050
 0,0.00000594,0.00000027,0.00000106,0.00000521,0.00001036,-0.00001339,-
 0.00000717,-0.00000476,0.00001159,0.00000446,0.00000008,0.00000107,-0.
 00000668,-0.00000680,-0.00001018,-0.00001184,-0.00001693,0.00002073,0.
 00001931,0.00001425,0.00002030,0.00000971,-0.00006277,0.00001253,-0.00
 000414,0.00016023,-0.00022127,0.00072629,0.00030803,0.00042092,-0.0001
 0800,0.00009318,0.00047264,0.00007099,0.00007104,0.00005309,-0.0010987
 4,-0.00022611,0.00309811,0.00007155,0.00022296,-0.00006482,0.00000099,
 0.00005002,0.00001128,-0.00006093,0.00015564,0.00035158,-0.00007335,-0
 .00007890,-0.00028008,0.00001130,-0.00006899,0.00010635,-0.00034780,-0
 .00041396,0.00013550,-0.00118432,-0.00102982,0.00069758,0.01322530,0.0
 0433172,0.02182634,-0.26526757,-0.03115593,-0.27529390,0.25402666,-0.0
 0000103,-0.00003090,0.00005077,0.00006171,0.00002610,-0.00003442,-0.00
 004148,-0.00000878,0.00003351,0.00000196,0.00001349,-0.00000842,0.0000
 2052,0.00006659,0.00003081,-0.00000197,-0.00008818,-0.00002112,0.00000
 312,0.00002410,0.00000199,0.00000992,0.00004578,-0.00001582,-0.0000035
 9,-0.00003039,0.00002733,-0.00000570,0.00000600,-0.00001107,-0.0000445
 9,-0.00004088,-0.00004483,0.00004790,-0.00001371,0.00001077,-0.0001162
 0,0.00000432,-0.00014567,-0.00019731,-0.00005826,0.00009786,0.00080682
 ,0.00014884,0.00014577,-0.00109445,-0.00062574,-0.00092909,0.00005468,
 -0.00005940,-0.00055413,-0.00007840,-0.00007139,-0.00015599,0.00256967
 ,0.00104332,-0.00063478,0.00011865,0.00079403,-0.00027663,-0.00002152,
 0.00001581,-0.00004440,0.00001056,0.00075975,0.00065023,-0.00016865,-0
 .00039068,-0.00095101,-0.00002276,-0.00008487,0.00020951,-0.00169756,-
 0.00061349,0.00109379,0.00064184,-0.00008298,-0.00017280,-0.00156621,-
 0.00334946,-0.00600804,-0.02693517,0.00186298,-0.03215755,0.02764924,0
 .00073801,0.00004184,-0.00007806,0.00019401,0.00016610,0.00011083,-0.0
 0014623,-0.00012959,0.00000817,0.00012916,0.00001277,0.00003589,-0.000
 03437,0.00009309,-0.00003922,0.00005325,-0.00001055,-0.00006443,-0.000
 00826,0.00001688,0.00004426,-0.00000669,-0.00006078,0.00004986,0.00018
 191,0.00006715,0.00005837,-0.00012223,-0.00001481,-0.00005375,0.000005
 84,-0.00023626,-0.00012131,-0.00019264,0.00027760,0.00004468,0.0001974
 3,-0.00060052,0.00010679,-0.00067867,-0.00024723,0.00017680,0.00096095
 ,0.00112754,0.00031601,0.00014621,-0.00242633,-0.00167532,-0.00007276,
 0.00065093,0.00023812,-0.00043681,-0.00015154,-0.00009245,-0.00022089,
 0.00374723,-0.00153810,-0.00506274,0.00024557,0.00190017,-0.00011015,-
 0.00009684,-0.00011430,-0.00009191,0.00041488,0.00083315,0.00050389,-0
 .00046759,-0.00052949,-0.00059247,0.00010563,0.00002939,0.00003423,-0.
 00011747,-0.00092283,-0.00022215,-0.00121717,0.00175998,0.00082964,-0.
 01853797,-0.00702392,-0.02527342,-0.23129077,-0.03327272,-0.30693110,0
 .24863820,0.03981343,0.33696699\\0.05650325,-0.04465833,-0.08095300,-0
 .08777091,0.08526304,0.03617431,0.03029014,-0.03309628,0.03092598,-0.0
 1196852,0.00481955,-0.02475078,0.11566762,-0.05827936,-0.04510421,-0.0
 1880186,0.03429652,0.04211040,0.00119932,0.01328378,-0.01972957,0.0426
 6582,0.01541807,-0.03665977,-0.02950257,-0.03274866,0.03535481,-0.0094
 5213,-0.02816175,-0.00160912,-0.07460225,0.03369100,0.03646920,0.05004
 024,-0.00291257,-0.00898655,-0.09091473,0.02880058,0.02016940,0.044115
 74,-0.03893844,0.01924822,-0.07065309,0.07734950,-0.05259790,0.1188937
 8,-0.05007473,0.02581376,-0.04625330,0.00475978,0.01834054,0.00748158,
 0.00596727,-0.01951682,-0.10771344,0.04992661,-0.05385919,0.00292956,-
 0.04169275,0.05777241,-0.00128806,0.00182165,-0.02247674,-0.02096632,0
 .01694460,-0.05103175,-0.00583549,0.04188172,0.03332890,0.02418695,-0.
 00159767,-0.00000668,0.06048053,-0.06769549,0.03355589,-0.03813703,0.0
 1454801,-0.00492248,0.09441335,-0.03429109,0.00583687,-0.02856521,0.00
 825382,0.03332630,-0.00644299,-0.00287840,-0.00622244\\\@


 IN NATURE THERE ARE NEITHER REWARDS OR
 PUNISHMENTS -- THERE ARE CONSEQUENCES.

                            -- ROBERT GREEN INGERSOLL
 Job cpu time:  0 days 12 hours 17 minutes 31.9 seconds.
 File lengths (MBytes):  RWF=   1279 Int=      0 D2E=      0 Chk=     17 Scr=      1
 Normal termination of Gaussian 09 at Mon Oct  5 23:02:44 2015.
Gaussian '09 finished on node031 at Mon Oct  5 23:02:45 EDT 2015.
